 Entering Gaussian System, Link 0=g16
 Input=Nic5h3bLMidATS2_2.gjf
 Output=Nic5h3bLMidATS2_2.log
 Initial command:
 /sw/contrib/gaussian/g16/A03/g16/l1.exe "/gscratch/scrubbed/gds001/Gau-9081.inp" -scrdir="/gscratch/scrubbed/gds001/"
 Entering Link 1 = /sw/contrib/gaussian/g16/A03/g16/l1.exe PID=      9082.
  
 Copyright (c) 1988,1990,1992,1993,1995,1998,2003,2009,2016,
            Gaussian, Inc.  All Rights Reserved.
  
 This is part of the Gaussian(R) 16 program.  It is based on
 the Gaussian(R) 09 system (copyright 2009, Gaussian, Inc.),
 the Gaussian(R) 03 system (copyright 2003, Gaussian, Inc.),
 the Gaussian(R) 98 system (copyright 1998, Gaussian, Inc.),
 the Gaussian(R) 94 system (copyright 1995, Gaussian, Inc.),
 the Gaussian 92(TM) system (copyright 1992, Gaussian, Inc.),
 the Gaussian 90(TM) system (copyright 1990, Gaussian, Inc.),
 the Gaussian 88(TM) system (copyright 1988, Gaussian, Inc.),
 the Gaussian 86(TM) system (copyright 1986, Carnegie Mellon
 University), and the Gaussian 82(TM) system (copyright 1983,
 Carnegie Mellon University). Gaussian is a federally registered
 trademark of Gaussian, Inc.
  
 This software contains proprietary and confidential information,
 including trade secrets, belonging to Gaussian, Inc.
  
 This software is provided under written license and may be
 used, copied, transmitted, or stored only in accord with that
 written license.
  
 The following legend is applicable only to US Government
 contracts under FAR:
  
                    RESTRICTED RIGHTS LEGEND
  
 Use, reproduction and disclosure by the US Government is
 subject to restrictions as set forth in subparagraphs (a)
 and (c) of the Commercial Computer Software - Restricted
 Rights clause in FAR 52.227-19.
  
 Gaussian, Inc.
 340 Quinnipiac St., Bldg. 40, Wallingford CT 06492
  
  
 ---------------------------------------------------------------
 Warning -- This program may not be used in any manner that
 competes with the business of Gaussian, Inc. or will provide
 assistance to any competitor of Gaussian, Inc.  The licensee
 of this program is prohibited from giving any competitor of
 Gaussian, Inc. access to this program.  By using this program,
 the user acknowledges that Gaussian, Inc. is engaged in the
 business of creating and licensing software in the field of
 computational chemistry and represents and warrants to the
 licensee that it is not a competitor of Gaussian, Inc. and that
 it will not use this program in any manner prohibited above.
 ---------------------------------------------------------------
  

 Cite this work as:
 Gaussian 16, Revision A.03,
 M. J. Frisch, G. W. Trucks, H. B. Schlegel, G. E. Scuseria, 
 M. A. Robb, J. R. Cheeseman, G. Scalmani, V. Barone, 
 G. A. Petersson, H. Nakatsuji, X. Li, M. Caricato, A. V. Marenich, 
 J. Bloino, B. G. Janesko, R. Gomperts, B. Mennucci, H. P. Hratchian, 
 J. V. Ortiz, A. F. Izmaylov, J. L. Sonnenberg, D. Williams-Young, 
 F. Ding, F. Lipparini, F. Egidi, J. Goings, B. Peng, A. Petrone, 
 T. Henderson, D. Ranasinghe, V. G. Zakrzewski, J. Gao, N. Rega, 
 G. Zheng, W. Liang, M. Hada, M. Ehara, K. Toyota, R. Fukuda, 
 J. Hasegawa, M. Ishida, T. Nakajima, Y. Honda, O. Kitao, H. Nakai, 
 T. Vreven, K. Throssell, J. A. Montgomery, Jr., J. E. Peralta, 
 F. Ogliaro, M. J. Bearpark, J. J. Heyd, E. N. Brothers, K. N. Kudin, 
 V. N. Staroverov, T. A. Keith, R. Kobayashi, J. Normand, 
 K. Raghavachari, A. P. Rendell, J. C. Burant, S. S. Iyengar, 
 J. Tomasi, M. Cossi, J. M. Millam, M. Klene, C. Adamo, R. Cammi, 
 J. W. Ochterski, R. L. Martin, K. Morokuma, O. Farkas, 
 J. B. Foresman, and D. J. Fox, Gaussian, Inc., Wallingford CT, 2016.
 
 ******************************************
 Gaussian 16:  ES64L-G16RevA.03 25-Dec-2016
                20-May-2023 
 ******************************************
 %nprocshared=28
 Will use up to   28 processors via shared memory.
 %mem=41GB
 ----------------------------------------------------------------
 # wB97XD/aug-cc-pVDZ opt=(TS,CalcAll,MaxStep=5,NoEigenTest) freq
 ----------------------------------------------------------------
 1/5=1,8=5,10=4,11=1,18=20,26=3,38=1/1,3;
 2/9=110,12=2,17=6,18=5,40=1/2;
 3/5=16,7=10,11=2,25=1,30=1,71=2,74=-58,140=1/1,2,3;
 4//1;
 5/5=2,38=5/2;
 8/6=4,10=90,11=11/1;
 11/6=1,8=1,9=11,15=111,16=1/1,2,10;
 10/6=1/2;
 6/7=2,8=2,9=2,10=2,18=1,28=1/1;
 7/10=1,25=1/1,2,3,16;
 1/5=1,8=5,10=4,11=1,18=20,26=3/3(3);
 2/9=110/2;
 7/8=1,9=1,25=1,44=-1/16;
 99//99;
 2/9=110/2;
 3/5=16,7=10,11=2,25=1,30=1,71=2,74=-58,140=1/1,2,3;
 4/5=5,16=3,69=1/1;
 5/5=2,38=5/2;
 8/6=4,10=90,11=11/1;
 11/6=1,8=1,9=11,15=111,16=1/1,2,10;
 10/6=1/2;
 7/10=1,25=1/1,2,3,16;
 1/5=1,8=5,10=4,11=1,18=20,26=3/3(-8);
 2/9=110/2;
 6/7=2,8=2,9=2,10=2,18=1,19=2,28=1/1;
 7/8=1,9=1,25=1,44=-1/16;
 99//99;
 ----
 blah
 ----
 Symbolic Z-matrix:
 Charge =  1 Multiplicity = 1
 N                     0.91978  -1.93775   0.67261 
 C                     1.30869  -1.43438  -0.67469 
 C                     0.02898  -1.62978  -1.50699 
 C                    -0.72897  -2.78387  -0.80679 
 C                     0.16404  -3.17391   0.37565 
 C                     1.88205  -0.04     -0.6307 
 C                     1.08997   1.05103  -0.27715 
 N                     1.54135   2.30213  -0.18078 
 C                     2.8292    2.53147  -0.45944 
 C                     3.7047    1.51898  -0.83869 
 C                     3.22269   0.2151   -0.91814 
 O                    -0.7097    3.49077   0.785 
 O                    -0.75876  -0.56975   1.92288 
 H                    -0.39123  -3.49155   1.26543 
 H                    -0.8994   -3.63746  -1.46994 
 H                    -1.70474  -2.43788  -0.44932 
 H                     0.28591  -1.85704  -2.54634 
 H                    -0.57595  -0.71652  -1.51456 
 H                     0.87017  -3.97393   0.10281 
 H                     2.09133  -2.11287  -1.05488 
 H                     0.03166   0.91298  -0.05839 
 H                     3.16892   3.56387  -0.37614 
 H                     4.74439   1.75006  -1.06222 
 H                     3.88869  -0.60031  -1.20366 
 C                     2.05791  -2.14928   1.57132 
 H                     0.19437   3.27807   0.44208 
 H                     0.03811  -1.14933   1.32775 
 H                    -0.88584  -0.89857   2.81484 
 H                    -1.54035   2.21662   1.23326 
 H                    -0.64889   4.29727   1.30109 
 O                    -2.06142   1.36979   1.36906 
 H                    -2.598     1.20329   0.54572 
 H                    -1.42388   0.46012   1.64117 
 H                     1.6972   -2.55961   2.52129 
 H                     2.55368  -1.19235   1.76692 
 H                     2.78117  -2.85301   1.13234 
 O                    -3.31724   0.8753   -0.87544 
 H                    -3.30075   1.56649  -1.54255 
 H                    -4.23697   0.54258  -0.85951 
 O                    -5.88238  -0.0594   -0.78704 
 H                    -6.6231    0.39357  -0.37563 
 H                    -6.264    -0.74087  -1.34628 
 
 Add virtual bond connecting atoms H33        and O31        Dist= 2.16D+00.
 Add virtual bond connecting atoms H27        and O13        Dist= 2.18D+00.
 Add virtual bond connecting atoms H33        and O13        Dist= 2.38D+00.
 Add virtual bond connecting atoms H27        and N1         Dist= 2.56D+00.
 Add virtual bond connecting atoms H29        and O12        Dist= 3.00D+00.
 Add virtual bond connecting atoms O37        and H32        Dist= 3.07D+00.
 Add virtual bond connecting atoms O40        and H39        Dist= 3.31D+00.

 GradGradGradGradGradGradGradGradGradGradGradGradGradGradGradGradGradGrad
 Berny optimization.
 Initialization pass.
                           ----------------------------
                           !    Initial Parameters    !
                           ! (Angstroms and Degrees)  !
 --------------------------                            --------------------------
 ! Name  Definition              Value          Derivative Info.                !
 --------------------------------------------------------------------------------
 ! R1    R(1,2)                  1.4899         calculate D2E/DX2 analytically  !
 ! R2    R(1,5)                  1.479          calculate D2E/DX2 analytically  !
 ! R3    R(1,25)                 1.4655         calculate D2E/DX2 analytically  !
 ! R4    R(1,27)                 1.3521         calculate D2E/DX2 analytically  !
 ! R5    R(2,3)                  1.539          calculate D2E/DX2 analytically  !
 ! R6    R(2,6)                  1.5083         calculate D2E/DX2 analytically  !
 ! R7    R(2,20)                 1.1034         calculate D2E/DX2 analytically  !
 ! R8    R(3,4)                  1.5481         calculate D2E/DX2 analytically  !
 ! R9    R(3,17)                 1.0945         calculate D2E/DX2 analytically  !
 ! R10   R(3,18)                 1.0955         calculate D2E/DX2 analytically  !
 ! R11   R(4,5)                  1.5322         calculate D2E/DX2 analytically  !
 ! R12   R(4,15)                 1.0943         calculate D2E/DX2 analytically  !
 ! R13   R(4,16)                 1.0953         calculate D2E/DX2 analytically  !
 ! R14   R(5,14)                 1.0959         calculate D2E/DX2 analytically  !
 ! R15   R(5,19)                 1.1014         calculate D2E/DX2 analytically  !
 ! R16   R(6,7)                  1.3938         calculate D2E/DX2 analytically  !
 ! R17   R(6,11)                 1.3946         calculate D2E/DX2 analytically  !
 ! R18   R(7,8)                  1.3335         calculate D2E/DX2 analytically  !
 ! R19   R(7,21)                 1.0895         calculate D2E/DX2 analytically  !
 ! R20   R(8,9)                  1.3375         calculate D2E/DX2 analytically  !
 ! R21   R(9,10)                 1.3912         calculate D2E/DX2 analytically  !
 ! R22   R(9,22)                 1.09           calculate D2E/DX2 analytically  !
 ! R23   R(10,11)                1.3924         calculate D2E/DX2 analytically  !
 ! R24   R(10,23)                1.0883         calculate D2E/DX2 analytically  !
 ! R25   R(11,24)                1.0909         calculate D2E/DX2 analytically  !
 ! R26   R(12,26)                0.99           calculate D2E/DX2 analytically  !
 ! R27   R(12,29)                1.5857         calculate D2E/DX2 analytically  !
 ! R28   R(12,30)                0.9594         calculate D2E/DX2 analytically  !
 ! R29   R(13,27)                1.1511         calculate D2E/DX2 analytically  !
 ! R30   R(13,28)                0.9591         calculate D2E/DX2 analytically  !
 ! R31   R(13,33)                1.2579         calculate D2E/DX2 analytically  !
 ! R32   R(25,34)                1.0959         calculate D2E/DX2 analytically  !
 ! R33   R(25,35)                1.0953         calculate D2E/DX2 analytically  !
 ! R34   R(25,36)                1.1005         calculate D2E/DX2 analytically  !
 ! R35   R(29,31)                1.0035         calculate D2E/DX2 analytically  !
 ! R36   R(31,32)                0.9968         calculate D2E/DX2 analytically  !
 ! R37   R(31,33)                1.1437         calculate D2E/DX2 analytically  !
 ! R38   R(32,37)                1.6262         calculate D2E/DX2 analytically  !
 ! R39   R(37,38)                0.9608         calculate D2E/DX2 analytically  !
 ! R40   R(37,39)                0.9782         calculate D2E/DX2 analytically  !
 ! R41   R(39,40)                1.7536         calculate D2E/DX2 analytically  !
 ! R42   R(40,41)                0.9608         calculate D2E/DX2 analytically  !
 ! R43   R(40,42)                0.9606         calculate D2E/DX2 analytically  !
 ! A1    A(2,1,5)              103.5446         calculate D2E/DX2 analytically  !
 ! A2    A(2,1,25)             113.6147         calculate D2E/DX2 analytically  !
 ! A3    A(2,1,27)             114.2908         calculate D2E/DX2 analytically  !
 ! A4    A(5,1,25)             113.5358         calculate D2E/DX2 analytically  !
 ! A5    A(5,1,27)             104.5635         calculate D2E/DX2 analytically  !
 ! A6    A(25,1,27)            107.0632         calculate D2E/DX2 analytically  !
 ! A7    A(1,2,3)              103.2432         calculate D2E/DX2 analytically  !
 ! A8    A(1,2,6)              112.6553         calculate D2E/DX2 analytically  !
 ! A9    A(1,2,20)             106.7973         calculate D2E/DX2 analytically  !
 ! A10   A(3,2,6)              116.6947         calculate D2E/DX2 analytically  !
 ! A11   A(3,2,20)             108.9896         calculate D2E/DX2 analytically  !
 ! A12   A(6,2,20)             107.9926         calculate D2E/DX2 analytically  !
 ! A13   A(2,3,4)              104.9013         calculate D2E/DX2 analytically  !
 ! A14   A(2,3,17)             110.1648         calculate D2E/DX2 analytically  !
 ! A15   A(2,3,18)             110.9196         calculate D2E/DX2 analytically  !
 ! A16   A(4,3,17)             112.9325         calculate D2E/DX2 analytically  !
 ! A17   A(4,3,18)             110.7476         calculate D2E/DX2 analytically  !
 ! A18   A(17,3,18)            107.2279         calculate D2E/DX2 analytically  !
 ! A19   A(3,4,5)              104.6824         calculate D2E/DX2 analytically  !
 ! A20   A(3,4,15)             112.5608         calculate D2E/DX2 analytically  !
 ! A21   A(3,4,16)             110.3832         calculate D2E/DX2 analytically  !
 ! A22   A(5,4,15)             111.0925         calculate D2E/DX2 analytically  !
 ! A23   A(5,4,16)             110.3513         calculate D2E/DX2 analytically  !
 ! A24   A(15,4,16)            107.7851         calculate D2E/DX2 analytically  !
 ! A25   A(1,5,4)              103.8859         calculate D2E/DX2 analytically  !
 ! A26   A(1,5,14)             109.7644         calculate D2E/DX2 analytically  !
 ! A27   A(1,5,19)             109.222          calculate D2E/DX2 analytically  !
 ! A28   A(4,5,14)             113.8944         calculate D2E/DX2 analytically  !
 ! A29   A(4,5,19)             111.5545         calculate D2E/DX2 analytically  !
 ! A30   A(14,5,19)            108.3884         calculate D2E/DX2 analytically  !
 ! A31   A(2,6,7)              120.9987         calculate D2E/DX2 analytically  !
 ! A32   A(2,6,11)             121.9045         calculate D2E/DX2 analytically  !
 ! A33   A(7,6,11)             117.089          calculate D2E/DX2 analytically  !
 ! A34   A(6,7,8)              124.0803         calculate D2E/DX2 analytically  !
 ! A35   A(6,7,21)             120.2497         calculate D2E/DX2 analytically  !
 ! A36   A(8,7,21)             115.67           calculate D2E/DX2 analytically  !
 ! A37   A(7,8,9)              118.1483         calculate D2E/DX2 analytically  !
 ! A38   A(8,9,10)             122.5453         calculate D2E/DX2 analytically  !
 ! A39   A(8,9,22)             116.5245         calculate D2E/DX2 analytically  !
 ! A40   A(10,9,22)            120.9302         calculate D2E/DX2 analytically  !
 ! A41   A(9,10,11)            118.634          calculate D2E/DX2 analytically  !
 ! A42   A(9,10,23)            120.1773         calculate D2E/DX2 analytically  !
 ! A43   A(11,10,23)           121.188          calculate D2E/DX2 analytically  !
 ! A44   A(6,11,10)            119.4922         calculate D2E/DX2 analytically  !
 ! A45   A(6,11,24)            120.2722         calculate D2E/DX2 analytically  !
 ! A46   A(10,11,24)           120.2356         calculate D2E/DX2 analytically  !
 ! A47   A(26,12,29)           113.8066         calculate D2E/DX2 analytically  !
 ! A48   A(26,12,30)           108.0007         calculate D2E/DX2 analytically  !
 ! A49   A(29,12,30)           123.8206         calculate D2E/DX2 analytically  !
 ! A50   A(27,13,28)           113.5727         calculate D2E/DX2 analytically  !
 ! A51   A(27,13,33)           131.4876         calculate D2E/DX2 analytically  !
 ! A52   A(28,13,33)           114.7648         calculate D2E/DX2 analytically  !
 ! A53   A(1,25,34)            109.2697         calculate D2E/DX2 analytically  !
 ! A54   A(1,25,35)            109.5676         calculate D2E/DX2 analytically  !
 ! A55   A(1,25,36)            110.9821         calculate D2E/DX2 analytically  !
 ! A56   A(34,25,35)           108.7424         calculate D2E/DX2 analytically  !
 ! A57   A(34,25,36)           108.8246         calculate D2E/DX2 analytically  !
 ! A58   A(35,25,36)           109.4166         calculate D2E/DX2 analytically  !
 ! A59   A(29,31,32)           107.981          calculate D2E/DX2 analytically  !
 ! A60   A(29,31,33)           114.452          calculate D2E/DX2 analytically  !
 ! A61   A(32,31,33)           111.3311         calculate D2E/DX2 analytically  !
 ! A62   A(32,37,38)           117.008          calculate D2E/DX2 analytically  !
 ! A63   A(32,37,39)           118.0485         calculate D2E/DX2 analytically  !
 ! A64   A(38,37,39)           105.792          calculate D2E/DX2 analytically  !
 ! A65   A(39,40,41)           125.3979         calculate D2E/DX2 analytically  !
 ! A66   A(39,40,42)           126.316          calculate D2E/DX2 analytically  !
 ! A67   A(41,40,42)           106.1092         calculate D2E/DX2 analytically  !
 ! A68   L(1,27,13,7,-1)       185.3225         calculate D2E/DX2 analytically  !
 ! A69   L(12,29,31,2,-1)      174.8157         calculate D2E/DX2 analytically  !
 ! A70   L(31,32,37,1,-1)      174.4467         calculate D2E/DX2 analytically  !
 ! A71   L(13,33,31,7,-1)      181.0633         calculate D2E/DX2 analytically  !
 ! A72   L(37,39,40,14,-1)     179.2444         calculate D2E/DX2 analytically  !
 ! A73   L(1,27,13,7,-2)       178.8713         calculate D2E/DX2 analytically  !
 ! A74   L(12,29,31,2,-2)      187.2579         calculate D2E/DX2 analytically  !
 ! A75   L(31,32,37,1,-2)      183.4352         calculate D2E/DX2 analytically  !
 ! A76   L(13,33,31,7,-2)      177.9798         calculate D2E/DX2 analytically  !
 ! A77   L(37,39,40,14,-2)     178.671          calculate D2E/DX2 analytically  !
 ! D1    D(5,1,2,3)             42.8986         calculate D2E/DX2 analytically  !
 ! D2    D(5,1,2,6)            169.6489         calculate D2E/DX2 analytically  !
 ! D3    D(5,1,2,20)           -71.9503         calculate D2E/DX2 analytically  !
 ! D4    D(25,1,2,3)           166.5134         calculate D2E/DX2 analytically  !
 ! D5    D(25,1,2,6)           -66.7363         calculate D2E/DX2 analytically  !
 ! D6    D(25,1,2,20)           51.6645         calculate D2E/DX2 analytically  !
 ! D7    D(27,1,2,3)           -70.2112         calculate D2E/DX2 analytically  !
 ! D8    D(27,1,2,6)            56.5391         calculate D2E/DX2 analytically  !
 ! D9    D(27,1,2,20)          174.9399         calculate D2E/DX2 analytically  !
 ! D10   D(2,1,5,4)            -43.2061         calculate D2E/DX2 analytically  !
 ! D11   D(2,1,5,14)          -165.3599         calculate D2E/DX2 analytically  !
 ! D12   D(2,1,5,19)            75.9366         calculate D2E/DX2 analytically  !
 ! D13   D(25,1,5,4)          -166.8726         calculate D2E/DX2 analytically  !
 ! D14   D(25,1,5,14)           70.9736         calculate D2E/DX2 analytically  !
 ! D15   D(25,1,5,19)          -47.73           calculate D2E/DX2 analytically  !
 ! D16   D(27,1,5,4)            76.7787         calculate D2E/DX2 analytically  !
 ! D17   D(27,1,5,14)          -45.3751         calculate D2E/DX2 analytically  !
 ! D18   D(27,1,5,19)         -164.0786         calculate D2E/DX2 analytically  !
 ! D19   D(2,1,13,28)         -173.6392         calculate D2E/DX2 analytically  !
 ! D20   D(2,1,13,33)            3.8518         calculate D2E/DX2 analytically  !
 ! D21   D(5,1,13,28)           74.2832         calculate D2E/DX2 analytically  !
 ! D22   D(5,1,13,33)         -108.2258         calculate D2E/DX2 analytically  !
 ! D23   D(25,1,13,28)         -45.4015         calculate D2E/DX2 analytically  !
 ! D24   D(25,1,13,33)         132.0895         calculate D2E/DX2 analytically  !
 ! D25   D(2,1,25,34)         -177.5113         calculate D2E/DX2 analytically  !
 ! D26   D(2,1,25,35)           63.4427         calculate D2E/DX2 analytically  !
 ! D27   D(2,1,25,36)          -57.5            calculate D2E/DX2 analytically  !
 ! D28   D(5,1,25,34)          -59.5275         calculate D2E/DX2 analytically  !
 ! D29   D(5,1,25,35)         -178.5734         calculate D2E/DX2 analytically  !
 ! D30   D(5,1,25,36)           60.4838         calculate D2E/DX2 analytically  !
 ! D31   D(27,1,25,34)          55.3441         calculate D2E/DX2 analytically  !
 ! D32   D(27,1,25,35)         -63.7018         calculate D2E/DX2 analytically  !
 ! D33   D(27,1,25,36)         175.3554         calculate D2E/DX2 analytically  !
 ! D34   D(1,2,3,4)            -25.7071         calculate D2E/DX2 analytically  !
 ! D35   D(1,2,3,17)          -147.5273         calculate D2E/DX2 analytically  !
 ! D36   D(1,2,3,18)            93.9079         calculate D2E/DX2 analytically  !
 ! D37   D(6,2,3,4)           -149.8499         calculate D2E/DX2 analytically  !
 ! D38   D(6,2,3,17)            88.3299         calculate D2E/DX2 analytically  !
 ! D39   D(6,2,3,18)           -30.235          calculate D2E/DX2 analytically  !
 ! D40   D(20,2,3,4)            87.5562         calculate D2E/DX2 analytically  !
 ! D41   D(20,2,3,17)          -34.264          calculate D2E/DX2 analytically  !
 ! D42   D(20,2,3,18)         -152.8289         calculate D2E/DX2 analytically  !
 ! D43   D(1,2,6,7)            -66.7992         calculate D2E/DX2 analytically  !
 ! D44   D(1,2,6,11)           112.1613         calculate D2E/DX2 analytically  !
 ! D45   D(3,2,6,7)             52.3926         calculate D2E/DX2 analytically  !
 ! D46   D(3,2,6,11)          -128.6469         calculate D2E/DX2 analytically  !
 ! D47   D(20,2,6,7)           175.5029         calculate D2E/DX2 analytically  !
 ! D48   D(20,2,6,11)           -5.5366         calculate D2E/DX2 analytically  !
 ! D49   D(2,3,4,5)             -0.0721         calculate D2E/DX2 analytically  !
 ! D50   D(2,3,4,15)          -120.8498         calculate D2E/DX2 analytically  !
 ! D51   D(2,3,4,16)           118.6712         calculate D2E/DX2 analytically  !
 ! D52   D(17,3,4,5)           119.9223         calculate D2E/DX2 analytically  !
 ! D53   D(17,3,4,15)           -0.8554         calculate D2E/DX2 analytically  !
 ! D54   D(17,3,4,16)         -121.3344         calculate D2E/DX2 analytically  !
 ! D55   D(18,3,4,5)          -119.8018         calculate D2E/DX2 analytically  !
 ! D56   D(18,3,4,15)          119.4204         calculate D2E/DX2 analytically  !
 ! D57   D(18,3,4,16)           -1.0585         calculate D2E/DX2 analytically  !
 ! D58   D(3,4,5,1)             26.1067         calculate D2E/DX2 analytically  !
 ! D59   D(3,4,5,14)           145.4806         calculate D2E/DX2 analytically  !
 ! D60   D(3,4,5,19)           -91.4285         calculate D2E/DX2 analytically  !
 ! D61   D(15,4,5,1)           147.853          calculate D2E/DX2 analytically  !
 ! D62   D(15,4,5,14)          -92.7731         calculate D2E/DX2 analytically  !
 ! D63   D(15,4,5,19)           30.3178         calculate D2E/DX2 analytically  !
 ! D64   D(16,4,5,1)           -92.6582         calculate D2E/DX2 analytically  !
 ! D65   D(16,4,5,14)           26.7157         calculate D2E/DX2 analytically  !
 ! D66   D(16,4,5,19)          149.8066         calculate D2E/DX2 analytically  !
 ! D67   D(2,6,7,8)            177.9737         calculate D2E/DX2 analytically  !
 ! D68   D(2,6,7,21)            -2.0169         calculate D2E/DX2 analytically  !
 ! D69   D(11,6,7,8)            -1.0351         calculate D2E/DX2 analytically  !
 ! D70   D(11,6,7,21)          178.9743         calculate D2E/DX2 analytically  !
 ! D71   D(2,6,11,10)         -178.8429         calculate D2E/DX2 analytically  !
 ! D72   D(2,6,11,24)            1.1959         calculate D2E/DX2 analytically  !
 ! D73   D(7,6,11,10)            0.1563         calculate D2E/DX2 analytically  !
 ! D74   D(7,6,11,24)         -179.8049         calculate D2E/DX2 analytically  !
 ! D75   D(6,7,8,9)              1.0489         calculate D2E/DX2 analytically  !
 ! D76   D(21,7,8,9)          -178.9601         calculate D2E/DX2 analytically  !
 ! D77   D(7,8,9,10)            -0.1796         calculate D2E/DX2 analytically  !
 ! D78   D(7,8,9,22)           179.7586         calculate D2E/DX2 analytically  !
 ! D79   D(8,9,10,11)           -0.6362         calculate D2E/DX2 analytically  !
 ! D80   D(8,9,10,23)          179.6479         calculate D2E/DX2 analytically  !
 ! D81   D(22,9,10,11)         179.4283         calculate D2E/DX2 analytically  !
 ! D82   D(22,9,10,23)          -0.2876         calculate D2E/DX2 analytically  !
 ! D83   D(9,10,11,6)            0.6201         calculate D2E/DX2 analytically  !
 ! D84   D(9,10,11,24)        -179.4186         calculate D2E/DX2 analytically  !
 ! D85   D(23,10,11,6)        -179.667          calculate D2E/DX2 analytically  !
 ! D86   D(23,10,11,24)          0.2943         calculate D2E/DX2 analytically  !
 ! D87   D(26,12,31,32)        -95.1891         calculate D2E/DX2 analytically  !
 ! D88   D(26,12,31,33)         26.1507         calculate D2E/DX2 analytically  !
 ! D89   D(30,12,31,32)        128.0868         calculate D2E/DX2 analytically  !
 ! D90   D(30,12,31,33)       -110.5735         calculate D2E/DX2 analytically  !
 ! D91   D(27,13,31,29)        -64.538          calculate D2E/DX2 analytically  !
 ! D92   D(27,13,31,32)         58.2856         calculate D2E/DX2 analytically  !
 ! D93   D(28,13,31,29)        111.7168         calculate D2E/DX2 analytically  !
 ! D94   D(28,13,31,32)       -125.4595         calculate D2E/DX2 analytically  !
 ! D95   D(29,31,37,38)         -9.5141         calculate D2E/DX2 analytically  !
 ! D96   D(29,31,37,39)       -139.676          calculate D2E/DX2 analytically  !
 ! D97   D(33,31,37,38)       -133.6145         calculate D2E/DX2 analytically  !
 ! D98   D(33,31,37,39)         96.2236         calculate D2E/DX2 analytically  !
 ! D99   D(32,37,40,41)         57.4487         calculate D2E/DX2 analytically  !
 ! D100  D(32,37,40,42)       -141.0543         calculate D2E/DX2 analytically  !
 ! D101  D(38,37,40,41)        -75.7513         calculate D2E/DX2 analytically  !
 ! D102  D(38,37,40,42)         85.7458         calculate D2E/DX2 analytically  !
 --------------------------------------------------------------------------------
 Trust Radius=5.00D-02 FncErr=1.00D-07 GrdErr=1.00D-06 EigMax=2.50D+02 EigMin=1.00D-04
 Number of steps in this run=    232 maximum allowed number of steps=    252.
 Search for a saddle point of order  1.
 GradGradGradGradGradGradGradGradGradGradGradGradGradGradGradGradGradGrad

                          Input orientation:                          
 ---------------------------------------------------------------------
 Center     Atomic      Atomic             Coordinates (Angstroms)
 Number     Number       Type             X           Y           Z
 ---------------------------------------------------------------------
      1          7           0        0.919781   -1.937752    0.672605
      2          6           0        1.308694   -1.434380   -0.674694
      3          6           0        0.028979   -1.629783   -1.506990
      4          6           0       -0.728972   -2.783871   -0.806785
      5          6           0        0.164037   -3.173913    0.375653
      6          6           0        1.882049   -0.040000   -0.630702
      7          6           0        1.089969    1.051034   -0.277150
      8          7           0        1.541354    2.302129   -0.180781
      9          6           0        2.829198    2.531469   -0.459436
     10          6           0        3.704701    1.518977   -0.838691
     11          6           0        3.222687    0.215101   -0.918135
     12          8           0       -0.709699    3.490765    0.784995
     13          8           0       -0.758758   -0.569754    1.922875
     14          1           0       -0.391232   -3.491547    1.265425
     15          1           0       -0.899404   -3.637463   -1.469940
     16          1           0       -1.704743   -2.437878   -0.449320
     17          1           0        0.285905   -1.857041   -2.546335
     18          1           0       -0.575949   -0.716515   -1.514557
     19          1           0        0.870174   -3.973925    0.102811
     20          1           0        2.091334   -2.112865   -1.054878
     21          1           0        0.031658    0.912979   -0.058393
     22          1           0        3.168915    3.563870   -0.376142
     23          1           0        4.744391    1.750057   -1.062216
     24          1           0        3.888694   -0.600312   -1.203661
     25          6           0        2.057910   -2.149276    1.571320
     26          1           0        0.194374    3.278072    0.442080
     27          1           0        0.038112   -1.149335    1.327752
     28          1           0       -0.885835   -0.898566    2.814843
     29          1           0       -1.540346    2.216622    1.233260
     30          1           0       -0.648889    4.297271    1.301090
     31          8           0       -2.061422    1.369789    1.369056
     32          1           0       -2.597995    1.203290    0.545722
     33          1           0       -1.423878    0.460122    1.641169
     34          1           0        1.697200   -2.559615    2.521286
     35          1           0        2.553682   -1.192352    1.766915
     36          1           0        2.781168   -2.853010    1.132338
     37          8           0       -3.317238    0.875298   -0.875435
     38          1           0       -3.300751    1.566492   -1.542552
     39          1           0       -4.236966    0.542576   -0.859506
     40          8           0       -5.882379   -0.059402   -0.787042
     41          1           0       -6.623103    0.393570   -0.375626
     42          1           0       -6.263999   -0.740866   -1.346279
 ---------------------------------------------------------------------
                    Distance matrix (angstroms):
                    1          2          3          4          5
     1  N    0.000000
     2  C    1.489917   0.000000
     3  C    2.374659   1.539016   0.000000
     4  C    2.371265   2.447582   1.548127   0.000000
     5  C    1.478994   2.332261   2.438631   1.532239   0.000000
     6  C    2.495202   1.508299   2.594062   3.791736   3.712913
     7  C    3.140675   2.526493   3.134483   4.277330   4.374206
     8  N    4.369349   3.776186   4.416564   5.604789   5.673945
     9  C    4.990123   4.252790   5.123926   6.405784   6.352310
    10  C    4.689219   3.806581   4.885923   6.178428   6.002845
    11  C    3.531091   2.538389   3.734986   4.962040   4.744960
    12  O    5.668918   5.519208   5.658520   6.473422   6.734160
    13  O    2.500417   3.430641   3.675346   3.514861   3.166558
    14  H    2.117657   3.299355   3.365862   2.215610   1.095860
    15  H    3.284654   3.218958   2.212249   1.094276   2.179908
    16  H    2.897752   3.184117   2.185744   1.095272   2.171328
    17  H    3.281751   2.174346   1.094484   2.216985   3.207338
    18  H    2.917586   2.184623   1.095470   2.190506   3.187362
    19  H    2.114977   2.691859   2.965480   2.191087   1.101404
    20  H    2.094612   1.103362   2.165890   2.909626   2.624255
    21  H    3.074051   2.742397   2.926445   3.847772   4.112008
    22  H    6.035422   5.341541   6.173496   7.461420   7.415673
    23  H    5.589023   4.700513   5.818613   7.111923   6.876961
    24  H    3.758133   2.762585   4.006148   5.123308   4.794864
    25  C    1.465527   2.473253   3.723228   3.718172   2.462977
    26  H    5.271070   4.969517   5.283301   6.257746   6.452398
    27  H    1.352094   2.388602   2.875183   2.795778   2.240818
    28  H    2.988200   4.156913   4.477701   4.085972   3.497011
    29  H    4.860595   5.008706   4.976604   5.461231   5.718241
    30  H    6.459971   6.370846   6.593541   7.388648   7.572045
    31  O    4.506933   4.837144   4.651758   4.874690   5.156040
    32  H    4.717732   4.869182   4.375034   4.606514   5.178576
    33  H    3.490079   4.052075   4.048383   4.122968   4.162837
    34  H    2.099694   3.410481   4.458089   4.124640   2.707710
    35  H    2.103038   2.751368   4.157394   4.464603   3.401852
    36  H    2.124574   2.728746   4.004607   4.010743   2.743160
    37  O    5.316202   5.174375   4.227465   4.482561   5.484579
    38  H    5.916041   5.568249   4.615684   5.106962   6.177031
    39  H    5.923802   5.890404   4.830804   4.834672   5.891242
    40  O    7.206119   7.322207   6.158618   5.829299   6.900086
    41  H    7.964229   8.145198   7.044440   6.709904   7.704325
    42  H    7.557455   7.633981   6.357482   5.924647   7.085507
                    6          7          8          9         10
     6  C    0.000000
     7  C    1.393824   0.000000
     8  N    2.409164   1.333519   0.000000
     9  C    2.745701   2.291252   1.337456   0.000000
    10  C    2.407432   2.714981   2.392957   1.391215   0.000000
    11  C    1.394634   2.378683   2.779615   2.393909   1.392387
    12  O    4.603005   3.212358   2.722649   3.872034   5.100121
    13  O    3.711503   3.299220   4.238348   5.307204   5.649027
    14  H    4.547118   5.020810   6.276391   7.044362   6.805095
    15  H    4.624126   5.230904   6.549655   7.278689   6.941551
    16  H    4.318309   4.473541   5.751254   6.726896   6.713449
    17  H    3.085282   3.775264   4.946786   5.484752   5.099187
    18  H    2.698264   2.725929   3.920987   4.822624   4.876288
    19  H    4.127675   5.044095   6.318209   6.817188   6.252435
    20  H    2.126146   3.408497   4.534170   4.740130   3.979946
    21  H    2.158623   1.089466   2.055213   3.256774   3.803596
    22  H    3.835193   3.262845   2.068601   1.090045   2.163933
    23  H    3.403456   3.802599   3.367663   2.154510   1.088263
    24  H    2.160754   3.379087   3.870459   3.388872   2.158343
    25  C    3.054320   3.820437   4.811621   5.160255   4.687873
    26  H    3.874108   2.505809   1.776169   2.883131   4.130035
    27  H    2.909686   2.919544   4.055615   4.953031   5.025658
    28  H    4.502233   4.155137   5.010934   6.023912   6.345537
    29  H    4.503275   3.249383   3.391710   4.696516   5.682447
    30  H    5.380463   4.006560   3.312657   4.279556   5.590289
    31  O    4.640851   3.569715   4.031284   5.348930   6.176130
    32  H    4.795888   3.781716   4.343900   5.677044   6.460668
    33  H    4.042360   3.216916   3.937651   5.176068   5.794239
    34  H    4.039512   4.608336   5.564352   6.007101   5.652824
    35  H    2.743642   3.369486   4.126709   4.347343   3.932599
    36  H    3.439440   4.482005   5.462314   5.615039   4.883865
    37  O    5.284908   4.451101   5.111194   6.379235   7.051475
    38  H    5.502154   4.598409   5.083460   6.299254   7.040883
    39  H    6.150942   5.382741   6.078296   7.351627   8.001492
    40  O    7.766026   7.078608   7.813846   9.094587   9.716278
    41  H    8.520015   7.741669   8.386830   9.691420  10.399255
    42  H    8.207397   7.644265   8.458235   9.704684  10.234233
                   11         12         13         14         15
    11  C    0.000000
    12  O    5.393912   0.000000
    13  O    4.953710   4.217226   0.000000
    14  H    5.618504   7.006063   3.017315   0.000000
    15  H    5.669072   7.478794   4.576223   2.785992   0.000000
    16  H    5.615839   6.136974   3.164188   2.403306   1.768966
    17  H    3.945820   6.378716   4.766788   4.202337   2.394470
    18  H    3.956420   4.796565   3.445417   3.932330   2.939141
    19  H    4.911679   7.660481   4.189801   1.781995   2.391267
    20  H    2.591927   6.529287   4.401276   3.667111   3.382483
    21  H    3.377700   2.811742   2.597822   4.618569   4.854468
    22  H    3.392772   4.049349   6.148084   8.071450   8.343070
    23  H    2.166202   6.015759   6.676596   7.698503   7.813068
    24  H    1.090866   6.468144   5.601337   5.724805   5.676361
    25  C    3.625517   6.331511   3.248399   2.809548   4.495517
    26  H    4.516930   0.990039   4.231664   6.844602   7.257878
    27  H    4.128827   4.731209   1.151124   2.382053   3.859637
    28  H    5.661743   4.839167   0.959100   3.060862   5.085382
    29  H    5.596523   1.585672   2.974952   5.822773   6.479846
    30  H    6.047989   0.959429   4.907812   7.793160   8.408411
    31  O    5.872508   2.582019   2.401141   5.141290   5.872202
    32  H    6.082741   2.975812   2.902245   5.237296   5.511896
    33  H    5.310427   3.229223   1.257930   4.101613   5.171487
    34  H    4.675016   6.739063   3.217044   2.609067   4.882007
    35  H    3.104510   5.791840   3.374050   3.769656   5.327251
    36  H    3.716542   7.249157   4.285940   3.238760   4.575350
    37  O    6.573302   4.049315   4.057651   5.675749   5.154063
    38  H    6.691143   3.979177   4.799423   6.475631   5.731744
    39  H    7.467068   4.882398   4.590953   5.964826   5.383742
    40  O    9.110146   6.467736   5.818557   6.793006   6.172431
    41  H    9.862340   6.775545   6.371942   7.524852   7.085724
    42  H    9.544338   7.300635   6.405023   6.991183   6.097905
                   16         17         18         19         20
    16  H    0.000000
    17  H    2.949156   0.000000
    18  H    2.317757   1.762997   0.000000
    19  H    3.048686   3.441009   3.913805   0.000000
    20  H    3.857789   2.355730   3.045570   2.508988   0.000000
    21  H    3.794227   3.731958   2.268226   4.960940   3.793544
    22  H    7.731680   6.512124   5.800146   7.895059   5.817833
    23  H    7.713998   5.923839   5.881718   7.009338   4.686249
    24  H    5.935673   4.045025   4.476963   4.711645   2.353817
    25  C    4.280635   4.492270   4.302633   2.626134   2.626663
    26  H    6.088787   5.942086   4.514261   7.291315   5.907753
    27  H    2.802833   3.945985   2.939919   3.189219   3.289534
    28  H    3.700656   5.570806   4.344292   4.460551   5.031183
    29  H    4.952017   5.849381   4.133262   6.738798   6.096649
    30  H    7.038536   7.317928   5.750760   8.494475   7.358617
    31  O    4.234624   5.590408   3.856750   6.225184   5.937147
    32  H    3.878932   5.219514   3.466853   6.247233   5.962266
    33  H    3.584332   5.082105   3.473048   5.223982   5.123051
    34  H    4.518023   5.307179   4.985203   2.921175   3.625448
    35  H    4.959558   4.918206   4.559503   3.652477   3.003935
    36  H    4.774660   4.555319   4.779215   2.443005   2.409896
    37  O    3.709292   4.820811   3.233730   6.481230   6.181745
    38  H    4.447176   5.058879   3.554919   7.127416   6.545997
    39  H    3.932367   5.390725   3.926506   6.885326   6.865633
    40  O    4.819113   6.661407   5.396228   7.855718   8.238237
    41  H    5.675632   7.583642   6.252801   8.686375   9.093130
    42  H    4.946837   6.751831   5.690591   7.965485   8.472242
                   21         22         23         24         25
    21  H    0.000000
    22  H    4.119535   0.000000
    23  H    4.890625   2.498548   0.000000
    24  H    4.298653   4.306191   2.505286   0.000000
    25  C    4.017346   6.137343   5.418255   3.667639   0.000000
    26  H    2.422935   3.098235   5.029949   5.603421   5.848423
    27  H    2.484870   5.909271   6.022249   4.640739   2.266890
    28  H    3.518377   6.821783   7.331182   6.247676   3.431656
    29  H    2.416412   5.155811   6.707072   6.583933   5.667698
    30  H    3.710090   4.233983   6.415683   7.130902   6.996982
    31  O    2.574348   5.934318   7.237042   6.775253   5.421589
    32  H    2.713726   6.299160   7.536249   6.956325   5.828293
    33  H    2.283019   5.898859   6.857096   6.118905   4.351630
    34  H    4.635481   6.932395   6.379666   4.745181   1.095867
    35  H    3.758294   5.252890   4.632597   3.310150   1.095331
    36  H    4.812517   6.603197   5.464297   3.429016   1.100477
    37  O    3.447330   7.039026   8.111101   7.362786   6.635275
    38  H    3.706043   6.870707   8.061559   7.516516   7.226229
    39  H    4.358914   8.013048   9.064429   8.212855   7.265015
    40  O    6.037573   9.758220  10.783233   9.794898   8.542695
    41  H    6.682534  10.292445  11.468713  10.591096   9.252927
    42  H    6.635447  10.414019  11.290263  10.154667   8.930295
                   26         27         28         29         30
    26  H    0.000000
    27  H    4.517828   0.000000
    28  H    4.923531   1.768616   0.000000
    29  H    2.182177   3.718888   3.554460   0.000000
    30  H    1.577263   5.489827   5.417039   2.264596   0.000000
    31  O    3.096683   3.279594   2.935599   1.003537   3.251157
    32  H    3.480343   3.618767   3.535279   1.618077   3.733941
    33  H    3.463726   2.196815   1.874309   1.806999   3.929373
    34  H    6.376533   2.483140   3.085017   5.912119   7.349143
    35  H    5.225535   2.553979   3.607595   5.354153   6.372552
    36  H    6.690151   3.234973   4.483033   6.662345   7.932231
    37  O    4.454277   4.495725   4.761981   3.066446   4.854611
    38  H    4.368543   5.173236   5.558347   3.350646   4.751403
    39  H    5.367852   5.091459   5.177626   3.801823   5.624963
    40  O    7.041051   6.380636   6.216367   5.302373   7.122521
    41  H    7.447616   7.046548   6.690662   5.634399   7.330859
    42  H    7.814133   6.858126   6.801798   6.141144   7.995051
                   31         32         33         34         35
    31  O    0.000000
    32  H    0.996750   0.000000
    33  H    1.143679   1.769422   0.000000
    34  H    5.558335   6.042434   4.431089   0.000000
    35  H    5.293585   5.811212   4.308998   1.781024   0.000000
    36  H    6.429521   6.762624   5.377561   1.786125   1.792268
    37  O    2.619033   1.626215   3.176551   6.962825   6.762018
    38  H    3.170503   2.233085   3.857821   7.649775   7.268987
    39  H    3.222384   2.257750   3.764789   7.501178   7.484715
    40  O    4.614223   3.762689   5.103366   8.639798   8.886698
    41  H    4.980547   4.207853   5.577081   9.291977   9.556098
    42  H    5.430429   4.560592   5.813260   9.035851   9.362014
                   36         37         38         39         40
    36  H    0.000000
    37  O    7.424418   0.000000
    38  H    7.979773   0.960763   0.000000
    39  H    8.046841   0.978191   1.546433   0.000000
    40  O    9.302973   2.731561   3.143108   1.753571   0.000000
    41  H   10.062532   3.377960   3.711534   2.439261   0.960791
    42  H    9.613519   3.393682   3.760753   2.448067   0.960611
                   41         42
    41  H    0.000000
    42  H    1.535600   0.000000
 Stoichiometry    C10H25N2O5(1+)
 Framework group  C1[X(C10H25N2O5)]
 Deg. of freedom   120
 Full point group                 C1      NOp   1
 Largest Abelian subgroup         C1      NOp   1
 Largest concise Abelian subgroup C1      NOp   1
                         Standard orientation:                         
 ---------------------------------------------------------------------
 Center     Atomic      Atomic             Coordinates (Angstroms)
 Number     Number       Type             X           Y           Z
 ---------------------------------------------------------------------
      1          7           0        0.919781   -1.937752    0.672605
      2          6           0        1.308694   -1.434380   -0.674694
      3          6           0        0.028979   -1.629783   -1.506990
      4          6           0       -0.728972   -2.783871   -0.806785
      5          6           0        0.164037   -3.173913    0.375653
      6          6           0        1.882049   -0.040000   -0.630702
      7          6           0        1.089969    1.051034   -0.277150
      8          7           0        1.541354    2.302129   -0.180781
      9          6           0        2.829198    2.531469   -0.459436
     10          6           0        3.704701    1.518977   -0.838691
     11          6           0        3.222687    0.215101   -0.918135
     12          8           0       -0.709699    3.490765    0.784995
     13          8           0       -0.758758   -0.569754    1.922875
     14          1           0       -0.391232   -3.491547    1.265425
     15          1           0       -0.899404   -3.637463   -1.469940
     16          1           0       -1.704743   -2.437878   -0.449320
     17          1           0        0.285905   -1.857041   -2.546335
     18          1           0       -0.575949   -0.716515   -1.514557
     19          1           0        0.870174   -3.973925    0.102811
     20          1           0        2.091334   -2.112865   -1.054878
     21          1           0        0.031658    0.912979   -0.058393
     22          1           0        3.168915    3.563870   -0.376142
     23          1           0        4.744391    1.750057   -1.062216
     24          1           0        3.888694   -0.600312   -1.203661
     25          6           0        2.057910   -2.149276    1.571320
     26          1           0        0.194374    3.278072    0.442080
     27          1           0        0.038112   -1.149335    1.327752
     28          1           0       -0.885835   -0.898566    2.814843
     29          1           0       -1.540346    2.216622    1.233260
     30          1           0       -0.648889    4.297271    1.301090
     31          8           0       -2.061422    1.369789    1.369056
     32          1           0       -2.597995    1.203290    0.545722
     33          1           0       -1.423878    0.460122    1.641169
     34          1           0        1.697200   -2.559615    2.521286
     35          1           0        2.553682   -1.192352    1.766915
     36          1           0        2.781168   -2.853010    1.132338
     37          8           0       -3.317238    0.875298   -0.875435
     38          1           0       -3.300751    1.566492   -1.542552
     39          1           0       -4.236966    0.542576   -0.859506
     40          8           0       -5.882379   -0.059402   -0.787042
     41          1           0       -6.623103    0.393570   -0.375626
     42          1           0       -6.263999   -0.740866   -1.346279
 ---------------------------------------------------------------------
 Rotational constants (GHZ):           0.4144330           0.2723705           0.2002088
 Standard basis: Aug-CC-pVDZ (5D, 7F)
 There are   650 symmetry adapted cartesian basis functions of A   symmetry.
 There are   616 symmetry adapted basis functions of A   symmetry.
   616 basis functions,  1006 primitive gaussians,   650 cartesian basis functions
    69 alpha electrons       69 beta electrons
       nuclear repulsion energy      1376.4549618722 Hartrees.
 NAtoms=   42 NActive=   42 NUniq=   42 SFac= 1.00D+00 NAtFMM=   60 NAOKFM=F Big=F
 Integral buffers will be    131072 words long.
 Raffenetti 2 integral format.
 Two-electron integral symmetry is turned on.
 Nuclear repulsion after empirical dispersion term =     1376.4224407568 Hartrees.
 One-electron integrals computed using PRISM.
 NBasis=   616 RedAO= T EigKep=  1.56D-06  NBF=   616
 NBsUse=   616 1.00D-06 EigRej= -1.00D+00 NBFU=   616
 ExpMin= 2.97D-02 ExpMax= 1.17D+04 ExpMxC= 4.01D+02 IAcc=3 IRadAn=         5 AccDes= 0.00D+00
 Harris functional with IExCor= 4639 and IRadAn=       5 diagonalized for initial guess.
 HarFok:  IExCor= 4639 AccDes= 0.00D+00 IRadAn=         5 IDoV= 1 UseB2=F ITyADJ=14
 ICtDFT=  3500011 ScaDFX=  1.000000  1.000000  1.000000  1.000000
 FoFCou: FMM=F IPFlag=           0 FMFlag=      100000 FMFlg1=           0
         NFxFlg=           0 DoJE=T BraDBF=F KetDBF=T FulRan=T
         wScrn=  0.000000 ICntrl=       500 IOpCl=  0 I1Cent=   200000004 NGrid=           0
         NMat0=    1 NMatS0=      1 NMatT0=    0 NMatD0=    1 NMtDS0=    0 NMtDT0=    0
 Petite list used in FoFCou.
 Requested convergence on RMS density matrix=1.00D-08 within 128 cycles.
 Requested convergence on MAX density matrix=1.00D-06.
 Requested convergence on             energy=1.00D-06.
 No special actions if energy rises.
 SCF Done:  E(RwB97XD) =  -881.455989833     A.U. after   15 cycles
            NFock= 15  Conv=0.31D-08     -V/T= 2.0062
 DoSCS=F DFT=T ScalE2(SS,OS)=  1.000000  1.000000
 Range of M.O.s used for correlation:     1   616
 NBasis=   616 NAE=    69 NBE=    69 NFC=     0 NFV=     0
 NROrb=    616 NOA=    69 NOB=    69 NVA=   547 NVB=   547

 **** Warning!!: The largest alpha MO coefficient is  0.10951609D+03

 Symmetrizing basis deriv contribution to polar:
 IMax=3 JMax=2 DiffMx= 0.00D+00
 G2DrvN: will do    43 centers at a time, making    1 passes.
 Calling FoFCou, ICntrl=  3107 FMM=F I1Cent=   0 AccDes= 0.00D+00.
 End of G2Drv F.D. properties file   721 does not exist.
 End of G2Drv F.D. properties file   722 does not exist.
 End of G2Drv F.D. properties file   788 does not exist.
          IDoAtm=111111111111111111111111111111111111111111
          Differentiating once with respect to electric field.
                with respect to dipole field.
          Differentiating once with respect to nuclear coordinates.
 CalDSu exits because no D1Ps are significant.
          There are   129 degrees of freedom in the 1st order CPHF.  IDoFFX=6 NUNeed=     3.
    126 vectors produced by pass  0 Test12= 3.77D-14 1.00D-09 XBig12= 7.86D+01 3.24D+00.
 AX will form   126 AO Fock derivatives at one time.
    126 vectors produced by pass  1 Test12= 3.77D-14 1.00D-09 XBig12= 1.01D+01 7.28D-01.
    126 vectors produced by pass  2 Test12= 3.77D-14 1.00D-09 XBig12= 2.19D-01 7.72D-02.
    126 vectors produced by pass  3 Test12= 3.77D-14 1.00D-09 XBig12= 2.10D-03 4.75D-03.
    126 vectors produced by pass  4 Test12= 3.77D-14 1.00D-09 XBig12= 2.02D-05 5.17D-04.
    126 vectors produced by pass  5 Test12= 3.77D-14 1.00D-09 XBig12= 1.46D-07 3.69D-05.
    123 vectors produced by pass  6 Test12= 3.77D-14 1.00D-09 XBig12= 8.64D-10 2.24D-06.
     40 vectors produced by pass  7 Test12= 3.77D-14 1.00D-09 XBig12= 4.29D-12 1.23D-07.
      3 vectors produced by pass  8 Test12= 3.77D-14 1.00D-09 XBig12= 2.59D-14 7.15D-09.
      3 vectors produced by pass  9 Test12= 3.77D-14 1.00D-09 XBig12= 3.90D-15 3.94D-09.
 InvSVY:  IOpt=1 It=  1 EMax= 8.88D-15
 Solved reduced A of dimension   925 with   129 vectors.
 Isotropic polarizability for W=    0.000000      172.09 Bohr**3.
 End of Minotr F.D. properties file   721 does not exist.
 End of Minotr F.D. properties file   722 does not exist.
 End of Minotr F.D. properties file   788 does not exist.

 **********************************************************************

            Population analysis using the SCF density.

 **********************************************************************

 Orbital symmetries:
       Occupied  (A) (A) (A) (A) (A) (A) (A) (A) (A) (A) (A) (A)
                 (A) (A) (A) (A) (A) (A) (A) (A) (A) (A) (A) (A)
                 (A) (A) (A) (A) (A) (A) (A) (A) (A) (A) (A) (A)
                 (A) (A) (A) (A) (A) (A) (A) (A) (A) (A) (A) (A)
                 (A) (A) (A) (A) (A) (A) (A) (A) (A) (A) (A) (A)
                 (A) (A) (A) (A) (A) (A) (A) (A) (A)
       Virtual   (A) (A) (A) (A) (A) (A) (A) (A) (A) (A) (A) (A)
                 (A) (A) (A) (A) (A) (A) (A) (A) (A) (A) (A) (A)
                 (A) (A) (A) (A) (A) (A) (A) (A) (A) (A) (A) (A)
                 (A) (A) (A) (A) (A) (A) (A) (A) (A) (A) (A) (A)
                 (A) (A) (A) (A) (A) (A) (A) (A) (A) (A) (A) (A)
                 (A) (A) (A) (A) (A) (A) (A) (A) (A) (A) (A) (A)
                 (A) (A) (A) (A) (A) (A) (A) (A) (A) (A) (A) (A)
                 (A) (A) (A) (A) (A) (A) (A) (A) (A) (A) (A) (A)
                 (A) (A) (A) (A) (A) (A) (A) (A) (A) (A) (A) (A)
                 (A) (A) (A) (A) (A) (A) (A) (A) (A) (A) (A) (A)
                 (A) (A) (A) (A) (A) (A) (A) (A) (A) (A) (A) (A)
                 (A) (A) (A) (A) (A) (A) (A) (A) (A) (A) (A) (A)
                 (A) (A) (A) (A) (A) (A) (A) (A) (A) (A) (A) (A)
                 (A) (A) (A) (A) (A) (A) (A) (A) (A) (A) (A) (A)
                 (A) (A) (A) (A) (A) (A) (A) (A) (A) (A) (A) (A)
                 (A) (A) (A) (A) (A) (A) (A) (A) (A) (A) (A) (A)
                 (A) (A) (A) (A) (A) (A) (A) (A) (A) (A) (A) (A)
                 (A) (A) (A) (A) (A) (A) (A) (A) (A) (A) (A) (A)
                 (A) (A) (A) (A) (A) (A) (A) (A) (A) (A) (A) (A)
                 (A) (A) (A) (A) (A) (A) (A) (A) (A) (A) (A) (A)
                 (A) (A) (A) (A) (A) (A) (A) (A) (A) (A) (A) (A)
                 (A) (A) (A) (A) (A) (A) (A) (A) (A) (A) (A) (A)
                 (A) (A) (A) (A) (A) (A) (A) (A) (A) (A) (A) (A)
                 (A) (A) (A) (A) (A) (A) (A) (A) (A) (A) (A) (A)
                 (A) (A) (A) (A) (A) (A) (A) (A) (A) (A) (A) (A)
                 (A) (A) (A) (A) (A) (A) (A) (A) (A) (A) (A) (A)
                 (A) (A) (A) (A) (A) (A) (A) (A) (A) (A) (A) (A)
                 (A) (A) (A) (A) (A) (A) (A) (A) (A) (A) (A) (A)
                 (A) (A) (A) (A) (A) (A) (A) (A) (A) (A) (A) (A)
                 (A) (A) (A) (A) (A) (A) (A) (A) (A) (A) (A) (A)
                 (A) (A) (A) (A) (A) (A) (A) (A) (A) (A) (A) (A)
                 (A) (A) (A) (A) (A) (A) (A) (A) (A) (A) (A) (A)
                 (A) (A) (A) (A) (A) (A) (A) (A) (A) (A) (A) (A)
                 (A) (A) (A) (A) (A) (A) (A) (A) (A) (A) (A) (A)
                 (A) (A) (A) (A) (A) (A) (A) (A) (A) (A) (A) (A)
                 (A) (A) (A) (A) (A) (A) (A) (A) (A) (A) (A) (A)
                 (A) (A) (A) (A) (A) (A) (A) (A) (A) (A) (A) (A)
                 (A) (A) (A) (A) (A) (A) (A) (A) (A) (A) (A) (A)
                 (A) (A) (A) (A) (A) (A) (A) (A) (A) (A) (A) (A)
                 (A) (A) (A) (A) (A) (A) (A) (A) (A) (A) (A) (A)
                 (A) (A) (A) (A) (A) (A) (A) (A) (A) (A) (A) (A)
                 (A) (A) (A) (A) (A) (A) (A) (A) (A) (A) (A) (A)
                 (A) (A) (A) (A) (A) (A) (A) (A) (A) (A) (A) (A)
                 (A) (A) (A) (A) (A) (A) (A) (A) (A) (A) (A) (A)
                 (A) (A) (A) (A) (A) (A) (A) (A) (A) (A) (A) (A)
                 (A) (A) (A) (A) (A) (A) (A)
 The electronic state is 1-A.
 Alpha  occ. eigenvalues --  -19.40813 -19.40384 -19.39139 -19.38067 -19.37941
 Alpha  occ. eigenvalues --  -14.60861 -14.57740 -10.46169 -10.45460 -10.45214
 Alpha  occ. eigenvalues --  -10.44463 -10.44238 -10.43678 -10.43517 -10.42386
 Alpha  occ. eigenvalues --  -10.41249 -10.40904  -1.27010  -1.24874  -1.23148
 Alpha  occ. eigenvalues --   -1.22332  -1.21567  -1.18679  -1.17209  -1.04049
 Alpha  occ. eigenvalues --   -1.01297  -0.99557  -0.94247  -0.90274  -0.85702
 Alpha  occ. eigenvalues --   -0.84396  -0.81297  -0.80005  -0.77262  -0.76464
 Alpha  occ. eigenvalues --   -0.75883  -0.75177  -0.74513  -0.73451  -0.71891
 Alpha  occ. eigenvalues --   -0.71256  -0.69862  -0.68844  -0.66464  -0.65732
 Alpha  occ. eigenvalues --   -0.64715  -0.63702  -0.62298  -0.61952  -0.61349
 Alpha  occ. eigenvalues --   -0.60811  -0.59795  -0.59298  -0.58504  -0.57749
 Alpha  occ. eigenvalues --   -0.57468  -0.56210  -0.55421  -0.54744  -0.54284
 Alpha  occ. eigenvalues --   -0.53318  -0.52883  -0.52408  -0.52334  -0.51784
 Alpha  occ. eigenvalues --   -0.48612  -0.47661  -0.47013  -0.45405
 Alpha virt. eigenvalues --   -0.08416  -0.07278  -0.06148  -0.05223  -0.04458
 Alpha virt. eigenvalues --   -0.04356  -0.03475  -0.02815  -0.02691  -0.02326
 Alpha virt. eigenvalues --   -0.01925  -0.01485  -0.01096  -0.00672  -0.00330
 Alpha virt. eigenvalues --    0.00119   0.00361   0.00879   0.01162   0.01668
 Alpha virt. eigenvalues --    0.01891   0.02267   0.02767   0.02950   0.03279
 Alpha virt. eigenvalues --    0.03469   0.03959   0.03997   0.04304   0.04675
 Alpha virt. eigenvalues --    0.04888   0.05386   0.05697   0.06140   0.06206
 Alpha virt. eigenvalues --    0.06587   0.06696   0.07022   0.07278   0.07544
 Alpha virt. eigenvalues --    0.07663   0.08039   0.08435   0.08678   0.08759
 Alpha virt. eigenvalues --    0.09022   0.09275   0.09331   0.09834   0.09908
 Alpha virt. eigenvalues --    0.10232   0.10528   0.11130   0.11269   0.11491
 Alpha virt. eigenvalues --    0.11663   0.12005   0.12542   0.12698   0.12963
 Alpha virt. eigenvalues --    0.13146   0.13394   0.13525   0.14202   0.14297
 Alpha virt. eigenvalues --    0.15062   0.15180   0.15434   0.15788   0.15881
 Alpha virt. eigenvalues --    0.16248   0.16526   0.16732   0.17053   0.17216
 Alpha virt. eigenvalues --    0.17698   0.17820   0.18123   0.18526   0.18878
 Alpha virt. eigenvalues --    0.19029   0.19118   0.19494   0.19653   0.20044
 Alpha virt. eigenvalues --    0.20243   0.20715   0.20899   0.20960   0.21346
 Alpha virt. eigenvalues --    0.21528   0.22017   0.22122   0.22652   0.22901
 Alpha virt. eigenvalues --    0.23009   0.23311   0.23939   0.24016   0.24332
 Alpha virt. eigenvalues --    0.24723   0.25288   0.25589   0.25812   0.25983
 Alpha virt. eigenvalues --    0.26238   0.27074   0.27233   0.27687   0.27882
 Alpha virt. eigenvalues --    0.28183   0.28438   0.28525   0.29219   0.29293
 Alpha virt. eigenvalues --    0.29385   0.29554   0.29853   0.30145   0.30777
 Alpha virt. eigenvalues --    0.31226   0.31658   0.31859   0.32472   0.32677
 Alpha virt. eigenvalues --    0.33290   0.33893   0.34019   0.34378   0.34652
 Alpha virt. eigenvalues --    0.34981   0.35145   0.35774   0.35878   0.36386
 Alpha virt. eigenvalues --    0.36729   0.37088   0.37702   0.38034   0.38497
 Alpha virt. eigenvalues --    0.39027   0.39287   0.39619   0.40448   0.40582
 Alpha virt. eigenvalues --    0.40994   0.41119   0.41652   0.41932   0.42401
 Alpha virt. eigenvalues --    0.42536   0.43115   0.43309   0.43537   0.43876
 Alpha virt. eigenvalues --    0.44416   0.44617   0.44937   0.45188   0.45622
 Alpha virt. eigenvalues --    0.46074   0.46486   0.46797   0.47031   0.47885
 Alpha virt. eigenvalues --    0.48066   0.48492   0.48604   0.49297   0.49547
 Alpha virt. eigenvalues --    0.49743   0.50230   0.50798   0.50930   0.51215
 Alpha virt. eigenvalues --    0.51489   0.51797   0.52128   0.52461   0.52591
 Alpha virt. eigenvalues --    0.53404   0.53542   0.53945   0.54374   0.54571
 Alpha virt. eigenvalues --    0.54883   0.55251   0.55814   0.55937   0.56283
 Alpha virt. eigenvalues --    0.56722   0.57258   0.57479   0.58139   0.58290
 Alpha virt. eigenvalues --    0.58392   0.59057   0.59675   0.59884   0.60306
 Alpha virt. eigenvalues --    0.60803   0.61116   0.61576   0.62154   0.62346
 Alpha virt. eigenvalues --    0.62673   0.62782   0.63373   0.64022   0.64786
 Alpha virt. eigenvalues --    0.65122   0.65380   0.65804   0.66271   0.66462
 Alpha virt. eigenvalues --    0.66681   0.67856   0.68249   0.68612   0.69127
 Alpha virt. eigenvalues --    0.69381   0.69809   0.70346   0.71001   0.71190
 Alpha virt. eigenvalues --    0.71506   0.71777   0.72290   0.72585   0.73238
 Alpha virt. eigenvalues --    0.73308   0.73836   0.74322   0.74919   0.75712
 Alpha virt. eigenvalues --    0.75951   0.76269   0.76492   0.76923   0.77950
 Alpha virt. eigenvalues --    0.78473   0.78672   0.79358   0.79792   0.80537
 Alpha virt. eigenvalues --    0.81059   0.81122   0.82082   0.82585   0.82786
 Alpha virt. eigenvalues --    0.83541   0.84173   0.84861   0.84994   0.85703
 Alpha virt. eigenvalues --    0.86654   0.86909   0.87903   0.88533   0.89207
 Alpha virt. eigenvalues --    0.89428   0.90471   0.90840   0.91111   0.91885
 Alpha virt. eigenvalues --    0.92346   0.92761   0.93318   0.93785   0.94394
 Alpha virt. eigenvalues --    0.95833   0.95993   0.96607   0.97443   0.98177
 Alpha virt. eigenvalues --    0.98855   0.99506   1.00186   1.01373   1.01541
 Alpha virt. eigenvalues --    1.02203   1.02508   1.03400   1.03721   1.04384
 Alpha virt. eigenvalues --    1.05575   1.06165   1.07071   1.07310   1.08292
 Alpha virt. eigenvalues --    1.08722   1.09621   1.09938   1.11438   1.11549
 Alpha virt. eigenvalues --    1.11811   1.12656   1.13695   1.14315   1.15284
 Alpha virt. eigenvalues --    1.16139   1.16880   1.17086   1.17819   1.18498
 Alpha virt. eigenvalues --    1.18952   1.19879   1.20586   1.21612   1.22116
 Alpha virt. eigenvalues --    1.22627   1.23643   1.24135   1.25197   1.25879
 Alpha virt. eigenvalues --    1.26258   1.28137   1.29813   1.30334   1.31294
 Alpha virt. eigenvalues --    1.32723   1.33062   1.33687   1.34377   1.34646
 Alpha virt. eigenvalues --    1.35468   1.35967   1.36768   1.37865   1.38583
 Alpha virt. eigenvalues --    1.38980   1.39682   1.40251   1.41531   1.42524
 Alpha virt. eigenvalues --    1.43316   1.44174   1.44735   1.45621   1.46738
 Alpha virt. eigenvalues --    1.47713   1.48855   1.49160   1.49930   1.51067
 Alpha virt. eigenvalues --    1.51773   1.52492   1.53330   1.54061   1.54896
 Alpha virt. eigenvalues --    1.56454   1.57991   1.58955   1.59280   1.60026
 Alpha virt. eigenvalues --    1.60634   1.61333   1.61828   1.62728   1.64461
 Alpha virt. eigenvalues --    1.64907   1.66144   1.66266   1.66819   1.68268
 Alpha virt. eigenvalues --    1.68835   1.69031   1.70714   1.70778   1.71150
 Alpha virt. eigenvalues --    1.72284   1.72737   1.73571   1.74200   1.74651
 Alpha virt. eigenvalues --    1.75149   1.75792   1.75959   1.76563   1.78064
 Alpha virt. eigenvalues --    1.78696   1.79222   1.79993   1.80497   1.81624
 Alpha virt. eigenvalues --    1.82014   1.82965   1.83304   1.83546   1.84440
 Alpha virt. eigenvalues --    1.85357   1.85915   1.86667   1.86989   1.87359
 Alpha virt. eigenvalues --    1.88254   1.89061   1.90120   1.91064   1.91854
 Alpha virt. eigenvalues --    1.92296   1.93054   1.93590   1.94614   1.96042
 Alpha virt. eigenvalues --    1.96432   1.97020   1.98331   1.98827   1.99822
 Alpha virt. eigenvalues --    2.00311   2.01731   2.02146   2.02609   2.03585
 Alpha virt. eigenvalues --    2.03887   2.05142   2.05900   2.07725   2.08477
 Alpha virt. eigenvalues --    2.10566   2.11132   2.12080   2.12374   2.13335
 Alpha virt. eigenvalues --    2.14152   2.14761   2.15508   2.16652   2.16930
 Alpha virt. eigenvalues --    2.17428   2.18253   2.19164   2.19894   2.20671
 Alpha virt. eigenvalues --    2.22207   2.22853   2.23798   2.23885   2.25409
 Alpha virt. eigenvalues --    2.27229   2.27821   2.29022   2.29693   2.30248
 Alpha virt. eigenvalues --    2.30981   2.31881   2.33120   2.33369   2.34748
 Alpha virt. eigenvalues --    2.35155   2.36545   2.37257   2.37816   2.39171
 Alpha virt. eigenvalues --    2.41632   2.41912   2.44001   2.45493   2.45980
 Alpha virt. eigenvalues --    2.46626   2.47925   2.49402   2.50056   2.51767
 Alpha virt. eigenvalues --    2.52618   2.53786   2.54748   2.55720   2.56464
 Alpha virt. eigenvalues --    2.57015   2.57223   2.58139   2.59630   2.61166
 Alpha virt. eigenvalues --    2.61822   2.63446   2.63966   2.65387   2.66888
 Alpha virt. eigenvalues --    2.67932   2.68268   2.68731   2.69929   2.71265
 Alpha virt. eigenvalues --    2.73269   2.74229   2.74800   2.75694   2.76317
 Alpha virt. eigenvalues --    2.78625   2.79306   2.80992   2.83501   2.84173
 Alpha virt. eigenvalues --    2.84855   2.86005   2.87304   2.87778   2.89267
 Alpha virt. eigenvalues --    2.91314   2.92199   2.92677   2.93343   2.95484
 Alpha virt. eigenvalues --    2.99547   3.01566   3.04941   3.05658   3.08895
 Alpha virt. eigenvalues --    3.10600   3.14484   3.16790   3.18770   3.25211
 Alpha virt. eigenvalues --    3.28417   3.31983   3.32304   3.35552   3.36726
 Alpha virt. eigenvalues --    3.38962   3.40679   3.41841   3.42834   3.44385
 Alpha virt. eigenvalues --    3.45179   3.46150   3.46657   3.49052   3.49790
 Alpha virt. eigenvalues --    3.53423   3.59517   3.67319   3.70363   3.72812
 Alpha virt. eigenvalues --    3.79299   3.84639   3.90451   3.92413   3.95637
 Alpha virt. eigenvalues --    4.02017   4.05519   4.08167   4.12103   4.32658
 Alpha virt. eigenvalues --    4.35349   5.08494
          Condensed to atoms (all electrons):
               1          2          3          4          5          6
     1  N   17.782486  -4.629962  -1.008214  -0.224397  -0.023528   1.573235
     2  C   -4.629962  26.846037  -3.058638   0.690348  -0.862946  -7.830278
     3  C   -1.008214  -3.058638  10.742142  -1.947698   1.123043   0.335142
     4  C   -0.224397   0.690348  -1.947698   7.072627  -0.429669   0.226249
     5  C   -0.023528  -0.862946   1.123043  -0.429669   5.899370  -0.203571
     6  C    1.573235  -7.830278   0.335142   0.226249  -0.203571  24.631761
     7  C   -0.947194  -1.848015  -1.006912   0.104401  -0.274327  -5.485843
     8  N    0.006623   0.583819  -0.029847  -0.005602   0.041911  -0.011599
     9  C    0.021530  -0.505492  -0.065945  -0.005225  -0.031222  -1.165206
    10  C   -0.004762  -0.186866  -0.107283  -0.029552   0.019300   0.405755
    11  C   -0.837005  -1.613422   0.117077  -0.107626   0.030392  -9.267534
    12  O   -0.006446   0.001723  -0.002556  -0.000268  -0.000297  -0.060438
    13  O   -0.167150   0.236540   0.056294   0.050058  -0.058924  -0.028127
    14  H   -1.338777   0.632540   0.169921   0.027883  -0.239937  -0.163543
    15  H   -0.198850  -0.025015   0.403494  -0.422135   0.236367  -0.056431
    16  H    0.205641   0.093951   0.125829  -0.358816  -0.069176  -0.028516
    17  H    0.204539   0.611722  -1.542009   0.228953  -0.261159   0.232371
    18  H   -0.029258  -0.459832   0.167623   0.354548   0.083114   0.076494
    19  H   -0.327213   0.059432  -0.050948   0.033209  -0.271096   0.191416
    20  H   -0.509496  -3.438318   0.856755  -0.059368   0.023801   1.258454
    21  H   -0.573093  -0.000659  -0.413033   0.062691  -0.033440  -0.956423
    22  H    0.003001  -0.050608   0.001600   0.000430  -0.001223  -0.271893
    23  H   -0.001833   0.076242   0.007875   0.000933  -0.000911   0.173779
    24  H    0.019686  -0.000165  -0.117296  -0.003955   0.003367   1.303146
    25  C    1.247898  -0.709755  -0.273146   0.039488  -0.023472   0.490145
    26  H   -0.004728   0.041662   0.001263  -0.002073  -0.001870  -0.020206
    27  H   -0.507681   0.479634   0.181527  -0.066098  -0.192402  -0.232552
    28  H   -0.025728  -0.002241  -0.008864   0.001481   0.013707  -0.008749
    29  H   -0.010036   0.009153  -0.002576   0.009187  -0.003258  -0.015442
    30  H    0.001304  -0.006561   0.000480   0.000075   0.000252   0.019076
    31  O    0.001574  -0.004766   0.058778  -0.045090   0.029073   0.031382
    32  H    0.001261   0.013571   0.010072  -0.015031   0.003852  -0.001270
    33  H    0.080389  -0.070588   0.025495  -0.018681   0.017909   0.058736
    34  H   -0.407598   0.102457  -0.098581   0.070106   0.019720   0.024978
    35  H    0.064018  -0.061655   0.145666  -0.060136  -0.050976   0.059380
    36  H   -0.653733  -0.010670   0.005098   0.022013   0.123967   0.021280
    37  O    0.009804  -0.016312  -0.026149   0.016067  -0.003432   0.021635
    38  H    0.005481   0.004309  -0.007036   0.003438  -0.000362   0.000321
    39  H   -0.005627   0.000683   0.001532  -0.000664  -0.001062  -0.001646
    40  O   -0.000229   0.000123   0.001200   0.000294   0.000273   0.000136
    41  H    0.000063  -0.000119   0.000078  -0.000179   0.000047  -0.000062
    42  H   -0.000207   0.000205   0.000185   0.000116   0.000011  -0.000045
               7          8          9         10         11         12
     1  N   -0.947194   0.006623   0.021530  -0.004762  -0.837005  -0.006446
     2  C   -1.848015   0.583819  -0.505492  -0.186866  -1.613422   0.001723
     3  C   -1.006912  -0.029847  -0.065945  -0.107283   0.117077  -0.002556
     4  C    0.104401  -0.005602  -0.005225  -0.029552  -0.107626  -0.000268
     5  C   -0.274327   0.041911  -0.031222   0.019300   0.030392  -0.000297
     6  C   -5.485843  -0.011599  -1.165206   0.405755  -9.267534  -0.060438
     7  C   18.245128  -0.716597  -1.569072   0.317732  -0.970608  -0.114428
     8  N   -0.716597   7.964333   0.269473   0.156169  -0.496079  -0.009448
     9  C   -1.569072   0.269473  10.405183  -2.707948   1.494541   0.052068
    10  C    0.317732   0.156169  -2.707948  11.841175  -4.036810  -0.015278
    11  C   -0.970608  -0.496079   1.494541  -4.036810  22.490448   0.027398
    12  O   -0.114428  -0.009448   0.052068  -0.015278   0.027398   7.960177
    13  O   -0.231411   0.006872  -0.009960   0.000959  -0.025553   0.002691
    14  H   -0.027122   0.003814  -0.000169   0.001683   0.033545  -0.000075
    15  H    0.016240  -0.000414   0.001749  -0.001749   0.002223  -0.000012
    16  H    0.010607  -0.003331  -0.005335  -0.000297  -0.008459   0.000003
    17  H    0.382269  -0.006337   0.007320  -0.007551  -0.015920   0.000474
    18  H   -0.400335  -0.018557  -0.007037  -0.034457  -0.000057  -0.003892
    19  H    0.036631  -0.001935  -0.000369  -0.002167   0.010219   0.000049
    20  H   -0.050747  -0.027970   0.037667   0.020995   0.066052  -0.000440
    21  H   -0.736522  -0.007912  -0.175203   0.288907  -0.232434   0.101976
    22  H    0.405764  -0.271866  -0.440930   0.094209   0.239715   0.003724
    23  H   -0.184716  -0.034219   0.381114  -1.235180   0.514157  -0.000224
    24  H   -0.014144  -0.008600  -0.210256   0.608426  -2.493207   0.000506
    25  C   -0.137214   0.017985  -0.071267   0.113906  -0.284713  -0.000942
    26  H   -0.112284   0.127822   0.108610  -0.078907   0.028187   0.267836
    27  H    0.040674  -0.052694   0.019326  -0.029605  -0.009805   0.000156
    28  H    0.033725   0.003153   0.001437  -0.000527   0.008161   0.001433
    29  H    0.063519  -0.022749  -0.004610  -0.002994   0.003797   0.023105
    30  H    0.018312  -0.007690  -0.013454   0.010521  -0.008670   0.341320
    31  O   -0.069076   0.041868   0.013818   0.000400   0.008066  -0.124581
    32  H   -0.030543  -0.005873  -0.002121  -0.001233   0.002219   0.009187
    33  H   -0.008828  -0.001060  -0.004395   0.006126  -0.013274  -0.007694
    34  H    0.020097  -0.003594  -0.007341   0.020496  -0.042792  -0.000115
    35  H    0.064291  -0.001081  -0.001645  -0.001629   0.043155   0.000130
    36  H   -0.006025   0.004524   0.002724  -0.017710   0.082685  -0.000025
    37  O   -0.014931  -0.000780  -0.004828   0.003056  -0.000379  -0.002083
    38  H   -0.007716   0.001372   0.000104  -0.000272  -0.000814  -0.000698
    39  H    0.008535  -0.000162  -0.000409   0.000453   0.001066   0.000730
    40  O   -0.001189   0.000091   0.000011   0.000010  -0.000010  -0.000098
    41  H    0.000393  -0.000029  -0.000005   0.000003  -0.000039  -0.000002
    42  H   -0.000050   0.000036   0.000022  -0.000007   0.000032  -0.000022
              13         14         15         16         17         18
     1  N   -0.167150  -1.338777  -0.198850   0.205641   0.204539  -0.029258
     2  C    0.236540   0.632540  -0.025015   0.093951   0.611722  -0.459832
     3  C    0.056294   0.169921   0.403494   0.125829  -1.542009   0.167623
     4  C    0.050058   0.027883  -0.422135  -0.358816   0.228953   0.354548
     5  C   -0.058924  -0.239937   0.236367  -0.069176  -0.261159   0.083114
     6  C   -0.028127  -0.163543  -0.056431  -0.028516   0.232371   0.076494
     7  C   -0.231411  -0.027122   0.016240   0.010607   0.382269  -0.400335
     8  N    0.006872   0.003814  -0.000414  -0.003331  -0.006337  -0.018557
     9  C   -0.009960  -0.000169   0.001749  -0.005335   0.007320  -0.007037
    10  C    0.000959   0.001683  -0.001749  -0.000297  -0.007551  -0.034457
    11  C   -0.025553   0.033545   0.002223  -0.008459  -0.015920  -0.000057
    12  O    0.002691  -0.000075  -0.000012   0.000003   0.000474  -0.003892
    13  O    8.524200   0.045511  -0.001779  -0.014503  -0.006109   0.039009
    14  H    0.045511   3.048058   0.148435  -0.367274  -0.044607   0.086917
    15  H   -0.001779   0.148435   2.133506  -0.644490  -0.323565   0.214390
    16  H   -0.014503  -0.367274  -0.644490   2.402508   0.231735  -0.476444
    17  H   -0.006109  -0.044607  -0.323565   0.231735   2.766444  -0.876344
    18  H    0.039009   0.086917   0.214390  -0.476444  -0.876344   2.870473
    19  H   -0.016422  -0.620696  -0.246910   0.235872   0.079986  -0.083280
    20  H    0.012366   0.120205   0.070580  -0.089318  -0.389366   0.347698
    21  H   -0.023581  -0.052693  -0.011602   0.062363   0.210219  -0.549176
    22  H   -0.000286  -0.000086   0.000059   0.000039   0.000842  -0.002269
    23  H    0.000072   0.000061  -0.000010  -0.000001  -0.002246   0.002677
    24  H   -0.003138  -0.003333   0.000912   0.001428   0.014763  -0.027240
    25  C   -0.020203  -0.206400  -0.033436   0.032441   0.073136  -0.086717
    26  H    0.004852   0.001172   0.000187  -0.001959  -0.002429   0.009078
    27  H   -0.032777   0.281025   0.028344  -0.016722  -0.046175   0.132627
    28  H    0.350822  -0.015006  -0.002347   0.005232   0.002985  -0.014877
    29  H    0.006479   0.002837   0.000471  -0.003572  -0.002036   0.011579
    30  H   -0.000860  -0.000151  -0.000014   0.000306   0.000096  -0.000505
    31  O   -0.103141   0.004522  -0.002432  -0.002976   0.002752   0.005871
    32  H   -0.001382  -0.001204  -0.001264   0.005595   0.001660  -0.008676
    33  H    0.094771  -0.004672   0.000347   0.002060  -0.005050   0.020895
    34  H    0.043097  -0.017352  -0.003490   0.013998   0.002375  -0.011961
    35  H    0.002360   0.014724   0.001819  -0.012539  -0.002348   0.021394
    36  H   -0.019808   0.025857  -0.001740   0.000839   0.010584  -0.013955
    37  O    0.001043  -0.001456  -0.001625   0.010187  -0.001809   0.015689
    38  H   -0.000023  -0.000490  -0.000347   0.001071  -0.000593   0.001319
    39  H    0.000392   0.000390   0.001107  -0.005091   0.000278  -0.001107
    40  O    0.000568   0.000293   0.000030  -0.003457  -0.000051   0.003563
    41  H   -0.000011  -0.000050   0.000018   0.000614  -0.000055   0.000591
    42  H    0.000026   0.000153  -0.000116  -0.000896   0.000114  -0.000524
              19         20         21         22         23         24
     1  N   -0.327213  -0.509496  -0.573093   0.003001  -0.001833   0.019686
     2  C    0.059432  -3.438318  -0.000659  -0.050608   0.076242  -0.000165
     3  C   -0.050948   0.856755  -0.413033   0.001600   0.007875  -0.117296
     4  C    0.033209  -0.059368   0.062691   0.000430   0.000933  -0.003955
     5  C   -0.271096   0.023801  -0.033440  -0.001223  -0.000911   0.003367
     6  C    0.191416   1.258454  -0.956423  -0.271893   0.173779   1.303146
     7  C    0.036631  -0.050747  -0.736522   0.405764  -0.184716  -0.014144
     8  N   -0.001935  -0.027970  -0.007912  -0.271866  -0.034219  -0.008600
     9  C   -0.000369   0.037667  -0.175203  -0.440930   0.381114  -0.210256
    10  C   -0.002167   0.020995   0.288907   0.094209  -1.235180   0.608426
    11  C    0.010219   0.066052  -0.232434   0.239715   0.514157  -2.493207
    12  O    0.000049  -0.000440   0.101976   0.003724  -0.000224   0.000506
    13  O   -0.016422   0.012366  -0.023581  -0.000286   0.000072  -0.003138
    14  H   -0.620696   0.120205  -0.052693  -0.000086   0.000061  -0.003333
    15  H   -0.246910   0.070580  -0.011602   0.000059  -0.000010   0.000912
    16  H    0.235872  -0.089318   0.062363   0.000039  -0.000001   0.001428
    17  H    0.079986  -0.389366   0.210219   0.000842  -0.002246   0.014763
    18  H   -0.083280   0.347698  -0.549176  -0.002269   0.002677  -0.027240
    19  H    2.549220  -0.128721   0.038179   0.000066  -0.000582   0.005021
    20  H   -0.128721   3.964354  -0.079094  -0.000268   0.005665  -0.159929
    21  H    0.038179  -0.079094   5.750760   0.017196  -0.022022   0.023045
    22  H    0.000066  -0.000268   0.017196   2.049415  -0.119116  -0.003031
    23  H   -0.000582   0.005665  -0.022022  -0.119116   2.206942  -0.149367
    24  H    0.005021  -0.159929   0.023045  -0.003031  -0.149367   3.061952
    25  C   -0.013156  -0.171820   0.067433   0.001842  -0.010299   0.067730
    26  H   -0.000392   0.001996  -0.122152  -0.053092   0.008383  -0.002723
    27  H   -0.048102   0.076094  -0.247069  -0.000455   0.003270  -0.002541
    28  H    0.007464  -0.001415   0.059773  -0.000009  -0.000075   0.000454
    29  H   -0.000731   0.001690  -0.071481   0.001420   0.000077  -0.000368
    30  H    0.000048  -0.000249  -0.000786   0.003299  -0.000516   0.000068
    31  O    0.000359   0.000590  -0.171301   0.001128  -0.000106   0.000064
    32  H    0.000583  -0.000940   0.041070  -0.000032  -0.000055  -0.000216
    33  H   -0.003010  -0.000273  -0.091969   0.000065   0.000148  -0.000426
    34  H    0.017032   0.001459   0.031554   0.000339  -0.001205   0.006912
    35  H    0.000811   0.032997  -0.021074  -0.001926  -0.001519  -0.015520
    36  H    0.050394   0.064491   0.029560   0.000229   0.000396   0.001509
    37  O    0.000342   0.000591  -0.034154  -0.000114   0.000093  -0.000110
    38  H    0.000016  -0.000279  -0.005673   0.000121   0.000014  -0.000038
    39  H    0.000153   0.000247   0.014285  -0.000037   0.000006   0.000060
    40  O   -0.000007   0.000036  -0.005719   0.000000   0.000000  -0.000001
    41  H    0.000006   0.000002  -0.000791  -0.000001  -0.000000  -0.000001
    42  H   -0.000036   0.000010   0.000135   0.000001  -0.000000   0.000001
              25         26         27         28         29         30
     1  N    1.247898  -0.004728  -0.507681  -0.025728  -0.010036   0.001304
     2  C   -0.709755   0.041662   0.479634  -0.002241   0.009153  -0.006561
     3  C   -0.273146   0.001263   0.181527  -0.008864  -0.002576   0.000480
     4  C    0.039488  -0.002073  -0.066098   0.001481   0.009187   0.000075
     5  C   -0.023472  -0.001870  -0.192402   0.013707  -0.003258   0.000252
     6  C    0.490145  -0.020206  -0.232552  -0.008749  -0.015442   0.019076
     7  C   -0.137214  -0.112284   0.040674   0.033725   0.063519   0.018312
     8  N    0.017985   0.127822  -0.052694   0.003153  -0.022749  -0.007690
     9  C   -0.071267   0.108610   0.019326   0.001437  -0.004610  -0.013454
    10  C    0.113906  -0.078907  -0.029605  -0.000527  -0.002994   0.010521
    11  C   -0.284713   0.028187  -0.009805   0.008161   0.003797  -0.008670
    12  O   -0.000942   0.267836   0.000156   0.001433   0.023105   0.341320
    13  O   -0.020203   0.004852  -0.032777   0.350822   0.006479  -0.000860
    14  H   -0.206400   0.001172   0.281025  -0.015006   0.002837  -0.000151
    15  H   -0.033436   0.000187   0.028344  -0.002347   0.000471  -0.000014
    16  H    0.032441  -0.001959  -0.016722   0.005232  -0.003572   0.000306
    17  H    0.073136  -0.002429  -0.046175   0.002985  -0.002036   0.000096
    18  H   -0.086717   0.009078   0.132627  -0.014877   0.011579  -0.000505
    19  H   -0.013156  -0.000392  -0.048102   0.007464  -0.000731   0.000048
    20  H   -0.171820   0.001996   0.076094  -0.001415   0.001690  -0.000249
    21  H    0.067433  -0.122152  -0.247069   0.059773  -0.071481  -0.000786
    22  H    0.001842  -0.053092  -0.000455  -0.000009   0.001420   0.003299
    23  H   -0.010299   0.008383   0.003270  -0.000075   0.000077  -0.000516
    24  H    0.067730  -0.002723  -0.002541   0.000454  -0.000368   0.000068
    25  C    4.787376  -0.007716  -0.365206   0.015441  -0.001976   0.000868
    26  H   -0.007716   0.591078   0.013644  -0.001095   0.002204  -0.120230
    27  H   -0.365206   0.013644   0.970928  -0.175923   0.010646  -0.001555
    28  H    0.015441  -0.001095  -0.175923   0.629983  -0.001663  -0.000144
    29  H   -0.001976   0.002204   0.010646  -0.001663   0.441453  -0.010327
    30  H    0.000868  -0.120230  -0.001555  -0.000144  -0.010327   0.589293
    31  O    0.014605  -0.013304  -0.086734   0.007963   0.203272   0.006559
    32  H    0.000965   0.000754   0.004128  -0.001024  -0.041093   0.000661
    33  H    0.007783   0.001065   0.030088  -0.044429  -0.017091   0.001599
[...]
     22          1           0        3.218652    3.507796   -0.333534
     23          1           0        4.689067    1.615693   -1.038922
     24          1           0        3.694559   -0.675918   -1.234644
     25          6           0        1.920801   -2.246532    1.410837
     26          1           0        0.234644    3.375584    0.514695
     27          1           0        0.039628   -1.007529    1.407086
     28          1           0       -0.704264   -0.730085    2.974246
     29          1           0       -1.470364    2.355999    1.417430
     30          1           0       -0.542163    4.442211    1.378769
     31          8           0       -1.974721    1.498564    1.549957
     32          1           0       -2.418848    1.296402    0.685459
     33          1           0       -1.282822    0.628383    1.836540
     34          1           0        1.604230   -2.658914    2.375585
     35          1           0        2.527611   -1.353300    1.594089
     36          1           0        2.526044   -2.999535    0.883880
     37          8           0       -2.894363    0.888876   -0.848032
     38          1           0       -3.080258    1.626805   -1.434731
     39          1           0       -3.646503    0.270303   -0.941677
     40          8           0       -4.917460   -0.946156   -0.987266
     41          1           0       -5.711476   -0.852660   -0.453175
     42          1           0       -5.199306   -1.381051   -1.796854
 ---------------------------------------------------------------------
                    Distance matrix (angstroms):
                    1          2          3          4          5
     1  N    0.000000
     2  C    1.491911   0.000000
     3  C    2.388402   1.542153   0.000000
     4  C    2.364805   2.454326   1.546934   0.000000
     5  C    1.477542   2.339606   2.432840   1.529009   0.000000
     6  C    2.488270   1.509205   2.597641   3.770560   3.707647
     7  C    3.164737   2.526117   3.108196   4.204280   4.360442
     8  N    4.376319   3.775963   4.400967   5.530487   5.651796
     9  C    4.968602   4.252728   5.130670   6.360614   6.328979
    10  C    4.647183   3.807752   4.912151   6.169817   5.986343
    11  C    3.487514   2.540124   3.765589   4.972030   4.737175
    12  O    5.676096   5.512095   5.624180   6.334812   6.675829
    13  O    2.503676   3.431083   3.804210   3.622022   3.242770
    14  H    2.117415   3.306947   3.376412   2.214609   1.096251
    15  H    3.294243   3.262588   2.213286   1.094364   2.178887
    16  H    2.860335   3.151234   2.185178   1.096024   2.168816
    17  H    3.264020   2.171192   1.094694   2.211273   3.156557
    18  H    2.984926   2.194952   1.094302   2.186490   3.221458
    19  H    2.115563   2.697625   2.928133   2.187532   1.101783
    20  H    2.095351   1.102949   2.168587   2.965773   2.663685
    21  H    3.136614   2.740403   2.865321   3.736486   4.102082
    22  H    6.011701   5.341359   6.180710   7.410859   7.388342
    23  H    5.535181   4.702192   5.854787   7.118411   6.860773
    24  H    3.697869   2.765015   4.052332   5.168069   4.794412
    25  C    1.466132   2.471437   3.725632   3.712588   2.461068
    26  H    5.283136   4.969936   5.259460   6.144018   6.410906
    27  H    1.363399   2.398585   2.953761   2.832673   2.276063
    28  H    2.985154   4.155331   4.548951   4.105397   3.512334
    29  H    4.843362   4.987751   4.946183   5.306138   5.631201
    30  H    6.496209   6.382855   6.568556   7.264523   7.540740
    31  O    4.430815   4.757390   4.572863   4.665977   5.008845
    32  H    4.479218   4.605855   4.116721   4.242295   4.878956
    33  H    3.441413   4.009177   4.058844   4.031445   4.089058
    34  H    2.100621   3.410326   4.466552   4.117545   2.704043
    35  H    2.103228   2.748704   4.171210   4.459091   3.399794
    36  H    2.125310   2.725364   3.983913   4.008067   2.744090
    37  O    4.799850   4.555586   3.577495   3.822220   4.918335
    38  H    5.579696   5.158283   4.171399   4.619903   5.772501
    39  H    5.128830   4.990000   3.830678   3.753091   4.963644
    40  O    5.953842   6.001268   4.700102   4.113117   5.356050
    41  H    6.618261   6.800294   5.570399   4.886059   6.007921
    42  H    6.431105   6.353000   4.936104   4.368942   5.716210
                    6          7          8          9         10
     6  C    0.000000
     7  C    1.393952   0.000000
     8  N    2.409490   1.333405   0.000000
     9  C    2.745248   2.290648   1.337615   0.000000
    10  C    2.407192   2.714690   2.393462   1.391169   0.000000
    11  C    1.394483   2.378676   2.780264   2.393813   1.392428
    12  O    4.602103   3.216169   2.730158   3.877062   5.101813
    13  O    3.601445   3.216468   4.075394   5.069980   5.397771
    14  H    4.535200   5.010723   6.248845   7.002418   6.762343
    15  H    4.647425   5.177344   6.499631   7.281011   7.001717
    16  H    4.229309   4.318333   5.582690   6.586752   6.618000
    17  H    3.129291   3.797025   4.994632   5.566344   5.199049
    18  H    2.689940   2.690589   3.890851   4.807704   4.875511
    19  H    4.141401   5.047704   6.322574   6.828842   6.273521
    20  H    2.127653   3.406267   4.534808   4.744322   3.988043
    21  H    2.158163   1.089542   2.055528   3.256656   3.803319
    22  H    3.834745   3.262378   2.068673   1.090050   2.163591
    23  H    3.403324   3.802287   3.368010   2.154413   1.088267
    24  H    2.160666   3.379148   3.871172   3.388924   2.158557
    25  C    3.070142   3.904030   4.880589   5.174635   4.646477
    26  H    3.878761   2.512935   1.785782   2.890205   4.135777
    27  H    2.857558   2.903780   3.995832   4.842079   4.893759
    28  H    4.441155   4.141329   4.938342   5.875290   6.167910
    29  H    4.485927   3.250128   3.388432   4.676196   5.652717
    30  H    5.395059   4.025846   3.327907   4.286769   5.596715
    31  O    4.566632   3.521800   3.988365   5.285806   6.094429
    32  H    4.545570   3.555384   4.162482   5.489932   6.242463
    33  H    3.965160   3.169539   3.856295   5.051082   5.654106
    34  H    4.046670   4.687189   5.624779   6.003250   5.590019
    35  H    2.762448   3.489919   4.230407   4.369012   3.865093
    36  H    3.472554   4.565203   5.545751   5.665451   4.890811
    37  O    4.701319   3.925539   4.688549   5.948149   6.552354
    38  H    5.124457   4.248155   4.813169   6.043431   6.744090
    39  H    5.378186   4.754082   5.612115   6.855550   7.375719
    40  O    6.709260   6.294497   7.268229   8.485084   8.880956
    41  H    7.481197   6.987139   7.905388   9.163991   9.631425
    42  H    7.141468   6.838209   7.844227   9.008789   9.324450
                   11         12         13         14         15
    11  C    0.000000
    12  O    5.393131   0.000000
    13  O    4.753503   4.124761   0.000000
    14  H    5.587751   6.945313   3.114170   0.000000
    15  H    5.750068   7.323076   4.677383   2.763607   0.000000
    16  H    5.551428   5.893058   3.259842   2.415052   1.768083
    17  H    4.034697   6.407032   4.894060   4.167623   2.392336
    18  H    3.961774   4.776554   3.671240   3.998210   2.902824
    19  H    4.935615   7.622938   4.249738   1.781972   2.403888
    20  H    2.600933   6.523869   4.392342   3.699485   3.498306
    21  H    3.377277   2.819698   2.671846   4.630738   4.734539
    22  H    3.392512   4.056430   5.889836   8.022555   8.339574
    23  H    2.166372   6.017165   6.396257   7.648934   7.901276
    24  H    1.090927   6.465871   5.403151   5.694576   5.810650
    25  C    3.567551   6.419642   3.191458   2.806151   4.508560
    26  H    4.521837   0.989446   4.102113   6.798994   7.142762
    27  H    4.016359   4.701544   1.141935   2.419324   3.895301
    28  H    5.517514   4.816023   0.959487   3.085012   5.088000
    29  H    5.567479   1.593304   2.926722   5.731065   6.296733
    30  H    6.057835   0.959312   4.820790   7.761343   8.263843
    31  O    5.785506   2.584172   2.398562   4.996228   5.627411
    32  H    5.839371   2.929191   2.879373   4.971703   5.112642
    33  H    5.188847   3.195636   1.250600   4.029850   5.061209
    34  H    4.603916   6.827016   3.169968   2.603003   4.880300
    35  H    3.010826   5.936046   3.262691   3.764939   5.344093
    36  H    3.702043   7.336197   4.243506   3.238294   4.600997
    37  O    6.013257   3.945196   3.992572   5.218473   4.448855
    38  H    6.344066   3.918105   4.797997   6.140451   5.180809
    39  H    6.722638   4.858935   4.419162   5.170345   4.193752
    40  O    8.071056   6.530551   5.423437   5.373054   4.176621
    41  H    8.860143   6.891223   5.820379   5.877471   4.963718
    42  H    8.462735   7.280615   6.196904   5.815502   4.203883
                   16         17         18         19         20
    16  H    0.000000
    17  H    2.974456   0.000000
    18  H    2.316875   1.762841   0.000000
    19  H    3.056331   3.334089   3.907123   0.000000
    20  H    3.879244   2.326579   3.035582   2.552281   0.000000
    21  H    3.601909   3.703712   2.203251   4.955846   3.785873
    22  H    7.580571   6.600057   5.784831   7.905699   5.822364
    23  H    7.632591   6.038681   5.886768   7.035233   4.696688
    24  H    5.913989   4.142729   4.493569   4.744283   2.367459
    25  C    4.249652   4.447905   4.365739   2.627773   2.598582
    26  H    5.870420   5.983792   4.492640   7.274197   5.910113
    27  H    2.799179   4.010618   3.095416   3.218997   3.294427
    28  H    3.696032   5.633976   4.512710   4.473669   5.022563
    29  H    4.697669   5.872142   4.156310   6.666422   6.076150
    30  H    6.804793   7.350041   5.733490   8.488255   7.373407
    31  O    3.939575   5.555351   3.856290   6.085981   5.856976
    32  H    3.459571   5.015154   3.283350   5.941259   5.697987
    33  H    3.432715   5.120887   3.584061   5.155114   5.076779
    34  H    4.493614   5.264228   5.066718   2.920714   3.606426
    35  H    4.916883   4.899566   4.635434   3.654965   2.958952
    36  H    4.754847   4.471685   4.805026   2.447583   2.380395
    37  O    3.092790   4.214065   2.611697   5.867190   5.544936
    38  H    3.974997   4.655261   3.124760   6.679108   6.114718
    39  H    2.902409   4.397661   3.019012   5.884477   5.917374
    40  O    3.205428   5.136727   4.192417   6.168638   6.796696
    41  H    3.907638   6.064827   5.055585   6.851581   7.627185
    42  H    3.622775   5.179120   4.510394   6.405773   7.043320
                   21         22         23         24         25
    21  H    0.000000
    22  H    4.119780   0.000000
    23  H    4.890304   2.497949   0.000000
    24  H    4.298110   4.306036   2.505760   0.000000
    25  C    4.152046   6.151385   5.346157   3.551284   0.000000
    26  H    2.431722   3.105040   5.035159   5.607662   5.937540
    27  H    2.568500   5.790001   5.872098   4.521861   2.252543
    28  H    3.627871   6.655096   7.120127   6.088295   3.410985
    29  H    2.451456   5.136086   6.672354   6.549996   5.716933
    30  H    3.738129   4.236607   6.418738   7.139677   7.127868
    31  O    2.566713   5.878407   7.149971   6.680053   5.405570
    32  H    2.485725   6.140848   7.321058   6.704520   5.648991
    33  H    2.338148   5.767452   6.701233   5.992303   4.325454
    34  H    4.780651   6.926326   6.280712   4.619037   1.095908
    35  H    3.942275   5.274800   4.518800   3.134062   1.095291
    36  H    4.921598   6.656362   5.447583   3.354514   1.100463
    37  O    2.908783   6.670262   7.620571   6.783211   6.174064
    38  H    3.322661   6.665360   7.779408   7.158262   6.936179
    39  H    3.739660   7.614561   8.444006   7.407588   6.547033
    40  O    5.302561   9.298461   9.942389   8.619809   7.362315
    41  H    5.951976   9.938565  10.705473   9.440097   7.979289
    42  H    5.907703   9.843991  10.360254   8.939471   7.857116
                   26         27         28         29         30
    26  H    0.000000
    27  H    4.477285   0.000000
    28  H    4.877239   1.756798   0.000000
    29  H    2.182095   3.686937   3.540409   0.000000
    30  H    1.577259   5.480781   5.415208   2.283711   0.000000
    31  O    3.078355   3.218465   2.934201   1.003560   3.278199
    32  H    3.375379   3.445715   3.504996   1.599421   3.728101
    33  H    3.405451   2.146978   1.864012   1.787591   3.911958
    34  H    6.461722   2.472457   3.067233   5.959911   7.485094
    35  H    5.365178   2.518846   3.569068   5.456547   6.561846
    36  H    6.784464   3.228637   4.467094   6.703559   8.064639
    37  O    4.222728   4.158150   4.693334   3.051645   4.808085
    38  H    4.224579   4.974869   5.535283   3.355340   4.720617
    39  H    5.179487   4.553800   4.999200   3.827674   5.694402
    40  O    6.890392   5.505398   5.787166   5.345022   7.333202
    41  H    7.360107   6.046466   6.069136   5.637525   7.623220
    42  H    7.582655   6.152331   6.587303   6.180791   8.104564
                   31         32         33         34         35
    31  O    0.000000
    32  H    0.992711   0.000000
    33  H    1.148072   1.749798   0.000000
    34  H    5.547538   5.889500   4.408170   0.000000
    35  H    5.329734   5.684539   4.301773   1.779887   0.000000
    36  H    6.397925   6.553351   5.345729   1.786323   1.792900
    37  O    2.639661   1.656438   3.141950   6.573877   6.355242
    38  H    3.185439   2.245403   3.863785   7.404750   7.035834
    39  H    3.242177   2.282013   3.665200   6.866930   6.869197
    40  O    4.590628   3.751018   4.864530   7.534902   7.890389
    41  H    4.848106   4.093453   5.200890   8.048850   8.504380
    42  H    5.467291   4.589290   5.707734   8.082716   8.438277
                   36         37         38         39         40
    36  H    0.000000
    37  O    6.892030   0.000000
    38  H    7.629521   0.960891   0.000000
    39  H    7.219753   0.978323   1.550430   0.000000
    40  O    7.945018   2.734895   3.193064   1.759882   0.000000
    41  H    8.617048   3.335414   3.746266   2.400790   0.961486
    42  H    8.335879   3.371290   3.697120   2.422705   0.961251
                   41         42
    41  H    0.000000
    42  H    1.531988   0.000000
 Stoichiometry    C10H25N2O5(1+)
 Framework group  C1[X(C10H25N2O5)]
 Deg. of freedom   120
 Full point group                 C1      NOp   1
 Largest Abelian subgroup         C1      NOp   1
 Largest concise Abelian subgroup C1      NOp   1
                         Standard orientation:                         
 ---------------------------------------------------------------------
 Center     Atomic      Atomic             Coordinates (Angstroms)
 Number     Number       Type             X           Y           Z
 ---------------------------------------------------------------------
      1          7           0        0.133395   -1.977290    0.739816
      2          6           0        0.586538   -1.662773   -0.646380
      3          6           0       -0.725675   -1.399274   -1.412476
      4          6           0       -1.830223   -2.084302   -0.573598
      5          6           0       -1.073196   -2.806660    0.541291
      6          6           0        1.617582   -0.560878   -0.668180
      7          6           0        1.262889    0.756966   -0.384308
      8          7           0        2.129617    1.768569   -0.325927
      9          6           0        3.417347    1.510194   -0.579322
     10          6           0        3.877406    0.236283   -0.896885
     11          6           0        2.963092   -0.813256   -0.933682
     12          8           0        0.462955    3.688782    0.668450
     13          8           0       -0.583400   -0.023213    2.131284
     14          1           0       -1.630539   -2.883320    1.482172
     15          1           0       -2.434138   -2.783511   -1.160135
     16          1           0       -2.507954   -1.334389   -0.149830
     17          1           0       -0.651088   -1.810745   -2.424149
     18          1           0       -0.926216   -0.328043   -1.511182
     19          1           0       -0.772355   -3.820791    0.233135
     20          1           0        1.056189   -2.578672   -1.042679
     21          1           0        0.221503    1.015454   -0.195099
     22          1           0        4.102850    2.356118   -0.527289
     23          1           0        4.932880    0.072038   -1.105024
     24          1           0        3.296881   -1.824868   -1.168944
     25          6           0        1.163336   -2.630914    1.553168
     26          1           0        1.225022    3.173448    0.304184
     27          1           0       -0.261474   -0.888758    1.459561
     28          1           0       -0.871545   -0.307678    3.001151
     29          1           0       -0.696972    2.766587    1.253891
     30          1           0        0.811847    4.473577    1.095826
     31          8           0       -1.433086    2.108775    1.434319
     32          1           0       -1.926603    1.996920    0.580267
     33          1           0       -1.029847    1.090469    1.778586
     34          1           0        0.748378   -2.870859    2.538688
     35          1           0        2.011308   -1.950608    1.686548
     36          1           0        1.510159   -3.560751    1.077631
     37          8           0       -2.518644    1.658547   -0.929295
     38          1           0       -2.481792    2.381535   -1.561151
     39          1           0       -3.422243    1.288665   -0.991045
     40          8           0       -4.999089    0.507387   -0.972555
     41          1           0       -5.723078    0.866002   -0.451315
     42          1           0       -5.406721    0.128679   -1.756405
 ---------------------------------------------------------------------
 Rotational constants (GHZ):           0.4224050           0.3104517           0.2268181
 Standard basis: Aug-CC-pVDZ (5D, 7F)
 There are   650 symmetry adapted cartesian basis functions of A   symmetry.
 There are   616 symmetry adapted basis functions of A   symmetry.
   616 basis functions,  1006 primitive gaussians,   650 cartesian basis functions
    69 alpha electrons       69 beta electrons
       nuclear repulsion energy      1403.8436641427 Hartrees.
 NAtoms=   42 NActive=   42 NUniq=   42 SFac= 1.00D+00 NAtFMM=   60 NAOKFM=F Big=F
 Integral buffers will be    131072 words long.
 Raffenetti 2 integral format.
 Two-electron integral symmetry is turned on.
 Nuclear repulsion after empirical dispersion term =     1403.8094561189 Hartrees.
 One-electron integrals computed using PRISM.
 NBasis=   616 RedAO= T EigKep=  1.56D-06  NBF=   616
 NBsUse=   616 1.00D-06 EigRej= -1.00D+00 NBFU=   616
 Initial guess from the checkpoint file:  "/gscratch/scrubbed/gds001/Gau-9082.chk"
 B after Tr=    -0.000000   -0.000000    0.000000
         Rot=    0.999995    0.001037    0.000288    0.003084 Ang=   0.37 deg.
 ExpMin= 2.97D-02 ExpMax= 1.17D+04 ExpMxC= 4.01D+02 IAcc=3 IRadAn=         5 AccDes= 0.00D+00
 Harris functional with IExCor= 4639 and IRadAn=       5 diagonalized for initial guess.
 HarFok:  IExCor= 4639 AccDes= 0.00D+00 IRadAn=         5 IDoV= 1 UseB2=F ITyADJ=14
 ICtDFT=  3500011 ScaDFX=  1.000000  1.000000  1.000000  1.000000
 FoFCou: FMM=F IPFlag=           0 FMFlag=      100000 FMFlg1=           0
         NFxFlg=           0 DoJE=T BraDBF=F KetDBF=T FulRan=T
         wScrn=  0.000000 ICntrl=       500 IOpCl=  0 I1Cent=   200000004 NGrid=           0
         NMat0=    1 NMatS0=      1 NMatT0=    0 NMatD0=    1 NMtDS0=    0 NMtDT0=    0
 Petite list used in FoFCou.
 Requested convergence on RMS density matrix=1.00D-08 within 128 cycles.
 Requested convergence on MAX density matrix=1.00D-06.
 Requested convergence on             energy=1.00D-06.
 No special actions if energy rises.
