 Entering Gaussian System, Link 0=g16
 Input=Nic5h3bLMidAInter.gjf
 Output=Nic5h3bLMidAInter.log
 Initial command:
 /sw/contrib/gaussian/g16/A03/g16/l1.exe "/gscratch/scrubbed/gds001/Gau-6913.inp" -scrdir="/gscratch/scrubbed/gds001/"
 Entering Link 1 = /sw/contrib/gaussian/g16/A03/g16/l1.exe PID=      6914.
  
 Copyright (c) 1988,1990,1992,1993,1995,1998,2003,2009,2016,
            Gaussian, Inc.  All Rights Reserved.
  
 This is part of the Gaussian(R) 16 program.  It is based on
 the Gaussian(R) 09 system (copyright 2009, Gaussian, Inc.),
 the Gaussian(R) 03 system (copyright 2003, Gaussian, Inc.),
 the Gaussian(R) 98 system (copyright 1998, Gaussian, Inc.),
 the Gaussian(R) 94 system (copyright 1995, Gaussian, Inc.),
 the Gaussian 92(TM) system (copyright 1992, Gaussian, Inc.),
 the Gaussian 90(TM) system (copyright 1990, Gaussian, Inc.),
 the Gaussian 88(TM) system (copyright 1988, Gaussian, Inc.),
 the Gaussian 86(TM) system (copyright 1986, Carnegie Mellon
 University), and the Gaussian 82(TM) system (copyright 1983,
 Carnegie Mellon University). Gaussian is a federally registered
 trademark of Gaussian, Inc.
  
 This software contains proprietary and confidential information,
 including trade secrets, belonging to Gaussian, Inc.
  
 This software is provided under written license and may be
 used, copied, transmitted, or stored only in accord with that
 written license.
  
 The following legend is applicable only to US Government
 contracts under FAR:
  
                    RESTRICTED RIGHTS LEGEND
  
 Use, reproduction and disclosure by the US Government is
 subject to restrictions as set forth in subparagraphs (a)
 and (c) of the Commercial Computer Software - Restricted
 Rights clause in FAR 52.227-19.
  
 Gaussian, Inc.
 340 Quinnipiac St., Bldg. 40, Wallingford CT 06492
  
  
 ---------------------------------------------------------------
 Warning -- This program may not be used in any manner that
 competes with the business of Gaussian, Inc. or will provide
 assistance to any competitor of Gaussian, Inc.  The licensee
 of this program is prohibited from giving any competitor of
 Gaussian, Inc. access to this program.  By using this program,
 the user acknowledges that Gaussian, Inc. is engaged in the
 business of creating and licensing software in the field of
 computational chemistry and represents and warrants to the
 licensee that it is not a competitor of Gaussian, Inc. and that
 it will not use this program in any manner prohibited above.
 ---------------------------------------------------------------
  

 Cite this work as:
 Gaussian 16, Revision A.03,
 M. J. Frisch, G. W. Trucks, H. B. Schlegel, G. E. Scuseria, 
 M. A. Robb, J. R. Cheeseman, G. Scalmani, V. Barone, 
 G. A. Petersson, H. Nakatsuji, X. Li, M. Caricato, A. V. Marenich, 
 J. Bloino, B. G. Janesko, R. Gomperts, B. Mennucci, H. P. Hratchian, 
 J. V. Ortiz, A. F. Izmaylov, J. L. Sonnenberg, D. Williams-Young, 
 F. Ding, F. Lipparini, F. Egidi, J. Goings, B. Peng, A. Petrone, 
 T. Henderson, D. Ranasinghe, V. G. Zakrzewski, J. Gao, N. Rega, 
 G. Zheng, W. Liang, M. Hada, M. Ehara, K. Toyota, R. Fukuda, 
 J. Hasegawa, M. Ishida, T. Nakajima, Y. Honda, O. Kitao, H. Nakai, 
 T. Vreven, K. Throssell, J. A. Montgomery, Jr., J. E. Peralta, 
 F. Ogliaro, M. J. Bearpark, J. J. Heyd, E. N. Brothers, K. N. Kudin, 
 V. N. Staroverov, T. A. Keith, R. Kobayashi, J. Normand, 
 K. Raghavachari, A. P. Rendell, J. C. Burant, S. S. Iyengar, 
 J. Tomasi, M. Cossi, J. M. Millam, M. Klene, C. Adamo, R. Cammi, 
 J. W. Ochterski, R. L. Martin, K. Morokuma, O. Farkas, 
 J. B. Foresman, and D. J. Fox, Gaussian, Inc., Wallingford CT, 2016.
 
 ******************************************
 Gaussian 16:  ES64L-G16RevA.03 25-Dec-2016
                17-May-2023 
 ******************************************
 %nprocshared=28
 Will use up to   28 processors via shared memory.
 %mem=41GB
 -----------------------------------------
 # wB97XD/aug-cc-pVDZ opt=(MaxStep=1) freq
 -----------------------------------------
 1/8=1,18=20,19=15,26=3,38=1/1,3;
 2/9=110,12=2,17=6,18=5,40=1/2;
 3/5=16,7=10,11=2,25=1,30=1,71=1,74=-58/1,2,3;
 4//1;
 5/5=2,38=5/2;
 6/7=2,8=2,9=2,10=2,28=1/1;
 7//1,2,3,16;
 1/8=1,18=20,19=15,26=3/3(2);
 2/9=110/2;
 99//99;
 2/9=110/2;
 3/5=16,7=10,11=2,25=1,30=1,71=1,74=-58/1,2,3;
 4/5=5,16=3,69=1/1;
 5/5=2,38=5/2;
 7//1,2,3,16;
 1/8=1,18=20,19=15,26=3/3(-5);
 2/9=110/2;
 6/7=2,8=2,9=2,10=2,19=2,28=1/1;
 99/9=1/99;
 ----
 blah
 ----
 Symbolic Z-matrix:
 Charge =  1 Multiplicity = 1
 N                     1.54523  -1.33539   0.65525 
 C                     1.90783  -0.50477  -0.51202 
 C                     1.35588  -1.30569  -1.70669 
 C                     1.31794  -2.77166  -1.21159 
 C                     1.86541  -2.70405   0.21757 
 C                     1.41106   0.91456  -0.39149 
 C                     0.05153   1.1848   -0.24806 
 N                    -0.45581   2.41103  -0.11152 
 C                     0.38442   3.45284  -0.13166 
 C                     1.75707   3.29662  -0.28284 
 C                     2.27446   2.00907  -0.40631 
 O                    -3.03245   2.00178   0.3665 
 O                    -1.03934  -1.6034    1.35889 
 H                     1.41442  -3.43642   0.89832 
 H                     1.91747  -3.44067  -1.83679 
 H                     0.29024  -3.15176  -1.21037 
 H                     1.99181  -1.16843  -2.58728 
 H                     0.35314  -0.95338  -1.97542 
 H                     2.9593   -2.85729   0.2304 
 H                     3.01144  -0.47193  -0.58383 
 H                    -0.67124   0.36828  -0.24199 
 H                    -0.06145   4.44129  -0.02228 
 H                     2.40756   4.16892  -0.296 
 H                     3.34916   1.8571   -0.51322 
 C                     2.24479  -0.94605   1.87666 
 H                    -2.09287   2.32011   0.18551 
 H                    -0.08244  -1.43722   1.06797 
 H                    -1.01741  -2.12171   2.16642 
 H                    -3.12875   0.60826   0.6842 
 H                    -3.46341   2.64232   0.93805 
 O                    -3.20142  -0.42415   0.84099 
 H                    -3.67312  -0.86722   0.08524 
 H                    -2.30554  -0.87761   1.04271 
 H                     1.97115  -1.62865   2.69037 
 H                     1.95487   0.0711    2.1655 
 H                     3.34046  -0.98244   1.74681 
 O                    -4.43762  -1.5961   -1.15688 
 H                    -4.73023  -1.11092  -1.9341 
 H                    -5.09614  -2.28028  -1.00382 
 O                    -6.31031  -3.47871  -0.69477 
 H                    -7.39396  -3.26518  -0.05941 
 H                    -6.1414   -4.65977  -0.56775 
 
 Add virtual bond connecting atoms H42        and O40        Dist= 2.27D+00.
 Add virtual bond connecting atoms H41        and O40        Dist= 2.41D+00.
 Add virtual bond connecting atoms H29        and O12        Dist= 2.71D+00.
 Add virtual bond connecting atoms H33        and O13        Dist= 2.82D+00.
 Add virtual bond connecting atoms O37        and H32        Dist= 3.08D+00.
 Add virtual bond connecting atoms H26        and N8         Dist= 3.15D+00.
 Add virtual bond connecting atoms H27        and N1         Dist= 3.18D+00.
 Add virtual bond connecting atoms O40        and H39        Dist= 3.28D+00.

 GradGradGradGradGradGradGradGradGradGradGradGradGradGradGradGradGradGrad
 Berny optimization.
 Initialization pass.
                           ----------------------------
                           !    Initial Parameters    !
                           ! (Angstroms and Degrees)  !
 --------------------------                            --------------------------
 ! Name  Definition              Value          Derivative Info.                !
 --------------------------------------------------------------------------------
 ! R1    R(1,2)                  1.4778         estimate D2E/DX2                !
 ! R2    R(1,5)                  1.4722         estimate D2E/DX2                !
 ! R3    R(1,25)                 1.4604         estimate D2E/DX2                !
 ! R4    R(1,27)                 1.6823         estimate D2E/DX2                !
 ! R5    R(2,3)                  1.5406         estimate D2E/DX2                !
 ! R6    R(2,6)                  1.5086         estimate D2E/DX2                !
 ! R7    R(2,20)                 1.1064         estimate D2E/DX2                !
 ! R8    R(3,4)                  1.5478         estimate D2E/DX2                !
 ! R9    R(3,17)                 1.0948         estimate D2E/DX2                !
 ! R10   R(3,18)                 1.0963         estimate D2E/DX2                !
 ! R11   R(4,5)                  1.5319         estimate D2E/DX2                !
 ! R12   R(4,15)                 1.0945         estimate D2E/DX2                !
 ! R13   R(4,16)                 1.0957         estimate D2E/DX2                !
 ! R14   R(5,14)                 1.0969         estimate D2E/DX2                !
 ! R15   R(5,19)                 1.1047         estimate D2E/DX2                !
 ! R16   R(6,7)                  1.3935         estimate D2E/DX2                !
 ! R17   R(6,11)                 1.3941         estimate D2E/DX2                !
 ! R18   R(7,8)                  1.334          estimate D2E/DX2                !
 ! R19   R(7,21)                 1.0905         estimate D2E/DX2                !
 ! R20   R(8,9)                  1.3386         estimate D2E/DX2                !
 ! R21   R(8,26)                 1.6663         estimate D2E/DX2                !
 ! R22   R(9,10)                 1.3898         estimate D2E/DX2                !
 ! R23   R(9,22)                 1.0899         estimate D2E/DX2                !
 ! R24   R(10,11)                1.3931         estimate D2E/DX2                !
 ! R25   R(10,23)                1.0882         estimate D2E/DX2                !
 ! R26   R(11,24)                1.0906         estimate D2E/DX2                !
 ! R27   R(12,26)                1.0084         estimate D2E/DX2                !
 ! R28   R(12,29)                1.4325         estimate D2E/DX2                !
 ! R29   R(12,30)                0.9606         estimate D2E/DX2                !
 ! R30   R(13,27)                1.0139         estimate D2E/DX2                !
 ! R31   R(13,28)                0.9598         estimate D2E/DX2                !
 ! R32   R(13,33)                1.4933         estimate D2E/DX2                !
 ! R33   R(25,34)                1.0968         estimate D2E/DX2                !
 ! R34   R(25,35)                1.0964         estimate D2E/DX2                !
 ! R35   R(25,36)                1.1039         estimate D2E/DX2                !
 ! R36   R(29,31)                1.0468         estimate D2E/DX2                !
 ! R37   R(31,32)                0.995          estimate D2E/DX2                !
 ! R38   R(31,33)                1.0242         estimate D2E/DX2                !
 ! R39   R(32,37)                1.6305         estimate D2E/DX2                !
 ! R40   R(37,38)                0.9618         estimate D2E/DX2                !
 ! R41   R(37,39)                0.9619         estimate D2E/DX2                !
 ! R42   R(39,40)                1.7338         estimate D2E/DX2                !
 ! R43   R(40,41)                1.2742         estimate D2E/DX2                !
 ! R44   R(40,42)                1.1998         estimate D2E/DX2                !
 ! A1    A(2,1,5)              103.5533         estimate D2E/DX2                !
 ! A2    A(2,1,25)             113.1555         estimate D2E/DX2                !
 ! A3    A(2,1,27)             117.7231         estimate D2E/DX2                !
 ! A4    A(5,1,25)             113.0986         estimate D2E/DX2                !
 ! A5    A(5,1,27)             103.1256         estimate D2E/DX2                !
 ! A6    A(25,1,27)            105.9277         estimate D2E/DX2                !
 ! A7    A(1,2,3)              103.4389         estimate D2E/DX2                !
 ! A8    A(1,2,6)              112.6377         estimate D2E/DX2                !
 ! A9    A(1,2,20)             108.2207         estimate D2E/DX2                !
 ! A10   A(3,2,6)              115.665          estimate D2E/DX2                !
 ! A11   A(3,2,20)             108.8119         estimate D2E/DX2                !
 ! A12   A(6,2,20)             107.8014         estimate D2E/DX2                !
 ! A13   A(2,3,4)              104.6625         estimate D2E/DX2                !
 ! A14   A(2,3,17)             110.5141         estimate D2E/DX2                !
 ! A15   A(2,3,18)             110.5314         estimate D2E/DX2                !
 ! A16   A(4,3,17)             112.9704         estimate D2E/DX2                !
 ! A17   A(4,3,18)             111.1232         estimate D2E/DX2                !
 ! A18   A(17,3,18)            107.0879         estimate D2E/DX2                !
 ! A19   A(3,4,5)              104.351          estimate D2E/DX2                !
 ! A20   A(3,4,15)             112.507          estimate D2E/DX2                !
 ! A21   A(3,4,16)             110.6033         estimate D2E/DX2                !
 ! A22   A(5,4,15)             111.3543         estimate D2E/DX2                !
 ! A23   A(5,4,16)             110.4538         estimate D2E/DX2                !
 ! A24   A(15,4,16)            107.5991         estimate D2E/DX2                !
 ! A25   A(1,5,4)              103.926          estimate D2E/DX2                !
 ! A26   A(1,5,14)             110.2918         estimate D2E/DX2                !
 ! A27   A(1,5,19)             109.9306         estimate D2E/DX2                !
 ! A28   A(4,5,14)             113.7401         estimate D2E/DX2                !
 ! A29   A(4,5,19)             111.0141         estimate D2E/DX2                !
 ! A30   A(14,5,19)            107.8976         estimate D2E/DX2                !
 ! A31   A(2,6,7)              120.7931         estimate D2E/DX2                !
 ! A32   A(2,6,11)             122.2657         estimate D2E/DX2                !
 ! A33   A(7,6,11)             116.9392         estimate D2E/DX2                !
 ! A34   A(6,7,8)              124.0428         estimate D2E/DX2                !
 ! A35   A(6,7,21)             120.1319         estimate D2E/DX2                !
 ! A36   A(8,7,21)             115.8253         estimate D2E/DX2                !
 ! A37   A(7,8,9)              118.3688         estimate D2E/DX2                !
 ! A38   A(7,8,26)             109.9824         estimate D2E/DX2                !
 ! A39   A(9,8,26)             131.441          estimate D2E/DX2                !
 ! A40   A(8,9,10)             122.2847         estimate D2E/DX2                !
 ! A41   A(8,9,22)             116.5884         estimate D2E/DX2                !
 ! A42   A(10,9,22)            121.1269         estimate D2E/DX2                !
 ! A43   A(9,10,11)            118.7086         estimate D2E/DX2                !
 ! A44   A(9,10,23)            120.1067         estimate D2E/DX2                !
 ! A45   A(11,10,23)           121.1832         estimate D2E/DX2                !
 ! A46   A(6,11,10)            119.6465         estimate D2E/DX2                !
 ! A47   A(6,11,24)            120.1264         estimate D2E/DX2                !
 ! A48   A(10,11,24)           120.2271         estimate D2E/DX2                !
 ! A49   A(26,12,29)           114.175          estimate D2E/DX2                !
 ! A50   A(26,12,30)           108.3197         estimate D2E/DX2                !
 ! A51   A(29,12,30)           119.1144         estimate D2E/DX2                !
 ! A52   A(27,13,28)           107.9606         estimate D2E/DX2                !
 ! A53   A(27,13,33)           131.2892         estimate D2E/DX2                !
 ! A54   A(28,13,33)           117.385          estimate D2E/DX2                !
 ! A55   A(1,25,34)            109.5758         estimate D2E/DX2                !
 ! A56   A(1,25,35)            109.9368         estimate D2E/DX2                !
 ! A57   A(1,25,36)            111.6086         estimate D2E/DX2                !
 ! A58   A(34,25,35)           108.4187         estimate D2E/DX2                !
 ! A59   A(34,25,36)           108.3236         estimate D2E/DX2                !
 ! A60   A(35,25,36)           108.9063         estimate D2E/DX2                !
 ! A61   A(8,26,12)            164.7139         estimate D2E/DX2                !
 ! A62   A(29,31,32)           110.998          estimate D2E/DX2                !
 ! A63   A(29,31,33)           113.9203         estimate D2E/DX2                !
 ! A64   A(32,31,33)           111.5396         estimate D2E/DX2                !
 ! A65   A(32,37,38)           122.19           estimate D2E/DX2                !
 ! A66   A(32,37,39)           121.1818         estimate D2E/DX2                !
 ! A67   A(38,37,39)           106.2076         estimate D2E/DX2                !
 ! A68   A(39,40,41)           124.6545         estimate D2E/DX2                !
 ! A69   A(39,40,42)           126.9201         estimate D2E/DX2                !
 ! A70   A(41,40,42)           103.4094         estimate D2E/DX2                !
 ! A71   L(1,27,13,7,-1)       186.5285         estimate D2E/DX2                !
 ! A72   L(12,29,31,1,-1)      179.7847         estimate D2E/DX2                !
 ! A73   L(31,32,37,3,-1)      179.6647         estimate D2E/DX2                !
 ! A74   L(13,33,31,7,-1)      182.9877         estimate D2E/DX2                !
 ! A75   L(37,39,40,28,-1)     180.0015         estimate D2E/DX2                !
 ! A76   L(1,27,13,7,-2)       179.7968         estimate D2E/DX2                !
 ! A77   L(12,29,31,1,-2)      184.4147         estimate D2E/DX2                !
 ! A78   L(31,32,37,3,-2)      179.945          estimate D2E/DX2                !
 ! A79   L(13,33,31,7,-2)      179.4379         estimate D2E/DX2                !
 ! A80   L(37,39,40,28,-2)     177.9387         estimate D2E/DX2                !
 ! D1    D(5,1,2,3)             43.0972         estimate D2E/DX2                !
 ! D2    D(5,1,2,6)            168.6972         estimate D2E/DX2                !
 ! D3    D(5,1,2,20)           -72.2245         estimate D2E/DX2                !
 ! D4    D(25,1,2,3)           165.9177         estimate D2E/DX2                !
 ! D5    D(25,1,2,6)           -68.4822         estimate D2E/DX2                !
 ! D6    D(25,1,2,20)           50.596          estimate D2E/DX2                !
 ! D7    D(27,1,2,3)           -69.8928         estimate D2E/DX2                !
 ! D8    D(27,1,2,6)            55.7073         estimate D2E/DX2                !
 ! D9    D(27,1,2,20)          174.7855         estimate D2E/DX2                !
 ! D10   D(2,1,5,4)            -43.8215         estimate D2E/DX2                !
 ! D11   D(2,1,5,14)          -166.0913         estimate D2E/DX2                !
 ! D12   D(2,1,5,19)            75.0536         estimate D2E/DX2                !
 ! D13   D(25,1,5,4)          -166.6797         estimate D2E/DX2                !
 ! D14   D(25,1,5,14)           71.0506         estimate D2E/DX2                !
 ! D15   D(25,1,5,19)          -47.8045         estimate D2E/DX2                !
 ! D16   D(27,1,5,4)            79.3791         estimate D2E/DX2                !
 ! D17   D(27,1,5,14)          -42.8906         estimate D2E/DX2                !
 ! D18   D(27,1,5,19)         -161.7457         estimate D2E/DX2                !
 ! D19   D(2,1,13,28)         -175.8906         estimate D2E/DX2                !
 ! D20   D(2,1,13,33)          -16.2138         estimate D2E/DX2                !
 ! D21   D(5,1,13,28)           71.2169         estimate D2E/DX2                !
 ! D22   D(5,1,13,33)         -129.1062         estimate D2E/DX2                !
 ! D23   D(25,1,13,28)         -46.8197         estimate D2E/DX2                !
 ! D24   D(25,1,13,33)         112.8572         estimate D2E/DX2                !
 ! D25   D(2,1,25,34)         -177.2111         estimate D2E/DX2                !
 ! D26   D(2,1,25,35)           63.7301         estimate D2E/DX2                !
 ! D27   D(2,1,25,36)          -57.2277         estimate D2E/DX2                !
 ! D28   D(5,1,25,34)          -59.8558         estimate D2E/DX2                !
 ! D29   D(5,1,25,35)         -178.9146         estimate D2E/DX2                !
 ! D30   D(5,1,25,36)           60.1276         estimate D2E/DX2                !
 ! D31   D(27,1,25,34)          52.382          estimate D2E/DX2                !
 ! D32   D(27,1,25,35)         -66.6767         estimate D2E/DX2                !
 ! D33   D(27,1,25,36)         172.3655         estimate D2E/DX2                !
 ! D34   D(1,2,3,4)            -25.4188         estimate D2E/DX2                !
 ! D35   D(1,2,3,17)          -147.3301         estimate D2E/DX2                !
 ! D36   D(1,2,3,18)            94.3012         estimate D2E/DX2                !
 ! D37   D(6,2,3,4)           -149.0521         estimate D2E/DX2                !
 ! D38   D(6,2,3,17)            89.0366         estimate D2E/DX2                !
 ! D39   D(6,2,3,18)           -29.3321         estimate D2E/DX2                !
 ! D40   D(20,2,3,4)            89.4804         estimate D2E/DX2                !
 ! D41   D(20,2,3,17)          -32.4309         estimate D2E/DX2                !
 ! D42   D(20,2,3,18)         -150.7995         estimate D2E/DX2                !
 ! D43   D(1,2,6,7)            -58.9683         estimate D2E/DX2                !
 ! D44   D(1,2,6,11)           120.5023         estimate D2E/DX2                !
 ! D45   D(3,2,6,7)             59.7016         estimate D2E/DX2                !
 ! D46   D(3,2,6,11)          -120.8279         estimate D2E/DX2                !
 ! D47   D(20,2,6,7)          -178.2905         estimate D2E/DX2                !
 ! D48   D(20,2,6,11)            1.1801         estimate D2E/DX2                !
 ! D49   D(2,3,4,5)             -0.6926         estimate D2E/DX2                !
 ! D50   D(2,3,4,15)          -121.5473         estimate D2E/DX2                !
 ! D51   D(2,3,4,16)           118.0933         estimate D2E/DX2                !
 ! D52   D(17,3,4,5)           119.5946         estimate D2E/DX2                !
 ! D53   D(17,3,4,15)           -1.2601         estimate D2E/DX2                !
 ! D54   D(17,3,4,16)         -121.6194         estimate D2E/DX2                !
 ! D55   D(18,3,4,5)          -120.0151         estimate D2E/DX2                !
 ! D56   D(18,3,4,15)          119.1302         estimate D2E/DX2                !
 ! D57   D(18,3,4,16)           -1.2291         estimate D2E/DX2                !
 ! D58   D(3,4,5,1)             26.7395         estimate D2E/DX2                !
 ! D59   D(3,4,5,14)           146.6988         estimate D2E/DX2                !
 ! D60   D(3,4,5,19)           -91.3908         estimate D2E/DX2                !
 ! D61   D(15,4,5,1)           148.3594         estimate D2E/DX2                !
 ! D62   D(15,4,5,14)          -91.6813         estimate D2E/DX2                !
 ! D63   D(15,4,5,19)           30.2292         estimate D2E/DX2                !
 ! D64   D(16,4,5,1)           -92.1481         estimate D2E/DX2                !
 ! D65   D(16,4,5,14)           27.8112         estimate D2E/DX2                !
 ! D66   D(16,4,5,19)          149.7216         estimate D2E/DX2                !
 ! D67   D(2,6,7,8)            178.7136         estimate D2E/DX2                !
 ! D68   D(2,6,7,21)            -1.2473         estimate D2E/DX2                !
 ! D69   D(11,6,7,8)            -0.7842         estimate D2E/DX2                !
 ! D70   D(11,6,7,21)          179.2548         estimate D2E/DX2                !
 ! D71   D(2,6,11,10)         -179.6068         estimate D2E/DX2                !
 ! D72   D(2,6,11,24)            0.344          estimate D2E/DX2                !
 ! D73   D(7,6,11,10)           -0.1169         estimate D2E/DX2                !
 ! D74   D(7,6,11,24)          179.8339         estimate D2E/DX2                !
 ! D75   D(6,7,8,9)              0.9987         estimate D2E/DX2                !
 ! D76   D(6,7,8,26)          -174.3571         estimate D2E/DX2                !
 ! D77   D(21,7,8,9)          -179.0388         estimate D2E/DX2                !
 ! D78   D(21,7,8,26)            5.6054         estimate D2E/DX2                !
 ! D79   D(7,8,9,10)            -0.3047         estimate D2E/DX2                !
 ! D80   D(7,8,9,22)           179.7298         estimate D2E/DX2                !
 ! D81   D(26,8,9,10)          173.8693         estimate D2E/DX2                !
 ! D82   D(26,8,9,22)           -6.0962         estimate D2E/DX2                !
 ! D83   D(7,8,26,12)            4.2303         estimate D2E/DX2                !
 ! D84   D(9,8,26,12)         -170.3162         estimate D2E/DX2                !
 ! D85   D(8,9,10,11)           -0.5458         estimate D2E/DX2                !
 ! D86   D(8,9,10,23)          179.8944         estimate D2E/DX2                !
 ! D87   D(22,9,10,11)         179.4182         estimate D2E/DX2                !
 ! D88   D(22,9,10,23)          -0.1416         estimate D2E/DX2                !
 ! D89   D(9,10,11,6)            0.7391         estimate D2E/DX2                !
 ! D90   D(9,10,11,24)        -179.2117         estimate D2E/DX2                !
 ! D91   D(23,10,11,6)        -179.7061         estimate D2E/DX2                !
 ! D92   D(23,10,11,24)          0.3432         estimate D2E/DX2                !
 ! D93   D(29,12,26,8)          10.6434         estimate D2E/DX2                !
 ! D94   D(30,12,26,8)         145.9133         estimate D2E/DX2                !
 ! D95   D(26,12,31,32)       -111.3377         estimate D2E/DX2                !
 ! D96   D(26,12,31,33)         14.0924         estimate D2E/DX2                !
 ! D97   D(30,12,31,32)        117.1615         estimate D2E/DX2                !
 ! D98   D(30,12,31,33)       -117.4084         estimate D2E/DX2                !
 ! D99   D(27,13,31,29)        -32.2018         estimate D2E/DX2                !
 ! D100  D(27,13,31,32)         95.2327         estimate D2E/DX2                !
 ! D101  D(28,13,31,29)        125.0983         estimate D2E/DX2                !
 ! D102  D(28,13,31,32)       -107.4671         estimate D2E/DX2                !
 ! D103  D(29,31,37,38)          2.8549         estimate D2E/DX2                !
 ! D104  D(29,31,37,39)       -137.3295         estimate D2E/DX2                !
 ! D105  D(33,31,37,38)       -125.2273         estimate D2E/DX2                !
 ! D106  D(33,31,37,39)         94.5883         estimate D2E/DX2                !
 ! D107  D(32,37,40,41)         61.5934         estimate D2E/DX2                !
 ! D108  D(32,37,40,42)        -88.7392         estimate D2E/DX2                !
 ! D109  D(38,37,40,41)        -83.0235         estimate D2E/DX2                !
 ! D110  D(38,37,40,42)        126.6439         estimate D2E/DX2                !
 --------------------------------------------------------------------------------
 Trust Radius=1.00D-02 FncErr=1.00D-07 GrdErr=1.00D-06 EigMax=2.50D+02 EigMin=1.00D-04
 Number of steps in this run=    244 maximum allowed number of steps=    252.
 GradGradGradGradGradGradGradGradGradGradGradGradGradGradGradGradGradGrad

                          Input orientation:                          
 ---------------------------------------------------------------------
 Center     Atomic      Atomic             Coordinates (Angstroms)
 Number     Number       Type             X           Y           Z
 ---------------------------------------------------------------------
      1          7           0        1.545232   -1.335387    0.655254
      2          6           0        1.907826   -0.504767   -0.512021
      3          6           0        1.355879   -1.305687   -1.706694
      4          6           0        1.317944   -2.771662   -1.211585
      5          6           0        1.865405   -2.704050    0.217574
      6          6           0        1.411057    0.914559   -0.391488
      7          6           0        0.051527    1.184800   -0.248058
      8          7           0       -0.455814    2.411026   -0.111518
      9          6           0        0.384416    3.452844   -0.131659
     10          6           0        1.757069    3.296623   -0.282839
     11          6           0        2.274459    2.009066   -0.406305
     12          8           0       -3.032447    2.001781    0.366497
     13          8           0       -1.039342   -1.603399    1.358886
     14          1           0        1.414424   -3.436415    0.898322
     15          1           0        1.917472   -3.440673   -1.836787
     16          1           0        0.290240   -3.151764   -1.210368
     17          1           0        1.991810   -1.168432   -2.587276
     18          1           0        0.353139   -0.953378   -1.975423
     19          1           0        2.959304   -2.857290    0.230398
     20          1           0        3.011444   -0.471927   -0.583830
     21          1           0       -0.671236    0.368277   -0.241990
     22          1           0       -0.061447    4.441286   -0.022277
     23          1           0        2.407564    4.168923   -0.295995
     24          1           0        3.349164    1.857102   -0.513220
     25          6           0        2.244793   -0.946053    1.876659
     26          1           0       -2.092868    2.320114    0.185509
     27          1           0       -0.082439   -1.437217    1.067972
     28          1           0       -1.017412   -2.121708    2.166424
     29          1           0       -3.128750    0.608263    0.684199
     30          1           0       -3.463410    2.642316    0.938048
     31          8           0       -3.201417   -0.424150    0.840988
     32          1           0       -3.673123   -0.867217    0.085237
     33          1           0       -2.305538   -0.877614    1.042710
     34          1           0        1.971148   -1.628653    2.690365
     35          1           0        1.954867    0.071103    2.165497
     36          1           0        3.340458   -0.982439    1.746805
     37          8           0       -4.437623   -1.596103   -1.156879
     38          1           0       -4.730232   -1.110923   -1.934101
     39          1           0       -5.096139   -2.280282   -1.003821
     40          8           0       -6.310309   -3.478712   -0.694768
     41          1           0       -7.393957   -3.265176   -0.059414
     42          1           0       -6.141398   -4.659765   -0.567754
 ---------------------------------------------------------------------
                    Distance matrix (angstroms):
                    1          2          3          4          5
     1  N    0.000000
     2  C    1.477814   0.000000
     3  C    2.369712   1.540572   0.000000
     4  C    2.366354   2.444619   1.547790   0.000000
     5  C    1.472180   2.317532   2.432662   1.531920   0.000000
     6  C    2.485142   1.508573   2.581144   3.777493   3.697529
     7  C    3.065692   2.523917   3.167251   4.264480   4.316262
     8  N    4.315986   3.774791   4.431791   5.587184   5.626754
     9  C    4.989377   4.257715   5.105692   6.386093   6.342132
    10  C    4.730794   3.811275   4.834209   6.154631   6.022477
    11  C    3.583859   2.542627   3.677280   4.941534   4.771793
    12  O    5.672320   5.608999   5.873233   6.648459   6.793819
    13  O    2.692016   3.659656   3.901730   3.678173   3.309317
    14  H    2.119083   3.290452   3.365938   2.214252   1.096887
    15  H    3.283452   3.220969   2.211442   1.094480   2.183054
    16  H    2.890463   3.179759   2.188590   1.095744   2.172697
    17  H    3.277393   2.180410   1.094839   2.217424   3.200201
    18  H    2.913328   2.181708   1.096278   2.195553   3.187638
    19  H    2.120446   2.681633   2.954787   2.186483   1.104655
    20  H    2.104916   1.106439   2.167227   2.924175   2.634013
    21  H    2.936026   2.736180   3.009437   3.841376   4.010603
    22  H    6.034104   5.346151   6.154167   7.439341   7.404466
    23  H    5.652072   4.705293   5.750432   7.085005   6.913425
    24  H    3.848570   2.766926   3.924385   5.102845   4.851774
    25  C    1.460410   2.452361   3.709437   3.705287   2.446845
    26  H    5.178718   4.946924   5.349834   6.285833   6.396185
    27  H    1.682266   2.706842   3.128071   2.989682   2.474296
    28  H    3.077187   4.283174   4.615132   4.157797   3.528140
    29  H    5.062087   5.294986   5.430605   5.898388   6.010885
    30  H    6.402233   6.391949   6.768082   7.536141   7.582808
    31  O    4.836892   5.285972   5.294973   5.490764   5.590999
    32  H    5.270231   5.624507   5.356691   5.497218   5.836674
    33  H    3.897192   4.506511   4.598744   4.668928   4.627471
    34  H    2.099782   3.394467   4.451628   4.118053   2.698584
    35  H    2.104008   2.739150   4.153095   4.460007   3.391737
    36  H    2.130468   2.717149   3.996211   4.005490   2.734643
    37  O    6.256705   6.470825   5.826775   5.874647   6.545596
    38  H    6.792392   6.815684   6.093471   6.313519   7.118299
    39  H    6.910367   7.242227   6.562957   6.436232   7.080571
    40  O    8.253843   8.741595   8.032215   7.678363   8.262855
    41  H    9.173000   9.713284   9.116620   8.801606   9.280483
    42  H    8.463541   9.058539   8.291935   7.721479   8.279520
                    6          7          8          9         10
     6  C    0.000000
     7  C    1.393529   0.000000
     8  N    2.408943   1.334042   0.000000
     9  C    2.750344   2.295297   1.338573   0.000000
    10  C    2.409514   2.714752   2.389662   1.389761   0.000000
    11  C    1.394141   2.376107   2.775403   2.394199   1.393104
    12  O    4.636952   3.249005   2.652361   3.745490   5.003770
    13  O    3.925351   3.397987   4.314881   5.460257   5.875831
    14  H    4.538127   4.952505   6.221747   7.041567   6.844439
    15  H    4.616643   5.234578   6.546100   7.264867   6.916042
    16  H    4.296717   4.448462   5.719152   6.692782   6.677843
    17  H    3.081819   3.843740   4.993272   5.474483   5.030134
    18  H    2.667814   2.765242   3.930364   4.776530   4.785224
    19  H    4.124398   5.002257   6.287694   6.824875   6.291218
    20  H    2.126165   3.408606   4.533914   4.744424   3.983217
    21  H    2.157943   1.090474   2.058216   3.262074   3.804411
    22  H    3.839582   3.266258   2.070132   1.089851   2.164520
    23  H    3.404854   3.802394   3.364991   2.152418   1.088221
    24  H    2.158579   3.375901   3.866013   3.388468   2.158718
    25  C    3.049833   3.723624   4.745114   5.181181   4.785562
    26  H    3.819162   2.464822   1.666264   2.742373   3.999367
    27  H    3.145060   2.936810   4.042225   5.056655   5.255257
    28  H    4.653955   4.231471   5.103929   6.190471   6.561627
    29  H    4.675550   3.363876   3.320799   4.593430   5.659829
    30  H    5.339779   3.985722   3.193856   4.075168   5.401119
    31  O    4.958433   3.788982   4.060028   5.369853   6.300295
    32  H    5.408408   4.265545   4.597463   5.930733   6.852739
    33  H    4.368282   3.387534   3.945741   5.231430   5.973785
    34  H    4.034780   4.498310   5.482673   6.025210   5.757093
    35  H    2.746875   3.269292   4.058500   4.379431   4.054313
    36  H    3.448693   4.415141   5.420392   5.651420   4.993691
    37  O    6.410640   5.358343   5.744969   7.056557   7.942098
    38  H    6.648132   5.565816   5.830659   7.087763   8.014874
    39  H    7.274996   6.251115   6.658618   7.979090   8.864995
    40  O    8.888886   7.900687   8.324921   9.653129  10.543123
    41  H    9.752370   8.676007   8.964363  10.278137  11.262700
    42  H    9.388489   8.521354   9.084608  10.420693  11.214770
                   11         12         13         14         15
    11  C    0.000000
    12  O    5.362884   0.000000
    13  O    5.210286   4.237290   0.000000
    14  H    5.665243   7.044961   3.097262   0.000000
    15  H    5.645651   7.679614   4.725532   2.780988   0.000000
    16  H    5.587290   6.331333   3.281202   2.406531   1.767414
    17  H    3.864326   6.634620   4.994925   4.198394   2.394126
    18  H    3.863894   5.067519   3.671396   3.943375   2.941597
    19  H    4.955383   7.715580   4.339919   1.779933   2.387259
    20  H    2.594222   6.599316   4.632844   3.679054   3.402959
    21  H    3.375842   2.934946   2.566284   4.486198   4.873693
    22  H    3.394058   3.863829   6.277110   8.067458   8.326695
    23  H    2.166764   5.893142   6.923835   7.762338   7.779472
    24  H    1.090649   6.443585   5.893966   5.810077   5.645174
    25  C    3.734372   6.230536   3.389061   2.801528   4.485527
    26  H    4.418205   1.008415   4.228556   6.778409   7.304736
    27  H    4.427790   4.584901   1.013859   2.503232   4.055996
    28  H    5.875257   4.929834   0.959814   3.041441   5.136040
    29  H    5.687365   1.432516   3.116453   6.086518   6.943602
    30  H    5.927177   0.960565   4.907067   7.793960   8.582328
    31  O    6.120580   2.477667   2.516628   5.512079   6.517125
    32  H    6.624828   2.953087   3.016778   5.757171   6.447605
    33  H    5.604368   3.045747   1.493313   4.517347   5.717918
    34  H    4.786895   6.604270   3.291888   2.605641   4.876618
    35  H    3.236048   5.642448   3.524183   3.768354   5.324683
    36  H    3.836840   7.171104   4.440577   3.232882   4.572738
    37  O    7.655890   4.152103   4.228172   6.469703   6.652214
    38  H    7.818835   4.226600   4.970811   7.154532   7.044798
    39  H    8.548757   4.946985   4.743222   6.880568   7.157589
    40  O   10.192996   6.473520   5.959647   7.887409   8.306746
    41  H   11.018903   6.851643   6.719688   8.861950   9.481169
    42  H   10.738995   7.410438   6.251743   7.793357   8.248758
                   16         17         18         19         20
    16  H    0.000000
    17  H    2.953781   0.000000
    18  H    2.328555   1.762344   0.000000
    19  H    3.047363   3.424554   3.909300   0.000000
    20  H    3.870275   2.353416   3.038900   2.521040   0.000000
    21  H    3.775299   3.866996   2.408507   4.879370   3.792747
    22  H    7.693481   6.501078   5.752309   7.903037   5.822170
    23  H    7.675389   5.823245   5.768805   7.067473   4.688817
    24  H    5.910310   3.911262   4.360390   4.788575   2.354446
    25  C    4.267924   4.476625   4.291497   2.621741   2.620411
    26  H    6.129366   6.045071   4.622589   7.234084   5.868678
    27  H    2.875655   4.211365   3.112247   3.459818   3.637629
    28  H    3.764797   5.706296   4.516448   4.483698   5.149500
    29  H    5.423715   6.330824   4.651437   7.020000   6.362129
    30  H    7.230280   7.530547   5.998614   8.485145   7.344274
    31  O    4.882582   6.267101   4.565865   6.651877   6.374326
    32  H    4.754576   6.270927   4.523774   6.926078   6.729587
    33  H    4.121430   5.632812   4.022863   5.683092   5.574990
    34  H    4.512321   5.297709   4.984328   2.921890   3.624994
    35  H    4.955232   4.911890   4.556568   3.650889   2.995002
    36  H    4.770186   4.542874   4.772829   2.441277   2.408471
    37  O    4.977513   6.600496   4.902500   7.630836   7.555181
    38  H    5.467537   6.753947   5.085980   8.177030   7.884484
    39  H    5.460332   7.347283   5.692040   8.169847   8.317418
    40  O    6.628724   8.822934   7.240092   9.336371   9.795312
    41  H    7.770743   9.943794   8.308610  10.365345  10.786548
    42  H    6.637242   9.078378   7.609064   9.311753  10.065424
                   21         22         23         24         25
    21  H    0.000000
    22  H    4.124260   0.000000
    23  H    4.891507   2.499024   0.000000
    24  H    4.295787   4.307122   2.505656   0.000000
    25  C    3.836582   6.160205   5.559667   3.845625   0.000000
    26  H    2.452236   2.944353   4.889154   5.506207   5.687103
    27  H    2.307052   5.978786   6.284053   5.012844   2.512215
    28  H    3.481425   6.984066   7.574035   6.486787   3.479671
    29  H    2.637194   4.959790   6.655062   6.704982   5.719513
    30  H    3.789456   3.966342   6.190454   7.009558   6.807420
    31  O    2.864018   5.854665   7.338237   7.067397   5.568321
    32  H    3.262644   6.421524   7.904606   7.555963   6.183618
    33  H    2.423560   5.870336   7.033704   6.471108   4.626626
    34  H    4.423644   6.952268   6.536107   4.930758   1.096787
    35  H    3.575014   5.286812   4.801667   3.508473   1.096399
    36  H    4.676904   6.642244   5.619595   3.629157   1.103933
    37  O    4.345283   7.542434   8.990730   8.542422   7.367469
    38  H    4.639690   7.501976   9.028195   8.723802   7.949846
    39  H    5.212966   8.455237   9.919618   9.417100   7.997913
    40  O    6.841307  10.110731  11.603734  11.036725   9.285277
    41  H    7.643971  10.637511  12.304130  11.910429  10.101100
    42  H    7.437069  10.958671  12.292450  11.512745   9.491839
                   26         27         28         29         30
    26  H    0.000000
    27  H    4.351793   0.000000
    28  H    4.981005   1.596653   0.000000
    29  H    2.062081   3.689347   3.755993   0.000000
    30  H    1.596407   5.300041   5.494337   2.076971   0.000000
    31  O    3.031422   3.287225   3.067305   1.046776   3.079168
    32  H    3.558980   3.766123   3.599707   1.682896   3.617746
    33  H    3.317452   2.292589   2.114183   1.736099   3.706957
    34  H    6.195425   2.624124   3.073940   5.919244   7.130653
    35  H    5.036126   2.762283   3.693625   5.322213   6.121723
    36  H    6.547177   3.519071   4.523831   6.746119   7.751487
    37  O    4.757798   4.893142   4.797754   3.156255   4.827215
    38  H    4.818760   5.542643   5.623257   3.517931   4.892942
    39  H    5.621191   5.490016   5.168328   3.881201   5.537927
    40  O    7.224132   6.786849   6.167871   5.359779   6.945351
    41  H    7.704349   7.620415   6.849978   5.809344   7.165375
    42  H    8.104117   7.054885   6.338193   6.196415   7.922086
                   31         32         33         34         35
    31  O    0.000000
    32  H    0.994975   0.000000
    33  H    1.024168   1.669476   0.000000
    34  H    5.623740   6.262928   4.644230   0.000000
    35  H    5.346669   6.073072   4.506858   1.779023   0.000000
    36  H    6.627844   7.208634   5.690695   1.784071   1.790284
    37  O    2.625481   1.630517   3.146459   7.474938   7.394707
    38  H    3.241921   2.292291   3.846424   8.158568   7.930601
    39  H    3.230869   2.282055   3.734062   8.001136   8.080240
    40  O    4.621050   3.792501   5.081607   9.135884   9.439038
    41  H    5.143884   4.428966   5.727752   9.896701  10.172586
    42  H    5.344949   4.571892   5.622462   9.252912   9.767358
                   36         37         38         39         40
    36  H    0.000000
    37  O    8.325053   0.000000
    38  H    8.871393   0.961818   0.000000
    39  H    8.968083   0.961858   1.538411   0.000000
    40  O   10.263039   2.695314   3.104676   1.733770   0.000000
    41  H   11.122094   3.567933   3.905213   2.672431   1.274192
    42  H   10.430029   3.554707   4.056177   2.635272   1.199812
                   41         42
    41  H    0.000000
    42  H    1.942213   0.000000
 Stoichiometry    C10H25N2O5(1+)
 Framework group  C1[X(C10H25N2O5)]
 Deg. of freedom   120
 Full point group                 C1      NOp   1
 Largest Abelian subgroup         C1      NOp   1
 Largest concise Abelian subgroup C1      NOp   1
                         Standard orientation:                         
 ---------------------------------------------------------------------
 Center     Atomic      Atomic             Coordinates (Angstroms)
 Number     Number       Type             X           Y           Z
 ---------------------------------------------------------------------
      1          7           0        1.432784   -1.785376    0.659430
      2          6           0        2.049008   -1.182436   -0.540848
      3          6           0        1.173215   -1.706789   -1.694712
      4          6           0        0.571571   -3.028947   -1.160316
      5          6           0        1.159125   -3.171917    0.247206
      6          6           0        2.168162    0.318094   -0.440826
      7          6           0        1.038127    1.112904   -0.258551
      8          7           0        1.070884    2.441004   -0.137113
      9          6           0        2.256577    3.057563   -0.213035
     10          6           0        3.443994    2.361824   -0.406488
     11          6           0        3.396399    0.973659   -0.513595
     12          8           0       -1.431496    3.105668    0.438503
     13          8           0       -1.010886   -0.985828    1.457020
     14          1           0        0.481160   -3.654462    0.961822
     15          1           0        0.826186   -3.888852   -1.787708
     16          1           0       -0.521304   -2.964431   -1.114308
     17          1           0        1.773651   -1.845589   -2.599633
     18          1           0        0.385488   -0.984364   -1.938460
     19          1           0        2.099426   -3.751301    0.226974
     20          1           0        3.069260   -1.596191   -0.650847
     21          1           0        0.049649    0.655365   -0.206580
     22          1           0        2.249178    4.142932   -0.114575
     23          1           0        4.388388    2.899385   -0.464555
     24          1           0        4.314668    0.401900   -0.652840
     25          6           0        2.279844   -1.696942    1.845796
     26          1           0       -0.451503    3.018089    0.217495
     27          1           0       -0.080582   -1.220849    1.129591
     28          1           0       -1.164969   -1.460881    2.276670
     29          1           0       -2.064896    1.871451    0.795732
     30          1           0       -1.545476    3.871260    1.007329
     31          8           0       -2.538636    0.956768    0.981921
     32          1           0       -3.179334    0.732502    0.254470
     33          1           0       -1.892037    0.183908    1.164998
     34          1           0        1.789654   -2.203722    2.685933
     35          1           0        2.434130   -0.646010    2.117510
     36          1           0        3.262662   -2.171507    1.679891
     37          8           0       -4.222768    0.358960   -0.941481
     38          1           0       -4.328439    0.912662   -1.720802
     39          1           0       -5.093298   -0.001639   -0.748303
     40          8           0       -6.671991   -0.608482   -0.366956
     41          1           0       -7.551807    0.028767    0.298930
     42          1           0       -6.985435   -1.756589   -0.214801
 ---------------------------------------------------------------------
 Rotational constants (GHZ):           0.4212573           0.2261278           0.1693084
 Standard basis: Aug-CC-pVDZ (5D, 7F)
 There are   650 symmetry adapted cartesian basis functions of A   symmetry.
 There are   616 symmetry adapted basis functions of A   symmetry.
   616 basis functions,  1006 primitive gaussians,   650 cartesian basis functions
    69 alpha electrons       69 beta electrons
       nuclear repulsion energy      1339.5185563605 Hartrees.
 NAtoms=   42 NActive=   42 NUniq=   42 SFac= 1.00D+00 NAtFMM=   60 NAOKFM=F Big=F
 Integral buffers will be    131072 words long.
 Raffenetti 2 integral format.
 Two-electron integral symmetry is turned on.
 Nuclear repulsion after empirical dispersion term =     1339.4877829312 Hartrees.
 One-electron integrals computed using PRISM.
 NBasis=   616 RedAO= T EigKep=  1.83D-06  NBF=   616
 NBsUse=   616 1.00D-06 EigRej= -1.00D+00 NBFU=   616
 ExpMin= 2.97D-02 ExpMax= 1.17D+04 ExpMxC= 4.01D+02 IAcc=3 IRadAn=         5 AccDes= 0.00D+00
 Harris functional with IExCor= 4639 and IRadAn=       5 diagonalized for initial guess.
 HarFok:  IExCor= 4639 AccDes= 0.00D+00 IRadAn=         5 IDoV= 1 UseB2=F ITyADJ=14
 ICtDFT=  3500011 ScaDFX=  1.000000  1.000000  1.000000  1.000000
 FoFCou: FMM=F IPFlag=           0 FMFlag=      100000 FMFlg1=           0
         NFxFlg=           0 DoJE=T BraDBF=F KetDBF=T FulRan=T
         wScrn=  0.000000 ICntrl=       500 IOpCl=  0 I1Cent=   200000004 NGrid=           0
         NMat0=    1 NMatS0=      1 NMatT0=    0 NMatD0=    1 NMtDS0=    0 NMtDT0=    0
 Petite list used in FoFCou.
 Requested convergence on RMS density matrix=1.00D-08 within 128 cycles.
 Requested convergence on MAX density matrix=1.00D-06.
 Requested convergence on             energy=1.00D-06.
 No special actions if energy rises.
 SCF Done:  E(RwB97XD) =  -881.374615352     A.U. after   15 cycles
            NFock= 15  Conv=0.36D-08     -V/T= 2.0068

 **********************************************************************

            Population analysis using the SCF density.

 **********************************************************************

 Orbital symmetries:
       Occupied  (A) (A) (A) (A) (A) (A) (A) (A) (A) (A) (A) (A)
                 (A) (A) (A) (A) (A) (A) (A) (A) (A) (A) (A) (A)
                 (A) (A) (A) (A) (A) (A) (A) (A) (A) (A) (A) (A)
                 (A) (A) (A) (A) (A) (A) (A) (A) (A) (A) (A) (A)
                 (A) (A) (A) (A) (A) (A) (A) (A) (A) (A) (A) (A)
                 (A) (A) (A) (A) (A) (A) (A) (A) (A)
       Virtual   (A) (A) (A) (A) (A) (A) (A) (A) (A) (A) (A) (A)
                 (A) (A) (A) (A) (A) (A) (A) (A) (A) (A) (A) (A)
                 (A) (A) (A) (A) (A) (A) (A) (A) (A) (A) (A) (A)
                 (A) (A) (A) (A) (A) (A) (A) (A) (A) (A) (A) (A)
                 (A) (A) (A) (A) (A) (A) (A) (A) (A) (A) (A) (A)
                 (A) (A) (A) (A) (A) (A) (A) (A) (A) (A) (A) (A)
                 (A) (A) (A) (A) (A) (A) (A) (A) (A) (A) (A) (A)
                 (A) (A) (A) (A) (A) (A) (A) (A) (A) (A) (A) (A)
                 (A) (A) (A) (A) (A) (A) (A) (A) (A) (A) (A) (A)
                 (A) (A) (A) (A) (A) (A) (A) (A) (A) (A) (A) (A)
                 (A) (A) (A) (A) (A) (A) (A) (A) (A) (A) (A) (A)
                 (A) (A) (A) (A) (A) (A) (A) (A) (A) (A) (A) (A)
                 (A) (A) (A) (A) (A) (A) (A) (A) (A) (A) (A) (A)
                 (A) (A) (A) (A) (A) (A) (A) (A) (A) (A) (A) (A)
                 (A) (A) (A) (A) (A) (A) (A) (A) (A) (A) (A) (A)
                 (A) (A) (A) (A) (A) (A) (A) (A) (A) (A) (A) (A)
                 (A) (A) (A) (A) (A) (A) (A) (A) (A) (A) (A) (A)
                 (A) (A) (A) (A) (A) (A) (A) (A) (A) (A) (A) (A)
                 (A) (A) (A) (A) (A) (A) (A) (A) (A) (A) (A) (A)
                 (A) (A) (A) (A) (A) (A) (A) (A) (A) (A) (A) (A)
                 (A) (A) (A) (A) (A) (A) (A) (A) (A) (A) (A) (A)
                 (A) (A) (A) (A) (A) (A) (A) (A) (A) (A) (A) (A)
                 (A) (A) (A) (A) (A) (A) (A) (A) (A) (A) (A) (A)
                 (A) (A) (A) (A) (A) (A) (A) (A) (A) (A) (A) (A)
                 (A) (A) (A) (A) (A) (A) (A) (A) (A) (A) (A) (A)
                 (A) (A) (A) (A) (A) (A) (A) (A) (A) (A) (A) (A)
                 (A) (A) (A) (A) (A) (A) (A) (A) (A) (A) (A) (A)
                 (A) (A) (A) (A) (A) (A) (A) (A) (A) (A) (A) (A)
                 (A) (A) (A) (A) (A) (A) (A) (A) (A) (A) (A) (A)
                 (A) (A) (A) (A) (A) (A) (A) (A) (A) (A) (A) (A)
                 (A) (A) (A) (A) (A) (A) (A) (A) (A) (A) (A) (A)
                 (A) (A) (A) (A) (A) (A) (A) (A) (A) (A) (A) (A)
                 (A) (A) (A) (A) (A) (A) (A) (A) (A) (A) (A) (A)
                 (A) (A) (A) (A) (A) (A) (A) (A) (A) (A) (A) (A)
                 (A) (A) (A) (A) (A) (A) (A) (A) (A) (A) (A) (A)
                 (A) (A) (A) (A) (A) (A) (A) (A) (A) (A) (A) (A)
                 (A) (A) (A) (A) (A) (A) (A) (A) (A) (A) (A) (A)
                 (A) (A) (A) (A) (A) (A) (A) (A) (A) (A) (A) (A)
                 (A) (A) (A) (A) (A) (A) (A) (A) (A) (A) (A) (A)
                 (A) (A) (A) (A) (A) (A) (A) (A) (A) (A) (A) (A)
                 (A) (A) (A) (A) (A) (A) (A) (A) (A) (A) (A) (A)
                 (A) (A) (A) (A) (A) (A) (A) (A) (A) (A) (A) (A)
                 (A) (A) (A) (A) (A) (A) (A) (A) (A) (A) (A) (A)
                 (A) (A) (A) (A) (A) (A) (A) (A) (A) (A) (A) (A)
                 (A) (A) (A) (A) (A) (A) (A) (A) (A) (A) (A) (A)
                 (A) (A) (A) (A) (A) (A) (A)
 The electronic state is 1-A.
 Alpha  occ. eigenvalues --  -19.43722 -19.42499 -19.39481 -19.39409 -19.38864
 Alpha  occ. eigenvalues --  -14.58108 -14.57640 -10.45510 -10.45258 -10.44673
 Alpha  occ. eigenvalues --  -10.43386 -10.43146 -10.42791 -10.42605 -10.42312
 Alpha  occ. eigenvalues --  -10.40230 -10.39722  -1.29890  -1.23887  -1.23660
 Alpha  occ. eigenvalues --   -1.23161  -1.17682  -1.16402  -1.15554  -1.03542
 Alpha  occ. eigenvalues --   -1.00082  -0.99014  -0.93247  -0.88600  -0.85202
 Alpha  occ. eigenvalues --   -0.84139  -0.79927  -0.79187  -0.78896  -0.78613
 Alpha  occ. eigenvalues --   -0.76121  -0.74424  -0.74393  -0.72258  -0.70443
 Alpha  occ. eigenvalues --   -0.69450  -0.68211  -0.65449  -0.65009  -0.64864
 Alpha  occ. eigenvalues --   -0.64395  -0.63391  -0.61688  -0.61489  -0.60918
 Alpha  occ. eigenvalues --   -0.60762  -0.59238  -0.59049  -0.58308  -0.57833
 Alpha  occ. eigenvalues --   -0.56992  -0.55995  -0.54829  -0.53967  -0.53624
 Alpha  occ. eigenvalues --   -0.53387  -0.53038  -0.52559  -0.51227  -0.50865
 Alpha  occ. eigenvalues --   -0.48437  -0.47851  -0.45221  -0.44230
 Alpha virt. eigenvalues --   -0.08823  -0.08378  -0.07045  -0.05639  -0.04590
 Alpha virt. eigenvalues --   -0.04043  -0.03861  -0.03215  -0.02699  -0.02307
 Alpha virt. eigenvalues --   -0.02001  -0.01662  -0.01315  -0.00596  -0.00342
 Alpha virt. eigenvalues --    0.00107   0.00215   0.00710   0.01028   0.01539
 Alpha virt. eigenvalues --    0.01582   0.02032   0.02421   0.02561   0.02830
 Alpha virt. eigenvalues --    0.03136   0.03562   0.03930   0.04398   0.04816
 Alpha virt. eigenvalues --    0.04946   0.05066   0.05398   0.06086   0.06197
 Alpha virt. eigenvalues --    0.06534   0.06849   0.06973   0.07143   0.07237
 Alpha virt. eigenvalues --    0.07621   0.07810   0.08053   0.08306   0.08614
 Alpha virt. eigenvalues --    0.08762   0.09217   0.09285   0.09405   0.10104
 Alpha virt. eigenvalues --    0.10205   0.10654   0.10787   0.11081   0.11485
 Alpha virt. eigenvalues --    0.11754   0.12076   0.12346   0.12641   0.12848
 Alpha virt. eigenvalues --    0.12925   0.13479   0.13600   0.13831   0.14556
 Alpha virt. eigenvalues --    0.14590   0.14897   0.15397   0.15759   0.15991
 Alpha virt. eigenvalues --    0.16095   0.16300   0.16463   0.16789   0.17393
 Alpha virt. eigenvalues --    0.17470   0.17818   0.18123   0.18324   0.18603
 Alpha virt. eigenvalues --    0.18920   0.19025   0.19221   0.19419   0.19670
 Alpha virt. eigenvalues --    0.20092   0.20359   0.20391   0.20694   0.21092
 Alpha virt. eigenvalues --    0.21368   0.21631   0.21981   0.22269   0.22758
 Alpha virt. eigenvalues --    0.23045   0.23297   0.23668   0.23839   0.24313
 Alpha virt. eigenvalues --    0.24691   0.25067   0.25452   0.25885   0.26081
 Alpha virt. eigenvalues --    0.26418   0.26685   0.27138   0.27270   0.27476
 Alpha virt. eigenvalues --    0.27731   0.28051   0.28160   0.28583   0.29267
 Alpha virt. eigenvalues --    0.29494   0.29548   0.29821   0.30022   0.30248
 Alpha virt. eigenvalues --    0.31018   0.31399   0.31469   0.32260   0.32503
 Alpha virt. eigenvalues --    0.32727   0.33060   0.33746   0.34151   0.34512
 Alpha virt. eigenvalues --    0.34598   0.34898   0.35653   0.35805   0.36012
 Alpha virt. eigenvalues --    0.36314   0.36576   0.37173   0.37889   0.38395
 Alpha virt. eigenvalues --    0.38837   0.39117   0.39230   0.39345   0.39862
 Alpha virt. eigenvalues --    0.40102   0.40394   0.40776   0.41034   0.41170
 Alpha virt. eigenvalues --    0.41383   0.41864   0.42331   0.42599   0.42928
 Alpha virt. eigenvalues --    0.43235   0.43603   0.44226   0.44499   0.44856
 Alpha virt. eigenvalues --    0.45085   0.45580   0.45801   0.46036   0.47022
 Alpha virt. eigenvalues --    0.47181   0.47265   0.48092   0.48226   0.48577
 Alpha virt. eigenvalues --    0.49149   0.49540   0.49689   0.49864   0.49992
 Alpha virt. eigenvalues --    0.50649   0.51055   0.51544   0.51802   0.52129
 Alpha virt. eigenvalues --    0.52441   0.52696   0.53012   0.53449   0.53892
 Alpha virt. eigenvalues --    0.54136   0.54678   0.54907   0.55417   0.55625
 Alpha virt. eigenvalues --    0.56121   0.56741   0.57067   0.57489   0.58040
 Alpha virt. eigenvalues --    0.58333   0.58553   0.59181   0.59301   0.60205
 Alpha virt. eigenvalues --    0.60324   0.60720   0.61401   0.61820   0.62272
 Alpha virt. eigenvalues --    0.62868   0.63020   0.63614   0.63978   0.64739
 Alpha virt. eigenvalues --    0.65032   0.65297   0.65476   0.66071   0.66958
 Alpha virt. eigenvalues --    0.67157   0.67354   0.68290   0.68395   0.69169
 Alpha virt. eigenvalues --    0.69349   0.69918   0.70107   0.70706   0.71217
 Alpha virt. eigenvalues --    0.71549   0.72127   0.72305   0.72578   0.72649
 Alpha virt. eigenvalues --    0.73131   0.73801   0.74537   0.74873   0.74985
 Alpha virt. eigenvalues --    0.75541   0.75780   0.76403   0.76695   0.77438
 Alpha virt. eigenvalues --    0.77999   0.78159   0.78615   0.79240   0.79664
 Alpha virt. eigenvalues --    0.79907   0.80485   0.80677   0.80869   0.82204
 Alpha virt. eigenvalues --    0.82655   0.83321   0.84174   0.84526   0.84879
 Alpha virt. eigenvalues --    0.85084   0.85795   0.87209   0.87522   0.88669
 Alpha virt. eigenvalues --    0.88873   0.89274   0.89601   0.90436   0.90682
 Alpha virt. eigenvalues --    0.91433   0.91915   0.92606   0.93168   0.93959
 Alpha virt. eigenvalues --    0.94330   0.95366   0.96003   0.96548   0.96809
 Alpha virt. eigenvalues --    0.97886   0.98504   0.98752   0.99576   1.01164
 Alpha virt. eigenvalues --    1.01415   1.01767   1.02896   1.03228   1.03979
 Alpha virt. eigenvalues --    1.04636   1.05020   1.05258   1.06095   1.06513
 Alpha virt. eigenvalues --    1.07206   1.08293   1.09200   1.09488   1.10402
 Alpha virt. eigenvalues --    1.10655   1.11326   1.12086   1.12721   1.13153
 Alpha virt. eigenvalues --    1.14236   1.15169   1.15810   1.16050   1.16984
 Alpha virt. eigenvalues --    1.17218   1.18635   1.19259   1.20855   1.21262
 Alpha virt. eigenvalues --    1.21577   1.22798   1.23459   1.24265   1.25211
 Alpha virt. eigenvalues --    1.25788   1.26507   1.26601   1.29080   1.29791
 Alpha virt. eigenvalues --    1.30060   1.31412   1.32229   1.33079   1.33640
 Alpha virt. eigenvalues --    1.33997   1.34986   1.36197   1.36232   1.37239
 Alpha virt. eigenvalues --    1.38687   1.39352   1.40814   1.40868   1.42248
 Alpha virt. eigenvalues --    1.42627   1.43428   1.43826   1.45398   1.46046
 Alpha virt. eigenvalues --    1.47085   1.47944   1.48674   1.49434   1.50460
 Alpha virt. eigenvalues --    1.51602   1.52128   1.52612   1.54570   1.54631
 Alpha virt. eigenvalues --    1.55965   1.56886   1.57703   1.57879   1.59073
 Alpha virt. eigenvalues --    1.60658   1.61146   1.61967   1.62114   1.62678
 Alpha virt. eigenvalues --    1.63391   1.64404   1.64765   1.65571   1.65731
 Alpha virt. eigenvalues --    1.66831   1.67287   1.67754   1.68498   1.68707
 Alpha virt. eigenvalues --    1.69594   1.70604   1.70867   1.71648   1.72973
 Alpha virt. eigenvalues --    1.73504   1.73780   1.74297   1.75230   1.75654
 Alpha virt. eigenvalues --    1.76060   1.76430   1.77127   1.78082   1.79336
 Alpha virt. eigenvalues --    1.80160   1.80672   1.81265   1.82241   1.82814
 Alpha virt. eigenvalues --    1.83359   1.84115   1.84445   1.84997   1.85845
 Alpha virt. eigenvalues --    1.86835   1.87479   1.87638   1.88643   1.88842
 Alpha virt. eigenvalues --    1.89286   1.89816   1.91174   1.91562   1.92308
 Alpha virt. eigenvalues --    1.94120   1.94686   1.95221   1.96486   1.96743
 Alpha virt. eigenvalues --    1.98196   1.98715   1.99880   2.00203   2.00796
 Alpha virt. eigenvalues --    2.02400   2.02978   2.03374   2.04450   2.04764
 Alpha virt. eigenvalues --    2.06320   2.06814   2.07331   2.09710   2.10421
 Alpha virt. eigenvalues --    2.10808   2.12221   2.12523   2.13856   2.15110
 Alpha virt. eigenvalues --    2.15748   2.16556   2.17863   2.18853   2.19467
 Alpha virt. eigenvalues --    2.21113   2.21364   2.22693   2.23513   2.24167
 Alpha virt. eigenvalues --    2.24477   2.25032   2.27523   2.28420   2.29155
 Alpha virt. eigenvalues --    2.29482   2.30506   2.31176   2.31426   2.32878
 Alpha virt. eigenvalues --    2.33893   2.35298   2.36783   2.38789   2.40137
 Alpha virt. eigenvalues --    2.40568   2.41770   2.42295   2.43858   2.44446
 Alpha virt. eigenvalues --    2.44964   2.46792   2.47137   2.49709   2.50961
 Alpha virt. eigenvalues --    2.51395   2.52658   2.53883   2.53927   2.55372
 Alpha virt. eigenvalues --    2.56558   2.57925   2.58538   2.59027   2.60234
 Alpha virt. eigenvalues --    2.61874   2.62479   2.63332   2.64865   2.65580
 Alpha virt. eigenvalues --    2.66442   2.67043   2.68420   2.68573   2.69747
 Alpha virt. eigenvalues --    2.70798   2.72582   2.73822   2.74228   2.75478
 Alpha virt. eigenvalues --    2.76529   2.78233   2.78662   2.80703   2.82105
 Alpha virt. eigenvalues --    2.84519   2.85317   2.86092   2.86660   2.87688
 Alpha virt. eigenvalues --    2.88972   2.91098   2.91422   2.92416   2.94121
 Alpha virt. eigenvalues --    2.95293   2.98272   3.00815   3.03165   3.04578
 Alpha virt. eigenvalues --    3.07130   3.11692   3.16772   3.17564   3.24404
 Alpha virt. eigenvalues --    3.26711   3.31817   3.32578   3.33888   3.34102
 Alpha virt. eigenvalues --    3.35141   3.37096   3.37773   3.39977   3.40359
 Alpha virt. eigenvalues --    3.41971   3.43051   3.44521   3.45667   3.48092
 Alpha virt. eigenvalues --    3.48863   3.54397   3.56246   3.56687   3.67212
 Alpha virt. eigenvalues --    3.68465   3.78375   3.83166   3.88980   3.93923
 Alpha virt. eigenvalues --    4.02455   4.06607   4.09599   4.12906   4.15915
 Alpha virt. eigenvalues --    4.35824   5.07378
          Condensed to atoms (all electrons):
               1          2          3          4          5          6
     1  N   15.470656  -6.220168  -1.039480  -0.482046  -0.161255   2.100319
     2  C   -6.220168  28.079979  -1.313989   0.397776  -0.593217  -9.111197
     3  C   -1.039480  -1.313989   9.235802  -1.237896   0.881555  -0.103733
     4  C   -0.482046   0.397776  -1.237896   6.526717  -0.184444   0.288010
     5  C   -0.161255  -0.593217   0.881555  -0.184444   5.910976  -0.249391
     6  C    2.100319  -9.111197  -0.103733   0.288010  -0.249391  22.941894
     7  C    0.513960  -2.457224  -0.971720   0.015287  -0.284962  -3.860988
     8  N   -0.069890   0.645563   0.023407   0.013154   0.045022  -0.031900
     9  C    0.120099  -0.801005  -0.065178   0.007622  -0.033259  -0.979080
    10  C   -0.150619   0.294140  -0.079024  -0.028837   0.008870   0.388868
    11  C   -0.396118  -1.458424  -0.032479  -0.038478   0.013980  -8.187787
    12  O   -0.003768   0.008049  -0.003654  -0.000263  -0.000148  -0.040437
    13  O   -0.190347   0.177894   0.048577   0.036763  -0.003590  -0.035331
    14  H   -1.110074   0.677529   0.181734   0.052812  -0.204666  -0.299911
    15  H   -0.155847  -0.017669   0.327952  -0.335293   0.227310  -0.063076
    16  H    0.162260   0.108181   0.161081  -0.381882  -0.094774   0.000439
    17  H    0.444876   0.017020  -1.306723   0.162341  -0.245790   0.452997
    18  H   -0.147478   0.036010  -0.019458   0.322773   0.071528  -0.101877
    19  H   -0.282117   0.105169  -0.105237   0.060262  -0.304858   0.220615
    20  H   -0.178699  -2.827965   0.770322  -0.067607   0.026372   1.168860
    21  H   -0.086781  -0.314922  -0.334172   0.055230  -0.030481  -0.482917
    22  H    0.006856  -0.048046   0.003639   0.000543  -0.001284  -0.088760
    23  H   -0.003007   0.076423   0.002833   0.000560  -0.000062   0.023020
    24  H    0.034827  -0.124259  -0.088664  -0.009421  -0.000186   1.109344
    25  C    1.102193  -1.152981  -0.339899   0.069838  -0.176840   0.664353
    26  H   -0.007370   0.050519  -0.005655  -0.003897  -0.000925  -0.018469
    27  H   -0.317243   0.724846   0.260780  -0.124853  -0.046778  -0.319517
    28  H   -0.024382  -0.007097  -0.016068   0.009147   0.000590   0.004483
    29  H   -0.011256   0.021164   0.000154   0.003244  -0.000154  -0.020503
    30  H    0.001644  -0.007220   0.000449   0.000172  -0.000081   0.013375
    31  O   -0.015754  -0.051932   0.011395  -0.013364   0.014135   0.003134
    32  H    0.006824  -0.000489   0.001707  -0.003566  -0.001542   0.000147
    33  H    0.019711  -0.038292   0.007932  -0.006752   0.010838   0.035027
    34  H   -0.339298   0.147056  -0.086153   0.078110   0.028243  -0.028521
    35  H    0.166798  -0.011224   0.115820  -0.050431  -0.036348   0.012240
    36  H   -0.590371  -0.126890  -0.004473   0.025775   0.058887   0.159357
    37  O   -0.000415   0.003076   0.001719  -0.000153   0.001419   0.002695
    38  H    0.000723  -0.000084  -0.000430   0.000585  -0.000124  -0.000041
    39  H   -0.000951   0.000695   0.000276  -0.000483   0.000272  -0.000774
    40  O   -0.000066   0.000041  -0.000053   0.000111  -0.000062   0.000004
    41  H   -0.000007   0.000002  -0.000010   0.000022  -0.000010   0.000006
    42  H    0.000000  -0.000012   0.000034  -0.000032   0.000025  -0.000009
               7          8          9         10         11         12
     1  N    0.513960  -0.069890   0.120099  -0.150619  -0.396118  -0.003768
     2  C   -2.457224   0.645563  -0.801005   0.294140  -1.458424   0.008049
     3  C   -0.971720   0.023407  -0.065178  -0.079024  -0.032479  -0.003654
     4  C    0.015287   0.013154   0.007622  -0.028837  -0.038478  -0.000263
     5  C   -0.284962   0.045022  -0.033259   0.008870   0.013980  -0.000148
     6  C   -3.860988  -0.031900  -0.979080   0.388868  -8.187787  -0.040437
     7  C   16.928374  -0.791752  -1.175523   0.074917  -1.897002  -0.124122
     8  N   -0.791752   8.089587   0.068081   0.282247  -0.479656  -0.029233
     9  C   -1.175523   0.068081   9.960609  -2.528380   1.510625   0.042038
    10  C    0.074917   0.282247  -2.528380  11.630028  -4.209200  -0.017351
    11  C   -1.897002  -0.479656   1.510625  -4.209200  21.993336   0.020330
    12  O   -0.124122  -0.029233   0.042038  -0.017351   0.020330   8.016517
    13  O   -0.114008   0.006334  -0.009830   0.001225  -0.020676   0.004146
    14  H   -0.037253   0.002869  -0.001110   0.000410   0.015944  -0.000021
    15  H    0.003473  -0.000395   0.002231  -0.002583   0.008779  -0.000017
    16  H    0.004656   0.000898  -0.003272   0.001279   0.003869  -0.000178
    17  H    0.350204  -0.017222  -0.003622   0.005631  -0.030861   0.000189
    18  H   -0.290908   0.026079   0.026512  -0.052501   0.044153  -0.002441
    19  H    0.043358  -0.001107  -0.000242   0.000363   0.019988   0.000025
    20  H   -0.270260   0.002253   0.043872  -0.024617  -0.047043  -0.000162
    21  H   -0.880565  -0.032298  -0.230534   0.310266  -0.276293   0.076198
    22  H    0.151785  -0.165362  -0.458232   0.098375   0.208508   0.001288
    23  H   -0.116980  -0.049815   0.391302  -1.180347   0.578488   0.000017
    24  H    0.200374  -0.037426  -0.187397   0.627221  -2.418290   0.000235
    25  C    0.133131  -0.022113  -0.046397   0.107576  -0.250833  -0.000406
    26  H   -0.098014   0.136564   0.101211  -0.084024   0.011777   0.244461
    27  H   -0.053230  -0.042883  -0.003818  -0.031687  -0.018031  -0.000056
    28  H    0.014235   0.003965   0.001500   0.000609   0.005243   0.000395
    29  H    0.046536  -0.008603   0.002404  -0.000242   0.002047   0.034436
    30  H    0.007875  -0.003725  -0.011297   0.009683  -0.006502   0.358654
    31  O   -0.120205   0.022643  -0.000302   0.004421   0.006517  -0.111203
    32  H   -0.005127  -0.005813  -0.003300  -0.000193   0.001347   0.010059
    33  H    0.007122  -0.001035  -0.000814   0.002350  -0.003711  -0.015879
    34  H   -0.007907  -0.002755  -0.007052   0.018121  -0.023439  -0.000265
    35  H    0.041061   0.000405  -0.013169   0.021135   0.016864   0.000850
    36  H   -0.009644   0.002333   0.006897  -0.014132   0.020871  -0.000025
    37  O    0.009050  -0.002513  -0.000513  -0.000153   0.000610   0.000104
    38  H   -0.001803   0.000366   0.000120  -0.000013   0.000068  -0.000700
    39  H    0.002042  -0.000176   0.000017  -0.000032   0.000057   0.000177
    40  O    0.000252   0.000004   0.000011   0.000001  -0.000003  -0.000014
    41  H    0.000010   0.000003   0.000001   0.000001  -0.000002   0.000016
    42  H    0.000009   0.000000   0.000001   0.000001  -0.000003  -0.000005
              13         14         15         16         17         18
     1  N   -0.190347  -1.110074  -0.155847   0.162260   0.444876  -0.147478
     2  C    0.177894   0.677529  -0.017669   0.108181   0.017020   0.036010
     3  C    0.048577   0.181734   0.327952   0.161081  -1.306723  -0.019458
     4  C    0.036763   0.052812  -0.335293  -0.381882   0.162341   0.322773
     5  C   -0.003590  -0.204666   0.227310  -0.094774  -0.245790   0.071528
     6  C   -0.035331  -0.299911  -0.063076   0.000439   0.452997  -0.101877
     7  C   -0.114008  -0.037253   0.003473   0.004656   0.350204  -0.290908
     8  N    0.006334   0.002869  -0.000395   0.000898  -0.017222   0.026079
     9  C   -0.009830  -0.001110   0.002231  -0.003272  -0.003622   0.026512
    10  C    0.001225   0.000410  -0.002583   0.001279   0.005631  -0.052501
    11  C   -0.020676   0.015944   0.008779   0.003869  -0.030861   0.044153
    12  O    0.004146  -0.000021  -0.000017  -0.000178   0.000189  -0.002441
    13  O    8.255476   0.041372  -0.004604  -0.001150  -0.001822   0.014281
    14  H    0.041372   2.968318   0.127388  -0.314408  -0.043705   0.079979
    15  H   -0.004604   0.127388   2.128737  -0.640227  -0.348154   0.233497
    16  H   -0.001150  -0.314408  -0.640227   2.332953   0.231521  -0.494184
    17  H   -0.001822  -0.043705  -0.348154   0.231521   2.732844  -0.784859
    18  H    0.014281   0.079979   0.233497  -0.494184  -0.784859   2.523579
    19  H   -0.009805  -0.590923  -0.243189   0.208101   0.072917  -0.081883
    20  H    0.003468   0.097633   0.068291  -0.077067  -0.380716   0.253290
    21  H    0.002080  -0.096441  -0.029450   0.096847   0.161158  -0.323697
    22  H   -0.000409  -0.000134   0.000053   0.000139   0.000940  -0.003253
    23  H   -0.000031   0.000082  -0.000015  -0.000036  -0.001990   0.002708
    24  H   -0.001765  -0.004294   0.000729   0.001068   0.015746  -0.015234
    25  C   -0.022211  -0.175787  -0.019571   0.024176   0.082639  -0.074228
    26  H    0.004029   0.001299   0.000264  -0.001797  -0.000952   0.003425
    27  H    0.053308   0.210126   0.017239  -0.009839  -0.041483   0.069416
    28  H    0.378975  -0.014149  -0.001507   0.002156   0.001907  -0.007010
    29  H   -0.006736   0.002390   0.000573  -0.002621  -0.001008   0.005459
    30  H   -0.001195  -0.000143  -0.000026   0.000246   0.000109  -0.001111
    31  O   -0.066490   0.000295  -0.000806   0.004274   0.000980  -0.003550
    32  H   -0.008856  -0.001918  -0.000868   0.003178   0.000307  -0.000614
    33  H    0.030027  -0.003572  -0.000220   0.000671  -0.000100   0.000972
    34  H    0.040685  -0.000169  -0.002524   0.011453   0.000930  -0.007475
    35  H   -0.000392   0.010965   0.002859  -0.012685  -0.004968   0.017871
    36  H   -0.011579   0.009891  -0.002460   0.004540   0.013338  -0.010815
    37  O    0.002158   0.000214   0.000025  -0.001580  -0.000086   0.003421
    38  H   -0.000090  -0.000020  -0.000078   0.000294   0.000049  -0.000468
    39  H    0.000429   0.000108   0.000221  -0.000782  -0.000098   0.000449
    40  O    0.000285   0.000011   0.000021   0.000255  -0.000004   0.000178
    41  H   -0.000033   0.000005   0.000002  -0.000010  -0.000001  -0.000007
    42  H   -0.000045   0.000005  -0.000003  -0.000052  -0.000001   0.000012
              19         20         21         22         23         24
     1  N   -0.282117  -0.178699  -0.086781   0.006856  -0.003007   0.034827
     2  C    0.105169  -2.827965  -0.314922  -0.048046   0.076423  -0.124259
     3  C   -0.105237   0.770322  -0.334172   0.003639   0.002833  -0.088664
     4  C    0.060262  -0.067607   0.055230   0.000543   0.000560  -0.009421
     5  C   -0.304858   0.026372  -0.030481  -0.001284  -0.000062  -0.000186
     6  C    0.220615   1.168860  -0.482917  -0.088760   0.023020   1.109344
     7  C    0.043358  -0.270260  -0.880565   0.151785  -0.116980   0.200374
     8  N   -0.001107   0.002253  -0.032298  -0.165362  -0.049815  -0.037426
     9  C   -0.000242   0.043872  -0.230534  -0.458232   0.391302  -0.187397
    10  C    0.000363  -0.024617   0.310266   0.098375  -1.180347   0.627221
    11  C    0.019988  -0.047043  -0.276293   0.208508   0.578488  -2.418290
    12  O    0.000025  -0.000162   0.076198   0.001288   0.000017   0.000235
    13  O   -0.009805   0.003468   0.002080  -0.000409  -0.000031  -0.001765
    14  H   -0.590923   0.097633  -0.096441  -0.000134   0.000082  -0.004294
    15  H   -0.243189   0.068291  -0.029450   0.000053  -0.000015   0.000729
    16  H    0.208101  -0.077067   0.096847   0.000139  -0.000036   0.001068
    17  H    0.072917  -0.380716   0.161158   0.000940  -0.001990   0.015746
    18  H   -0.081883   0.253290  -0.323697  -0.003253   0.002708  -0.015234
    19  H    2.463211  -0.112378   0.048592   0.000094  -0.000427   0.004072
    20  H   -0.112378   3.626433  -0.056760   0.000006   0.002872  -0.171236
    21  H    0.048592  -0.056760   4.959593   0.030698  -0.019501   0.019982
    22  H    0.000094   0.000006   0.030698   2.075917  -0.122421  -0.005043
    23  H   -0.000427   0.002872  -0.019501  -0.122421   2.163131  -0.143984
    24  H    0.004072  -0.171236   0.019982  -0.005043  -0.143984   3.046860
    25  C   -0.033193  -0.098292   0.174093   0.002873  -0.008084   0.056881
    26  H   -0.000366  -0.000280  -0.127673  -0.075360   0.010193  -0.000750
    27  H   -0.023296   0.025236  -0.323435  -0.001973   0.002080  -0.003988
    28  H    0.005259  -0.001102   0.050717   0.000165  -0.000067   0.000416
    29  H   -0.000469   0.001144  -0.068263   0.003746  -0.000146  -0.000049
    30  H    0.000024  -0.000202   0.011897   0.004238  -0.000620   0.000035
    31  O    0.000802  -0.001686   0.117922   0.000643   0.000126   0.000101
    32  H    0.000576  -0.000319   0.004915  -0.000220  -0.000012  -0.000085
    33  H   -0.001186  -0.000260  -0.028796  -0.000365   0.000211  -0.000503
    34  H   -0.000587   0.013115   0.027224   0.000303  -0.000809   0.002938
    35  H   -0.000186   0.006144  -0.044004  -0.002785  -0.001093  -0.005721
    36  H    0.066449   0.067293   0.030486   0.000447   0.000108   0.003724
    37  O    0.000055   0.000134  -0.024160  -0.000011  -0.000005   0.000013
    38  H   -0.000019  -0.000042  -0.001550   0.000038  -0.000002   0.000004
    39  H   -0.000005   0.000040   0.002887  -0.000009  -0.000001   0.000004
    40  O   -0.000005   0.000007  -0.001260   0.000001   0.000000  -0.000000
    41  H   -0.000001   0.000001   0.000068  -0.000000   0.000000  -0.000000
    42  H    0.000002   0.000001   0.000055  -0.000000   0.000000  -0.000000
              25         26         27         28         29         30
     1  N    1.102193  -0.007370  -0.317243  -0.024382  -0.011256   0.001644
     2  C   -1.152981   0.050519   0.724846  -0.007097   0.021164  -0.007220
     3  C   -0.339899  -0.005655   0.260780  -0.016068   0.000154   0.000449
     4  C    0.069838  -0.003897  -0.124853   0.009147   0.003244   0.000172
     5  C   -0.176840  -0.000925  -0.046778   0.000590  -0.000154  -0.000081
     6  C    0.664353  -0.018469  -0.319517   0.004483  -0.020503   0.013375
     7  C    0.133131  -0.098014  -0.053230   0.014235   0.046536   0.007875
     8  N   -0.022113   0.136564  -0.042883   0.003965  -0.008603  -0.003725
     9  C   -0.046397   0.101211  -0.003818   0.001500   0.002404  -0.011297
    10  C    0.107576  -0.084024  -0.031687   0.000609  -0.000242   0.009683
    11  C   -0.250833   0.011777  -0.018031   0.005243   0.002047  -0.006502
    12  O   -0.000406   0.244461  -0.000056   0.000395   0.034436   0.358654
    13  O   -0.022211   0.004029   0.053308   0.378975  -0.006736  -0.001195
    14  H   -0.175787   0.001299   0.210126  -0.014149   0.002390  -0.000143
    15  H   -0.019571   0.000264   0.017239  -0.001507   0.000573  -0.000026
    16  H    0.024176  -0.001797  -0.009839   0.002156  -0.002621   0.000246
    17  H    0.082639  -0.000952  -0.041483   0.001907  -0.001008   0.000109
    18  H   -0.074228   0.003425   0.069416  -0.007010   0.005459  -0.001111
    19  H   -0.033193  -0.000366  -0.023296   0.005259  -0.000469   0.000024
    20  H   -0.098292  -0.000280   0.025236  -0.001102   0.001144  -0.000202
    21  H    0.174093  -0.127673  -0.323435   0.050717  -0.068263   0.011897
    22  H    0.002873  -0.075360  -0.001973   0.000165   0.003746   0.004238
    23  H   -0.008084   0.010193   0.002080  -0.000067  -0.000146  -0.000620
    24  H    0.056881  -0.000750  -0.003988   0.000416  -0.000049   0.000035
    25  C    4.735538  -0.008851  -0.251604   0.006822  -0.005187   0.001276
    26  H   -0.008851   0.578919   0.016681  -0.001240   0.000593  -0.106443
    27  H   -0.251604   0.016681   0.923330  -0.195769   0.011213  -0.001623
    28  H    0.006822  -0.001240  -0.195769   0.619286   0.001253  -0.000361
    29  H   -0.005187   0.000593   0.011213   0.001253   0.393313  -0.019639
    30  H    0.001276  -0.106443  -0.001623  -0.000361  -0.019639   0.600996
    31  O    0.007641  -0.028148  -0.100588   0.015242   0.130406   0.006575
    32  H    0.000594   0.002443   0.010676  -0.004371  -0.025858   0.000989
    33  H    0.007539   0.002803   0.001944  -0.019401  -0.035902   0.001325
    34  H    0.173495  -0.001835   0.044299  -0.008140  -0.001497   0.000313
    35  H   -0.005771   0.003272   0.026520   0.009360   0.002068  -0.000372
    36  H    0.316585  -0.000685  -0.084055   0.004476  -0.000279   0.000052
    37  O   -0.000154  -0.000072  -0.000554   0.000738  -0.001172   0.000585
    38  H    0.000093   0.000350   0.000879  -0.000542  -0.001131   0.000266
    39  H   -0.000174  -0.000300  -0.001644   0.001047   0.002636  -0.000270
    40  O   -0.000016  -0.000133   0.000506   0.000092   0.002005  -0.000024
    41  H    0.000000  -0.000003  -0.000029   0.000010   0.000101   0.000000
    42  H   -0.000004  -0.000001  -0.000092   0.000060   0.000011  -0.000001
              31         32         33         34         35         36
     1  N   -0.015754   0.006824   0.019711  -0.339298   0.166798  -0.590371
     2  C   -0.051932  -0.000489  -0.038292   0.147056  -0.011224  -0.126890
     3  C    0.011395   0.001707   0.007932  -0.086153   0.115820  -0.004473
     4  C   -0.013364  -0.003566  -0.006752   0.078110  -0.050431   0.025775
     5  C    0.014135  -0.001542   0.010838   0.028243  -0.036348   0.058887
     6  C    0.003134   0.000147   0.035027  -0.028521   0.012240   0.159357
     7  C   -0.120205  -0.005127   0.007122  -0.007907   0.041061  -0.009644
     8  N    0.022643  -0.005813  -0.001035  -0.002755   0.000405   0.002333
     9  C   -0.000302  -0.003300  -0.000814  -0.007052  -0.013169   0.006897
    10  C    0.004421  -0.000193   0.002350   0.018121   0.021135  -0.014132
    11  C    0.006517   0.001347  -0.003711  -0.023439   0.016864   0.020871
    12  O   -0.111203   0.010059  -0.015879  -0.000265   0.000850  -0.000025
[...]
 01085,-0.00000846,0.00000637,-0.00001237,0.00002149,-0.00000368,-0.000
 00253,-0.00000460,0.00000816,0.00002994,0.00003412,0.00000293,-0.00000
 653,-0.00001777,0.00001849,0.00005184,0.00001093,-0.00000486,-0.000008
 09,0.00001056,-0.00000468,-0.00001899,-0.00004241,0.00001661,0.0000233
 5,-0.00000549,0.00000550,0.00000868,0.00000886,0.00000056,0.00000304,0
 .00000852,0.00000135,0.00000425,-0.00001404,-0.00000043,-0.00000965,-0
 .00046762,-0.00008567,0.00017965,-0.00024425,-0.00004726,0.00012119,-0
 .00001082,0.00000665,-0.00001065,-0.00059180,-0.00020414,-0.00075592,-
 0.00002151,-0.00006720,-0.00001518,-0.00009505,-0.00214280,-0.00065661
 ,-0.00061139,0.00513840,-0.00197821,-0.00057189,0.00022142,-0.00013743
 ,-0.00000836,0.00000495,-0.00000614,-0.00000584,-0.00000606,-0.0000011
 9,0.00001193,-0.00000078,-0.00000432,-0.11669246,0.23397310,-0.3383427
 8,0.12322534,-0.23700092,0.34525397,0.00028983,-0.00000001,-0.00002115
 ,-0.00003049,-0.00002232,0.00000402,-0.00010045,0.00003652,-0.00000014
 ,-0.00011727,-0.00003514,0.00002733,-0.00003897,0.00007231,-0.00002037
 ,0.00011623,0.00008216,-0.00000467,-0.00020674,-0.00011544,0.00003150,
 0.00023172,0.00008729,-0.00001193,0.00003370,-0.00010692,-0.00001195,-
 0.00001402,0.00005261,0.00000254,-0.00001663,-0.00006544,-0.00000009,0
 .00018497,0.00086024,0.00006520,0.00089246,-0.00013180,0.00026327,-0.0
 0003324,0.00000901,0.00001240,0.00004966,0.00000189,-0.00001298,-0.000
 00215,0.00008413,-0.00001789,0.00003408,0.00000360,-0.00000214,0.00000
 964,-0.00007503,0.00002748,0.00006206,0.00000859,0.00001323,0.00004997
 ,0.00001420,0.00001005,-0.00003882,0.00003243,-0.00002407,-0.00000730,
 0.00001446,-0.00000212,0.00001048,0.00000544,-0.00000303,0.00000982,-0
 .00000415,-0.00000219,-0.00008614,-0.00002943,-0.00010011,-0.00040739,
 -0.00010637,0.00006355,-0.00046718,-0.00011908,0.00019199,0.00004749,0
 .00004711,-0.00013037,-0.00006576,-0.00152840,-0.00019632,0.00014359,-
 0.00002678,-0.00007503,0.00238496,0.00141083,0.00294697,-0.00413091,-0
 .00220164,-0.00504080,-0.00116764,0.00050356,-0.00037164,-0.00001542,-
 0.00000708,0.00000577,-0.00000661,0.00000441,-0.00000346,0.00004359,0.
 00000267,-0.00000612,-0.22609153,-0.22456198,0.02526541,0.01019711,0.0
 1511648,-0.00436038,0.22121007,0.00028838,-0.00009068,-0.00004671,-0.0
 0004132,0.00003034,-0.00001283,-0.00018037,0.00006459,-0.00001910,0.00
 001017,0.00001377,-0.00001281,-0.00003985,0.00014502,0.00002918,0.0001
 2478,0.00015955,-0.00001411,-0.00026659,-0.00016389,0.00006587,0.00040
 154,0.00009263,-0.00004344,0.00001345,-0.00016293,-0.00001907,0.000012
 81,0.00005463,0.00000325,0.00000119,-0.00008433,-0.00000655,0.00050707
 ,0.00109232,-0.00001402,0.00110942,-0.00064290,0.00029276,-0.00001280,
 -0.00000134,0.00003929,0.00005570,-0.00001908,-0.00001495,-0.00003568,
 0.00010123,0.00000215,0.00004280,-0.00001611,0.00000896,0.00002277,-0.
 00006577,0.00004127,0.00004493,-0.00001470,-0.00000612,0.00005255,0.00
 000450,0.00001381,-0.00009764,0.00006496,-0.00005912,-0.00001314,0.000
 01482,-0.00000300,0.00001614,0.00000323,-0.00000451,0.00002057,0.00000
 447,-0.00000458,-0.00007812,-0.00002657,-0.00008032,-0.00074702,-0.000
 16604,0.00014232,-0.00045395,-0.00008805,0.00020793,0.00014590,0.00017
 130,-0.00004747,-0.00009852,-0.00187157,0.00002760,0.00006744,-0.00006
 770,-0.00010993,0.00276135,0.00223247,0.00403316,-0.00468206,-0.004657
 27,-0.00738787,-0.00196600,0.00132094,-0.00099179,-0.00001680,-0.00000
 503,0.00001411,-0.00001126,-0.00000997,-0.00001792,0.00004109,0.000004
 00,-0.00000850,-0.19316433,-0.24076807,0.05349236,-0.01536454,-0.01420
 271,0.00096228,0.20551620,0.26097474,-0.00000205,0.00000859,-0.0000491
 7,0.00000475,-0.00000875,0.00003207,0.00003464,-0.00001624,0.00000177,
 0.00001222,0.00000336,-0.00001008,-0.00000489,-0.00002117,0.00002762,-
 0.00002596,-0.00003178,-0.00000139,0.00004076,0.00004506,-0.00001742,-
 0.00005060,-0.00002271,-0.00000828,-0.00000731,0.00002231,0.00000881,0
 .00000132,-0.00001226,-0.00000161,-0.00000162,0.00001679,-0.00000147,0
 .00001159,-0.00025321,-0.00002944,-0.00012509,0.00030411,-0.00016043,-
 0.00000172,0.00000507,-0.00001475,0.00000243,-0.00000058,0.00000129,-0
 .00000084,-0.00001810,0.00003234,-0.00000183,0.00000460,-0.00000457,-0
 .00000841,0.00002778,-0.00000194,-0.00000666,-0.00000036,-0.00000911,-
 0.00000693,0.00000021,-0.00001162,0.00002440,-0.00001184,0.00002128,0.
 00000150,-0.00000415,0.00000292,-0.00000219,-0.00000066,0.00000212,-0.
 00000287,-0.00000098,0.00000292,0.00001123,0.00000077,0.00002069,0.000
 07877,0.00002543,-0.00000692,-0.00005733,0.00002817,0.00003828,-0.0001
 4275,-0.00007710,-0.00000085,0.00007958,0.00055851,0.00011281,-0.00006
 738,-0.00002266,0.00003254,-0.00249825,-0.00171173,-0.00683247,-0.0006
 8865,-0.00102381,0.01117860,0.00056924,-0.00069532,0.00008340,-0.00000
 090,0.00000631,-0.00000665,-0.00000128,-0.00000252,0.00000347,-0.00000
 315,-0.00000059,-0.00000155,-0.00268919,0.02723589,-0.05095990,0.02473
 660,0.02669598,-0.00382624,-0.01988337,-0.04870072,0.05682781,-0.00021
 072,-0.00003921,0.00001991,0.00002253,0.00003578,-0.00002270,0.0000533
 1,-0.00001870,0.00000028,0.00010721,0.00002701,-0.00002489,0.00003810,
 -0.00001226,0.00001562,-0.00008960,-0.00003910,0.00000189,0.00013329,0
 .00009415,-0.00002313,-0.00009643,-0.00006758,0.00000564,-0.00003529,0
 .00005180,0.00000889,0.00002199,-0.00004116,-0.00000350,0.00001861,0.0
 0004472,-0.00000138,-0.00002370,-0.00056155,0.00001883,-0.00055442,-0.
 00005402,-0.00012334,0.00002660,-0.00001036,0.00000846,-0.00002109,-0.
 00000376,0.00000312,-0.00001983,-0.00003819,0.00001218,-0.00002508,-0.
 00000563,0.00000283,-0.00000094,0.00004956,-0.00001946,-0.00004403,-0.
 00001343,-0.00000918,-0.00003585,-0.00001327,-0.00000392,0.00001337,-0
 .00001644,0.00001316,0.00000152,-0.00001023,-0.00000129,-0.00000600,-0
 .00000480,0.00000075,-0.00000390,0.00000590,0.00000027,0.00006577,0.00
 002302,0.00007302,0.00016232,0.00005967,-0.00002934,0.00035150,0.00009
 790,-0.00013310,0.00002107,0.00003447,0.00009882,-0.00001250,0.0010677
 9,-0.00000966,-0.00010059,0.00002112,0.00003425,-0.00096025,-0.0011560
 5,-0.00165772,0.00111778,0.00131721,0.00292896,0.00060532,-0.00019037,
 0.00025201,0.00001070,0.00000372,0.00000112,0.00000400,-0.00000750,-0.
 00000292,-0.00003245,-0.00000067,0.00000501,-0.00613523,-0.01342305,0.
 00040606,-0.00153739,-0.00054010,-0.00066753,-0.00643082,0.00342136,0.
 00344388,0.51863368,-0.00016918,0.00006830,0.00003350,0.00002401,-0.00
 002494,0.00000946,0.00008694,-0.00002949,0.00000774,-0.00000439,-0.000
 00578,0.00000710,0.00001851,-0.00010022,-0.00001824,-0.00005926,-0.000
 08477,0.00000559,0.00013257,0.00006047,-0.00002271,-0.00025358,-0.0000
 4344,0.00003210,0.00000567,0.00009527,0.00000565,-0.00001792,-0.000022
 89,0.00000185,-0.00000389,0.00004061,-0.00000210,-0.00037082,-0.000565
 97,0.00001940,-0.00067015,0.00036341,-0.00013468,0.00000832,-0.0000001
 5,-0.00002611,-0.00003421,0.00000963,0.00001259,0.00002426,-0.00005675
 ,-0.00000120,-0.00001853,0.00000744,-0.00000501,-0.00001640,0.00003161
 ,-0.00002160,-0.00002648,0.00001056,0.00000398,-0.00002754,-0.00000060
 ,-0.00000463,0.00005447,-0.00003642,0.00002263,0.00000916,-0.00000450,
 0.00000246,-0.00000853,-0.00000094,0.00000291,-0.00001151,-0.00000271,
 0.00000347,0.00004220,0.00001219,0.00004246,0.00048588,0.00009692,-0.0
 0010102,0.00027105,0.00004209,-0.00013918,-0.00005914,-0.00011323,0.00
 002748,0.00012886,0.00095130,-0.00000622,0.00000271,0.00004506,0.00005
 987,-0.00151750,-0.00092785,-0.00189507,0.00169778,0.00143836,0.003271
 85,0.00116181,-0.00069066,0.00044185,0.00001126,0.00000150,-0.00000898
 ,0.00000641,0.00000843,0.00001060,-0.00002269,-0.00000289,0.00000573,-
 0.01244178,-0.00894371,0.00199981,-0.00045942,0.00010120,-0.00092929,0
 .00267992,-0.00868112,-0.00197397,-0.01797201,0.49781064,-0.00008976,-
 0.00000752,0.00010523,0.00000224,0.00001704,-0.00006152,-0.00002417,0.
 00001708,-0.00000061,0.00000251,-0.00000501,0.00000798,0.00002054,0.00
 000089,-0.00004974,-0.00000381,-0.00000289,0.00000972,0.00000349,-0.00
 000242,0.00000793,-0.00002188,-0.00000700,0.00003759,-0.00000274,0.000
 00642,-0.00000612,-0.00000126,-0.00000323,0.00000103,-0.00000046,0.000
 00188,0.00000199,-0.00006076,-0.00011533,0.00012757,-0.00025699,-0.000
 14447,0.00016955,0.00000559,-0.00001032,0.00001844,-0.00001515,0.00000
 369,0.00000117,0.00000045,0.00000678,-0.00004043,-0.00001298,-0.000004
 95,0.00000763,0.00001058,-0.00002452,-0.00001477,-0.00000555,0.0000024
 4,0.00001328,-0.00000547,-0.00000250,0.00001872,0.00000079,0.00000819,
 -0.00003552,0.00000071,-0.00000140,-0.00000585,-0.00000170,-0.00000025
 ,-0.00000415,-0.00000110,0.00000067,-0.00000506,0.00000594,0.00000627,
 -0.00001238,0.00006660,0.00001188,-0.00005481,0.00023571,0.00002728,-0
 .00013126,0.00014070,0.00007226,-0.00001610,0.00003284,0.00020581,-0.0
 0009256,0.00002002,0.00002911,-0.00004070,0.00023136,0.00004148,0.0009
 7270,-0.00034632,-0.00028911,-0.00173963,0.00003562,0.00016715,-0.0001
 1210,0.00000811,-0.00001020,0.00001030,0.00000605,0.00000571,-0.000003
 57,-0.00000833,0.00000089,0.00000593,0.00088837,0.00278406,0.00461028,
 -0.00056532,-0.00075654,-0.00013074,0.00341999,-0.00225513,-0.00655836
 ,-0.21710403,0.24160527,0.20497055,0.00006329,0.00001720,-0.00001678,-
 0.00000490,-0.00001451,0.00001505,-0.00000466,0.00000169,0.00000231,-0
 .00002156,-0.00000514,0.00000586,-0.00001371,-0.00000206,0.00000186,0.
 00002271,0.00000573,-0.00000193,-0.00002944,-0.00001697,0.00000107,0.0
 0002035,0.00001714,-0.00000533,0.00001116,-0.00001279,-0.00000080,-0.0
 0000742,0.00001022,0.00000121,-0.00000604,-0.00001045,0.00000051,0.000
 00983,0.00015071,-0.00002576,0.00016526,0.00004598,-0.00000968,-0.0000
 0724,0.00000401,-0.00000557,0.00000205,0.00000085,-0.00000060,0.000008
 19,0.00000421,0.00000017,0.00000476,0.00000195,-0.00000261,-0.00000069
 ,-0.00000779,0.00000320,0.00001084,0.00000357,0.00000035,0.00000917,0.
 00000392,-0.00000192,0.00000070,0.00000226,0.00000610,-0.00000066,0.00
 000319,0.00000102,0.00000161,0.00000135,0.00000014,0.00000047,-0.00000
 221,0.00000035,-0.00001777,-0.00000710,-0.00001672,-0.00003743,-0.0000
 1302,0.00001298,-0.00011613,-0.00002855,0.00005007,-0.00003771,-0.0000
 2569,-0.00001829,-0.00000430,-0.00028349,0.00002434,0.00002210,-0.0000
 1393,-0.00000298,0.00014630,0.00023143,0.00003072,-0.00020342,-0.00019
 812,-0.00001567,-0.00013335,0.00000229,-0.00002512,-0.00000369,0.00000
 029,-0.00000223,-0.00000166,0.00000205,0.00000191,0.00000928,-0.000000
 19,-0.00000218,0.00059827,0.00004230,0.00008787,-0.00015679,-0.0002646
 2,-0.00000262,-0.00150808,0.00069443,0.00021707,-0.45982067,0.04488101
 ,0.20255271,0.46352264,0.00000643,-0.00002186,-0.00000589,-0.00000417,
 0.00001443,-0.00000369,-0.00000009,-0.00000186,0.00000207,0.00001088,0
 .00000331,-0.00000461,0.00000054,0.00001901,0.00000628,-0.00000282,0.0
 0000572,-0.00000076,0.00000198,0.00002218,-0.00000249,0.00005743,-0.00
 000476,-0.00001408,-0.00001327,-0.00001392,0.00000160,0.00001187,-0.00
 000549,-0.00000158,0.00000291,0.00000187,0.00000169,0.00015538,-0.0000
 1843,-0.00001805,0.00005039,-0.00006773,-0.00000704,0.00000083,-0.0000
 0143,0.00000476,0.00000167,-0.00000249,-0.00000197,-0.00000522,0.00000
 080,0.00000262,-0.00000112,-0.00000079,0.00000065,0.00000395,0.0000043
 8,0.00000058,0.00000027,-0.00000333,-0.00000216,0.00000034,-0.00000273
 ,-0.00000090,-0.00000777,0.00000361,0.00000338,-0.00000316,-0.00000212
 ,-0.00000026,0.00000078,-0.00000049,-0.00000049,0.00000176,0.00000077,
 -0.00000066,-0.00000032,0.00000292,0.00000210,-0.00012354,-0.00001456,
 0.00003503,-0.00000676,0.00000754,0.00001185,0.00000238,0.00002614,0.0
 0000808,-0.00007642,0.00009696,0.00001006,-0.00006041,-0.00002126,-0.0
 0000709,0.00004821,-0.00022021,-0.00030969,-0.00001655,0.00020645,0.00
 061426,-0.00011470,0.00008130,-0.00003390,-0.00000127,0.00000045,0.000
 00178,-0.00000071,-0.00000344,-0.00000222,0.00000034,0.00000039,-0.000
 00126,-0.00155546,-0.00392200,-0.00039581,-0.00053436,-0.00003937,0.00
 008305,0.00152061,0.00666196,0.00096892,-0.00220717,-0.04581580,-0.019
 31534,-0.03774120,0.04632185,0.00003179,-0.00000131,-0.00004326,-0.000
 00049,-0.00000636,0.00002382,0.00000765,-0.00000594,0.00000096,0.00000
 666,0.00000368,-0.00000283,-0.00000667,0.00000501,0.00001966,0.0000002
 0,0.00000184,-0.00000378,0.00000030,0.00000387,-0.00000422,0.00001437,
 0.00000240,-0.00001984,-0.00000077,-0.00000340,0.00000334,0.00000176,0
 .00000074,-0.00000109,0.00000127,-0.00000044,-0.00000031,0.00003616,0.
 00005100,-0.00007403,0.00010214,0.00001638,-0.00008403,0.00000027,0.00
 000378,-0.00000472,0.00000377,-0.00000187,-0.00000098,-0.00000194,-0.0
 0000221,0.00001139,0.00000397,0.00000078,-0.00000313,-0.00000341,0.000
 00924,0.00000461,0.00000054,-0.00000218,-0.00000526,0.00000160,0.00000
 071,-0.00000709,-0.00000249,-0.00000220,0.00001534,0.00000053,-0.00000
 078,0.00000352,0.00000101,-0.00000008,0.00000215,0.00000066,-0.0000000
 7,0.00000228,-0.00000057,-0.00000127,0.00000968,-0.00003999,-0.0000076
 6,0.00002846,-0.00008504,-0.00000723,0.00005095,-0.00005561,-0.0000130
 2,0.00002528,-0.00002496,-0.00008430,0.00005299,-0.00001442,-0.0000194
 0,0.00002954,-0.00001115,-0.00003374,-0.00033936,0.00012127,0.00020837
 ,0.00060756,-0.00004282,-0.00001301,0.00005464,-0.00000304,0.00000550,
 -0.00000375,-0.00000255,-0.00000385,0.00000174,0.00000231,-0.00000053,
 -0.00000297,-0.00059837,-0.00084458,0.00006750,0.00019810,-0.00007064,
 -0.00002706,0.00096560,0.00174473,-0.00070289,0.17866519,-0.03790386,-
 0.08839697,-0.19995785,0.03591004,0.09616325,0.00001961,0.00004639,0.0
 0002312,-0.00000437,-0.00002265,0.00000470,0.00001140,-0.00000346,0.00
 000686,-0.00006276,-0.00001745,0.00002103,-0.00000847,-0.00003591,-0.0
 0002604,0.00002023,-0.00002193,0.00000287,-0.00000435,-0.00000655,0.00
 000105,-0.00004345,0.00001246,0.00000928,0.00001377,0.00001182,-0.0000
 0112,-0.00001539,0.00000764,0.00000111,-0.00001240,-0.00000181,0.00000
 174,-0.00008110,-0.00002320,0.00000342,-0.00006250,0.00015607,0.000022
 77,-0.00001026,0.00000328,-0.00001445,-0.00000971,0.00000602,0.0000042
 1,0.00002628,-0.00000981,-0.00001863,0.00000219,0.00000715,-0.00000337
 ,-0.00000435,-0.00001338,-0.00000346,0.00001202,0.00001282,0.00001008,
 0.00000557,0.00000509,0.00000259,0.00001688,-0.00000776,-0.00000154,0.
 00000174,0.00000156,0.00000058,-0.00000065,0.00000200,0.00000034,-0.00
 000268,-0.00000465,0.00000062,-0.00001550,-0.00000342,-0.00002041,0.00
 009083,0.00000933,-0.00001907,-0.00001666,-0.00002367,-0.00001581,-0.0
 0001943,-0.00004948,-0.00003498,0.00002269,0.00002222,0.00000164,0.000
 01619,-0.00000040,0.00000351,-0.00023867,-0.00001924,-0.00021082,0.000
 25083,0.00013411,0.00033697,0.00022091,-0.00017293,0.00005284,0.000000
 14,-0.00000255,-0.00000251,0.00000157,0.00000833,0.00000598,0.00000597
 ,-0.00000107,0.00000007,-0.00271505,-0.00182335,0.00115035,-0.00015683
 ,-0.00017016,-0.00007048,0.00498212,0.00189791,-0.00298876,-0.04521186
 ,-0.01756787,0.01083687,-0.00249166,0.04059753,0.02068500,0.04546716,0
 .00004105,-0.00002059,-0.00000704,-0.00000482,0.00000422,-0.00000405,-
 0.00001786,0.00000656,-0.00000139,-0.00000423,0.00000029,0.00000152,-0
 .00000232,0.00002843,0.00000201,0.00000918,0.00001440,-0.00000133,-0.0
 0002201,-0.00000319,0.00000282,0.00005173,0.00000472,-0.00000618,-0.00
 000377,-0.00001760,0.00000035,0.00000523,0.00000187,-0.00000079,-0.000
 00022,-0.00000670,0.00000188,0.00008285,0.00008236,-0.00000364,0.00014
 095,-0.00005110,0.00001469,-0.00000330,0.00000089,0.00000911,0.0000114
 1,-0.00000022,-0.00000568,-0.00000820,0.00001555,-0.00000148,0.0000012
 4,-0.00000138,0.00000101,0.00000594,-0.00001007,0.00000180,0.00000762,
 -0.00000182,-0.00000018,0.00000628,0.00000072,0.00000147,-0.00000904,0
 .00000606,-0.00000325,-0.00000241,0.00000068,-0.00000088,0.00000108,0.
 00000017,-0.00000083,0.00000239,0.00000067,-0.00000119,-0.00000974,-0.
 00000290,-0.00000856,-0.00009687,-0.00001634,0.00001928,-0.00006807,-0
 .00000505,0.00003350,-0.00000516,0.00002190,-0.00000610,-0.00002413,-0
 .00013094,0.00000568,-0.00001089,-0.00000849,-0.00001079,0.00022721,0.
 00011592,0.00017531,-0.00024553,-0.00019011,-0.00026321,-0.00019529,0.
 00008596,-0.00006453,-0.00000303,0.00000057,0.00000271,-0.00000139,-0.
 00000267,-0.00000225,0.00000541,0.00000112,-0.00000169,-0.00032903,0.0
 0021786,0.00063046,-0.00017506,-0.00026305,-0.00013613,0.00097032,-0.0
 0140564,-0.00134665,0.03009145,-0.43504015,-0.22206412,-0.00747995,-0.
 00329795,0.00106186,-0.02293901,0.43986502,0.00006183,0.00000518,-0.00
 005742,-0.00000371,-0.00000792,0.00003314,0.00000364,-0.00000671,-0.00
 000029,-0.00001341,0.00000144,-0.00000443,-0.00001530,-0.00000346,0.00
 002852,0.00001092,0.00001002,-0.00000654,-0.00002018,-0.00001238,-0.00
 000024,0.00002694,0.00001012,-0.00001728,0.00000378,-0.00000976,0.0000
 0116,-0.00000032,0.00000516,-0.00000040,-0.00000097,-0.00000582,-0.000
 00131,0.00003971,0.00010310,-0.00004406,0.00016946,0.00007535,-0.00005
 148,-0.00000594,0.00000570,-0.00001185,0.00001560,-0.00000255,-0.00000
 031,-0.00000090,0.00000122,0.00002571,0.00001240,0.00000471,-0.0000041
 4,-0.00000615,0.00000803,0.00001204,0.00000696,0.00000073,-0.00000626,
 0.00000660,0.00000196,-0.00000851,-0.00000283,-0.00000084,0.00001208,-
 0.00000112,0.00000174,0.00000296,0.00000158,0.00000062,0.00000214,0.00
 000166,-0.00000048,0.00000254,-0.00000896,-0.00000543,-0.00000016,-0.0
 0005753,-0.00001355,0.00002870,-0.00014648,-0.00002431,0.00007284,-0.0
 0005289,-0.00004320,-0.00000581,-0.00001826,-0.00017897,0.00002754,0.0
 0000110,-0.00001087,0.00000775,0.00005545,0.00014654,0.00000671,0.0000
 0052,-0.00008254,-0.00003576,-0.00006881,-0.00003703,0.00000945,-0.000
 00449,0.00000428,-0.00000563,-0.00000316,-0.00000215,0.00000094,0.0000
 0678,-0.00000041,-0.00000313,0.00197385,0.00111953,-0.00061089,-0.0001
 0991,0.00018730,0.00032235,-0.00301400,-0.00124048,0.00078635,0.033816
 94,-0.20444147,-0.11358466,-0.00290223,-0.01753888,-0.00745107,-0.0297
 5818,0.22197648,0.12052872\\0.00000577,0.00000304,0.00000078,0.0000002
 9,-0.00000401,0.00000314,-0.00000062,-0.00000288,-0.00000370,0.0000001
 8,0.00000066,-0.00000409,-0.00000085,0.00000505,-0.00000196,0.00000068
 ,0.00000004,-0.00000023,-0.00000072,0.00000077,-0.00000010,-0.00000329
 ,-0.00000539,0.00000477,-0.00000002,0.00000188,-0.00000076,-0.00000170
 ,0.00000039,-0.00000162,-0.00000032,-0.00000063,0.00000008,-0.00000167
 ,-0.00000438,0.00000519,0.00000056,0.00000060,-0.00000213,0.00000055,0
 .00000197,0.00000024,-0.00000038,0.00000051,-0.00000180,-0.00000020,0.
 00000105,-0.00000118,-0.00000050,-0.00000129,-0.00000135,-0.00000013,-
 0.00000144,-0.00000014,0.00000062,0.00000146,0.00000102,-0.00000014,0.
 00000084,0.00000180,0.00000026,0.00000036,0.00000118,-0.00000095,-0.00
 000018,0.00000062,-0.00000071,0.00000038,-0.00000011,-0.00000037,0.000
 00085,0.,-0.00000071,0.00000133,0.00000313,0.00000381,0.00000488,-0.00
 000869,-0.00000582,-0.00000093,0.00000271,0.00000044,0.00000016,0.0000
 0056,-0.00000155,0.00000370,-0.00000347,-0.00000078,-0.00000148,-0.000
 00024,0.00000150,-0.00000376,0.00000487,-0.00000452,-0.00000148,-0.000
 00293,0.00000573,-0.00000121,0.00000222,0.00000097,0.00000112,0.000001
 23,0.00000075,0.00000091,0.00000099,-0.00000011,0.00000067,0.00000035,
 -0.00000340,0.00000244,-0.00000664,0.00000288,-0.00000240,0.00000217,0
 .00000147,0.00000022,0.00000380,0.00000076,-0.00000900,-0.00000139,-0.
 00000043,0.00000359,0.00000181,0.00000269,0.00000160,-0.00000014\\\@


 TO SEE A WORLD IN A GRAIN OF SAND
 AND A HEAVEN IN A WILD FLOWER
 HOLD INFINITY IN THE PALM OF YOUR HAND
 AND ETERNITY IN AN HOUR

                       -- WILLIAM BLAKE
 Job cpu time:       1 days 14 hours 16 minutes 41.3 seconds.
 Elapsed time:       0 days  1 hours 22 minutes  8.2 seconds.
 File lengths (MBytes):  RWF=   1440 Int=      0 D2E=      0 Chk=     36 Scr=      8
 Normal termination of Gaussian 16 at Thu May 18 03:44:53 2023.
