 Entering Gaussian System, Link 0=g16
 Input=Nic5h3bLMidATS1_4.gjf
 Output=Nic5h3bLMidATS1_4.log
 Initial command:
 /sw/contrib/gaussian/g16/A03/g16/l1.exe "/gscratch/scrubbed/gds001/Gau-286271.inp" -scrdir="/gscratch/scrubbed/gds001/"
 Entering Link 1 = /sw/contrib/gaussian/g16/A03/g16/l1.exe PID=    286272.
  
 Copyright (c) 1988,1990,1992,1993,1995,1998,2003,2009,2016,
            Gaussian, Inc.  All Rights Reserved.
  
 This is part of the Gaussian(R) 16 program.  It is based on
 the Gaussian(R) 09 system (copyright 2009, Gaussian, Inc.),
 the Gaussian(R) 03 system (copyright 2003, Gaussian, Inc.),
 the Gaussian(R) 98 system (copyright 1998, Gaussian, Inc.),
 the Gaussian(R) 94 system (copyright 1995, Gaussian, Inc.),
 the Gaussian 92(TM) system (copyright 1992, Gaussian, Inc.),
 the Gaussian 90(TM) system (copyright 1990, Gaussian, Inc.),
 the Gaussian 88(TM) system (copyright 1988, Gaussian, Inc.),
 the Gaussian 86(TM) system (copyright 1986, Carnegie Mellon
 University), and the Gaussian 82(TM) system (copyright 1983,
 Carnegie Mellon University). Gaussian is a federally registered
 trademark of Gaussian, Inc.
  
 This software contains proprietary and confidential information,
 including trade secrets, belonging to Gaussian, Inc.
  
 This software is provided under written license and may be
 used, copied, transmitted, or stored only in accord with that
 written license.
  
 The following legend is applicable only to US Government
 contracts under FAR:
  
                    RESTRICTED RIGHTS LEGEND
  
 Use, reproduction and disclosure by the US Government is
 subject to restrictions as set forth in subparagraphs (a)
 and (c) of the Commercial Computer Software - Restricted
 Rights clause in FAR 52.227-19.
  
 Gaussian, Inc.
 340 Quinnipiac St., Bldg. 40, Wallingford CT 06492
  
  
 ---------------------------------------------------------------
 Warning -- This program may not be used in any manner that
 competes with the business of Gaussian, Inc. or will provide
 assistance to any competitor of Gaussian, Inc.  The licensee
 of this program is prohibited from giving any competitor of
 Gaussian, Inc. access to this program.  By using this program,
 the user acknowledges that Gaussian, Inc. is engaged in the
 business of creating and licensing software in the field of
 computational chemistry and represents and warrants to the
 licensee that it is not a competitor of Gaussian, Inc. and that
 it will not use this program in any manner prohibited above.
 ---------------------------------------------------------------
  

 Cite this work as:
 Gaussian 16, Revision A.03,
 M. J. Frisch, G. W. Trucks, H. B. Schlegel, G. E. Scuseria, 
 M. A. Robb, J. R. Cheeseman, G. Scalmani, V. Barone, 
 G. A. Petersson, H. Nakatsuji, X. Li, M. Caricato, A. V. Marenich, 
 J. Bloino, B. G. Janesko, R. Gomperts, B. Mennucci, H. P. Hratchian, 
 J. V. Ortiz, A. F. Izmaylov, J. L. Sonnenberg, D. Williams-Young, 
 F. Ding, F. Lipparini, F. Egidi, J. Goings, B. Peng, A. Petrone, 
 T. Henderson, D. Ranasinghe, V. G. Zakrzewski, J. Gao, N. Rega, 
 G. Zheng, W. Liang, M. Hada, M. Ehara, K. Toyota, R. Fukuda, 
 J. Hasegawa, M. Ishida, T. Nakajima, Y. Honda, O. Kitao, H. Nakai, 
 T. Vreven, K. Throssell, J. A. Montgomery, Jr., J. E. Peralta, 
 F. Ogliaro, M. J. Bearpark, J. J. Heyd, E. N. Brothers, K. N. Kudin, 
 V. N. Staroverov, T. A. Keith, R. Kobayashi, J. Normand, 
 K. Raghavachari, A. P. Rendell, J. C. Burant, S. S. Iyengar, 
 J. Tomasi, M. Cossi, J. M. Millam, M. Klene, C. Adamo, R. Cammi, 
 J. W. Ochterski, R. L. Martin, K. Morokuma, O. Farkas, 
 J. B. Foresman, and D. J. Fox, Gaussian, Inc., Wallingford CT, 2016.
 
 ******************************************
 Gaussian 16:  ES64L-G16RevA.03 25-Dec-2016
                22-May-2023 
 ******************************************
 %nprocshared=32
 Will use up to   32 processors via shared memory.
 %mem=41GB
 ----------------------------------------------------------------
 # wB97XD/aug-cc-pVDZ opt=(TS,CalcAll,MaxStep=1,NoEigenTest) freq
 ----------------------------------------------------------------
 1/5=1,8=1,10=4,11=1,18=20,26=3,38=1/1,3;
 2/9=110,12=2,17=6,18=5,40=1/2;
 3/5=16,7=10,11=2,25=1,30=1,71=2,74=-58,140=1/1,2,3;
 4//1;
 5/5=2,38=5/2;
 8/6=4,10=90,11=11/1;
 11/6=1,8=1,9=11,15=111,16=1/1,2,10;
 10/6=1/2;
 6/7=2,8=2,9=2,10=2,18=1,28=1/1;
 7/10=1,25=1/1,2,3,16;
 1/5=1,8=1,10=4,11=1,18=20,26=3/3(3);
 2/9=110/2;
 7/8=1,9=1,25=1,44=-1/16;
 99//99;
 2/9=110/2;
 3/5=16,7=10,11=2,25=1,30=1,71=2,74=-58,140=1/1,2,3;
 4/5=5,16=3,69=1/1;
 5/5=2,38=5/2;
 8/6=4,10=90,11=11/1;
 11/6=1,8=1,9=11,15=111,16=1/1,2,10;
 10/6=1/2;
 7/10=1,25=1/1,2,3,16;
 1/5=1,8=1,10=4,11=1,18=20,26=3/3(-8);
 2/9=110/2;
 6/7=2,8=2,9=2,10=2,18=1,19=2,28=1/1;
 7/8=1,9=1,25=1,44=-1/16;
 99//99;
 ----
 blah
 ----
 Symbolic Z-matrix:
 Charge =  1 Multiplicity = 1
 N                     1.561    -1.7758    0.66904 
 C                     2.11062  -1.13337  -0.53701 
 C                     1.2371   -1.69863  -1.67433 
 C                     0.7306   -3.05852  -1.13655 
 C                     1.35752  -3.17211   0.2568 
 C                     2.13034   0.37234  -0.43833 
 C                     0.96332   1.07825  -0.15845 
 N                     0.92008   2.40875  -0.05239 
 C                     2.03902   3.1217   -0.23684 
 C                     3.24943   2.50995  -0.52892 
 C                     3.29297   1.11944  -0.62269 
 O                    -1.41449   3.07453   0.55139 
 O                    -0.98723  -1.04699   1.48463 
 H                     0.72486  -3.69522   0.98453 
 H                     1.02466  -3.89676  -1.77604 
 H                    -0.36275  -3.05984  -1.06752 
 H                     1.81817  -1.79222  -2.59772 
 H                     0.39955  -1.023    -1.88448 
 H                     2.32782  -3.70012   0.2116 
 H                     3.1538   -1.47637  -0.68001 
 H                     0.01774   0.55982  -0.00771 
 H                     1.95021   4.20339  -0.1455 
 H                     4.14334   3.11303  -0.67353 
 H                     4.23576   0.61604  -0.83934 
 C                     2.42049  -1.64179   1.83962 
 H                    -0.35758   2.89043   0.29852 
 H                    -0.06899  -1.29156   1.19011 
 H                    -1.25978  -1.68857   2.14331 
 H                    -1.98122   2.08499   0.72176 
 H                    -1.49662   3.65929   1.31092 
 O                    -2.57766   1.00155   0.88507 
 H                    -3.2242    0.74739   0.17604 
 H                    -2.01456   0.22273   1.10841 
 H                     1.97182  -2.174     2.68681 
 H                     2.51944  -0.58452   2.11354 
 H                     3.42725  -2.05956   1.65837 
 O                    -4.27486   0.29696  -0.99845 
 H                    -4.4367    0.83954  -1.7734 
 H                    -5.13839  -0.08555  -0.74992 
 O                    -6.67989  -0.80806  -0.27717 
 H                    -7.39095  -0.37074   0.19813 
 H                    -7.06566  -1.5967   -0.66705 
 
 Add virtual bond connecting atoms H29        and O12        Dist= 2.18D+00.
 Add virtual bond connecting atoms O31        and H29        Dist= 2.36D+00.
 Add virtual bond connecting atoms H26        and N8         Dist= 2.66D+00.
 Add virtual bond connecting atoms O37        and H32        Dist= 3.10D+00.
 Add virtual bond connecting atoms N1         and H27        Dist= 3.36D+00.
 Add virtual bond connecting atoms H33        and O13        Dist= 3.17D+00.
 Add virtual bond connecting atoms O40        and H39        Dist= 3.34D+00.

 GradGradGradGradGradGradGradGradGradGradGradGradGradGradGradGradGradGrad
 Berny optimization.
 Initialization pass.
                           ----------------------------
                           !    Initial Parameters    !
                           ! (Angstroms and Degrees)  !
 --------------------------                            --------------------------
 ! Name  Definition              Value          Derivative Info.                !
 --------------------------------------------------------------------------------
 ! R1    R(1,2)                  1.4729         calculate D2E/DX2 analytically  !
 ! R2    R(1,5)                  1.47           calculate D2E/DX2 analytically  !
 ! R3    R(1,25)                 1.4584         calculate D2E/DX2 analytically  !
 ! R4    R(1,27)                 1.7784         calculate D2E/DX2 analytically  !
 ! R5    R(2,3)                  1.5415         calculate D2E/DX2 analytically  !
 ! R6    R(2,6)                  1.5091         calculate D2E/DX2 analytically  !
 ! R7    R(2,20)                 1.1074         calculate D2E/DX2 analytically  !
 ! R8    R(3,4)                  1.5476         calculate D2E/DX2 analytically  !
 ! R9    R(3,17)                 1.095          calculate D2E/DX2 analytically  !
 ! R10   R(3,18)                 1.0964         calculate D2E/DX2 analytically  !
 ! R11   R(4,5)                  1.5321         calculate D2E/DX2 analytically  !
 ! R12   R(4,15)                 1.0946         calculate D2E/DX2 analytically  !
 ! R13   R(4,16)                 1.0955         calculate D2E/DX2 analytically  !
 ! R14   R(5,14)                 1.097          calculate D2E/DX2 analytically  !
 ! R15   R(5,19)                 1.1056         calculate D2E/DX2 analytically  !
 ! R16   R(6,7)                  1.3923         calculate D2E/DX2 analytically  !
 ! R17   R(6,11)                 1.3942         calculate D2E/DX2 analytically  !
 ! R18   R(7,8)                  1.3354         calculate D2E/DX2 analytically  !
 ! R19   R(7,21)                 1.0889         calculate D2E/DX2 analytically  !
 ! R20   R(8,9)                  1.3395         calculate D2E/DX2 analytically  !
 ! R21   R(8,26)                 1.4098         calculate D2E/DX2 analytically  !
 ! R22   R(9,10)                 1.3873         calculate D2E/DX2 analytically  !
 ! R23   R(9,22)                 1.0892         calculate D2E/DX2 analytically  !
 ! R24   R(10,11)                1.3944         calculate D2E/DX2 analytically  !
 ! R25   R(10,23)                1.088          calculate D2E/DX2 analytically  !
 ! R26   R(11,24)                1.0905         calculate D2E/DX2 analytically  !
 ! R27   R(12,26)                1.1022         calculate D2E/DX2 analytically  !
 ! R28   R(12,29)                1.153          calculate D2E/DX2 analytically  !
 ! R29   R(12,30)                0.9621         calculate D2E/DX2 analytically  !
 ! R30   R(13,27)                0.9948         calculate D2E/DX2 analytically  !
 ! R31   R(13,28)                0.959          calculate D2E/DX2 analytically  !
 ! R32   R(13,33)                1.676          calculate D2E/DX2 analytically  !
 ! R33   R(25,34)                1.0965         calculate D2E/DX2 analytically  !
 ! R34   R(25,35)                1.0967         calculate D2E/DX2 analytically  !
 ! R35   R(25,36)                1.105          calculate D2E/DX2 analytically  !
 ! R36   R(29,31)                1.2475         calculate D2E/DX2 analytically  !
 ! R37   R(31,32)                0.9926         calculate D2E/DX2 analytically  !
 ! R38   R(31,33)                0.9867         calculate D2E/DX2 analytically  !
 ! R39   R(32,37)                1.639          calculate D2E/DX2 analytically  !
 ! R40   R(37,38)                0.9598         calculate D2E/DX2 analytically  !
 ! R41   R(37,39)                0.9766         calculate D2E/DX2 analytically  !
 ! R42   R(39,40)                1.7668         calculate D2E/DX2 analytically  !
 ! R43   R(40,41)                0.9606         calculate D2E/DX2 analytically  !
 ! R44   R(40,42)                0.9606         calculate D2E/DX2 analytically  !
 ! A1    A(2,1,5)              103.6701         calculate D2E/DX2 analytically  !
 ! A2    A(2,1,25)             113.4055         calculate D2E/DX2 analytically  !
 ! A3    A(2,1,27)             117.5912         calculate D2E/DX2 analytically  !
 ! A4    A(5,1,25)             113.1996         calculate D2E/DX2 analytically  !
 ! A5    A(5,1,27)             102.3526         calculate D2E/DX2 analytically  !
 ! A6    A(25,1,27)            106.2576         calculate D2E/DX2 analytically  !
 ! A7    A(1,2,3)              103.4588         calculate D2E/DX2 analytically  !
 ! A8    A(1,2,6)              112.7392         calculate D2E/DX2 analytically  !
 ! A9    A(1,2,20)             108.7938         calculate D2E/DX2 analytically  !
 ! A10   A(3,2,6)              114.9322         calculate D2E/DX2 analytically  !
 ! A11   A(3,2,20)             108.9634         calculate D2E/DX2 analytically  !
 ! A12   A(6,2,20)             107.7691         calculate D2E/DX2 analytically  !
 ! A13   A(2,3,4)              104.5547         calculate D2E/DX2 analytically  !
 ! A14   A(2,3,17)             110.6596         calculate D2E/DX2 analytically  !
 ! A15   A(2,3,18)             110.3855         calculate D2E/DX2 analytically  !
 ! A16   A(4,3,17)             113.0547         calculate D2E/DX2 analytically  !
 ! A17   A(4,3,18)             110.9814         calculate D2E/DX2 analytically  !
 ! A18   A(17,3,18)            107.2419         calculate D2E/DX2 analytically  !
 ! A19   A(3,4,5)              104.3152         calculate D2E/DX2 analytically  !
 ! A20   A(3,4,15)             112.457          calculate D2E/DX2 analytically  !
 ! A21   A(3,4,16)             110.4623         calculate D2E/DX2 analytically  !
 ! A22   A(5,4,15)             111.3842         calculate D2E/DX2 analytically  !
 ! A23   A(5,4,16)             110.5473         calculate D2E/DX2 analytically  !
 ! A24   A(15,4,16)            107.6983         calculate D2E/DX2 analytically  !
 ! A25   A(1,5,4)              103.96           calculate D2E/DX2 analytically  !
 ! A26   A(1,5,14)             110.2867         calculate D2E/DX2 analytically  !
 ! A27   A(1,5,19)             110.097          calculate D2E/DX2 analytically  !
 ! A28   A(4,5,14)             113.7446         calculate D2E/DX2 analytically  !
 ! A29   A(4,5,19)             110.937          calculate D2E/DX2 analytically  !
 ! A30   A(14,5,19)            107.7899         calculate D2E/DX2 analytically  !
 ! A31   A(2,6,7)              120.5352         calculate D2E/DX2 analytically  !
 ! A32   A(2,6,11)             122.4734         calculate D2E/DX2 analytically  !
 ! A33   A(7,6,11)             116.9911         calculate D2E/DX2 analytically  !
 ! A34   A(6,7,8)              123.2462         calculate D2E/DX2 analytically  !
 ! A35   A(6,7,21)             120.9514         calculate D2E/DX2 analytically  !
 ! A36   A(8,7,21)             115.802          calculate D2E/DX2 analytically  !
 ! A37   A(7,8,9)              119.4915         calculate D2E/DX2 analytically  !
 ! A38   A(7,8,26)             112.9243         calculate D2E/DX2 analytically  !
 ! A39   A(9,8,26)             127.5497         calculate D2E/DX2 analytically  !
 ! A40   A(8,9,10)             121.5406         calculate D2E/DX2 analytically  !
 ! A41   A(8,9,22)             116.6743         calculate D2E/DX2 analytically  !
 ! A42   A(10,9,22)            121.7851         calculate D2E/DX2 analytically  !
 ! A43   A(9,10,11)            118.7604         calculate D2E/DX2 analytically  !
 ! A44   A(9,10,23)            120.0274         calculate D2E/DX2 analytically  !
 ! A45   A(11,10,23)           121.2109         calculate D2E/DX2 analytically  !
 ! A46   A(6,11,10)            119.9632         calculate D2E/DX2 analytically  !
 ! A47   A(6,11,24)            119.99           calculate D2E/DX2 analytically  !
 ! A48   A(10,11,24)           120.0468         calculate D2E/DX2 analytically  !
 ! A49   A(26,12,29)           111.215          calculate D2E/DX2 analytically  !
 ! A50   A(26,12,30)           111.3772         calculate D2E/DX2 analytically  !
 ! A51   A(29,12,30)           111.2861         calculate D2E/DX2 analytically  !
 ! A52   A(27,13,28)           107.5282         calculate D2E/DX2 analytically  !
 ! A53   A(27,13,33)           133.2773         calculate D2E/DX2 analytically  !
 ! A54   A(28,13,33)           119.1286         calculate D2E/DX2 analytically  !
 ! A55   A(1,25,34)            109.5362         calculate D2E/DX2 analytically  !
 ! A56   A(1,25,35)            110.0138         calculate D2E/DX2 analytically  !
 ! A57   A(1,25,36)            111.7502         calculate D2E/DX2 analytically  !
 ! A58   A(34,25,35)           108.1723         calculate D2E/DX2 analytically  !
 ! A59   A(34,25,36)           108.4242         calculate D2E/DX2 analytically  !
 ! A60   A(35,25,36)           108.8606         calculate D2E/DX2 analytically  !
 ! A61   A(29,31,32)           116.1212         calculate D2E/DX2 analytically  !
 ! A62   A(29,31,33)           116.2511         calculate D2E/DX2 analytically  !
 ! A63   A(32,31,33)           109.3475         calculate D2E/DX2 analytically  !
 ! A64   A(32,37,38)           122.0966         calculate D2E/DX2 analytically  !
 ! A65   A(32,37,39)           119.4791         calculate D2E/DX2 analytically  !
 ! A66   A(38,37,39)           106.1295         calculate D2E/DX2 analytically  !
 ! A67   A(39,40,41)           126.302          calculate D2E/DX2 analytically  !
 ! A68   A(39,40,42)           125.2743         calculate D2E/DX2 analytically  !
 ! A69   A(41,40,42)           106.0994         calculate D2E/DX2 analytically  !
 ! A70   L(8,26,12,13,-1)      170.3758         calculate D2E/DX2 analytically  !
 ! A71   L(1,27,13,7,-1)       181.4923         calculate D2E/DX2 analytically  !
 ! A72   L(12,29,31,1,-1)      178.9887         calculate D2E/DX2 analytically  !
 ! A73   L(31,32,37,3,-1)      178.9689         calculate D2E/DX2 analytically  !
 ! A74   L(13,33,31,7,-1)      177.2578         calculate D2E/DX2 analytically  !
 ! A75   L(37,39,40,28,-1)     178.6415         calculate D2E/DX2 analytically  !
 ! A76   L(8,26,12,13,-2)      184.2663         calculate D2E/DX2 analytically  !
 ! A77   L(1,27,13,7,-2)       179.4951         calculate D2E/DX2 analytically  !
 ! A78   L(12,29,31,1,-2)      180.9668         calculate D2E/DX2 analytically  !
 ! A79   L(31,32,37,3,-2)      179.3131         calculate D2E/DX2 analytically  !
 ! A80   L(13,33,31,7,-2)      181.3305         calculate D2E/DX2 analytically  !
 ! A81   L(37,39,40,28,-2)     180.4162         calculate D2E/DX2 analytically  !
 ! D1    D(5,1,2,3)             43.2177         calculate D2E/DX2 analytically  !
 ! D2    D(5,1,2,6)            167.9874         calculate D2E/DX2 analytically  !
 ! D3    D(5,1,2,20)           -72.5295         calculate D2E/DX2 analytically  !
 ! D4    D(25,1,2,3)           166.3825         calculate D2E/DX2 analytically  !
 ! D5    D(25,1,2,6)           -68.8477         calculate D2E/DX2 analytically  !
 ! D6    D(25,1,2,20)           50.6353         calculate D2E/DX2 analytically  !
 ! D7    D(27,1,2,3)           -68.8388         calculate D2E/DX2 analytically  !
 ! D8    D(27,1,2,6)            55.931          calculate D2E/DX2 analytically  !
 ! D9    D(27,1,2,20)          175.414          calculate D2E/DX2 analytically  !
 ! D10   D(2,1,5,4)            -43.7352         calculate D2E/DX2 analytically  !
 ! D11   D(2,1,5,14)          -166.0279         calculate D2E/DX2 analytically  !
 ! D12   D(2,1,5,19)            75.1493         calculate D2E/DX2 analytically  !
 ! D13   D(25,1,5,4)          -167.0354         calculate D2E/DX2 analytically  !
 ! D14   D(25,1,5,14)           70.672          calculate D2E/DX2 analytically  !
 ! D15   D(25,1,5,19)          -48.1508         calculate D2E/DX2 analytically  !
 ! D16   D(27,1,5,4)            79.0318         calculate D2E/DX2 analytically  !
 ! D17   D(27,1,5,14)          -43.2609         calculate D2E/DX2 analytically  !
 ! D18   D(27,1,5,19)         -162.0836         calculate D2E/DX2 analytically  !
 ! D19   D(2,1,13,28)          167.3725         calculate D2E/DX2 analytically  !
 ! D20   D(2,1,13,33)          -15.0293         calculate D2E/DX2 analytically  !
 ! D21   D(5,1,13,28)           54.7529         calculate D2E/DX2 analytically  !
 ! D22   D(5,1,13,33)         -127.6489         calculate D2E/DX2 analytically  !
 ! D23   D(25,1,13,28)         -63.9847         calculate D2E/DX2 analytically  !
 ! D24   D(25,1,13,33)         113.6136         calculate D2E/DX2 analytically  !
 ! D25   D(2,1,25,34)         -177.7839         calculate D2E/DX2 analytically  !
 ! D26   D(2,1,25,35)           63.4365         calculate D2E/DX2 analytically  !
 ! D27   D(2,1,25,36)          -57.61           calculate D2E/DX2 analytically  !
 ! D28   D(5,1,25,34)          -60.0288         calculate D2E/DX2 analytically  !
 ! D29   D(5,1,25,35)         -178.8083         calculate D2E/DX2 analytically  !
 ! D30   D(5,1,25,36)           60.1451         calculate D2E/DX2 analytically  !
 ! D31   D(27,1,25,34)          51.5282         calculate D2E/DX2 analytically  !
 ! D32   D(27,1,25,35)         -67.2513         calculate D2E/DX2 analytically  !
 ! D33   D(27,1,25,36)         171.7021         calculate D2E/DX2 analytically  !
 ! D34   D(1,2,3,4)            -25.6676         calculate D2E/DX2 analytically  !
 ! D35   D(1,2,3,17)          -147.6933         calculate D2E/DX2 analytically  !
 ! D36   D(1,2,3,18)            93.7478         calculate D2E/DX2 analytically  !
 ! D37   D(6,2,3,4)           -149.0038         calculate D2E/DX2 analytically  !
 ! D38   D(6,2,3,17)            88.9706         calculate D2E/DX2 analytically  !
 ! D39   D(6,2,3,18)           -29.5884         calculate D2E/DX2 analytically  !
 ! D40   D(20,2,3,4)            89.959          calculate D2E/DX2 analytically  !
 ! D41   D(20,2,3,17)          -32.0666         calculate D2E/DX2 analytically  !
 ! D42   D(20,2,3,18)         -150.6256         calculate D2E/DX2 analytically  !
 ! D43   D(1,2,6,7)            -55.2649         calculate D2E/DX2 analytically  !
 ! D44   D(1,2,6,11)           124.9429         calculate D2E/DX2 analytically  !
 ! D45   D(3,2,6,7)             62.9727         calculate D2E/DX2 analytically  !
 ! D46   D(3,2,6,11)          -116.8195         calculate D2E/DX2 analytically  !
 ! D47   D(20,2,6,7)          -175.3395         calculate D2E/DX2 analytically  !
 ! D48   D(20,2,6,11)            4.8683         calculate D2E/DX2 analytically  !
 ! D49   D(2,3,4,5)             -0.3807         calculate D2E/DX2 analytically  !
 ! D50   D(2,3,4,15)          -121.2215         calculate D2E/DX2 analytically  !
 ! D51   D(2,3,4,16)           118.4249         calculate D2E/DX2 analytically  !
 ! D52   D(17,3,4,5)           120.0606         calculate D2E/DX2 analytically  !
 ! D53   D(17,3,4,15)           -0.7803         calculate D2E/DX2 analytically  !
 ! D54   D(17,3,4,16)         -121.1338         calculate D2E/DX2 analytically  !
 ! D55   D(18,3,4,5)          -119.3938         calculate D2E/DX2 analytically  !
 ! D56   D(18,3,4,15)          119.7654         calculate D2E/DX2 analytically  !
 ! D57   D(18,3,4,16)           -0.5882         calculate D2E/DX2 analytically  !
 ! D58   D(3,4,5,1)             26.4172         calculate D2E/DX2 analytically  !
 ! D59   D(3,4,5,14)           146.395          calculate D2E/DX2 analytically  !
 ! D60   D(3,4,5,19)           -91.8907         calculate D2E/DX2 analytically  !
 ! D61   D(15,4,5,1)           147.971          calculate D2E/DX2 analytically  !
 ! D62   D(15,4,5,14)          -92.0513         calculate D2E/DX2 analytically  !
 ! D63   D(15,4,5,19)           29.6631         calculate D2E/DX2 analytically  !
 ! D64   D(16,4,5,1)           -92.3305         calculate D2E/DX2 analytically  !
 ! D65   D(16,4,5,14)           27.6473         calculate D2E/DX2 analytically  !
 ! D66   D(16,4,5,19)          149.3616         calculate D2E/DX2 analytically  !
 ! D67   D(2,6,7,8)            179.6577         calculate D2E/DX2 analytically  !
 ! D68   D(2,6,7,21)            -0.1038         calculate D2E/DX2 analytically  !
 ! D69   D(11,6,7,8)            -0.5391         calculate D2E/DX2 analytically  !
 ! D70   D(11,6,7,21)          179.6994         calculate D2E/DX2 analytically  !
 ! D71   D(2,6,11,10)          179.5423         calculate D2E/DX2 analytically  !
 ! D72   D(2,6,11,24)           -0.5029         calculate D2E/DX2 analytically  !
 ! D73   D(7,6,11,10)           -0.2568         calculate D2E/DX2 analytically  !
 ! D74   D(7,6,11,24)          179.6979         calculate D2E/DX2 analytically  !
 ! D75   D(6,7,8,9)              0.8694         calculate D2E/DX2 analytically  !
 ! D76   D(6,7,8,26)          -177.1541         calculate D2E/DX2 analytically  !
 ! D77   D(21,7,8,9)          -179.3578         calculate D2E/DX2 analytically  !
 ! D78   D(21,7,8,26)            2.6187         calculate D2E/DX2 analytically  !
 ! D79   D(7,8,9,10)            -0.3881         calculate D2E/DX2 analytically  !
 ! D80   D(7,8,9,22)           179.6426         calculate D2E/DX2 analytically  !
 ! D81   D(26,8,9,10)          177.3156         calculate D2E/DX2 analytically  !
 ! D82   D(26,8,9,22)           -2.6537         calculate D2E/DX2 analytically  !
 ! D83   D(7,8,12,29)            5.3437         calculate D2E/DX2 analytically  !
 ! D84   D(7,8,12,30)          128.6906         calculate D2E/DX2 analytically  !
 ! D85   D(9,8,12,29)         -172.9405         calculate D2E/DX2 analytically  !
 ! D86   D(9,8,12,30)          -49.5936         calculate D2E/DX2 analytically  !
 ! D87   D(8,9,10,11)           -0.3812         calculate D2E/DX2 analytically  !
 ! D88   D(8,9,10,23)         -179.9693         calculate D2E/DX2 analytically  !
 ! D89   D(22,9,10,11)         179.5866         calculate D2E/DX2 analytically  !
 ! D90   D(22,9,10,23)          -0.0016         calculate D2E/DX2 analytically  !
 ! D91   D(9,10,11,6)            0.6949         calculate D2E/DX2 analytically  !
 ! D92   D(9,10,11,24)        -179.2599         calculate D2E/DX2 analytically  !
 ! D93   D(23,10,11,6)        -179.7221         calculate D2E/DX2 analytically  !
 ! D94   D(23,10,11,24)          0.3232         calculate D2E/DX2 analytically  !
 ! D95   D(26,12,31,32)       -108.2676         calculate D2E/DX2 analytically  !
 ! D96   D(26,12,31,33)         21.943          calculate D2E/DX2 analytically  !
 ! D97   D(30,12,31,32)        126.8683         calculate D2E/DX2 analytically  !
 ! D98   D(30,12,31,33)       -102.9211         calculate D2E/DX2 analytically  !
 ! D99   D(27,13,31,29)        -36.0218         calculate D2E/DX2 analytically  !
 ! D100  D(27,13,31,32)         97.3855         calculate D2E/DX2 analytically  !
 ! D101  D(28,13,31,29)        139.5784         calculate D2E/DX2 analytically  !
 ! D102  D(28,13,31,32)        -87.0142         calculate D2E/DX2 analytically  !
 ! D103  D(29,31,37,38)         -0.2282         calculate D2E/DX2 analytically  !
 ! D104  D(29,31,37,39)       -137.7207         calculate D2E/DX2 analytically  !
 ! D105  D(33,31,37,38)       -133.8482         calculate D2E/DX2 analytically  !
 ! D106  D(33,31,37,39)         88.6593         calculate D2E/DX2 analytically  !
 ! D107  D(32,37,40,41)         65.301          calculate D2E/DX2 analytically  !
 ! D108  D(32,37,40,42)       -133.7924         calculate D2E/DX2 analytically  !
 ! D109  D(38,37,40,41)        -78.2282         calculate D2E/DX2 analytically  !
 ! D110  D(38,37,40,42)         82.6784         calculate D2E/DX2 analytically  !
 --------------------------------------------------------------------------------
 Trust Radius=1.00D-02 FncErr=1.00D-07 GrdErr=1.00D-06 EigMax=2.50D+02 EigMin=1.00D-04
 Number of steps in this run=    245 maximum allowed number of steps=    252.
 Search for a saddle point of order  1.
 GradGradGradGradGradGradGradGradGradGradGradGradGradGradGradGradGradGrad

                          Input orientation:                          
 ---------------------------------------------------------------------
 Center     Atomic      Atomic             Coordinates (Angstroms)
 Number     Number       Type             X           Y           Z
 ---------------------------------------------------------------------
      1          7           0        1.560997   -1.775802    0.669038
      2          6           0        2.110619   -1.133369   -0.537005
      3          6           0        1.237101   -1.698633   -1.674332
      4          6           0        0.730599   -3.058518   -1.136548
      5          6           0        1.357515   -3.172112    0.256801
      6          6           0        2.130337    0.372338   -0.438325
      7          6           0        0.963317    1.078254   -0.158448
      8          7           0        0.920080    2.408748   -0.052385
      9          6           0        2.039023    3.121699   -0.236843
     10          6           0        3.249431    2.509953   -0.528924
     11          6           0        3.292974    1.119437   -0.622685
     12          8           0       -1.414487    3.074533    0.551388
     13          8           0       -0.987231   -1.046990    1.484628
     14          1           0        0.724855   -3.695215    0.984534
     15          1           0        1.024657   -3.896760   -1.776036
     16          1           0       -0.362748   -3.059843   -1.067521
     17          1           0        1.818174   -1.792218   -2.597722
     18          1           0        0.399546   -1.023003   -1.884477
     19          1           0        2.327818   -3.700120    0.211598
     20          1           0        3.153798   -1.476369   -0.680005
     21          1           0        0.017742    0.559816   -0.007706
     22          1           0        1.950208    4.203386   -0.145498
     23          1           0        4.143343    3.113029   -0.673527
     24          1           0        4.235757    0.616042   -0.839340
     25          6           0        2.420493   -1.641793    1.839619
     26          1           0       -0.357581    2.890429    0.298524
     27          1           0       -0.068993   -1.291555    1.190106
     28          1           0       -1.259777   -1.688568    2.143308
     29          1           0       -1.981219    2.084986    0.721763
     30          1           0       -1.496624    3.659292    1.310916
     31          8           0       -2.577657    1.001548    0.885072
     32          1           0       -3.224196    0.747385    0.176035
     33          1           0       -2.014560    0.222734    1.108413
     34          1           0        1.971818   -2.174002    2.686813
     35          1           0        2.519443   -0.584521    2.113540
     36          1           0        3.427246   -2.059558    1.658371
     37          8           0       -4.274863    0.296960   -0.998449
     38          1           0       -4.436700    0.839537   -1.773395
     39          1           0       -5.138389   -0.085553   -0.749918
     40          8           0       -6.679888   -0.808058   -0.277174
     41          1           0       -7.390954   -0.370740    0.198126
     42          1           0       -7.065658   -1.596702   -0.667053
 ---------------------------------------------------------------------
                    Distance matrix (angstroms):
                    1          2          3          4          5
     1  N    0.000000
     2  C    1.472869   0.000000
     3  C    2.366907   1.541451   0.000000
     4  C    2.365388   2.443380   1.547593   0.000000
     5  C    1.470043   2.313821   2.432060   1.532106   0.000000
     6  C    2.482923   1.509066   2.571868   3.770617   3.693722
     7  C    3.031104   2.520096   3.175526   4.257196   4.288757
     8  N    4.294378   3.768134   4.427391   5.576945   5.606509
     9  C    5.003463   4.266243   5.093629   6.380950   6.349818
    10  C    4.759582   3.817166   4.803502   6.141791   6.040081
    11  C    3.612575   2.545671   3.643363   4.927994   4.789247
    12  O    5.691493   5.596196   5.896428   6.713035   6.840420
    13  O    2.773052   3.700154   3.918076   3.723943   3.394339
    14  H    2.117267   3.286104   3.364269   2.214589   1.097037
    15  H    3.280931   3.217272   2.210710   1.094561   2.183652
    16  H    2.892264   3.179669   2.186465   1.095525   2.173876
    17  H    3.276909   2.183154   1.095013   2.218415   3.203844
    18  H    2.904499   2.180741   1.096419   2.193699   3.181422
    19  H    2.121383   2.682497   2.958436   2.186380   1.105587
    20  H    2.108694   1.107394   2.170672   2.929765   2.641928
    21  H    2.880057   2.743568   3.060240   3.856785   3.973945
    22  H    6.046953   5.353500   6.138378   7.429998   7.410202
    23  H    5.689610   4.709830   5.709636   7.067475   6.937532
    24  H    3.892360   2.769126   3.879029   5.086930   4.882204
    25  C    1.458407   2.450073   3.708301   3.704109   2.444813
    26  H    5.058847   4.793858   5.243535   6.215588   6.300611
    27  H    1.778447   2.785434   3.174366   3.028997   2.538204
    28  H    3.183999   4.341877   4.561675   4.073796   3.551060
    29  H    5.239824   5.355879   5.514946   6.104335   6.245031
    30  H    6.269075   6.276672   6.715081   7.488630   7.478325
    31  O    4.988868   5.344166   5.328593   5.613879   5.770593
    32  H    5.432090   5.701396   5.413874   5.643419   6.030013
    33  H    4.119685   4.643653   4.691335   4.831393   4.860156
    34  H    2.097320   3.390455   4.448075   4.115955   2.697879
    35  H    2.103415   2.737473   4.151340   4.459114   3.390160
    36  H    2.131240   2.722317   4.004237   4.010162   2.736048
    37  O    6.413588   6.559966   5.900928   6.027682   6.733038
    38  H    6.984114   6.948986   6.216441   6.503952   7.334027
    39  H    7.053520   7.327439   6.641042   6.590374   7.262031
    40  O    8.351289   8.800361   8.088504   7.792202   8.394863
    41  H    9.073775   9.560435   8.928199   8.658240   9.186231
    42  H    8.731345   9.188887   8.364258   7.946002   8.618890
                    6          7          8          9         10
     6  C    0.000000
     7  C    1.392330   0.000000
     8  N    2.400133   1.335415   0.000000
     9  C    2.758246   2.310618   1.339536   0.000000
    10  C    2.414535   2.722743   2.379750   1.387311   0.000000
    11  C    1.394227   2.375819   2.760107   2.393809   1.394354
    12  O    4.565870   3.184800   2.501602   3.542635   4.820576
    13  O    3.928291   3.319789   4.235843   5.431357   5.886896
    14  H    4.532648   4.914192   6.194488   7.049051   6.867907
    15  H    4.608383   5.231741   6.537686   7.256502   6.895715
    16  H    4.288499   4.439449   5.708033   6.683561   6.660372
    17  H    3.073393   3.862700   4.993338   5.456107   4.983683
    18  H    2.652163   2.777102   3.924848   4.751961   4.737209
    19  H    4.128718   4.983137   6.274526   6.842640   6.321610
    20  H    2.126875   3.405338   4.525211   4.751983   3.990330
    21  H    2.164172   1.088859   2.057853   3.271288   3.810317
    22  H    3.846443   3.277281   2.071367   1.089164   2.168574
    23  H    3.408651   3.810273   3.357269   2.149170   1.087975
    24  H    2.157081   3.374332   3.850559   3.386290   2.157799
    25  C    3.054496   3.676179   4.715697   5.210381   4.851199
    26  H    3.615725   2.288574   1.409813   2.466539   3.720211
    27  H    3.202714   2.915520   4.026697   5.094774   5.330897
    28  H    4.733396   4.230311   5.134281   6.299672   6.715755
    29  H    4.602593   3.233972   3.020209   4.260991   5.394860
    30  H    5.197957   3.856436   3.043503   3.896840   5.218336
    31  O    4.930770   3.692332   3.884997   5.202640   6.183011
    32  H    5.402696   4.213860   4.470719   5.788723   6.746218
    33  H    4.426618   3.347328   3.839039   5.161903   5.968404
    34  H    4.034286   4.437314   5.441595   6.049523   5.823461
    35  H    2.752998   3.216874   4.026022   4.414881   4.134159
    36  H    3.462979   4.383793   5.401697   5.688974   5.069153
    37  O    6.430086   5.362327   5.687013   6.958761   7.857022
    38  H    6.717638   5.641385   5.841181   7.035925   7.963392
    39  H    7.289796   6.239800   6.588865   7.878131   8.782996
    40  O    8.890409   7.873427   8.255779   9.563683  10.472056
    41  H    9.571427   8.486494   8.767075  10.065326  11.047388
    42  H    9.407218   8.478119   8.955080  10.263703  11.103367
                   11         12         13         14         15
    11  C    0.000000
    12  O    5.230778   0.000000
    13  O    5.239688   4.247403   0.000000
    14  H    5.688520   7.112938   3.192871   0.000000
    15  H    5.624741   7.743723   4.775020   2.784106   0.000000
    16  H    5.570329   6.430987   3.309837   2.407801   1.768422
    17  H    3.814910   6.637187   5.009116   4.201107   2.394563
    18  H    3.814983   5.100388   3.643432   3.934179   2.942958
    19  H    4.985548   7.747014   4.432748   1.779591   2.384866
    20  H    2.600166   6.564775   4.692347   3.686968   3.404823
    21  H    3.379130   2.947485   2.412231   4.426041   4.899177
    22  H    3.397274   3.616785   6.233162   8.072568   8.314305
    23  H    2.167976   5.691342   6.948826   7.796628   7.751056
    24  H    1.090498   6.316926   5.953663   5.851486   5.617290
    25  C    3.801126   6.213722   3.477412   2.796945   4.483993
    26  H    4.160720   1.102218   4.160117   6.709172   7.230513
    27  H    4.516848   4.613138   0.994845   2.539692   4.096482
    28  H    6.021889   5.024468   0.959043   3.050927   5.045395
    29  H    5.527833   1.153003   3.373314   6.387692   7.145318
    30  H    5.755860   0.962067   4.736955   7.689621   8.542836
    31  O    6.062305   2.400328   2.661847   5.742479   6.637137
    32  H    6.576464   2.971793   3.152175   5.998781   6.590252
    33  H    5.654263   2.967006   1.676049   4.782266   5.875978
    34  H    4.852316   6.601077   3.386942   2.601300   4.876682
    35  H    3.314928   5.595069   3.592516   3.764521   5.322980
    36  H    3.915004   7.143296   4.532448   3.229914   4.576341
    37  O    7.621668   4.277693   4.333636   6.698273   6.802708
    38  H    7.819868   4.419683   5.106127   7.403499   7.229034
    39  H    8.517985   5.054403   4.811410   7.100395   7.318562
    40  O   10.163296   6.594352   5.963839   8.047223   8.434849
    41  H   10.818534   6.907449   6.566587   8.805506   9.335558
    42  H   10.708905   7.432413   6.471413   8.235508   8.483708
                   16         17         18         19         20
    16  H    0.000000
    17  H    2.950391   0.000000
    18  H    2.323193   1.764346   0.000000
    19  H    3.047170   3.433964   3.908800   0.000000
    20  H    3.876036   2.358239   3.040098   2.534219   0.000000
    21  H    3.790767   3.934692   2.484625   4.850938   3.799063
    22  H    7.678176   6.479051   5.722215   7.920575   5.830433
    23  H    7.652740   5.759374   5.708693   7.106235   4.694871
    24  H    5.891557   3.838793   4.300616   4.834662   2.360976
    25  C    4.267172   4.480559   4.282058   2.625976   2.629374
    26  H    6.105067   5.920248   4.544633   7.117181   5.688253
    27  H    2.882710   4.261420   3.121652   3.536010   3.730664
    28  H    3.604786   5.653485   4.406743   4.544082   5.243641
    29  H    5.682451   6.362946   4.703204   7.231564   6.404421
    30  H    7.217300   7.482266   5.977448   8.366349   7.208690
    31  O    5.021288   6.265645   4.542350   6.828099   6.437322
    32  H    4.922327   6.290374   4.528961   7.113819   6.808575
    33  H    4.270654   5.699589   4.041925   5.920246   5.726894
    34  H    4.508873   5.300535   4.969259   2.929584   3.635826
    35  H    4.955138   4.913888   4.546468   3.655278   3.000282
    36  H    4.774423   4.557950   4.774221   2.448129   2.425466
    37  O    5.155341   6.636824   4.937352   7.812571   7.644024
    38  H    5.683354   6.835868   5.183693   8.384950   8.010904
    39  H    5.635071   7.397355   5.730162   8.350680   8.408307
    40  O    6.752884   8.864004   7.262783   9.473209   9.864598
    41  H    7.630781   9.728587   8.090400  10.273241  10.638859
    42  H    6.872420   9.093304   7.585547   9.666115  10.220173
                   21         22         23         24         25
    21  H    0.000000
    22  H    4.126623   0.000000
    23  H    4.897223   2.505501   0.000000
    24  H    4.299585   4.309778   2.504192   0.000000
    25  C    3.746052   6.190959   5.647340   3.945862   0.000000
    26  H    2.380420   2.692007   4.610071   5.250364   5.534772
    27  H    2.206774   6.004614   6.373167   5.127226   2.596550
    28  H    3.363651   7.089271   7.757809   6.663956   3.693075
    29  H    2.618036   4.549272   6.365058   6.576141   5.874824
    30  H    3.693077   3.781247   6.003803   6.837043   6.612476
    31  O    2.779978   5.640514   7.215222   7.038808   5.734101
    32  H    3.252554   6.230713   7.784514   7.529883   6.351236
    33  H    2.342989   5.756498   7.031990   6.558574   4.866294
    34  H    4.307274   6.978075   6.630242   5.034235   1.096491
    35  H    3.473859   5.324597   4.906798   3.620302   1.096653
    36  H    4.611036   6.682818   5.718933   3.748478   1.104957
    37  O    4.413289   7.398594   8.882680   8.518086   7.526034
    38  H    4.799787   7.399873   8.944027   8.725475   8.138302
    39  H    5.249102   8.307137   9.817704   9.400790   8.140288
    40  O    6.841194   9.980504  11.518435  11.022495   9.380451
    41  H    7.469744  10.406633  12.080415  11.714542  10.028687
    42  H    7.433698  10.733074  12.158261  11.517287   9.811855
                   26         27         28         29         30
    26  H    0.000000
    27  H    4.285696   0.000000
    28  H    5.018406   1.576128   0.000000
    29  H    1.861201   3.908578   4.096459   0.000000
    30  H    1.706900   5.153990   5.417433   1.749392   0.000000
    31  O    2.973323   3.412442   3.249106   1.247496   2.900617
    32  H    3.581218   3.891134   3.696346   1.905777   3.570947
    33  H    3.243161   2.466774   2.300822   1.902260   3.481264
    34  H    6.064527   2.680253   3.312741   6.134077   6.924630
    35  H    4.862800   2.837715   3.937297   5.414727   5.897707
    36  H    6.377811   3.610095   4.726625   6.877934   7.554500
    37  O    4.873738   5.000250   4.785781   3.378901   4.935287
    38  H    5.013803   5.692166   5.641340   3.715689   5.109603
    39  H    5.728161   5.560298   5.097455   4.104243   5.615457
    40  O    7.347231   6.789007   6.000969   5.607590   7.024633
    41  H    7.753299   7.446008   6.565953   5.964061   7.226520
    42  H    8.128037   7.245376   6.450955   6.429242   7.908981
                   31         32         33         34         35
    31  O    0.000000
    32  H    0.992645   0.000000
    33  H    0.986666   1.614870   0.000000
    34  H    5.833362   6.468158   4.911914   0.000000
    35  H    5.477698   6.206230   4.713717   1.776228   0.000000
    36  H    6.784336   7.370070   5.926598   1.785794   1.790815
    37  O    2.631464   1.638962   3.090849   7.662104   7.524897
    38  H    3.248036   2.297593   3.814712   8.369228   8.094698
    39  H    3.226814   2.283705   3.647841   8.168708   8.190894
    40  O    4.631823   3.816623   4.974703   9.246785   9.507532
    41  H    5.052019   4.314228   5.485111   9.854279  10.096063
    42  H    5.413146   4.578468   5.654752   9.657001  10.031469
                   36         37         38         39         40
    36  H    0.000000
    37  O    8.481412   0.000000
    38  H    9.056678   0.959751   0.000000
    39  H    9.114091   0.976607   1.547793   0.000000
    40  O   10.366617   2.743255   3.159927   1.766839   0.000000
    41  H   11.046170   3.404062   3.752237   2.460522   0.960610
    42  H   10.757456   3.388852   3.751090   2.450470   0.960616
                   41         42
    41  H    0.000000
    42  H    1.535362   0.000000
 Stoichiometry    C10H25N2O5(1+)
 Framework group  C1[X(C10H25N2O5)]
 Deg. of freedom   120
 Full point group                 C1      NOp   1
 Largest Abelian subgroup         C1      NOp   1
 Largest concise Abelian subgroup C1      NOp   1
                         Standard orientation:                         
 ---------------------------------------------------------------------
 Center     Atomic      Atomic             Coordinates (Angstroms)
 Number     Number       Type             X           Y           Z
 ---------------------------------------------------------------------
      1          7           0        1.560997   -1.775802    0.669038
      2          6           0        2.110619   -1.133369   -0.537005
      3          6           0        1.237101   -1.698633   -1.674332
      4          6           0        0.730599   -3.058518   -1.136548
      5          6           0        1.357515   -3.172112    0.256801
      6          6           0        2.130337    0.372338   -0.438325
      7          6           0        0.963317    1.078254   -0.158448
      8          7           0        0.920080    2.408748   -0.052385
      9          6           0        2.039023    3.121699   -0.236843
     10          6           0        3.249431    2.509953   -0.528924
     11          6           0        3.292974    1.119437   -0.622685
     12          8           0       -1.414487    3.074533    0.551388
     13          8           0       -0.987231   -1.046990    1.484628
     14          1           0        0.724855   -3.695215    0.984534
     15          1           0        1.024657   -3.896760   -1.776036
     16          1           0       -0.362748   -3.059843   -1.067521
     17          1           0        1.818174   -1.792218   -2.597722
     18          1           0        0.399546   -1.023003   -1.884477
     19          1           0        2.327818   -3.700120    0.211598
     20          1           0        3.153798   -1.476369   -0.680005
     21          1           0        0.017742    0.559816   -0.007706
     22          1           0        1.950208    4.203386   -0.145498
     23          1           0        4.143343    3.113029   -0.673527
     24          1           0        4.235757    0.616042   -0.839340
     25          6           0        2.420493   -1.641793    1.839619
     26          1           0       -0.357581    2.890429    0.298524
     27          1           0       -0.068993   -1.291555    1.190106
     28          1           0       -1.259777   -1.688568    2.143308
     29          1           0       -1.981219    2.084986    0.721763
     30          1           0       -1.496624    3.659292    1.310916
     31          8           0       -2.577657    1.001548    0.885072
     32          1           0       -3.224196    0.747385    0.176035
     33          1           0       -2.014560    0.222734    1.108413
     34          1           0        1.971818   -2.174002    2.686813
     35          1           0        2.519443   -0.584521    2.113540
     36          1           0        3.427246   -2.059558    1.658371
     37          8           0       -4.274863    0.296960   -0.998449
     38          1           0       -4.436700    0.839537   -1.773395
     39          1           0       -5.138389   -0.085553   -0.749918
     40          8           0       -6.679888   -0.808058   -0.277174
     41          1           0       -7.390954   -0.370740    0.198126
     42          1           0       -7.065658   -1.596702   -0.667053
 ---------------------------------------------------------------------
 Rotational constants (GHZ):           0.4147019           0.2263855           0.1686489
 Standard basis: Aug-CC-pVDZ (5D, 7F)
 There are   650 symmetry adapted cartesian basis functions of A   symmetry.
 There are   616 symmetry adapted basis functions of A   symmetry.
   616 basis functions,  1006 primitive gaussians,   650 cartesian basis functions
    69 alpha electrons       69 beta electrons
       nuclear repulsion energy      1340.7800171832 Hartrees.
 NAtoms=   42 NActive=   42 NUniq=   42 SFac= 1.00D+00 NAtFMM=   60 NAOKFM=F Big=F
 Integral buffers will be    131072 words long.
 Raffenetti 2 integral format.
 Two-electron integral symmetry is turned on.
 Nuclear repulsion after empirical dispersion term =     1340.7493285829 Hartrees.
 One-electron integrals computed using PRISM.
 NBasis=   616 RedAO= T EigKep=  1.71D-06  NBF=   616
 NBsUse=   616 1.00D-06 EigRej= -1.00D+00 NBFU=   616
 ExpMin= 2.97D-02 ExpMax= 1.17D+04 ExpMxC= 4.01D+02 IAcc=3 IRadAn=         5 AccDes= 0.00D+00
 Harris functional with IExCor= 4639 and IRadAn=       5 diagonalized for initial guess.
 HarFok:  IExCor= 4639 AccDes= 0.00D+00 IRadAn=         5 IDoV= 1 UseB2=F ITyADJ=14
 ICtDFT=  3500011 ScaDFX=  1.000000  1.000000  1.000000  1.000000
 FoFCou: FMM=F IPFlag=           0 FMFlag=      100000 FMFlg1=           0
         NFxFlg=           0 DoJE=T BraDBF=F KetDBF=T FulRan=T
         wScrn=  0.000000 ICntrl=       500 IOpCl=  0 I1Cent=   200000004 NGrid=           0
         NMat0=    1 NMatS0=      1 NMatT0=    0 NMatD0=    1 NMtDS0=    0 NMtDT0=    0
 Petite list used in FoFCou.
 Requested convergence on RMS density matrix=1.00D-08 within 128 cycles.
 Requested convergence on MAX density matrix=1.00D-06.
 Requested convergence on             energy=1.00D-06.
 No special actions if energy rises.
 SCF Done:  E(RwB97XD) =  -881.456092716     A.U. after   15 cycles
            NFock= 15  Conv=0.33D-08     -V/T= 2.0062
 DoSCS=F DFT=T ScalE2(SS,OS)=  1.000000  1.000000
 Range of M.O.s used for correlation:     1   616
 NBasis=   616 NAE=    69 NBE=    69 NFC=     0 NFV=     0
 NROrb=    616 NOA=    69 NOB=    69 NVA=   547 NVB=   547

 **** Warning!!: The largest alpha MO coefficient is  0.10608835D+03

 Symmetrizing basis deriv contribution to polar:
 IMax=3 JMax=2 DiffMx= 0.00D+00
 G2DrvN: will do    43 centers at a time, making    1 passes.
 Calling FoFCou, ICntrl=  3107 FMM=F I1Cent=   0 AccDes= 0.00D+00.
 End of G2Drv F.D. properties file   721 does not exist.
 End of G2Drv F.D. properties file   722 does not exist.
 End of G2Drv F.D. properties file   788 does not exist.
          IDoAtm=111111111111111111111111111111111111111111
          Differentiating once with respect to electric field.
                with respect to dipole field.
          Differentiating once with respect to nuclear coordinates.
 CalDSu exits because no D1Ps are significant.
          There are   129 degrees of freedom in the 1st order CPHF.  IDoFFX=6 NUNeed=     3.
    126 vectors produced by pass  0 Test12= 3.77D-14 1.00D-09 XBig12= 8.06D+01 3.13D+00.
 AX will form   126 AO Fock derivatives at one time.
    126 vectors produced by pass  1 Test12= 3.77D-14 1.00D-09 XBig12= 1.21D+01 5.81D-01.
    126 vectors produced by pass  2 Test12= 3.77D-14 1.00D-09 XBig12= 2.75D-01 6.30D-02.
    126 vectors produced by pass  3 Test12= 3.77D-14 1.00D-09 XBig12= 2.41D-03 3.95D-03.
    126 vectors produced by pass  4 Test12= 3.77D-14 1.00D-09 XBig12= 1.99D-05 4.26D-04.
    126 vectors produced by pass  5 Test12= 3.77D-14 1.00D-09 XBig12= 1.24D-07 2.68D-05.
    123 vectors produced by pass  6 Test12= 3.77D-14 1.00D-09 XBig12= 6.30D-10 1.54D-06.
     43 vectors produced by pass  7 Test12= 3.77D-14 1.00D-09 XBig12= 3.05D-12 1.11D-07.
      3 vectors produced by pass  8 Test12= 3.77D-14 1.00D-09 XBig12= 1.93D-14 8.77D-09.
      3 vectors produced by pass  9 Test12= 3.77D-14 1.00D-09 XBig12= 2.82D-15 3.03D-09.
      2 vectors produced by pass 10 Test12= 3.77D-14 1.00D-09 XBig12= 2.31D-16 1.20D-09.
 InvSVY:  IOpt=1 It=  1 EMax= 5.33D-15
 Solved reduced A of dimension   930 with   129 vectors.
 Isotropic polarizability for W=    0.000000      173.82 Bohr**3.
 End of Minotr F.D. properties file   721 does not exist.
 End of Minotr F.D. properties file   722 does not exist.
 End of Minotr F.D. properties file   788 does not exist.

 **********************************************************************

            Population analysis using the SCF density.

 **********************************************************************

 Orbital symmetries:
       Occupied  (A) (A) (A) (A) (A) (A) (A) (A) (A) (A) (A) (A)
                 (A) (A) (A) (A) (A) (A) (A) (A) (A) (A) (A) (A)
                 (A) (A) (A) (A) (A) (A) (A) (A) (A) (A) (A) (A)
                 (A) (A) (A) (A) (A) (A) (A) (A) (A) (A) (A) (A)
                 (A) (A) (A) (A) (A) (A) (A) (A) (A) (A) (A) (A)
                 (A) (A) (A) (A) (A) (A) (A) (A) (A)
       Virtual   (A) (A) (A) (A) (A) (A) (A) (A) (A) (A) (A) (A)
                 (A) (A) (A) (A) (A) (A) (A) (A) (A) (A) (A) (A)
                 (A) (A) (A) (A) (A) (A) (A) (A) (A) (A) (A) (A)
                 (A) (A) (A) (A) (A) (A) (A) (A) (A) (A) (A) (A)
                 (A) (A) (A) (A) (A) (A) (A) (A) (A) (A) (A) (A)
                 (A) (A) (A) (A) (A) (A) (A) (A) (A) (A) (A) (A)
                 (A) (A) (A) (A) (A) (A) (A) (A) (A) (A) (A) (A)
                 (A) (A) (A) (A) (A) (A) (A) (A) (A) (A) (A) (A)
                 (A) (A) (A) (A) (A) (A) (A) (A) (A) (A) (A) (A)
                 (A) (A) (A) (A) (A) (A) (A) (A) (A) (A) (A) (A)
                 (A) (A) (A) (A) (A) (A) (A) (A) (A) (A) (A) (A)
                 (A) (A) (A) (A) (A) (A) (A) (A) (A) (A) (A) (A)
                 (A) (A) (A) (A) (A) (A) (A) (A) (A) (A) (A) (A)
                 (A) (A) (A) (A) (A) (A) (A) (A) (A) (A) (A) (A)
                 (A) (A) (A) (A) (A) (A) (A) (A) (A) (A) (A) (A)
                 (A) (A) (A) (A) (A) (A) (A) (A) (A) (A) (A) (A)
                 (A) (A) (A) (A) (A) (A) (A) (A) (A) (A) (A) (A)
                 (A) (A) (A) (A) (A) (A) (A) (A) (A) (A) (A) (A)
                 (A) (A) (A) (A) (A) (A) (A) (A) (A) (A) (A) (A)
                 (A) (A) (A) (A) (A) (A) (A) (A) (A) (A) (A) (A)
                 (A) (A) (A) (A) (A) (A) (A) (A) (A) (A) (A) (A)
                 (A) (A) (A) (A) (A) (A) (A) (A) (A) (A) (A) (A)
                 (A) (A) (A) (A) (A) (A) (A) (A) (A) (A) (A) (A)
                 (A) (A) (A) (A) (A) (A) (A) (A) (A) (A) (A) (A)
                 (A) (A) (A) (A) (A) (A) (A) (A) (A) (A) (A) (A)
                 (A) (A) (A) (A) (A) (A) (A) (A) (A) (A) (A) (A)
                 (A) (A) (A) (A) (A) (A) (A) (A) (A) (A) (A) (A)
                 (A) (A) (A) (A) (A) (A) (A) (A) (A) (A) (A) (A)
                 (A) (A) (A) (A) (A) (A) (A) (A) (A) (A) (A) (A)
                 (A) (A) (A) (A) (A) (A) (A) (A) (A) (A) (A) (A)
                 (A) (A) (A) (A) (A) (A) (A) (A) (A) (A) (A) (A)
                 (A) (A) (A) (A) (A) (A) (A) (A) (A) (A) (A) (A)
                 (A) (A) (A) (A) (A) (A) (A) (A) (A) (A) (A) (A)
                 (A) (A) (A) (A) (A) (A) (A) (A) (A) (A) (A) (A)
                 (A) (A) (A) (A) (A) (A) (A) (A) (A) (A) (A) (A)
                 (A) (A) (A) (A) (A) (A) (A) (A) (A) (A) (A) (A)
                 (A) (A) (A) (A) (A) (A) (A) (A) (A) (A) (A) (A)
                 (A) (A) (A) (A) (A) (A) (A) (A) (A) (A) (A) (A)
                 (A) (A) (A) (A) (A) (A) (A) (A) (A) (A) (A) (A)
                 (A) (A) (A) (A) (A) (A) (A) (A) (A) (A) (A) (A)
                 (A) (A) (A) (A) (A) (A) (A) (A) (A) (A) (A) (A)
                 (A) (A) (A) (A) (A) (A) (A) (A) (A) (A) (A) (A)
                 (A) (A) (A) (A) (A) (A) (A) (A) (A) (A) (A) (A)
                 (A) (A) (A) (A) (A) (A) (A) (A) (A) (A) (A) (A)
                 (A) (A) (A) (A) (A) (A) (A) (A) (A) (A) (A) (A)
                 (A) (A) (A) (A) (A) (A) (A)
 The electronic state is 1-A.
 Alpha  occ. eigenvalues --  -19.41438 -19.39645 -19.39362 -19.37976 -19.37958
 Alpha  occ. eigenvalues --  -14.60484 -14.57136 -10.46864 -10.46784 -10.44822
 Alpha  occ. eigenvalues --  -10.44539 -10.44173 -10.43564 -10.42542 -10.42279
 Alpha  occ. eigenvalues --  -10.40287 -10.39581  -1.27202  -1.24217  -1.23805
 Alpha  occ. eigenvalues --   -1.22181  -1.21598  -1.19548  -1.16309  -1.04668
 Alpha  occ. eigenvalues --   -1.00988  -0.99286  -0.93728  -0.88412  -0.86409
 Alpha  occ. eigenvalues --   -0.85473  -0.79498  -0.78694  -0.77736  -0.77264
 Alpha  occ. eigenvalues --   -0.75777  -0.74441  -0.74189  -0.73502  -0.72370
 Alpha  occ. eigenvalues --   -0.71413  -0.69723  -0.68346  -0.65880  -0.64924
 Alpha  occ. eigenvalues --   -0.64539  -0.63275  -0.62951  -0.62207  -0.61507
 Alpha  occ. eigenvalues --   -0.60934  -0.59683  -0.58443  -0.58015  -0.57649
 Alpha  occ. eigenvalues --   -0.55982  -0.55646  -0.54884  -0.54323  -0.53708
 Alpha  occ. eigenvalues --   -0.52925  -0.52563  -0.51721  -0.51463  -0.51308
 Alpha  occ. eigenvalues --   -0.50087  -0.49664  -0.46268  -0.43630
 Alpha virt. eigenvalues --   -0.09867  -0.08086  -0.05929  -0.04969  -0.04441
 Alpha virt. eigenvalues --   -0.04124  -0.03447  -0.02851  -0.02558  -0.02044
 Alpha virt. eigenvalues --   -0.01740  -0.01503  -0.01045  -0.00507  -0.00188
 Alpha virt. eigenvalues --    0.00115   0.00287   0.00988   0.01365   0.01676
 Alpha virt. eigenvalues --    0.01940   0.02529   0.02677   0.02924   0.03118
 Alpha virt. eigenvalues --    0.03207   0.03797   0.04311   0.04328   0.04727
 Alpha virt. eigenvalues --    0.05129   0.05627   0.06056   0.06200   0.06478
 Alpha virt. eigenvalues --    0.06669   0.07044   0.07096   0.07227   0.07712
 Alpha virt. eigenvalues --    0.07789   0.08122   0.08279   0.08392   0.08798
 Alpha virt. eigenvalues --    0.09108   0.09313   0.09436   0.10113   0.10382
 Alpha virt. eigenvalues --    0.10783   0.10925   0.11265   0.11585   0.11876
 Alpha virt. eigenvalues --    0.11897   0.12216   0.12645   0.12664   0.13041
 Alpha virt. eigenvalues --    0.13206   0.13414   0.13599   0.14309   0.14552
 Alpha virt. eigenvalues --    0.14880   0.15069   0.15642   0.15729   0.15896
 Alpha virt. eigenvalues --    0.16366   0.16609   0.16863   0.17193   0.17407
 Alpha virt. eigenvalues --    0.17597   0.17881   0.17984   0.18488   0.18649
 Alpha virt. eigenvalues --    0.18798   0.19070   0.19329   0.19430   0.19965
 Alpha virt. eigenvalues --    0.20141   0.20299   0.20634   0.20687   0.20978
 Alpha virt. eigenvalues --    0.21421   0.21663   0.21913   0.22062   0.22658
 Alpha virt. eigenvalues --    0.23310   0.23637   0.23871   0.24132   0.24365
 Alpha virt. eigenvalues --    0.25059   0.25156   0.25517   0.25675   0.26373
 Alpha virt. eigenvalues --    0.26617   0.26669   0.27117   0.27460   0.27872
 Alpha virt. eigenvalues --    0.28109   0.28193   0.28426   0.28963   0.29044
 Alpha virt. eigenvalues --    0.29819   0.29951   0.30253   0.30542   0.30824
 Alpha virt. eigenvalues --    0.31248   0.31439   0.31981   0.32116   0.32744
 Alpha virt. eigenvalues --    0.33148   0.33371   0.33438   0.34217   0.34277
 Alpha virt. eigenvalues --    0.34653   0.34954   0.35472   0.36095   0.36130
 Alpha virt. eigenvalues --    0.36505   0.36981   0.37519   0.37849   0.38451
 Alpha virt. eigenvalues --    0.38772   0.38972   0.39543   0.39896   0.40102
 Alpha virt. eigenvalues --    0.40695   0.40713   0.41188   0.41434   0.41706
 Alpha virt. eigenvalues --    0.42028   0.42587   0.42970   0.43299   0.43858
 Alpha virt. eigenvalues --    0.44093   0.44633   0.44974   0.45234   0.45573
 Alpha virt. eigenvalues --    0.45782   0.45818   0.46667   0.46861   0.47317
 Alpha virt. eigenvalues --    0.47621   0.47725   0.48358   0.48777   0.49107
 Alpha virt. eigenvalues --    0.49508   0.49868   0.50174   0.50675   0.50788
 Alpha virt. eigenvalues --    0.50927   0.51617   0.51937   0.52320   0.52350
 Alpha virt. eigenvalues --    0.52941   0.53017   0.53156   0.53784   0.53896
 Alpha virt. eigenvalues --    0.54160   0.54319   0.55243   0.55731   0.55761
 Alpha virt. eigenvalues --    0.56185   0.56559   0.56801   0.57277   0.57456
 Alpha virt. eigenvalues --    0.57790   0.58237   0.58778   0.59229   0.60070
 Alpha virt. eigenvalues --    0.60264   0.60688   0.60978   0.61529   0.62131
 Alpha virt. eigenvalues --    0.62748   0.63270   0.63499   0.64232   0.64356
 Alpha virt. eigenvalues --    0.65060   0.65255   0.65556   0.66141   0.66379
 Alpha virt. eigenvalues --    0.67014   0.67741   0.68446   0.68745   0.69171
 Alpha virt. eigenvalues --    0.69398   0.69617   0.69837   0.70233   0.70776
 Alpha virt. eigenvalues --    0.71521   0.71873   0.72432   0.72953   0.73274
 Alpha virt. eigenvalues --    0.73509   0.73859   0.74050   0.74604   0.75440
 Alpha virt. eigenvalues --    0.75859   0.76010   0.76164   0.76943   0.77338
 Alpha virt. eigenvalues --    0.77563   0.78170   0.78479   0.79155   0.79490
 Alpha virt. eigenvalues --    0.79973   0.80433   0.80709   0.81799   0.82162
 Alpha virt. eigenvalues --    0.82692   0.83727   0.83745   0.83977   0.84464
 Alpha virt. eigenvalues --    0.85119   0.85938   0.86267   0.87196   0.87513
 Alpha virt. eigenvalues --    0.88007   0.88754   0.89863   0.90656   0.91454
 Alpha virt. eigenvalues --    0.92106   0.92377   0.92615   0.93702   0.94010
 Alpha virt. eigenvalues --    0.94802   0.95583   0.96211   0.96451   0.97501
 Alpha virt. eigenvalues --    0.98100   0.98361   0.99737   1.00105   1.01038
 Alpha virt. eigenvalues --    1.01820   1.02618   1.03128   1.03951   1.04579
 Alpha virt. eigenvalues --    1.04830   1.05308   1.06056   1.06961   1.07592
 Alpha virt. eigenvalues --    1.08568   1.09351   1.09406   1.09755   1.10496
 Alpha virt. eigenvalues --    1.11601   1.12484   1.12711   1.13101   1.14306
 Alpha virt. eigenvalues --    1.14504   1.15034   1.15889   1.16728   1.17581
 Alpha virt. eigenvalues --    1.17924   1.18345   1.19437   1.21000   1.21275
 Alpha virt. eigenvalues --    1.22303   1.23543   1.24471   1.24948   1.26031
 Alpha virt. eigenvalues --    1.26209   1.27012   1.28249   1.28684   1.29697
 Alpha virt. eigenvalues --    1.31245   1.31768   1.33317   1.33739   1.34237
 Alpha virt. eigenvalues --    1.34631   1.35538   1.36097   1.36920   1.37777
 Alpha virt. eigenvalues --    1.38325   1.39477   1.41146   1.41160   1.41997
 Alpha virt. eigenvalues --    1.42520   1.43877   1.44304   1.45396   1.46266
 Alpha virt. eigenvalues --    1.47183   1.47774   1.48880   1.49422   1.50512
 Alpha virt. eigenvalues --    1.51081   1.52110   1.52328   1.53839   1.54944
 Alpha virt. eigenvalues --    1.56122   1.56617   1.57178   1.59574   1.60411
 Alpha virt. eigenvalues --    1.60880   1.61423   1.62024   1.62721   1.63845
 Alpha virt. eigenvalues --    1.64938   1.65303   1.66298   1.66848   1.67612
 Alpha virt. eigenvalues --    1.68668   1.68978   1.69735   1.69923   1.71028
 Alpha virt. eigenvalues --    1.71434   1.72553   1.73113   1.73879   1.74053
 Alpha virt. eigenvalues --    1.74813   1.75445   1.75899   1.76556   1.77562
 Alpha virt. eigenvalues --    1.78204   1.78844   1.79394   1.80027   1.81175
 Alpha virt. eigenvalues --    1.81613   1.82050   1.82975   1.83637   1.83875
 Alpha virt. eigenvalues --    1.84709   1.85302   1.86496   1.87080   1.88089
 Alpha virt. eigenvalues --    1.88780   1.89153   1.89463   1.89826   1.89967
 Alpha virt. eigenvalues --    1.92008   1.92734   1.94013   1.94899   1.95513
 Alpha virt. eigenvalues --    1.96014   1.96868   1.97791   1.98167   1.98998
 Alpha virt. eigenvalues --    1.99702   2.00778   2.01653   2.02056   2.03879
 Alpha virt. eigenvalues --    2.04154   2.04769   2.06279   2.06844   2.08129
 Alpha virt. eigenvalues --    2.08745   2.09841   2.11063   2.12133   2.12350
 Alpha virt. eigenvalues --    2.13249   2.14591   2.14945   2.15484   2.16436
 Alpha virt. eigenvalues --    2.17043   2.17431   2.18746   2.19216   2.20341
 Alpha virt. eigenvalues --    2.21215   2.22186   2.22704   2.23536   2.24409
 Alpha virt. eigenvalues --    2.26160   2.27156   2.27606   2.28582   2.29456
 Alpha virt. eigenvalues --    2.30228   2.30471   2.32142   2.32590   2.33255
 Alpha virt. eigenvalues --    2.34167   2.35629   2.35923   2.39109   2.39508
 Alpha virt. eigenvalues --    2.40763   2.41508   2.41858   2.43081   2.44082
 Alpha virt. eigenvalues --    2.45893   2.46541   2.47567   2.50184   2.52459
 Alpha virt. eigenvalues --    2.52864   2.53223   2.53993   2.54327   2.56440
 Alpha virt. eigenvalues --    2.57295   2.57758   2.58549   2.59138   2.60083
 Alpha virt. eigenvalues --    2.61131   2.62569   2.63267   2.65177   2.65345
 Alpha virt. eigenvalues --    2.65495   2.66896   2.67644   2.68388   2.69707
 Alpha virt. eigenvalues --    2.71326   2.73269   2.73945   2.74521   2.74888
 Alpha virt. eigenvalues --    2.76851   2.78204   2.79007   2.81029   2.81789
 Alpha virt. eigenvalues --    2.82968   2.84449   2.85547   2.86902   2.87084
 Alpha virt. eigenvalues --    2.89231   2.90757   2.92964   2.93824   2.94851
 Alpha virt. eigenvalues --    2.97585   2.99597   3.00237   3.03206   3.04934
 Alpha virt. eigenvalues --    3.06838   3.12542   3.15568   3.17877   3.25722
 Alpha virt. eigenvalues --    3.28777   3.31986   3.34303   3.34943   3.36124
 Alpha virt. eigenvalues --    3.36800   3.39023   3.40112   3.41792   3.42191
 Alpha virt. eigenvalues --    3.44160   3.44506   3.46804   3.47788   3.50856
 Alpha virt. eigenvalues --    3.55048   3.65853   3.66870   3.67844   3.69020
 Alpha virt. eigenvalues --    3.80008   3.82004   3.90639   3.91408   3.95844
 Alpha virt. eigenvalues --    4.01679   4.04736   4.10507   4.17913   4.25240
 Alpha virt. eigenvalues --    4.39144   5.06065
          Condensed to atoms (all electrons):
               1          2          3          4          5          6
     1  N   14.658633  -6.179968  -1.197743  -0.370937  -0.231172   2.060570
     2  C   -6.179968  29.119339  -0.709781   0.107780  -0.153403 -10.142513
     3  C   -1.197743  -0.709781   8.994208  -1.130250   0.831746  -0.248361
     4  C   -0.370937   0.107780  -1.130250   6.436663  -0.154903   0.439109
     5  C   -0.231172  -0.153403   0.831746  -0.154903   5.906750  -0.516835
     6  C    2.060570 -10.142513  -0.248361   0.439109  -0.516835  25.298304
     7  C    0.853348  -3.436288  -1.007950  -0.037564  -0.287831  -3.378511
     8  N   -0.104757   0.841866   0.033485   0.010718   0.051803  -0.233401
     9  C    0.138639  -0.845845  -0.076541   0.009550  -0.024672  -0.986863
    10  C   -0.207456   0.269392  -0.054510  -0.022537  -0.012803   0.129690
    11  C   -0.340215  -0.870351  -0.098872  -0.068674   0.074380  -9.478262
    12  O   -0.002553   0.023359  -0.007114  -0.000323   0.000540  -0.073592
    13  O   -0.078025   0.098185   0.037136   0.029464  -0.017586   0.004948
    14  H   -1.056900   0.666643   0.206533   0.034875  -0.160610  -0.309966
    15  H   -0.151130  -0.027013   0.312329  -0.315997   0.220498  -0.042082
    16  H    0.170600   0.092477   0.179979  -0.368776  -0.097066  -0.012339
    17  H    0.480222  -0.091202  -1.301543   0.185387  -0.274735   0.511999
    18  H   -0.173057   0.077587  -0.043857   0.321168   0.079592  -0.109284
    19  H   -0.214030   0.094605  -0.122674   0.082548  -0.348210   0.223297
    20  H   -0.186891  -2.880371   0.748598  -0.065720   0.035745   1.228637
    21  H    0.118390  -0.665299  -0.343904   0.045684  -0.048783  -0.340281
    22  H    0.006574  -0.045607   0.004176   0.000737  -0.001192  -0.126976
    23  H   -0.001685   0.094385   0.000416   0.000344   0.000418   0.098762
    24  H    0.030713  -0.238853  -0.072426  -0.007967  -0.009966   1.209428
    25  C    1.061677  -1.167416  -0.344048   0.089451  -0.265843   0.695989
    26  H   -0.006750   0.076940  -0.014945  -0.004797  -0.000165  -0.050627
    27  H   -0.337236   0.839677   0.234289  -0.103317  -0.003680  -0.378763
    28  H   -0.021560  -0.039974  -0.008318   0.003819   0.010273   0.018337
    29  H   -0.009581   0.008696   0.005138   0.003135   0.002369   0.003185
    30  H    0.000767  -0.003866   0.000094   0.000202  -0.000374   0.009334
    31  O    0.004350  -0.055941   0.004706  -0.013204   0.008427  -0.039980
    32  H    0.009390   0.001767  -0.003693  -0.003438  -0.002907  -0.008349
    33  H   -0.007387  -0.003405   0.016174  -0.005223   0.009624   0.021558
    34  H   -0.298640   0.132159  -0.074977   0.076950   0.055078  -0.028355
    35  H    0.181924   0.061832   0.122990  -0.050071  -0.050630  -0.015158
    36  H   -0.540690  -0.244054  -0.020173   0.031151   0.014057   0.269615
    37  O   -0.001118   0.004023   0.001370   0.000473   0.001199   0.003619
    38  H    0.000354   0.000046  -0.000519   0.000606  -0.000223  -0.000849
    39  H   -0.000520  -0.000147   0.000764  -0.000797   0.000658   0.000268
    40  O   -0.000073   0.000091  -0.000064   0.000114  -0.000074   0.000020
    41  H   -0.000025   0.000025  -0.000022   0.000041  -0.000024  -0.000002
    42  H    0.000000  -0.000009   0.000019  -0.000026   0.000005  -0.000001
               7          8          9         10         11         12
     1  N    0.853348  -0.104757   0.138639  -0.207456  -0.340215  -0.002553
     2  C   -3.436288   0.841866  -0.845845   0.269392  -0.870351   0.023359
     3  C   -1.007950   0.033485  -0.076541  -0.054510  -0.098872  -0.007114
     4  C   -0.037564   0.010718   0.009550  -0.022537  -0.068674  -0.000323
     5  C   -0.287831   0.051803  -0.024672  -0.012803   0.074380   0.000540
     6  C   -3.378511  -0.233401  -0.986863   0.129690  -9.478262  -0.073592
     7  C   17.630476  -1.295952  -1.325415   0.549625  -2.326881  -0.215320
     8  N   -1.295952   8.562651   0.015538   0.135961  -0.345995  -0.052119
     9  C   -1.325415   0.015538  10.183521  -2.540578   1.566528   0.025001
    10  C    0.549625   0.135961  -2.540578  11.695939  -4.266705  -0.015924
    11  C   -2.326881  -0.345995   1.566528  -4.266705  23.151415   0.025820
    12  O   -0.215320  -0.052119   0.025001  -0.015924   0.025820   8.119383
    13  O   -0.049037  -0.000000  -0.012618   0.006670  -0.021148  -0.000134
    14  H   -0.054508   0.002405  -0.001092  -0.000332   0.023028   0.000134
    15  H   -0.002667  -0.000699   0.002045  -0.002017   0.010506  -0.000000
    16  H    0.017368   0.000767  -0.002110   0.000768  -0.003258  -0.000186
    17  H    0.378943  -0.019768  -0.003903   0.006102  -0.064614   0.000095
    18  H   -0.290696   0.022783   0.019791  -0.044291   0.072657  -0.003665
    19  H    0.053419  -0.000618  -0.000365   0.000400   0.009775  -0.000029
    20  H   -0.271749   0.008845   0.043659  -0.028796  -0.043176   0.000387
    21  H   -0.855247   0.075280  -0.252557   0.325923  -0.384681   0.115841
    22  H    0.211498  -0.126938  -0.599239   0.117897   0.224585   0.004923
    23  H   -0.232017  -0.025384   0.403469  -1.132405   0.538664   0.000506
    24  H    0.318874  -0.060353  -0.199689   0.656104  -2.508079  -0.000065
    25  C    0.209200  -0.041875  -0.024987   0.079185  -0.279216  -0.000860
    26  H   -0.137749   0.227939   0.027880  -0.088573   0.008658   0.126405
    27  H   -0.104848  -0.027282  -0.015586  -0.028825   0.043979  -0.002407
    28  H    0.011552   0.003710   0.001440   0.001972  -0.003054   0.000376
    29  H    0.012387   0.007922   0.003842   0.001536   0.002599   0.154728
    30  H   -0.001692   0.005432  -0.016071   0.010858  -0.007774   0.368477
    31  O   -0.106699   0.012920  -0.009059   0.001959   0.018628  -0.088940
    32  H   -0.007380  -0.005291  -0.004312  -0.000143   0.002313   0.011265
    33  H    0.035925  -0.012440   0.000008  -0.003311   0.004437  -0.022629
    34  H   -0.017973  -0.002473  -0.004191   0.012959  -0.005726  -0.000239
    35  H    0.003749   0.004461  -0.026321   0.033964  -0.007604   0.000826
    36  H    0.023039  -0.000540   0.010247  -0.011222  -0.019698  -0.000014
    37  O    0.011742  -0.002892  -0.000741  -0.000098   0.000481  -0.001567
    38  H   -0.001520   0.000027   0.000098  -0.000060   0.000127  -0.000161
    39  H    0.000889   0.000084   0.000118  -0.000032  -0.000101  -0.000624
    40  O    0.000039   0.000014   0.000016   0.000001   0.000001  -0.000015
    41  H    0.000054  -0.000005   0.000001   0.000001  -0.000004   0.000014
    42  H   -0.000072   0.000008   0.000003   0.000001   0.000003   0.000006
              13         14         15         16         17         18
     1  N   -0.078025  -1.056900  -0.151130   0.170600   0.480222  -0.173057
     2  C    0.098185   0.666643  -0.027013   0.092477  -0.091202   0.077587
     3  C    0.037136   0.206533   0.312329   0.179979  -1.301543  -0.043857
     4  C    0.029464   0.034875  -0.315997  -0.368776   0.185387   0.321168
     5  C   -0.017586  -0.160610   0.220498  -0.097066  -0.274735   0.079592
     6  C    0.004948  -0.309966  -0.042082  -0.012339   0.511999  -0.109284
     7  C   -0.049037  -0.054508  -0.002667   0.017368   0.378943  -0.290696
     8  N   -0.000000   0.002405  -0.000699   0.000767  -0.019768   0.022783
     9  C   -0.012618  -0.001092   0.002045  -0.002110  -0.003903   0.019791
    10  C    0.006670  -0.000332  -0.002017   0.000768   0.006102  -0.044291
    11  C   -0.021148   0.023028   0.010506  -0.003258  -0.064614   0.072657
    12  O   -0.000134   0.000134  -0.000000  -0.000186   0.000095  -0.003665
    13  O    8.078632   0.033681  -0.003651  -0.003429   0.000038   0.003602
    14  H    0.033681   2.945922   0.123731  -0.318069  -0.044685   0.081414
    15  H   -0.003651   0.123731   2.127964  -0.643545  -0.349044   0.229124
    16  H   -0.003429  -0.318069  -0.643545   2.331142   0.229969  -0.490948
    17  H    0.000038  -0.044685  -0.349044   0.229969   2.729060  -0.759297
    18  H    0.003602   0.081414   0.229124  -0.490948  -0.759297   2.473778
    19  H   -0.005571  -0.597296  -0.240520   0.206380   0.068926  -0.080337
    20  H    0.002669   0.094504   0.065819  -0.072709  -0.368499   0.241011
    21  H   -0.051427  -0.121727  -0.026365   0.095612   0.161329  -0.315387
    22  H   -0.000267  -0.000147   0.000047   0.000171   0.000775  -0.002231
    23  H    0.000072   0.000103  -0.000029  -0.000026  -0.001629   0.001575
    24  H   -0.001314  -0.004541   0.000973   0.000947   0.014744  -0.013213
    25  C   -0.001883  -0.166020  -0.015520   0.016600   0.078364  -0.060767
    26  H    0.001472   0.001543   0.000155  -0.001088  -0.000170  -0.001708
    27  H    0.059310   0.193562   0.011328  -0.010099  -0.042936   0.057768
    28  H    0.412287  -0.020010  -0.001890   0.006166   0.002752  -0.005413
    29  H    0.002513   0.001447   0.000347  -0.001460  -0.000583   0.004512
    30  H   -0.000648  -0.000170  -0.000016   0.000219   0.000047  -0.001203
    31  O   -0.058808   0.000507  -0.000507  -0.000383   0.000283   0.001849
    32  H   -0.020290  -0.001576  -0.000655   0.002862   0.000073  -0.001201
    33  H    0.057957   0.003917   0.000590  -0.004705  -0.001460   0.007365
    34  H    0.021088   0.007161  -0.002815   0.009660   0.001227  -0.004565
    35  H    0.004114   0.014070   0.002858  -0.013399  -0.006098   0.020232
    36  H   -0.008124   0.001793  -0.000206   0.003946   0.012559  -0.011962
    37  O    0.003020   0.000156   0.000056  -0.000971   0.000016   0.002532
    38  H    0.000215  -0.000012  -0.000052   0.000149   0.000020  -0.000312
    39  H    0.000126   0.000040   0.000146  -0.000523  -0.000006   0.000065
    40  O    0.000318  -0.000000   0.000022   0.000189  -0.000004   0.000201
    41  H    0.000016   0.000002   0.000004   0.000024  -0.000002  -0.000008
    42  H   -0.000037   0.000007  -0.000005  -0.000045  -0.000002   0.000047
              19         20         21         22         23         24
     1  N   -0.214030  -0.186891   0.118390   0.006574  -0.001685   0.030713
     2  C    0.094605  -2.880371  -0.665299  -0.045607   0.094385  -0.238853
     3  C   -0.122674   0.748598  -0.343904   0.004176   0.000416  -0.072426
     4  C    0.082548  -0.065720   0.045684   0.000737   0.000344  -0.007967
     5  C   -0.348210   0.035745  -0.048783  -0.001192   0.000418  -0.009966
     6  C    0.223297   1.228637  -0.340281  -0.126976   0.098762   1.209428
     7  C    0.053419  -0.271749  -0.855247   0.211498  -0.232017   0.318874
     8  N   -0.000618   0.008845   0.075280  -0.126938  -0.025384  -0.060353
     9  C   -0.000365   0.043659  -0.252557  -0.599239   0.403469  -0.199689
    10  C    0.000400  -0.028796   0.325923   0.117897  -1.132405   0.656104
    11  C    0.009775  -0.043176  -0.384681   0.224585   0.538664  -2.508079
    12  O   -0.000029   0.000387   0.115841   0.004923   0.000506  -0.000065
    13  O   -0.005571   0.002669  -0.051427  -0.000267   0.000072  -0.001314
    14  H   -0.597296   0.094504  -0.121727  -0.000147   0.000103  -0.004541
    15  H   -0.240520   0.065819  -0.026365   0.000047  -0.000029   0.000973
    16  H    0.206380  -0.072709   0.095612   0.000171  -0.000026   0.000947
    17  H    0.068926  -0.368499   0.161329   0.000775  -0.001629   0.014744
    18  H   -0.080337   0.241011  -0.315387  -0.002231   0.001575  -0.013213
    19  H    2.439445  -0.105160   0.057215   0.000103  -0.000313   0.003423
    20  H   -0.105160   3.590989  -0.042268   0.000805   0.000879  -0.167200
    21  H    0.057215  -0.042268   5.050830   0.034024  -0.016762   0.029307
    22  H    0.000103   0.000805   0.034024   2.221858  -0.129158  -0.006080
    23  H   -0.000313   0.000879  -0.016762  -0.129158   2.122169  -0.135306
    24  H    0.003423  -0.167200   0.029307  -0.006080  -0.135306   3.022919
    25  C   -0.034720  -0.078829   0.194899   0.002922  -0.006147   0.044517
    26  H   -0.000493  -0.001420  -0.117116  -0.132391   0.013170  -0.000457
    27  H   -0.025681   0.009393  -0.391195  -0.002171   0.001822  -0.008664
    28  H    0.006836  -0.001244   0.060382   0.000219  -0.000057   0.000531
    29  H   -0.000212   0.000609  -0.057805   0.008528  -0.000537  -0.000238
    30  H    0.000023  -0.000073   0.016165   0.004613  -0.000490   0.000065
    31  O    0.000358  -0.001311   0.107151   0.000336   0.000104   0.000473
    32  H    0.000315  -0.000095   0.012017  -0.000750   0.000025  -0.000005
    33  H   -0.001754   0.000971  -0.071900  -0.000736   0.000137  -0.000541
    34  H    0.002486   0.012415   0.021221   0.000318  -0.000620   0.002695
    35  H   -0.004986   0.011383  -0.083873  -0.003064  -0.000501  -0.003781
    36  H    0.066615   0.070353   0.052642   0.000609  -0.000310   0.006221
    37  O    0.000051   0.000117  -0.026466  -0.000036  -0.000003   0.000004
    38  H   -0.000015  -0.000026  -0.001839   0.000014  -0.000003   0.000012
    39  H    0.000020  -0.000017   0.005015   0.000007  -0.000001  -0.000001
    40  O   -0.000005   0.000008  -0.001544   0.000000   0.000000   0.000000
    41  H   -0.000002   0.000002   0.000064  -0.000000   0.000000  -0.000000
    42  H   -0.000000   0.000001  -0.000106  -0.000000   0.000000   0.000000
              25         26         27         28         29         30
     1  N    1.061677  -0.006750  -0.337236  -0.021560  -0.009581   0.000767
     2  C   -1.167416   0.076940   0.839677  -0.039974   0.008696  -0.003866
     3  C   -0.344048  -0.014945   0.234289  -0.008318   0.005138   0.000094
     4  C    0.089451  -0.004797  -0.103317   0.003819   0.003135   0.000202
     5  C   -0.265843  -0.000165  -0.003680   0.010273   0.002369  -0.000374
     6  C    0.695989  -0.050627  -0.378763   0.018337   0.003185   0.009334
     7  C    0.209200  -0.137749  -0.104848   0.011552   0.012387  -0.001692
     8  N   -0.041875   0.227939  -0.027282   0.003710   0.007922   0.005432
     9  C   -0.024987   0.027880  -0.015586   0.001440   0.003842  -0.016071
    10  C    0.079185  -0.088573  -0.028825   0.001972   0.001536   0.010858
    11  C   -0.279216   0.008658   0.043979  -0.003054   0.002599  -0.007774
    12  O   -0.000860   0.126405  -0.002407   0.000376   0.154728   0.368477
    13  O   -0.001883   0.001472   0.059310   0.412287   0.002513  -0.000648
    14  H   -0.166020   0.001543   0.193562  -0.020010   0.001447  -0.000170
    15  H   -0.015520   0.000155   0.011328  -0.001890   0.000347  -0.000016
    16  H    0.016600  -0.001088  -0.010099   0.006166  -0.001460   0.000219
    17  H    0.078364  -0.000170  -0.042936   0.002752  -0.000583   0.000047
    18  H   -0.060767  -0.001708   0.057768  -0.005413   0.004512  -0.001203
[...]
     42          1           0       -7.159486   -1.506146   -0.616599
 ---------------------------------------------------------------------
                    Distance matrix (angstroms):
                    1          2          3          4          5
     1  N    0.000000
     2  C    1.472744   0.000000
     3  C    2.366113   1.541332   0.000000
     4  C    2.365894   2.442988   1.547589   0.000000
     5  C    1.470110   2.313459   2.432274   1.532290   0.000000
     6  C    2.483690   1.509013   2.570993   3.771326   3.694130
     7  C    3.027223   2.520243   3.179967   4.262627   4.288143
     8  N    4.292654   3.768233   4.429790   5.581700   5.606836
     9  C    5.005584   4.266279   5.091733   6.382354   6.351428
    10  C    4.764751   3.817060   4.797876   6.139769   6.042447
    11  C    3.618258   2.545582   3.637140   4.925001   4.791441
    12  O    5.689468   5.599743   5.908010   6.727841   6.844140
    13  O    2.773430   3.699895   3.910146   3.717957   3.390399
    14  H    2.117356   3.285757   3.363573   2.214765   1.097048
    15  H    3.280270   3.214550   2.210608   1.094564   2.183617
    16  H    2.895120   3.181827   2.186527   1.095494   2.174278
    17  H    3.277806   2.183442   1.095019   2.218692   3.206672
    18  H    2.900221   2.179990   1.096454   2.193663   3.178837
    19  H    2.121337   2.682469   2.960623   2.186482   1.105565
    20  H    2.108803   1.107422   2.170658   2.926783   2.640244
    21  H    2.870758   2.743908   3.070557   3.866772   3.971593
    22  H    6.049155   5.353540   6.136434   7.431627   7.411996
    23  H    5.696390   4.709639   5.702043   7.063718   6.940498
    24  H    3.900508   2.768968   3.869857   5.080905   4.885109
    25  C    1.458384   2.450247   3.708118   3.704409   2.444777
    26  H    5.055798   4.795033   5.250384   6.225081   6.301744
    27  H    1.778865   2.785574   3.168914   3.025637   2.535483
    28  H    3.184189   4.340848   4.551042   4.062923   3.544021
    29  H    5.240682   5.362961   5.530302   6.123488   6.252251
    30  H    6.263347   6.276104   6.723529   7.500640   7.478331
    31  O    4.994668   5.356292   5.349347   5.639718   5.783668
    32  H    5.453293   5.730779   5.454262   5.689023   6.060520
    33  H    4.124119   4.651819   4.703181   4.848583   4.869151
    34  H    2.097256   3.390495   4.447476   4.116350   2.697891
    35  H    2.103407   2.737743   4.150694   4.459543   3.390166
    36  H    2.131232   2.722618   4.005263   4.010107   2.735891
    37  O    6.458154   6.616663   5.974503   6.107100   6.791917
    38  H    7.007471   6.982796   6.262920   6.554671   7.368527
    39  H    7.119229   7.402438   6.737668   6.701373   7.349882
    40  O    8.448450   8.901762   8.215917   7.946753   8.525826
    41  H    9.166963   9.654015   9.048501   8.809642   9.315621
    42  H    8.835165   9.301769   8.505505   8.112922   8.758533
                    6          7          8          9         10
     6  C    0.000000
     7  C    1.392390   0.000000
     8  N    2.400135   1.335482   0.000000
     9  C    2.758328   2.310750   1.339484   0.000000
    10  C    2.414584   2.722827   2.379621   1.387267   0.000000
    11  C    1.394283   2.375861   2.759939   2.393708   1.394262
    12  O    4.567993   3.187112   2.501623   3.540913   4.819567
    13  O    3.933837   3.322327   4.243523   5.444186   5.901219
    14  H    4.533477   4.912641   6.194595   7.051867   6.872480
    15  H    4.606332   5.236310   6.541189   7.254831   6.888875
    16  H    4.293244   4.450296   5.718660   6.690262   6.662815
    17  H    3.070158   3.865516   4.992945   5.449446   4.971869
    18  H    2.651633   2.783162   3.928601   4.750647   4.731830
    19  H    4.128548   4.981545   6.273538   6.843062   6.323214
    20  H    2.126915   3.405165   4.525026   4.752054   3.990623
    21  H    2.164250   1.088821   2.057929   3.271366   3.810362
    22  H    3.846524   3.277389   2.071327   1.089165   2.168569
    23  H    3.408673   3.810364   3.357172   2.149155   1.087980
    24  H    2.157118   3.374388   3.850408   3.386180   2.157689
    25  C    3.054924   3.666997   4.709609   5.212642   4.861074
    26  H    3.616266   2.289363   1.409526   2.465356   3.719323
    27  H    3.207263   2.915744   4.030832   5.103864   5.342358
    28  H    4.739487   4.232801   5.143107   6.315283   6.733433
    29  H    4.608018   3.238730   3.022208   4.262052   5.397246
    30  H    5.196548   3.855345   3.042174   3.894888   5.216134
    31  O    4.940225   3.699749   3.888548   5.205897   6.188623
    32  H    5.426226   4.233838   4.481585   5.797666   6.759906
    33  H    4.434095   3.352095   3.842894   5.167515   5.976027
    34  H    4.035009   4.427847   5.435429   6.052832   5.834849
    35  H    2.753594   3.204617   4.017502   4.417689   4.147399
    36  H    3.462642   4.375253   5.395158   5.689648   5.077287
    37  O    6.475171   5.399255   5.708327   6.977326   7.884676
    38  H    6.743514   5.663404   5.852409   7.043115   7.975496
    39  H    7.345310   6.282063   6.608702   7.894330   8.812788
    40  O    8.961629   7.924282   8.275761   9.578744  10.506843
    41  H    9.632498   8.527782   8.775286  10.065955  11.067653
    42  H    9.489312   8.537029   8.983667  10.289704  11.150956
                   11         12         13         14         15
    11  C    0.000000
    12  O    5.231324   0.000000
    13  O    5.251258   4.252735   0.000000
    14  H    5.692733   7.114861   3.187994   0.000000
    15  H    5.616776   7.760214   4.769516   2.785498   0.000000
    16  H    5.571211   6.453785   3.304987   2.407552   1.768324
    17  H    3.803148   6.647403   5.000795   4.202999   2.394786
    18  H    3.809098   5.114647   3.629101   3.929712   2.944988
    19  H    4.987331   7.748696   4.429665   1.779465   2.383803
    20  H    2.600658   6.567149   4.692707   3.685699   3.398122
    21  H    3.379183   2.951499   2.402974   4.420724   4.910200
    22  H    3.397188   3.613385   6.247176   8.075719   8.312877
    23  H    2.167864   5.689643   6.965286   7.802570   7.741332
    24  H    1.090516   6.317594   5.965866   5.857227   5.604607
    25  C    3.812349   6.201177   3.481768   2.797115   4.482829
    26  H    4.160458   1.102276   4.166080   6.709164   7.240366
    27  H    4.526919   4.614928   0.994823   2.536276   4.093385
    28  H    6.035873   5.029606   0.959064   3.042057   5.034751
    29  H    5.532017   1.153319   3.376900   6.392448   7.166923
    30  H    5.753813   0.962066   4.745778   7.688525   8.556109
    31  O    6.070522   2.400113   2.663411   5.752472   6.666381
    32  H    6.596325   2.971781   3.154698   6.024019   6.641197
    33  H    5.662727   2.968059   1.677702   4.789191   5.895205
    34  H    4.864222   6.586109   3.391226   2.601545   4.876423
    35  H    3.329750   5.576822   3.599881   3.764747   5.321719
    36  H    3.924889   7.131261   4.535872   3.229981   4.574174
    37  O    7.660869   4.277324   4.338860   6.748264   6.892741
    38  H    7.840212   4.423119   5.097504   7.430853   7.289779
    39  H    8.565176   5.043240   4.835999   7.181807   7.444227
    40  O   10.223493   6.572575   6.016426   8.177010   8.611337
    41  H   10.866270   6.876274   6.625420   8.937773   9.509227
    42  H   10.782114   7.415371   6.516015   8.370128   8.677401
                   16         17         18         19         20
    16  H    0.000000
    17  H    2.948711   0.000000
    18  H    2.323210   1.764600   0.000000
    19  H    3.046673   3.440224   3.908766   0.000000
    20  H    3.875152   2.360094   3.040614   2.532689   0.000000
    21  H    3.807245   3.944856   2.498677   4.847803   3.798797
    22  H    7.685359   6.471996   5.720905   7.921066   5.830497
    23  H    7.653243   5.744331   5.701314   7.108591   4.695218
    24  H    5.888774   3.822717   4.292073   4.837738   2.361791
    25  C    4.269607   4.482856   4.278091   2.625540   2.630984
    26  H    6.121673   5.925130   4.553738   7.116549   5.688611
    27  H    2.881583   4.256411   3.110608   3.533997   3.731280
    28  H    3.592915   5.642764   4.389759   4.538344   5.243286
    29  H    5.709535   6.377285   4.720217   7.237046   6.410429
    30  H    7.238792   7.489168   5.989378   8.363009   7.205916
    31  O    5.055141   6.285742   4.563211   6.839681   6.448491
    32  H    4.974661   6.330981   4.569121   7.144165   6.837928
    33  H    4.294410   5.710170   4.051079   5.928046   5.734442
    34  H    4.510995   5.302669   4.964062   2.929124   3.637029
    35  H    4.958441   4.914881   4.542082   3.654878   3.002655
    36  H    4.775883   4.562407   4.772309   2.447560   2.427263
    37  O    5.239119   6.714294   5.009693   7.874276   7.703312
    38  H    5.736518   6.885948   5.229314   8.422698   8.047492
    39  H    5.753634   7.498448   5.821866   8.441588   8.486822
    40  O    6.916952   8.997249   7.378336   9.609159   9.971929
    41  H    7.793797   9.853296   8.198724  10.406720  10.737454
    42  H    7.045340   9.244837   7.713131   9.813741  10.341535
                   21         22         23         24         25
    21  H    0.000000
    22  H    4.126669   0.000000
    23  H    4.897276   2.505545   0.000000
    24  H    4.299672   4.309675   2.503994   0.000000
    25  C    3.727903   6.193271   5.661413   3.963783   0.000000
    26  H    2.381947   2.690222   4.608947   5.250138   5.523682
    27  H    2.195899   6.014239   6.386483   5.138444   2.599548
    28  H    3.353758   7.106774   7.778640   6.679065   3.700065
    29  H    2.624043   4.548432   6.366895   6.580750   5.864763
    30  H    3.692621   3.779249   6.001448   6.834898   6.594542
    31  O    2.788410   5.641328   7.220366   7.047993   5.728562
    32  H    3.276852   6.234041   7.796648   7.551625   6.359782
    33  H    2.344414   5.761105   7.040075   6.567973   4.863399
    34  H    4.286978   6.981610   6.646571   5.052872   1.096487
    35  H    3.451103   5.327381   4.925393   3.642913   1.096653
    36  H    4.595760   6.683452   5.731438   3.766495   1.104951
    37  O    4.455590   7.407108   8.907737   8.561492   7.555703
    38  H    4.827605   7.399967   8.953413   8.748047   8.151007
    39  H    5.298273   8.308877   9.843858   9.455020   8.187706
    40  O    6.900139   9.975013  11.548188  11.094051   9.456751
    41  H    7.521682  10.384853  12.094114  11.773626  10.100488
    42  H    7.497665  10.738649  12.202027  11.603504   9.893923
                   26         27         28         29         30
    26  H    0.000000
    27  H    4.287662   0.000000
    28  H    5.024891   1.575863   0.000000
    29  H    1.862053   3.910587   4.098610   0.000000
    30  H    1.706658   5.156016   5.426891   1.749440   0.000000
    31  O    2.974303   3.416019   3.247271   1.246949   2.899727
    32  H    3.585893   3.903158   3.692400   1.905315   3.567745
    33  H    3.244854   2.469874   2.299859   1.902615   3.483902
    34  H    6.052111   2.682759   3.320768   6.120732   6.904492
    35  H    4.847234   2.842626   3.948788   5.398820   5.873809
    36  H    6.366861   3.612359   4.732016   6.869176   7.535829
    37  O    4.882906   5.024142   4.780957   3.377671   4.928276
    38  H    5.020003   5.698075   5.625552   3.717957   5.111275
    39  H    5.730543   5.604185   5.113673   4.096771   5.594113
    40  O    7.343389   6.861655   6.050826   5.595758   6.987738
    41  H    7.738763   7.519966   6.627252   5.948021   7.179078
    42  H    8.130547   7.316141   6.488214   6.418436   7.875518
                   31         32         33         34         35
    31  O    0.000000
    32  H    0.992720   0.000000
    33  H    0.986521   1.615468   0.000000
    34  H    5.823652   6.470840   4.906148   0.000000
    35  H    5.466115   6.207070   4.707147   1.776230   0.000000
    36  H    6.780803   7.382368   5.925070   1.785826   1.790772
    37  O    2.630276   1.637658   3.092070   7.683212   7.543701
    38  H    3.249212   2.298447   3.810048   8.375403   8.099366
    39  H    3.227363   2.284653   3.659863   8.208722   8.222114
    40  O    4.636802   3.821153   5.001333   9.318643   9.559999
    41  H    5.059565   4.321774   5.516166   9.924848  10.141934
    42  H    5.413237   4.579084   5.674032   9.731219  10.089342
                   36         37         38         39         40
    36  H    0.000000
    37  O    8.518477   0.000000
    38  H    9.075589   0.959707   0.000000
    39  H    9.170118   0.976561   1.547910   0.000000
    40  O   10.453774   2.742890   3.158052   1.766480   0.000000
    41  H   11.127473   3.406343   3.755804   2.462481   0.960581
    42  H   10.853433   3.389026   3.751644   2.450986   0.960594
                   41         42
    41  H    0.000000
    42  H    1.535542   0.000000
 Stoichiometry    C10H25N2O5(1+)
 Framework group  C1[X(C10H25N2O5)]
 Deg. of freedom   120
 Full point group                 C1      NOp   1
 Largest Abelian subgroup         C1      NOp   1
 Largest concise Abelian subgroup C1      NOp   1
                         Standard orientation:                         
 ---------------------------------------------------------------------
 Center     Atomic      Atomic             Coordinates (Angstroms)
 Number     Number       Type             X           Y           Z
 ---------------------------------------------------------------------
      1          7           0        1.602397   -1.757335    0.669444
      2          6           0        2.152859   -1.100058   -0.528033
      3          6           0        1.306628   -1.682844   -1.676928
      4          6           0        0.830740   -3.057950   -1.150007
      5          6           0        1.439501   -3.157675    0.252626
      6          6           0        2.136877    0.405567   -0.428235
      7          6           0        0.953207    1.083785   -0.149498
      8          7           0        0.878422    2.413072   -0.045010
      9          6           0        1.980051    3.152284   -0.229937
     10          6           0        3.204782    2.569185   -0.520695
     11          6           0        3.281473    1.180082   -0.612770
     12          8           0       -1.470395    3.029636    0.555842
     13          8           0       -0.979167   -1.100715    1.441648
     14          1           0        0.809310   -3.697353    0.970344
     15          1           0        1.158423   -3.885742   -1.786761
     16          1           0       -0.263033   -3.090674   -1.098068
     17          1           0        1.899027   -1.756564   -2.594912
     18          1           0        0.453669   -1.028254   -1.891835
     19          1           0        2.423103   -3.661487    0.221425
     20          1           0        3.205289   -1.419058   -0.658469
     21          1           0        0.020264    0.543195    0.001863
     22          1           0        1.865408    4.231654   -0.139947
     23          1           0        4.084206    3.193157   -0.665512
     24          1           0        4.236146    0.699086   -0.828328
     25          6           0        2.441456   -1.604043    1.852391
     26          1           0       -0.409709    2.866421    0.304208
     27          1           0       -0.049019   -1.318611    1.164123
     28          1           0       -1.247940   -1.755489    2.088823
     29          1           0       -2.020538    2.029052    0.718075
     30          1           0       -1.564318    3.607264    1.319449
     31          8           0       -2.599244    0.935495    0.873361
     32          1           0       -3.249483    0.681090    0.167697
     33          1           0       -2.024332    0.161916    1.083774
     34          1           0        1.993796   -2.148323    2.692417
     35          1           0        2.510546   -0.545073    2.128899
     36          1           0        3.460654   -1.996718    1.685182
     37          8           0       -4.311039    0.233729   -0.996301
     38          1           0       -4.459215    0.760010   -1.785040
     39          1           0       -5.182275   -0.127656   -0.743282
     40          8           0       -6.740386   -0.810656   -0.267621
     41          1           0       -7.444774   -0.356275    0.201518
     42          1           0       -7.134537   -1.605631   -0.635591
 ---------------------------------------------------------------------
 Rotational constants (GHZ):           0.4162506           0.2235995           0.1671208
 Standard basis: Aug-CC-pVDZ (5D, 7F)
 There are   650 symmetry adapted cartesian basis functions of A   symmetry.
 There are   616 symmetry adapted basis functions of A   symmetry.
   616 basis functions,  1006 primitive gaussians,   650 cartesian basis functions
    69 alpha electrons       69 beta electrons
       nuclear repulsion energy      1339.4340379835 Hartrees.
 NAtoms=   42 NActive=   42 NUniq=   42 SFac= 1.00D+00 NAtFMM=   60 NAOKFM=F Big=F
 Integral buffers will be    131072 words long.
 Raffenetti 2 integral format.
 Two-electron integral symmetry is turned on.
 Nuclear repulsion after empirical dispersion term =     1339.4033838177 Hartrees.
 One-electron integrals computed using PRISM.
 NBasis=   616 RedAO= T EigKep=  1.71D-06  NBF=   616
 NBsUse=   616 1.00D-06 EigRej= -1.00D+00 NBFU=   616
 Initial guess from the checkpoint file:  "/gscratch/scrubbed/gds001/Gau-286272.chk"
 B after Tr=    -0.000000    0.000000   -0.000000
         Rot=    0.999993   -0.000940    0.000414   -0.003606 Ang=  -0.43 deg.
 ExpMin= 2.97D-02 ExpMax= 1.17D+04 ExpMxC= 4.01D+02 IAcc=3 IRadAn=         5 AccDes= 0.00D+00
 Harris functional with IExCor= 4639 and IRadAn=       5 diagonalized for initial guess.
 HarFok:  IExCor= 4639 AccDes= 0.00D+00 IRadAn=         5 IDoV= 1 UseB2=F ITyADJ=14
 ICtDFT=  3500011 ScaDFX=  1.000000  1.000000  1.000000  1.000000
 FoFCou: FMM=F IPFlag=           0 FMFlag=      100000 FMFlg1=           0
         NFxFlg=           0 DoJE=T BraDBF=F KetDBF=T FulRan=T
         wScrn=  0.000000 ICntrl=       500 IOpCl=  0 I1Cent=   200000004 NGrid=           0
         NMat0=    1 NMatS0=      1 NMatT0=    0 NMatD0=    1 NMtDS0=    0 NMtDT0=    0
 Petite list used in FoFCou.
 Requested convergence on RMS density matrix=1.00D-08 within 128 cycles.
 Requested convergence on MAX density matrix=1.00D-06.
 Requested convergence on             energy=1.00D-06.
 No special actions if energy rises.
 SCF Done:  E(RwB97XD) =  -881.456090751     A.U. after   11 cycles
            NFock= 11  Conv=0.55D-08     -V/T= 2.0062
 DoSCS=F DFT=T ScalE2(SS,OS)=  1.000000  1.000000
 Range of M.O.s used for correlation:     1   616
 NBasis=   616 NAE=    69 NBE=    69 NFC=     0 NFV=     0
 NROrb=    616 NOA=    69 NOB=    69 NVA=   547 NVB=   547

 **** Warning!!: The largest alpha MO coefficient is  0.10669953D+03

 Symmetrizing basis deriv contribution to polar:
 IMax=3 JMax=2 DiffMx= 0.00D+00
 G2DrvN: will do    43 centers at a time, making    1 passes.
 Calling FoFCou, ICntrl=  3107 FMM=F I1Cent=   0 AccDes= 0.00D+00.
 End of G2Drv F.D. properties file   721 does not exist.
 End of G2Drv F.D. properties file   722 does not exist.
 End of G2Drv F.D. properties file   788 does not exist.
          IDoAtm=111111111111111111111111111111111111111111
          Differentiating once with respect to electric field.
                with respect to dipole field.
          Differentiating once with respect to nuclear coordinates.
 CalDSu exits because no D1Ps are significant.
          There are   129 degrees of freedom in the 1st order CPHF.  IDoFFX=6 NUNeed=     3.
    126 vectors produced by pass  0 Test12= 3.77D-14 1.00D-09 XBig12= 8.07D+01 3.19D+00.
 AX will form   126 AO Fock derivatives at one time.
    126 vectors produced by pass  1 Test12= 3.77D-14 1.00D-09 XBig12= 1.22D+01 5.86D-01.
