 Entering Gaussian System, Link 0=g16
 Input=NicWa4h3bLMidInter.gjf
 Output=NicWa4h3bLMidInter.log
 Initial command:
 /sw/contrib/gaussian/g16/A03/g16/l1.exe "/gscratch/scrubbed/gds001/Gau-28452.inp" -scrdir="/gscratch/scrubbed/gds001/"
 Entering Link 1 = /sw/contrib/gaussian/g16/A03/g16/l1.exe PID=     28453.
  
 Copyright (c) 1988,1990,1992,1993,1995,1998,2003,2009,2016,
            Gaussian, Inc.  All Rights Reserved.
  
 This is part of the Gaussian(R) 16 program.  It is based on
 the Gaussian(R) 09 system (copyright 2009, Gaussian, Inc.),
 the Gaussian(R) 03 system (copyright 2003, Gaussian, Inc.),
 the Gaussian(R) 98 system (copyright 1998, Gaussian, Inc.),
 the Gaussian(R) 94 system (copyright 1995, Gaussian, Inc.),
 the Gaussian 92(TM) system (copyright 1992, Gaussian, Inc.),
 the Gaussian 90(TM) system (copyright 1990, Gaussian, Inc.),
 the Gaussian 88(TM) system (copyright 1988, Gaussian, Inc.),
 the Gaussian 86(TM) system (copyright 1986, Carnegie Mellon
 University), and the Gaussian 82(TM) system (copyright 1983,
 Carnegie Mellon University). Gaussian is a federally registered
 trademark of Gaussian, Inc.
  
 This software contains proprietary and confidential information,
 including trade secrets, belonging to Gaussian, Inc.
  
 This software is provided under written license and may be
 used, copied, transmitted, or stored only in accord with that
 written license.
  
 The following legend is applicable only to US Government
 contracts under FAR:
  
                    RESTRICTED RIGHTS LEGEND
  
 Use, reproduction and disclosure by the US Government is
 subject to restrictions as set forth in subparagraphs (a)
 and (c) of the Commercial Computer Software - Restricted
 Rights clause in FAR 52.227-19.
  
 Gaussian, Inc.
 340 Quinnipiac St., Bldg. 40, Wallingford CT 06492
  
  
 ---------------------------------------------------------------
 Warning -- This program may not be used in any manner that
 competes with the business of Gaussian, Inc. or will provide
 assistance to any competitor of Gaussian, Inc.  The licensee
 of this program is prohibited from giving any competitor of
 Gaussian, Inc. access to this program.  By using this program,
 the user acknowledges that Gaussian, Inc. is engaged in the
 business of creating and licensing software in the field of
 computational chemistry and represents and warrants to the
 licensee that it is not a competitor of Gaussian, Inc. and that
 it will not use this program in any manner prohibited above.
 ---------------------------------------------------------------
  

 Cite this work as:
 Gaussian 16, Revision A.03,
 M. J. Frisch, G. W. Trucks, H. B. Schlegel, G. E. Scuseria, 
 M. A. Robb, J. R. Cheeseman, G. Scalmani, V. Barone, 
 G. A. Petersson, H. Nakatsuji, X. Li, M. Caricato, A. V. Marenich, 
 J. Bloino, B. G. Janesko, R. Gomperts, B. Mennucci, H. P. Hratchian, 
 J. V. Ortiz, A. F. Izmaylov, J. L. Sonnenberg, D. Williams-Young, 
 F. Ding, F. Lipparini, F. Egidi, J. Goings, B. Peng, A. Petrone, 
 T. Henderson, D. Ranasinghe, V. G. Zakrzewski, J. Gao, N. Rega, 
 G. Zheng, W. Liang, M. Hada, M. Ehara, K. Toyota, R. Fukuda, 
 J. Hasegawa, M. Ishida, T. Nakajima, Y. Honda, O. Kitao, H. Nakai, 
 T. Vreven, K. Throssell, J. A. Montgomery, Jr., J. E. Peralta, 
 F. Ogliaro, M. J. Bearpark, J. J. Heyd, E. N. Brothers, K. N. Kudin, 
 V. N. Staroverov, T. A. Keith, R. Kobayashi, J. Normand, 
 K. Raghavachari, A. P. Rendell, J. C. Burant, S. S. Iyengar, 
 J. Tomasi, M. Cossi, J. M. Millam, M. Klene, C. Adamo, R. Cammi, 
 J. W. Ochterski, R. L. Martin, K. Morokuma, O. Farkas, 
 J. B. Foresman, and D. J. Fox, Gaussian, Inc., Wallingford CT, 2016.
 
 ******************************************
 Gaussian 16:  ES64L-G16RevA.03 25-Dec-2016
                28-Feb-2023 
 ******************************************
 %nprocshared=28
 Will use up to   28 processors via shared memory.
 %mem=41GB
 ----------------------------------------
 # wB97XD/aug-cc-pVDZ opt(MaxStep=1) freq
 ----------------------------------------
 1/8=1,18=20,19=15,26=3,38=1/1,3;
 2/9=110,12=2,17=6,18=5,40=1/2;
 3/5=16,7=10,11=2,25=1,30=1,71=1,74=-58/1,2,3;
 4//1;
 5/5=2,38=5/2;
 6/7=2,8=2,9=2,10=2,28=1/1;
 7//1,2,3,16;
 1/8=1,18=20,19=15,26=3/3(2);
 2/9=110/2;
 99//99;
 2/9=110/2;
 3/5=16,7=10,11=2,25=1,30=1,71=1,74=-58/1,2,3;
 4/5=5,16=3,69=1/1;
 5/5=2,38=5/2;
 7//1,2,3,16;
 1/8=1,18=20,19=15,26=3/3(-5);
 2/9=110/2;
 6/7=2,8=2,9=2,10=2,19=2,28=1/1;
 99/9=1/99;
 ----
 blah
 ----
 Symbolic Z-matrix:
 Charge =  1 Multiplicity = 1
 N                     1.20795  -1.64338   0.62671 
 C                     1.59049  -0.92427  -0.60875 
 C                     0.70564  -1.57414  -1.69109 
 C                     0.35266  -2.97275  -1.12971 
 C                     1.10354  -3.04957   0.2023 
 C                     1.4709    0.57398  -0.46214 
 C                     0.22873   1.18275  -0.29319 
 N                     0.05165   2.49433  -0.12501 
 C                     1.13287   3.28368  -0.13373 
 C                     2.41892   2.78307  -0.30497 
 C                     2.58697   1.40969  -0.46522 
 O                    -2.59107   2.53755   0.34627 
 O                    -1.16078  -1.21226   1.64898 
 H                     0.5837   -3.63667   0.96867 
 H                     0.65012  -3.78235  -1.80332 
 H                    -0.72705  -3.06021  -0.96305 
 H                     1.24493  -1.62261  -2.6425 
 H                    -0.19834  -0.98049  -1.86701 
 H                     2.11223  -3.47764   0.06692 
 H                     2.64905  -1.15856  -0.82595 
 H                    -0.67936   0.5792   -0.29456 
 H                     0.95861   4.35105   0.00104 
 H                     3.27173   3.45908  -0.30871 
 H                     3.58536   0.9896   -0.59355 
 C                     2.13757  -1.43964   1.73465 
 H                    -1.62336   2.73149   0.18175 
 H                    -0.22812  -1.31489   1.21979 
 H                    -1.10076  -1.41962   2.58417 
 H                    -2.88553   1.14231   0.7262 
 H                    -2.96883   3.27447   0.83217 
 O                    -3.08198   0.14716   0.91424 
 H                    -3.56594  -0.27425   0.15595 
 H                    -2.25104  -0.40941   1.21677 
 H                     1.81535  -2.03744   2.59589 
 H                     2.14397  -0.38282   2.02648 
 H                     3.16352  -1.74358   1.46591 
 O                    -4.33531  -0.98613  -1.10608 
 H                    -4.62882  -0.46953  -1.86276 
 H                    -5.02526  -1.63713  -0.94564 
 
 Add virtual bond connecting atoms H33        and O13        Dist= 2.69D+00.
 Add virtual bond connecting atoms H29        and O12        Dist= 2.79D+00.
 Add virtual bond connecting atoms H26        and N8         Dist= 3.25D+00.
 Add virtual bond connecting atoms H27        and N1         Dist= 3.00D+00.
 Add virtual bond connecting atoms O37        and H32        Dist= 3.10D+00.

 GradGradGradGradGradGradGradGradGradGradGradGradGradGradGradGradGradGrad
 Berny optimization.
 Initialization pass.
                           ----------------------------
                           !    Initial Parameters    !
                           ! (Angstroms and Degrees)  !
 --------------------------                            --------------------------
 ! Name  Definition              Value          Derivative Info.                !
 --------------------------------------------------------------------------------
 ! R1    R(1,2)                  1.4798         estimate D2E/DX2                !
 ! R2    R(1,5)                  1.4725         estimate D2E/DX2                !
 ! R3    R(1,25)                 1.4606         estimate D2E/DX2                !
 ! R4    R(1,27)                 1.5881         estimate D2E/DX2                !
 ! R5    R(2,3)                  1.5417         estimate D2E/DX2                !
 ! R6    R(2,6)                  1.5101         estimate D2E/DX2                !
 ! R7    R(2,20)                 1.1057         estimate D2E/DX2                !
 ! R8    R(3,4)                  1.5479         estimate D2E/DX2                !
 ! R9    R(3,17)                 1.0947         estimate D2E/DX2                !
 ! R10   R(3,18)                 1.0957         estimate D2E/DX2                !
 ! R11   R(4,5)                  1.531          estimate D2E/DX2                !
 ! R12   R(4,15)                 1.0944         estimate D2E/DX2                !
 ! R13   R(4,16)                 1.096          estimate D2E/DX2                !
 ! R14   R(5,14)                 1.0965         estimate D2E/DX2                !
 ! R15   R(5,19)                 1.1041         estimate D2E/DX2                !
 ! R16   R(6,7)                  1.3936         estimate D2E/DX2                !
 ! R17   R(6,11)                 1.3943         estimate D2E/DX2                !
 ! R18   R(7,8)                  1.3341         estimate D2E/DX2                !
 ! R19   R(7,21)                 1.0904         estimate D2E/DX2                !
 ! R20   R(8,9)                  1.3387         estimate D2E/DX2                !
 ! R21   R(8,26)                 1.7193         estimate D2E/DX2                !
 ! R22   R(9,10)                 1.3906         estimate D2E/DX2                !
 ! R23   R(9,22)                 1.0899         estimate D2E/DX2                !
 ! R24   R(10,11)                1.3929         estimate D2E/DX2                !
 ! R25   R(10,23)                1.0883         estimate D2E/DX2                !
 ! R26   R(11,24)                1.0907         estimate D2E/DX2                !
 ! R27   R(12,26)                1.0006         estimate D2E/DX2                !
 ! R28   R(12,29)                1.4757         estimate D2E/DX2                !
 ! R29   R(12,30)                0.9601         estimate D2E/DX2                !
 ! R30   R(13,27)                1.0318         estimate D2E/DX2                !
 ! R31   R(13,28)                0.9598         estimate D2E/DX2                !
 ! R32   R(13,33)                1.4213         estimate D2E/DX2                !
 ! R33   R(25,34)                1.0968         estimate D2E/DX2                !
 ! R34   R(25,35)                1.0964         estimate D2E/DX2                !
 ! R35   R(25,36)                1.1033         estimate D2E/DX2                !
 ! R36   R(29,31)                1.0316         estimate D2E/DX2                !
 ! R37   R(31,32)                0.9934         estimate D2E/DX2                !
 ! R38   R(31,33)                1.0449         estimate D2E/DX2                !
 ! R39   R(32,37)                1.6406         estimate D2E/DX2                !
 ! R40   R(37,38)                0.9621         estimate D2E/DX2                !
 ! R41   R(37,39)                0.9621         estimate D2E/DX2                !
 ! A1    A(2,1,5)              103.9903         estimate D2E/DX2                !
 ! A2    A(2,1,25)             113.6405         estimate D2E/DX2                !
 ! A3    A(2,1,27)             116.4261         estimate D2E/DX2                !
 ! A4    A(5,1,25)             113.3891         estimate D2E/DX2                !
 ! A5    A(5,1,27)             103.9484         estimate D2E/DX2                !
 ! A6    A(25,1,27)            105.2721         estimate D2E/DX2                !
 ! A7    A(1,2,3)              103.4686         estimate D2E/DX2                !
 ! A8    A(1,2,6)              112.371          estimate D2E/DX2                !
 ! A9    A(1,2,20)             107.9697         estimate D2E/DX2                !
 ! A10   A(3,2,6)              116.1624         estimate D2E/DX2                !
 ! A11   A(3,2,20)             108.7987         estimate D2E/DX2                !
 ! A12   A(6,2,20)             107.7647         estimate D2E/DX2                !
 ! A13   A(2,3,4)              104.9014         estimate D2E/DX2                !
 ! A14   A(2,3,17)             110.247          estimate D2E/DX2                !
 ! A15   A(2,3,18)             110.9688         estimate D2E/DX2                !
 ! A16   A(4,3,17)             112.8016         estimate D2E/DX2                !
 ! A17   A(4,3,18)             111.0792         estimate D2E/DX2                !
 ! A18   A(17,3,18)            106.9113         estimate D2E/DX2                !
 ! A19   A(3,4,5)              104.4203         estimate D2E/DX2                !
 ! A20   A(3,4,15)             112.5336         estimate D2E/DX2                !
 ! A21   A(3,4,16)             110.6041         estimate D2E/DX2                !
 ! A22   A(5,4,15)             111.4126         estimate D2E/DX2                !
 ! A23   A(5,4,16)             110.2954         estimate D2E/DX2                !
 ! A24   A(15,4,16)            107.5983         estimate D2E/DX2                !
 ! A25   A(1,5,4)              103.7458         estimate D2E/DX2                !
 ! A26   A(1,5,14)             110.0892         estimate D2E/DX2                !
 ! A27   A(1,5,19)             109.9254         estimate D2E/DX2                !
 ! A28   A(4,5,14)             113.7306         estimate D2E/DX2                !
 ! A29   A(4,5,19)             111.1527         estimate D2E/DX2                !
 ! A30   A(14,5,19)            108.1341         estimate D2E/DX2                !
 ! A31   A(2,6,7)              121.0474         estimate D2E/DX2                !
 ! A32   A(2,6,11)             122.0766         estimate D2E/DX2                !
 ! A33   A(7,6,11)             116.8669         estimate D2E/DX2                !
 ! A34   A(6,7,8)              124.2665         estimate D2E/DX2                !
 ! A35   A(6,7,21)             120.025          estimate D2E/DX2                !
 ! A36   A(8,7,21)             115.7085         estimate D2E/DX2                !
 ! A37   A(7,8,9)              118.1409         estimate D2E/DX2                !
 ! A38   A(7,8,26)             106.7028         estimate D2E/DX2                !
 ! A39   A(9,8,26)             134.965          estimate D2E/DX2                !
 ! A40   A(8,9,10)             122.3748         estimate D2E/DX2                !
 ! A41   A(8,9,22)             116.5842         estimate D2E/DX2                !
 ! A42   A(10,9,22)            121.0409         estimate D2E/DX2                !
 ! A43   A(9,10,11)            118.7306         estimate D2E/DX2                !
 ! A44   A(9,10,23)            120.1007         estimate D2E/DX2                !
 ! A45   A(11,10,23)           121.1683         estimate D2E/DX2                !
 ! A46   A(6,11,10)            119.6145         estimate D2E/DX2                !
 ! A47   A(6,11,24)            120.139          estimate D2E/DX2                !
 ! A48   A(10,11,24)           120.2464         estimate D2E/DX2                !
 ! A49   A(26,12,29)           114.7446         estimate D2E/DX2                !
 ! A50   A(26,12,30)           108.3589         estimate D2E/DX2                !
 ! A51   A(29,12,30)           121.122          estimate D2E/DX2                !
 ! A52   A(27,13,28)           109.1046         estimate D2E/DX2                !
 ! A53   A(27,13,33)           128.5425         estimate D2E/DX2                !
 ! A54   A(28,13,33)           117.7951         estimate D2E/DX2                !
 ! A55   A(1,25,34)            109.4292         estimate D2E/DX2                !
 ! A56   A(1,25,35)            109.8824         estimate D2E/DX2                !
 ! A57   A(1,25,36)            111.6331         estimate D2E/DX2                !
 ! A58   A(34,25,35)           108.5472         estimate D2E/DX2                !
 ! A59   A(34,25,36)           108.3197         estimate D2E/DX2                !
 ! A60   A(35,25,36)           108.9635         estimate D2E/DX2                !
 ! A61   A(8,26,12)            160.8814         estimate D2E/DX2                !
 ! A62   A(29,31,32)           111.2752         estimate D2E/DX2                !
 ! A63   A(29,31,33)           114.5293         estimate D2E/DX2                !
 ! A64   A(32,31,33)           112.4881         estimate D2E/DX2                !
 ! A65   A(32,37,38)           121.0048         estimate D2E/DX2                !
 ! A66   A(32,37,39)           120.1098         estimate D2E/DX2                !
 ! A67   A(38,37,39)           106.0051         estimate D2E/DX2                !
 ! A68   L(1,27,13,7,-1)       186.5967         estimate D2E/DX2                !
 ! A69   L(12,29,31,1,-1)      178.7771         estimate D2E/DX2                !
 ! A70   L(31,32,37,2,-1)      178.8008         estimate D2E/DX2                !
 ! A71   L(13,33,31,7,-1)      182.5198         estimate D2E/DX2                !
 ! A72   L(1,27,13,7,-2)       179.4268         estimate D2E/DX2                !
 ! A73   L(12,29,31,1,-2)      184.6395         estimate D2E/DX2                !
 ! A74   L(31,32,37,2,-2)      179.7126         estimate D2E/DX2                !
 ! A75   L(13,33,31,7,-2)      179.3934         estimate D2E/DX2                !
 ! D1    D(5,1,2,3)             41.9438         estimate D2E/DX2                !
 ! D2    D(5,1,2,6)            168.0199         estimate D2E/DX2                !
 ! D3    D(5,1,2,20)           -73.2719         estimate D2E/DX2                !
 ! D4    D(25,1,2,3)           165.6991         estimate D2E/DX2                !
 ! D5    D(25,1,2,6)           -68.2249         estimate D2E/DX2                !
 ! D6    D(25,1,2,20)           50.4833         estimate D2E/DX2                !
 ! D7    D(27,1,2,3)           -71.7109         estimate D2E/DX2                !
 ! D8    D(27,1,2,6)            54.3651         estimate D2E/DX2                !
 ! D9    D(27,1,2,20)          173.0733         estimate D2E/DX2                !
 ! D10   D(2,1,5,4)            -43.7021         estimate D2E/DX2                !
 ! D11   D(2,1,5,14)          -165.7486         estimate D2E/DX2                !
 ! D12   D(2,1,5,19)            75.2333         estimate D2E/DX2                !
 ! D13   D(25,1,5,4)          -167.6205         estimate D2E/DX2                !
 ! D14   D(25,1,5,14)           70.3329         estimate D2E/DX2                !
 ! D15   D(25,1,5,19)          -48.6851         estimate D2E/DX2                !
 ! D16   D(27,1,5,4)            78.6056         estimate D2E/DX2                !
 ! D17   D(27,1,5,14)          -43.441          estimate D2E/DX2                !
 ! D18   D(27,1,5,19)         -162.459          estimate D2E/DX2                !
 ! D19   D(2,1,13,28)         -155.4233         estimate D2E/DX2                !
 ! D20   D(2,1,13,33)            2.4632         estimate D2E/DX2                !
 ! D21   D(5,1,13,28)           91.196          estimate D2E/DX2                !
 ! D22   D(5,1,13,33)         -110.9174         estimate D2E/DX2                !
 ! D23   D(25,1,13,28)         -27.2066         estimate D2E/DX2                !
 ! D24   D(25,1,13,33)         130.6799         estimate D2E/DX2                !
 ! D25   D(2,1,25,34)         -177.3832         estimate D2E/DX2                !
 ! D26   D(2,1,25,35)           63.5232         estimate D2E/DX2                !
 ! D27   D(2,1,25,36)          -57.486          estimate D2E/DX2                !
 ! D28   D(5,1,25,34)          -58.903          estimate D2E/DX2                !
 ! D29   D(5,1,25,35)         -177.9965         estimate D2E/DX2                !
 ! D30   D(5,1,25,36)           60.9943         estimate D2E/DX2                !
 ! D31   D(27,1,25,34)          54.0726         estimate D2E/DX2                !
 ! D32   D(27,1,25,35)         -65.0209         estimate D2E/DX2                !
 ! D33   D(27,1,25,36)         173.9698         estimate D2E/DX2                !
 ! D34   D(1,2,3,4)            -23.6688         estimate D2E/DX2                !
 ! D35   D(1,2,3,17)          -145.3771         estimate D2E/DX2                !
 ! D36   D(1,2,3,18)            96.3677         estimate D2E/DX2                !
 ! D37   D(6,2,3,4)           -147.2895         estimate D2E/DX2                !
 ! D38   D(6,2,3,17)            91.0022         estimate D2E/DX2                !
 ! D39   D(6,2,3,18)           -27.2529         estimate D2E/DX2                !
 ! D40   D(20,2,3,4)            90.9539         estimate D2E/DX2                !
 ! D41   D(20,2,3,17)          -30.7544         estimate D2E/DX2                !
 ! D42   D(20,2,3,18)         -149.0096         estimate D2E/DX2                !
 ! D43   D(1,2,6,7)            -66.5211         estimate D2E/DX2                !
 ! D44   D(1,2,6,11)           112.3467         estimate D2E/DX2                !
 ! D45   D(3,2,6,7)             52.3476         estimate D2E/DX2                !
 ! D46   D(3,2,6,11)          -128.7845         estimate D2E/DX2                !
 ! D47   D(20,2,6,7)           174.6503         estimate D2E/DX2                !
 ! D48   D(20,2,6,11)           -6.4818         estimate D2E/DX2                !
 ! D49   D(2,3,4,5)             -2.2663         estimate D2E/DX2                !
 ! D50   D(2,3,4,15)          -123.2504         estimate D2E/DX2                !
 ! D51   D(2,3,4,16)           116.3727         estimate D2E/DX2                !
 ! D52   D(17,3,4,5)           117.756          estimate D2E/DX2                !
 ! D53   D(17,3,4,15)           -3.2281         estimate D2E/DX2                !
 ! D54   D(17,3,4,16)         -123.605          estimate D2E/DX2                !
 ! D55   D(18,3,4,5)          -122.2294         estimate D2E/DX2                !
 ! D56   D(18,3,4,15)          116.7865         estimate D2E/DX2                !
 ! D57   D(18,3,4,16)           -3.5904         estimate D2E/DX2                !
 ! D58   D(3,4,5,1)             27.6034         estimate D2E/DX2                !
 ! D59   D(3,4,5,14)           147.1945         estimate D2E/DX2                !
 ! D60   D(3,4,5,19)           -90.4855         estimate D2E/DX2                !
 ! D61   D(15,4,5,1)           149.3298         estimate D2E/DX2                !
 ! D62   D(15,4,5,14)          -91.0791         estimate D2E/DX2                !
 ! D63   D(15,4,5,19)           31.2409         estimate D2E/DX2                !
 ! D64   D(16,4,5,1)           -91.2455         estimate D2E/DX2                !
 ! D65   D(16,4,5,14)           28.3456         estimate D2E/DX2                !
 ! D66   D(16,4,5,19)          150.6656         estimate D2E/DX2                !
 ! D67   D(2,6,7,8)            178.2884         estimate D2E/DX2                !
 ! D68   D(2,6,7,21)            -1.8031         estimate D2E/DX2                !
 ! D69   D(11,6,7,8)            -0.6362         estimate D2E/DX2                !
 ! D70   D(11,6,7,21)          179.2723         estimate D2E/DX2                !
 ! D71   D(2,6,11,10)         -178.9811         estimate D2E/DX2                !
 ! D72   D(2,6,11,24)            1.0863         estimate D2E/DX2                !
 ! D73   D(7,6,11,10)           -0.0685         estimate D2E/DX2                !
 ! D74   D(7,6,11,24)          179.999          estimate D2E/DX2                !
 ! D75   D(6,7,8,9)              0.8103         estimate D2E/DX2                !
 ! D76   D(6,7,8,26)          -174.908          estimate D2E/DX2                !
 ! D77   D(21,7,8,9)          -179.1019         estimate D2E/DX2                !
 ! D78   D(21,7,8,26)            5.1798         estimate D2E/DX2                !
 ! D79   D(7,8,9,10)            -0.2761         estimate D2E/DX2                !
 ! D80   D(7,8,9,22)           179.7159         estimate D2E/DX2                !
 ! D81   D(26,8,9,10)          173.9231         estimate D2E/DX2                !
 ! D82   D(26,8,9,22)           -6.0849         estimate D2E/DX2                !
 ! D83   D(7,8,26,12)            3.8127         estimate D2E/DX2                !
 ! D84   D(9,8,26,12)         -170.8483         estimate D2E/DX2                !
 ! D85   D(8,9,10,11)           -0.3851         estimate D2E/DX2                !
 ! D86   D(8,9,10,23)          179.8292         estimate D2E/DX2                !
 ! D87   D(22,9,10,11)         179.6233         estimate D2E/DX2                !
 ! D88   D(22,9,10,23)          -0.1624         estimate D2E/DX2                !
 ! D89   D(9,10,11,6)            0.5444         estimate D2E/DX2                !
 ! D90   D(9,10,11,24)        -179.5231         estimate D2E/DX2                !
 ! D91   D(23,10,11,6)        -179.6722         estimate D2E/DX2                !
 ! D92   D(23,10,11,24)          0.2603         estimate D2E/DX2                !
 ! D93   D(29,12,26,8)          16.2493         estimate D2E/DX2                !
 ! D94   D(30,12,26,8)         155.0643         estimate D2E/DX2                !
 ! D95   D(26,12,31,32)       -109.9058         estimate D2E/DX2                !
 ! D96   D(26,12,31,33)         17.3122         estimate D2E/DX2                !
 ! D97   D(30,12,31,32)        115.5908         estimate D2E/DX2                !
 ! D98   D(30,12,31,33)       -117.1912         estimate D2E/DX2                !
 ! D99   D(27,13,31,29)        -51.7259         estimate D2E/DX2                !
 ! D100  D(27,13,31,32)         77.3899         estimate D2E/DX2                !
 ! D101  D(28,13,31,29)        102.5389         estimate D2E/DX2                !
 ! D102  D(28,13,31,32)       -128.3453         estimate D2E/DX2                !
 ! D103  D(29,31,37,38)         -5.6272         estimate D2E/DX2                !
 ! D104  D(29,31,37,39)       -142.2223         estimate D2E/DX2                !
 ! D105  D(33,31,37,38)       -135.2452         estimate D2E/DX2                !
 ! D106  D(33,31,37,39)         88.1596         estimate D2E/DX2                !
 --------------------------------------------------------------------------------
 Trust Radius=1.00D-02 FncErr=1.00D-07 GrdErr=1.00D-06 EigMax=2.50D+02 EigMin=1.00D-04
 Number of steps in this run=    232 maximum allowed number of steps=    234.
 GradGradGradGradGradGradGradGradGradGradGradGradGradGradGradGradGradGrad

                          Input orientation:                          
 ---------------------------------------------------------------------
 Center     Atomic      Atomic             Coordinates (Angstroms)
 Number     Number       Type             X           Y           Z
 ---------------------------------------------------------------------
      1          7           0        1.207953   -1.643382    0.626707
      2          6           0        1.590491   -0.924270   -0.608746
      3          6           0        0.705635   -1.574141   -1.691087
      4          6           0        0.352658   -2.972754   -1.129711
      5          6           0        1.103544   -3.049573    0.202296
      6          6           0        1.470899    0.573980   -0.462141
      7          6           0        0.228733    1.182751   -0.293191
      8          7           0        0.051653    2.494334   -0.125013
      9          6           0        1.132873    3.283679   -0.133728
     10          6           0        2.418920    2.783071   -0.304965
     11          6           0        2.586970    1.409686   -0.465222
     12          8           0       -2.591071    2.537545    0.346266
     13          8           0       -1.160776   -1.212260    1.648980
     14          1           0        0.583701   -3.636669    0.968669
     15          1           0        0.650124   -3.782352   -1.803322
     16          1           0       -0.727045   -3.060209   -0.963046
     17          1           0        1.244932   -1.622613   -2.642495
     18          1           0       -0.198337   -0.980488   -1.867011
     19          1           0        2.112232   -3.477636    0.066924
     20          1           0        2.649047   -1.158564   -0.825952
     21          1           0       -0.679357    0.579200   -0.294564
     22          1           0        0.958612    4.351049    0.001041
     23          1           0        3.271733    3.459084   -0.308705
     24          1           0        3.585356    0.989599   -0.593554
     25          6           0        2.137568   -1.439637    1.734654
     26          1           0       -1.623357    2.731487    0.181745
     27          1           0       -0.228117   -1.314892    1.219793
     28          1           0       -1.100761   -1.419617    2.584169
     29          1           0       -2.885527    1.142309    0.726198
     30          1           0       -2.968831    3.274466    0.832171
     31          8           0       -3.081985    0.147156    0.914236
     32          1           0       -3.565936   -0.274246    0.155946
     33          1           0       -2.251044   -0.409411    1.216773
     34          1           0        1.815349   -2.037436    2.595885
     35          1           0        2.143968   -0.382819    2.026483
     36          1           0        3.163518   -1.743584    1.465908
     37          8           0       -4.335313   -0.986126   -1.106082
     38          1           0       -4.628819   -0.469532   -1.862762
     39          1           0       -5.025262   -1.637125   -0.945639
 ---------------------------------------------------------------------
                    Distance matrix (angstroms):
                    1          2          3          4          5
     1  N    0.000000
     2  C    1.479798   0.000000
     3  C    2.372612   1.541676   0.000000
     4  C    2.362999   2.449474   1.547855   0.000000
     5  C    1.472548   2.326332   2.433132   1.531004   0.000000
     6  C    2.484235   1.510148   2.590436   3.778285   3.702238
     7  C    3.129235   2.528537   3.127619   4.240677   4.350100
     8  N    4.361514   3.780063   4.408261   5.566783   5.652301
     9  C    4.985963   4.259330   5.119210   6.383077   6.342228
    10  C    4.682728   3.810899   4.882825   6.170832   6.000605
    11  C    3.523524   2.541834   3.734353   4.963817   4.746696
    12  O    5.656092   5.511957   5.650225   6.419302   6.699761
    13  O    2.615681   3.570677   3.843240   3.620904   3.255113
    14  H    2.116559   3.295296   3.367966   2.212999   1.096470
    15  H    3.285028   3.237273   2.211758   1.094389   2.182901
    16  H    2.877313   3.171551   2.188838   1.095985   2.170067
    17  H    3.269477   2.177896   1.094700   2.215299   3.185756
    18  H    2.938658   2.187761   1.095691   2.194614   3.202817
    19  H    2.120275   2.692289   2.948290   2.186994   1.104090
    20  H    2.102860   1.105718   2.167490   2.942271   2.649866
    21  H    3.057867   2.740683   2.916394   3.791952   4.073524
    22  H    6.032150   5.347906   6.167266   7.435312   7.404776
    23  H    5.582951   4.704295   5.816287   7.110808   6.879301
    24  H    3.751489   2.764527   4.008757   5.141794   4.807045
    25  C    1.460562   2.460979   3.715404   3.706877   2.451371
    26  H    5.230085   4.931354   5.241196   6.177614   6.391953
    27  H    1.588066   2.608347   3.067951   2.933594   2.411999
    28  H    3.035109   4.205105   4.643787   4.279903   3.631671
    29  H    4.952429   5.107598   5.110657   5.555536   5.810253
    30  H    6.455460   6.363414   6.586161   7.342277   7.548142
    31  O    4.657496   5.029857   4.908833   5.070338   5.314564
    32  H    4.988604   5.253192   4.831933   4.928513   5.432185
    33  H    3.719613   4.284272   4.307458   4.342347   4.387810
    34  H    2.098064   3.399906   4.452442   4.110274   2.694505
    35  H    2.103453   2.746623   4.160334   4.458488   3.394366
    36  H    2.130383   2.729447   4.004562   4.018586   2.746965
    37  O    5.844856   5.946959   5.108733   5.091593   5.962452
    38  H    6.453161   6.360752   5.450324   5.623042   6.616726
    39  H    6.428474   6.662571   5.779519   5.544349   6.393358
                    6          7          8          9         10
     6  C    0.000000
     7  C    1.393601   0.000000
     8  N    2.411571   1.334126   0.000000
     9  C    2.750379   2.292770   1.338723   0.000000
    10  C    2.409052   2.712578   2.391590   1.390628   0.000000
    11  C    1.394284   2.375369   2.778495   2.395023   1.392878
    12  O    4.583526   3.193065   2.684765   3.828168   5.058102
    13  O    3.817486   3.382136   4.284376   5.352788   5.709185
    14  H    4.534744   4.994507   6.250473   7.029089   6.797296
    15  H    4.631422   5.206757   6.524697   7.276633   6.962650
    16  H    4.276587   4.400560   5.671121   6.662731   6.668890
    17  H    3.103228   3.797625   4.971004   5.511640   5.123704
    18  H    2.678877   2.709041   3.895053   4.791608   4.842974
    19  H    4.136038   5.039490   6.320384   6.834822   6.279237
    20  H    2.126523   3.409327   4.536677   4.744626   3.982571
    21  H    2.156782   1.090368   2.056906   3.259487   3.802167
    22  H    3.839691   3.264569   2.070231   1.089866   2.164415
    23  H    3.404463   3.800234   3.366512   2.153162   1.088254
    24  H    2.158920   3.375566   3.869214   3.389530   2.158796
    25  C    3.053688   3.825275   4.825508   5.177835   4.697922
    26  H    3.826728   2.460566   1.719302   2.828647   4.071799
    27  H    3.046866   2.955681   4.049318   4.983088   5.111261
    28  H    4.457339   4.101106   4.897626   5.873421   6.196599
    29  H    4.551219   3.277103   3.343585   4.633840   5.647349
    30  H    5.355284   3.983231   3.263147   4.213908   5.528328
    31  O    4.775494   3.673036   4.050799   5.357335   6.220487
    32  H    5.145020   4.089508   4.564091   5.900979   6.736329
    33  H    4.199842   3.311233   3.941388   5.187838   5.858002
    34  H    4.036045   4.608006   5.572329   6.019205   5.658314
    35  H    2.749861   3.391168   4.157490   4.374018   3.941333
    36  H    3.457374   4.502314   5.493149   5.652940   4.917420
    37  O    6.046544   5.118138   5.685206   7.005552   7.776136
    38  H    6.344857   5.365576   5.806125   7.090363   7.916867
    39  H    6.879162   5.998488   6.596775   7.924401   8.681270
                   11         12         13         14         15
    11  C    0.000000
    12  O    5.361221   0.000000
    13  O    5.038854   4.219460   0.000000
    14  H    5.615588   6.970472   3.063296   0.000000
    15  H    5.700802   7.420726   4.669381   2.776611   0.000000
    16  H    5.586635   6.043487   3.228888   2.404555   1.767526
    17  H    3.966916   6.399572   4.936859   4.187380   2.392171
    18  H    3.928852   4.795866   3.652698   3.963327   2.928205
    19  H    4.939076   7.640778   4.283388   1.781809   2.393414
    20  H    2.594203   6.518754   4.543448   3.691520   3.440234
    21  H    3.374570   2.810770   2.686719   4.578714   4.802812
    22  H    3.394196   4.001028   6.177209   8.054843   8.336852
    23  H    2.166433   5.970820   6.730611   7.694603   7.845069
    24  H    1.090741   6.436431   5.692355   5.731739   5.731548
    25  C    3.627679   6.332900   3.307282   2.797889   4.496452
    26  H    4.460110   1.000575   4.233190   6.785556   7.179088
    27  H    4.264659   4.603029   1.031789   2.472400   3.999861
    28  H    5.559056   4.784179   0.959780   3.219095   5.281874
    29  H    5.607067   1.475715   3.061093   5.910412   6.568987
    30  H    6.002296   0.960135   4.905808   7.771930   8.357113
    31  O    5.969417   2.505503   2.465543   5.268543   6.062573
    32  H    6.409347   2.982072   2.982250   5.402397   5.824148
    33  H    5.435495   3.091594   1.421286   4.302619   5.377219
    34  H    4.674230   6.738529   3.230304   2.592747   4.873962
    35  H    3.101277   5.811390   3.428092   3.760445   5.334398
    36  H    3.742296   7.259267   4.360658   3.238282   4.600173
    37  O    7.353137   4.191414   4.209417   5.960425   5.758438
    38  H    7.586316   4.251439   4.991122   6.724442   6.232620
    39  H    8.213400   5.002217   4.674057   6.254855   6.127612
                   16         17         18         19         20
    16  H    0.000000
    17  H    2.962419   0.000000
    18  H    2.328503   1.759752   0.000000
    19  H    3.049029   3.396214   3.913385   0.000000
    20  H    3.877247   2.342372   3.036957   2.542340   0.000000
    21  H    3.700600   3.750153   2.266406   4.937769   3.792159
    22  H    7.661439   6.538723   5.766579   7.913500   5.822141
    23  H    7.675908   5.947953   5.846324   7.042984   4.688065
    24  H    5.927417   4.061945   4.451884   4.750001   2.354843
    25  C    4.255567   4.470986   4.317321   2.633516   2.626274
    26  H    5.971404   5.929722   4.472901   7.247139   5.865269
    27  H    2.838987   4.145098   3.105008   3.388776   3.533778
    28  H    3.926059   5.732495   4.562916   4.571136   5.075247
    29  H    5.017345   6.004463   4.295578   6.837845   6.191502
    30  H    6.955323   7.335563   5.750292   8.484909   7.345861
    31  O    4.399673   5.874064   4.162012   6.390379   6.130080
    32  H    4.131953   5.726589   3.991473   6.520063   6.353909
    33  H    3.755118   5.346743   3.748261   5.456586   5.361422
    34  H    4.491750   5.285648   5.008943   2.925399   3.629936
    35  H    4.934411   4.913727   4.582892   3.663164   2.998878
    36  H    4.771771   4.535921   4.795074   2.463594   2.420651
    37  O    4.164358   5.822784   4.206378   7.011020   6.992102
    38  H    4.769165   6.036434   4.459850   7.629820   7.383568
    39  H    4.527708   6.495757   4.957752   7.440201   7.690147
                   21         22         23         24         25
    21  H    0.000000
    22  H    4.122762   0.000000
    23  H    4.889278   2.498414   0.000000
    24  H    4.294834   4.307281   2.505565   0.000000
    25  C    4.016030   6.158522   5.427625   3.663036   0.000000
    26  H    2.397988   3.053228   4.973112   5.546707   5.827037
    27  H    2.466674   5.915790   6.113600   4.810559   2.424275
    28  H    3.529866   6.649372   7.161644   6.153205   3.347962
    29  H    2.495242   5.059572   6.659604   6.605860   5.737152
    30  H    3.711561   4.156274   6.346678   7.085949   7.008035
    31  O    2.724056   5.901954   7.268713   6.887422   5.516768
    32  H    3.043627   6.472162   7.804317   7.300687   6.031618
    33  H    2.394095   5.868720   6.913277   6.268818   4.537563
    34  H    4.628719   6.948378   6.385094   4.740083   1.096771
    35  H    3.779405   5.283653   4.635210   3.290247   1.096389
    36  H    4.823098   6.644697   5.498065   3.448133   1.103260
    37  O    4.058919   7.598474   8.846629   8.179436   7.083335
    38  H    4.376909   7.611251   8.959232   8.438757   7.724409
    39  H    4.921675   8.518285   9.757928   9.009239   7.650432
                   26         27         28         29         30
    26  H    0.000000
    27  H    4.404250   0.000000
    28  H    4.824563   1.622959   0.000000
    29  H    2.101187   3.652848   3.633306   0.000000
    30  H    1.590025   5.359475   5.347298   2.136414   0.000000
    31  O    3.056617   3.221104   3.027987   1.031641   3.130432
    32  H    3.578926   3.654552   3.644891   1.671757   3.661580
    33  H    3.366083   2.216334   2.052666   1.746731   3.772809
    34  H    6.355737   2.567382   2.980861   5.975345   7.363109
    35  H    5.224433   2.673256   3.451700   5.414109   6.398658
    36  H    6.677538   3.427468   4.420355   6.742885   7.949098
    37  O    4.778478   4.731473   4.926276   3.160596   4.876140
    38  H    4.843484   5.439022   5.755437   3.512807   4.902626
    39  H    5.650551   5.273095   5.282856   3.885712   5.613666
                   31         32         33         34         35
    31  O    0.000000
    32  H    0.993374   0.000000
    33  H    1.044872   1.694864   0.000000
    34  H    5.619988   6.166066   4.592164   0.000000
    35  H    5.369223   6.009468   4.469057   1.780440   0.000000
    36  H    6.548706   7.011455   5.582076   1.783468   1.790365
    37  O    2.633789   1.640557   3.173710   7.255374   7.222051
    38  H    3.238011   2.289768   3.891139   7.991568   7.810531
    39  H    3.227866   2.280474   3.725533   7.713404   7.861593
                   36         37         38         39
    36  H    0.000000
    37  O    7.963752   0.000000
    38  H    8.568767   0.962071   0.000000
    39  H    8.537155   0.962066   1.536735   0.000000
 Stoichiometry    C10H23N2O4(1+)
 Framework group  C1[X(C10H23N2O4)]
 Deg. of freedom   111
 Full point group                 C1      NOp   1
 Largest Abelian subgroup         C1      NOp   1
 Largest concise Abelian subgroup C1      NOp   1
                         Standard orientation:                         
 ---------------------------------------------------------------------
 Center     Atomic      Atomic             Coordinates (Angstroms)
 Number     Number       Type             X           Y           Z
 ---------------------------------------------------------------------
      1          7           0        1.273992   -1.558060    0.626264
      2          6           0        1.637506   -0.826779   -0.607789
      3          6           0        0.780933   -1.507367   -1.693997
      4          6           0        0.473731   -2.917058   -1.133416
      5          6           0        1.220294   -2.967230    0.202287
      6          6           0        1.465519    0.666519   -0.462768
      7          6           0        0.202255    1.232102   -0.300281
      8          7           0       -0.020843    2.536869   -0.133843
      9          6           0        1.032498    3.363087   -0.137814
     10          6           0        2.335891    2.907117   -0.302446
     11          6           0        2.552060    1.540277   -0.460966
     12          8           0       -2.665757    2.489001    0.324520
     13          8           0       -1.113190   -1.208510    1.636691
     14          1           0        0.717295   -3.571551    0.966508
     15          1           0        0.802277   -3.716233   -1.805029
     16          1           0       -0.603109   -3.041674   -0.971957
     17          1           0        1.326232   -1.537655   -2.642732
     18          1           0       -0.142133   -0.945382   -1.874721
     19          1           0        2.243816   -3.360262    0.072118
     20          1           0        2.704573   -1.024476   -0.819677
     21          1           0       -0.684428    0.597542   -0.305678
     22          1           0        0.820816    4.423868   -0.004607
     23          1           0        3.164854    3.612183   -0.302480
     24          1           0        3.564977    1.154864   -0.584150
     25          6           0        2.190581   -1.321773    1.738593
     26          1           0       -1.704526    2.716173    0.164589
     27          1           0       -0.175453   -1.279077    1.212123
     28          1           0       -1.050626   -1.413204    2.572299
     29          1           0       -2.913702    1.084616    0.703943
     30          1           0       -3.071119    3.212675    0.808086
     31          8           0       -3.076588    0.083364    0.891684
     32          1           0       -3.541977   -0.354881    0.131325
     33          1           0       -2.228409   -0.444017    1.198639
     34          1           0        1.884991   -1.929917    2.598641
     35          1           0        2.159046   -0.265220    2.029745
     36          1           0        3.227720   -1.590233    1.475054
     37          8           0       -4.280120   -1.093541   -1.133963
     38          1           0       -4.587587   -0.587771   -1.892409
     39          1           0       -4.947949   -1.767905   -0.976451
 ---------------------------------------------------------------------
 Rotational constants (GHZ):           0.4338541           0.3968503           0.2548154
 Standard basis: Aug-CC-pVDZ (5D, 7F)
 There are   607 symmetry adapted cartesian basis functions of A   symmetry.
 There are   575 symmetry adapted basis functions of A   symmetry.
   575 basis functions,   941 primitive gaussians,   607 cartesian basis functions
    64 alpha electrons       64 beta electrons
       nuclear repulsion energy      1242.3568513475 Hartrees.
 NAtoms=   39 NActive=   39 NUniq=   39 SFac= 1.00D+00 NAtFMM=   60 NAOKFM=F Big=F
 Integral buffers will be    131072 words long.
 Raffenetti 2 integral format.
 Two-electron integral symmetry is turned on.
 Nuclear repulsion after empirical dispersion term =     1242.3263854691 Hartrees.
 One-electron integrals computed using PRISM.
 NBasis=   575 RedAO= T EigKep=  1.78D-06  NBF=   575
 NBsUse=   575 1.00D-06 EigRej= -1.00D+00 NBFU=   575
 ExpMin= 2.97D-02 ExpMax= 1.17D+04 ExpMxC= 4.01D+02 IAcc=3 IRadAn=         5 AccDes= 0.00D+00
 Harris functional with IExCor= 4639 and IRadAn=       5 diagonalized for initial guess.
 HarFok:  IExCor= 4639 AccDes= 0.00D+00 IRadAn=         5 IDoV= 1 UseB2=F ITyADJ=14
 ICtDFT=  3500011 ScaDFX=  1.000000  1.000000  1.000000  1.000000
 FoFCou: FMM=F IPFlag=           0 FMFlag=      100000 FMFlg1=           0
         NFxFlg=           0 DoJE=T BraDBF=F KetDBF=T FulRan=T
         wScrn=  0.000000 ICntrl=       500 IOpCl=  0 I1Cent=   200000004 NGrid=           0
         NMat0=    1 NMatS0=      1 NMatT0=    0 NMatD0=    1 NMtDS0=    0 NMtDT0=    0
 Petite list used in FoFCou.
 Requested convergence on RMS density matrix=1.00D-08 within 128 cycles.
 Requested convergence on MAX density matrix=1.00D-06.
 Requested convergence on             energy=1.00D-06.
 No special actions if energy rises.
 SCF Done:  E(RwB97XD) =  -805.020375482     A.U. after   16 cycles
            NFock= 16  Conv=0.15D-08     -V/T= 2.0062

 **********************************************************************

            Population analysis using the SCF density.

 **********************************************************************

 Orbital symmetries:
       Occupied  (A) (A) (A) (A) (A) (A) (A) (A) (A) (A) (A) (A)
                 (A) (A) (A) (A) (A) (A) (A) (A) (A) (A) (A) (A)
                 (A) (A) (A) (A) (A) (A) (A) (A) (A) (A) (A) (A)
                 (A) (A) (A) (A) (A) (A) (A) (A) (A) (A) (A) (A)
                 (A) (A) (A) (A) (A) (A) (A) (A) (A) (A) (A) (A)
                 (A) (A) (A) (A)
       Virtual   (A) (A) (A) (A) (A) (A) (A) (A) (A) (A) (A) (A)
                 (A) (A) (A) (A) (A) (A) (A) (A) (A) (A) (A) (A)
                 (A) (A) (A) (A) (A) (A) (A) (A) (A) (A) (A) (A)
                 (A) (A) (A) (A) (A) (A) (A) (A) (A) (A) (A) (A)
                 (A) (A) (A) (A) (A) (A) (A) (A) (A) (A) (A) (A)
                 (A) (A) (A) (A) (A) (A) (A) (A) (A) (A) (A) (A)
                 (A) (A) (A) (A) (A) (A) (A) (A) (A) (A) (A) (A)
                 (A) (A) (A) (A) (A) (A) (A) (A) (A) (A) (A) (A)
                 (A) (A) (A) (A) (A) (A) (A) (A) (A) (A) (A) (A)
                 (A) (A) (A) (A) (A) (A) (A) (A) (A) (A) (A) (A)
                 (A) (A) (A) (A) (A) (A) (A) (A) (A) (A) (A) (A)
                 (A) (A) (A) (A) (A) (A) (A) (A) (A) (A) (A) (A)
                 (A) (A) (A) (A) (A) (A) (A) (A) (A) (A) (A) (A)
                 (A) (A) (A) (A) (A) (A) (A) (A) (A) (A) (A) (A)
                 (A) (A) (A) (A) (A) (A) (A) (A) (A) (A) (A) (A)
                 (A) (A) (A) (A) (A) (A) (A) (A) (A) (A) (A) (A)
                 (A) (A) (A) (A) (A) (A) (A) (A) (A) (A) (A) (A)
                 (A) (A) (A) (A) (A) (A) (A) (A) (A) (A) (A) (A)
                 (A) (A) (A) (A) (A) (A) (A) (A) (A) (A) (A) (A)
                 (A) (A) (A) (A) (A) (A) (A) (A) (A) (A) (A) (A)
                 (A) (A) (A) (A) (A) (A) (A) (A) (A) (A) (A) (A)
                 (A) (A) (A) (A) (A) (A) (A) (A) (A) (A) (A) (A)
                 (A) (A) (A) (A) (A) (A) (A) (A) (A) (A) (A) (A)
                 (A) (A) (A) (A) (A) (A) (A) (A) (A) (A) (A) (A)
                 (A) (A) (A) (A) (A) (A) (A) (A) (A) (A) (A) (A)
                 (A) (A) (A) (A) (A) (A) (A) (A) (A) (A) (A) (A)
                 (A) (A) (A) (A) (A) (A) (A) (A) (A) (A) (A) (A)
                 (A) (A) (A) (A) (A) (A) (A) (A) (A) (A) (A) (A)
                 (A) (A) (A) (A) (A) (A) (A) (A) (A) (A) (A) (A)
                 (A) (A) (A) (A) (A) (A) (A) (A) (A) (A) (A) (A)
                 (A) (A) (A) (A) (A) (A) (A) (A) (A) (A) (A) (A)
                 (A) (A) (A) (A) (A) (A) (A) (A) (A) (A) (A) (A)
                 (A) (A) (A) (A) (A) (A) (A) (A) (A) (A) (A) (A)
                 (A) (A) (A) (A) (A) (A) (A) (A) (A) (A) (A) (A)
                 (A) (A) (A) (A) (A) (A) (A) (A) (A) (A) (A) (A)
                 (A) (A) (A) (A) (A) (A) (A) (A) (A) (A) (A) (A)
                 (A) (A) (A) (A) (A) (A) (A) (A) (A) (A) (A) (A)
                 (A) (A) (A) (A) (A) (A) (A) (A) (A) (A) (A) (A)
                 (A) (A) (A) (A) (A) (A) (A) (A) (A) (A) (A) (A)
                 (A) (A) (A) (A) (A) (A) (A) (A) (A) (A) (A) (A)
                 (A) (A) (A) (A) (A) (A) (A) (A) (A) (A) (A) (A)
                 (A) (A) (A) (A) (A) (A) (A) (A) (A) (A) (A) (A)
                 (A) (A) (A) (A) (A) (A) (A)
 The electronic state is 1-A.
 Alpha  occ. eigenvalues --  -19.44811 -19.43413 -19.40093 -19.39914 -14.58585
 Alpha  occ. eigenvalues --  -14.58440 -10.45969 -10.45636 -10.45438 -10.43838
 Alpha  occ. eigenvalues --  -10.43641 -10.43465 -10.43394 -10.42705 -10.40986
 Alpha  occ. eigenvalues --  -10.40467  -1.31019  -1.27570  -1.24445  -1.23857
 Alpha  occ. eigenvalues --   -1.18107  -1.17146  -1.04029  -1.00781  -0.99555
 Alpha  occ. eigenvalues --   -0.93882  -0.89439  -0.85688  -0.84586  -0.81086
 Alpha  occ. eigenvalues --   -0.80599  -0.79796  -0.79370  -0.78022  -0.76696
 Alpha  occ. eigenvalues --   -0.74991  -0.72809  -0.70993  -0.70015  -0.68791
 Alpha  occ. eigenvalues --   -0.66682  -0.65817  -0.65017  -0.64431  -0.62861
 Alpha  occ. eigenvalues --   -0.61969  -0.61538  -0.61278  -0.59847  -0.59693
 Alpha  occ. eigenvalues --   -0.59045  -0.58612  -0.56789  -0.56533  -0.55561
 Alpha  occ. eigenvalues --   -0.54562  -0.54153  -0.53995  -0.53734  -0.51970
 Alpha  occ. eigenvalues --   -0.48905  -0.48186  -0.45716  -0.45170
 Alpha virt. eigenvalues --   -0.08782  -0.07532  -0.07176  -0.05475  -0.04763
 Alpha virt. eigenvalues --   -0.04417  -0.03367  -0.03032  -0.02848  -0.02416
 Alpha virt. eigenvalues --   -0.01799  -0.01324  -0.01105  -0.00672  -0.00408
 Alpha virt. eigenvalues --   -0.00137   0.00465   0.00753   0.00919   0.01849
 Alpha virt. eigenvalues --    0.01983   0.02069   0.02443   0.02822   0.03428
 Alpha virt. eigenvalues --    0.03642   0.04060   0.04440   0.04553   0.04906
 Alpha virt. eigenvalues --    0.05483   0.05733   0.05995   0.06348   0.06510
 Alpha virt. eigenvalues --    0.06838   0.06952   0.06984   0.07315   0.07376
 Alpha virt. eigenvalues --    0.07642   0.08265   0.08364   0.08814   0.08827
 Alpha virt. eigenvalues --    0.09386   0.09492   0.09825   0.10095   0.10700
 Alpha virt. eigenvalues --    0.10812   0.10976   0.11150   0.11686   0.12036
 Alpha virt. eigenvalues --    0.12296   0.12379   0.12719   0.12968   0.13616
 Alpha virt. eigenvalues --    0.13868   0.14070   0.14523   0.14601   0.15013
 Alpha virt. eigenvalues --    0.15266   0.15670   0.15985   0.16119   0.16543
 Alpha virt. eigenvalues --    0.16555   0.17159   0.17573   0.17698   0.17909
 Alpha virt. eigenvalues --    0.18366   0.18590   0.18645   0.19073   0.19443
 Alpha virt. eigenvalues --    0.19533   0.19884   0.20576   0.20777   0.20889
 Alpha virt. eigenvalues --    0.21195   0.21408   0.21955   0.22203   0.22336
 Alpha virt. eigenvalues --    0.22577   0.22864   0.23593   0.24026   0.24215
 Alpha virt. eigenvalues --    0.24761   0.25051   0.25567   0.25744   0.26133
 Alpha virt. eigenvalues --    0.26364   0.26755   0.27018   0.27169   0.27491
 Alpha virt. eigenvalues --    0.27918   0.28372   0.28621   0.29090   0.29223
 Alpha virt. eigenvalues --    0.29413   0.29943   0.30488   0.30936   0.31205
 Alpha virt. eigenvalues --    0.31507   0.31967   0.32373   0.32664   0.33377
 Alpha virt. eigenvalues --    0.33850   0.33915   0.34213   0.34633   0.34932
 Alpha virt. eigenvalues --    0.35385   0.35402   0.35815   0.36812   0.37184
 Alpha virt. eigenvalues --    0.37727   0.38040   0.38600   0.38804   0.39370
 Alpha virt. eigenvalues --    0.39790   0.40251   0.40383   0.40914   0.41017
 Alpha virt. eigenvalues --    0.41480   0.41954   0.42481   0.42772   0.43001
 Alpha virt. eigenvalues --    0.43294   0.43994   0.44338   0.44491   0.44575
 Alpha virt. eigenvalues --    0.45690   0.45840   0.46112   0.46332   0.47168
 Alpha virt. eigenvalues --    0.47834   0.48242   0.48644   0.48942   0.49246
 Alpha virt. eigenvalues --    0.49795   0.50094   0.50471   0.50844   0.50943
 Alpha virt. eigenvalues --    0.51174   0.51611   0.51672   0.51868   0.52913
 Alpha virt. eigenvalues --    0.53395   0.53549   0.53992   0.54086   0.54335
 Alpha virt. eigenvalues --    0.54872   0.55390   0.55844   0.55917   0.56600
 Alpha virt. eigenvalues --    0.57406   0.57709   0.58079   0.58613   0.58888
 Alpha virt. eigenvalues --    0.59150   0.59593   0.60077   0.60266   0.61078
 Alpha virt. eigenvalues --    0.61344   0.61477   0.62138   0.62396   0.62821
 Alpha virt. eigenvalues --    0.63061   0.64234   0.64454   0.64793   0.64993
 Alpha virt. eigenvalues --    0.65501   0.65984   0.66490   0.67009   0.67071
 Alpha virt. eigenvalues --    0.67657   0.68574   0.68838   0.69177   0.69936
 Alpha virt. eigenvalues --    0.70353   0.70915   0.71174   0.71661   0.72008
 Alpha virt. eigenvalues --    0.72282   0.72684   0.73163   0.73532   0.74259
 Alpha virt. eigenvalues --    0.74891   0.75217   0.75783   0.75922   0.76462
 Alpha virt. eigenvalues --    0.76624   0.77351   0.78510   0.78757   0.79297
 Alpha virt. eigenvalues --    0.79472   0.80057   0.81024   0.81475   0.81896
 Alpha virt. eigenvalues --    0.82172   0.83084   0.83844   0.84856   0.85104
 Alpha virt. eigenvalues --    0.85531   0.86526   0.86991   0.88125   0.88426
 Alpha virt. eigenvalues --    0.88846   0.89582   0.90148   0.90430   0.91459
 Alpha virt. eigenvalues --    0.91865   0.92231   0.92622   0.92862   0.94428
 Alpha virt. eigenvalues --    0.95323   0.96011   0.96411   0.97535   0.98262
 Alpha virt. eigenvalues --    0.98469   0.99729   1.00301   1.01047   1.01590
 Alpha virt. eigenvalues --    1.02562   1.02630   1.03455   1.03873   1.04807
 Alpha virt. eigenvalues --    1.05849   1.06251   1.06925   1.07476   1.08614
 Alpha virt. eigenvalues --    1.10640   1.10863   1.11473   1.11985   1.13052
 Alpha virt. eigenvalues --    1.13629   1.14028   1.15463   1.15961   1.16099
 Alpha virt. eigenvalues --    1.18007   1.18410   1.19288   1.19763   1.21128
 Alpha virt. eigenvalues --    1.21299   1.22388   1.22910   1.23576   1.24423
 Alpha virt. eigenvalues --    1.25124   1.26320   1.27134   1.28633   1.29512
 Alpha virt. eigenvalues --    1.30743   1.31696   1.32482   1.33381   1.34034
 Alpha virt. eigenvalues --    1.34541   1.35057   1.36807   1.37288   1.38035
 Alpha virt. eigenvalues --    1.39111   1.39825   1.40948   1.41768   1.42198
 Alpha virt. eigenvalues --    1.43292   1.44089   1.45616   1.46488   1.47502
 Alpha virt. eigenvalues --    1.47947   1.48967   1.50181   1.51150   1.51337
 Alpha virt. eigenvalues --    1.51802   1.53246   1.54367   1.55496   1.56404
 Alpha virt. eigenvalues --    1.57408   1.58393   1.59996   1.60514   1.61256
 Alpha virt. eigenvalues --    1.62014   1.62248   1.63941   1.64417   1.65199
 Alpha virt. eigenvalues --    1.66135   1.66416   1.67805   1.68243   1.69447
 Alpha virt. eigenvalues --    1.70096   1.70479   1.70752   1.71015   1.71680
 Alpha virt. eigenvalues --    1.72651   1.73183   1.73996   1.74374   1.75049
 Alpha virt. eigenvalues --    1.75740   1.77020   1.77499   1.79445   1.79752
 Alpha virt. eigenvalues --    1.80353   1.80600   1.82249   1.82782   1.83239
 Alpha virt. eigenvalues --    1.84286   1.85219   1.85479   1.85903   1.86562
 Alpha virt. eigenvalues --    1.86974   1.88106   1.88485   1.89255   1.89755
 Alpha virt. eigenvalues --    1.90899   1.91930   1.92129   1.93106   1.93796
 Alpha virt. eigenvalues --    1.95585   1.97089   1.97848   1.98270   1.99202
 Alpha virt. eigenvalues --    1.99483   2.00094   2.01995   2.02240   2.03550
 Alpha virt. eigenvalues --    2.04055   2.04807   2.06309   2.07434   2.09193
 Alpha virt. eigenvalues --    2.09938   2.10815   2.11746   2.12404   2.12698
 Alpha virt. eigenvalues --    2.13511   2.14210   2.15960   2.16683   2.17328
 Alpha virt. eigenvalues --    2.17886   2.19067   2.19488   2.20601   2.22354
 Alpha virt. eigenvalues --    2.22464   2.23411   2.24376   2.24986   2.26422
 Alpha virt. eigenvalues --    2.27708   2.28217   2.29006   2.30002   2.30483
 Alpha virt. eigenvalues --    2.31487   2.32471   2.33240   2.35474   2.35873
 Alpha virt. eigenvalues --    2.37672   2.38513   2.40830   2.41721   2.42530
 Alpha virt. eigenvalues --    2.43217   2.44216   2.46368   2.46889   2.47619
 Alpha virt. eigenvalues --    2.49588   2.50339   2.52062   2.52514   2.53457
 Alpha virt. eigenvalues --    2.54736   2.55164   2.56093   2.57726   2.58031
 Alpha virt. eigenvalues --    2.60558   2.61361   2.62584   2.64097   2.64946
 Alpha virt. eigenvalues --    2.65790   2.67029   2.67761   2.68638   2.69871
 Alpha virt. eigenvalues --    2.70532   2.72427   2.72677   2.73973   2.75804
 Alpha virt. eigenvalues --    2.76975   2.77622   2.80323   2.82201   2.83248
 Alpha virt. eigenvalues --    2.85354   2.86255   2.86325   2.86924   2.88468
 Alpha virt. eigenvalues --    2.90415   2.91203   2.92374   2.94583   2.94737
 Alpha virt. eigenvalues --    2.97757   2.99410   3.01346   3.04843   3.08196
 Alpha virt. eigenvalues --    3.11247   3.16517   3.18291   3.23560   3.28128
 Alpha virt. eigenvalues --    3.30859   3.32043   3.33895   3.34987   3.36760
 Alpha virt. eigenvalues --    3.37632   3.40030   3.40617   3.43575   3.44256
 Alpha virt. eigenvalues --    3.47587   3.52424   3.56379   3.65093   3.67882
 Alpha virt. eigenvalues --    3.69148   3.82758   3.89036   3.90064   3.93372
 Alpha virt. eigenvalues --    4.00450   4.09020   4.09349   4.18092   4.35270
 Alpha virt. eigenvalues --    5.04726
          Condensed to atoms (all electrons):
               1          2          3          4          5          6
     1  N   16.324987  -5.597433  -0.866289  -0.559445  -0.181761   2.009459
     2  C   -5.597433  27.168153  -2.790232   0.811608  -0.887698  -8.255628
     3  C   -0.866289  -2.790232  10.122930  -1.471427   1.031054   0.329022
     4  C   -0.559445   0.811608  -1.471427   6.720543  -0.243803   0.092403
     5  C   -0.181761  -0.887698   1.031054  -0.243803   5.989741  -0.129748
     6  C    2.009459  -8.255628   0.329022   0.092403  -0.129748  23.123833
     7  C   -0.200844  -1.782903  -1.024237   0.074924  -0.350737  -4.659046
     8  N   -0.034436   0.585333   0.005412  -0.004682   0.052221  -0.020674
     9  C    0.028576  -0.563503  -0.055730   0.001927  -0.045429  -1.255178
    10  C    0.048440   0.114279  -0.111945  -0.026162   0.026782   0.891076
    11  C   -0.682489  -1.530304   0.093253  -0.077863   0.024420  -9.043795
    12  O   -0.002069  -0.002710  -0.003494  -0.000252  -0.000393  -0.056363
    13  O   -0.230560   0.234212   0.064609   0.024212   0.003468  -0.060477
    14  H   -1.130383   0.645645   0.161804   0.074307  -0.283225  -0.233837
    15  H   -0.169423   0.060533   0.288662  -0.343884   0.197073  -0.074224
    16  H    0.186176   0.058350   0.163602  -0.398990  -0.077475   0.018187
    17  H    0.355810   0.280371  -1.380184   0.148170  -0.264571   0.364640
    18  H   -0.126711  -0.000233   0.053632   0.361738   0.089220  -0.142486
    19  H   -0.301872   0.012230  -0.034879   0.030671  -0.199410   0.192851
    20  H   -0.154107  -2.951988   0.826558  -0.057191   0.023444   1.157460
    21  H   -0.130359  -0.190224  -0.306282   0.020878   0.016579  -0.359008
    22  H    0.005057  -0.047203   0.001950   0.000205  -0.001222  -0.149226
    23  H   -0.003637   0.059218   0.007072   0.001106  -0.000774   0.033126
    24  H    0.030807  -0.025297  -0.105617  -0.009867   0.003825   1.178796
    25  C    1.185095  -1.058564  -0.321228   0.028289  -0.109028   0.640341
    26  H   -0.010234   0.055398  -0.004612  -0.001007  -0.004248  -0.041746
    27  H   -0.433820   0.696158   0.154943  -0.054490  -0.162805  -0.300246
    28  H   -0.006037  -0.030627  -0.008460   0.005549   0.007021   0.008912
    29  H   -0.010145   0.022531   0.000344   0.003331  -0.003447  -0.026793
    30  H    0.002276  -0.009206   0.000489   0.000110   0.000323   0.017232
    31  O   -0.032815  -0.034833   0.044049  -0.032702   0.024076   0.019730
    32  H    0.002269   0.002136  -0.000936  -0.000466   0.000138  -0.002003
    33  H    0.033111  -0.044339   0.010946  -0.011682   0.011095   0.040016
    34  H   -0.411334   0.154726  -0.109641   0.078977  -0.006777   0.010980
    35  H    0.166672  -0.016034   0.126001  -0.053002  -0.031972   0.043114
    36  H   -0.644031  -0.084720   0.014407   0.014229   0.119585   0.037394
    37  O    0.001260  -0.000657   0.003290  -0.000301   0.002726   0.004261
    38  H    0.001463   0.001314  -0.002463   0.001076  -0.000330  -0.000224
    39  H   -0.001145  -0.000397   0.001884  -0.000810   0.000090  -0.000468
               7          8          9         10         11         12
     1  N   -0.200844  -0.034436   0.028576   0.048440  -0.682489  -0.002069
     2  C   -1.782903   0.585333  -0.563503   0.114279  -1.530304  -0.002710
     3  C   -1.024237   0.005412  -0.055730  -0.111945   0.093253  -0.003494
     4  C    0.074924  -0.004682   0.001927  -0.026162  -0.077863  -0.000252
     5  C   -0.350737   0.052221  -0.045429   0.026782   0.024420  -0.000393
     6  C   -4.659046  -0.020674  -1.255178   0.891076  -9.043795  -0.056363
     7  C   17.727650  -0.793914  -1.211227  -0.345892  -1.195421  -0.124733
     8  N   -0.793914   7.985630   0.164730   0.246342  -0.441995  -0.008908
     9  C   -1.211227   0.164730  10.282352  -2.678567   1.425612   0.059031
    10  C   -0.345892   0.246342  -2.678567  11.661179  -4.083196  -0.020534
    11  C   -1.195421  -0.441995   1.425612  -4.083196  22.315386   0.030538
    12  O   -0.124733  -0.008908   0.059031  -0.020534   0.030538   8.001781
    13  O   -0.173993   0.016018   0.000788  -0.008279  -0.020583   0.003570
    14  H   -0.016499   0.004226  -0.000780  -0.000424   0.022674  -0.000042
    15  H    0.012895  -0.000658   0.001963  -0.001558   0.005632  -0.000031
    16  H   -0.008711  -0.001340  -0.005839   0.002392  -0.001900   0.000049
    17  H    0.366700  -0.013767  -0.000539  -0.001054  -0.005379   0.000481
    18  H   -0.355139   0.020594   0.024774  -0.051014   0.001936  -0.004061
    19  H    0.018121  -0.001330  -0.000703  -0.000508   0.024448   0.000037
    20  H   -0.213816  -0.008172   0.044081  -0.017305  -0.037544  -0.000650
    21  H   -1.135673  -0.014335  -0.243634   0.258994  -0.214812   0.086379
    22  H    0.211951  -0.180868  -0.467027   0.118448   0.219712   0.003570
    23  H   -0.079478  -0.055484   0.414301  -1.199579   0.533561  -0.000300
    24  H    0.060114  -0.023424  -0.199386   0.615980  -2.410144   0.000616
    25  C    0.025570  -0.010548  -0.068083   0.134480  -0.267124  -0.000343
    26  H   -0.085924   0.138579   0.132347  -0.093575   0.023736   0.249890
    27  H    0.038401  -0.042158   0.034302  -0.042256  -0.027408  -0.003430
    28  H    0.014385   0.004448   0.000566   0.000107   0.007377   0.001735
    29  H    0.070114  -0.018544  -0.001688  -0.002502   0.000094   0.031435
    30  H    0.016974  -0.011165  -0.016969   0.012559  -0.007918   0.347236
    31  O   -0.135596   0.040626   0.006582   0.003524   0.002525  -0.107746
    32  H   -0.005639  -0.002887  -0.000173  -0.001803   0.003849   0.006578
    33  H   -0.003323   0.001387  -0.004471   0.007345  -0.009016  -0.016010
    34  H    0.001210  -0.002516  -0.007563   0.023535  -0.049626  -0.000227
    35  H    0.040426  -0.000575   0.003246  -0.012293   0.038622   0.000275
    36  H   -0.001082   0.001804   0.001562  -0.017142   0.084352  -0.000011
    37  O    0.005704  -0.003646  -0.001233   0.000008   0.000626   0.000569
    38  H   -0.002976   0.000110  -0.000164   0.000057  -0.000053  -0.000411
    39  H    0.003144  -0.000199   0.000029   0.000019   0.000053  -0.000088
              13         14         15         16         17         18
     1  N   -0.230560  -1.130383  -0.169423   0.186176   0.355810  -0.126711
     2  C    0.234212   0.645645   0.060533   0.058350   0.280371  -0.000233
     3  C    0.064609   0.161804   0.288662   0.163602  -1.380184   0.053632
     4  C    0.024212   0.074307  -0.343884  -0.398990   0.148170   0.361738
     5  C    0.003468  -0.283225   0.197073  -0.077475  -0.264571   0.089220
     6  C   -0.060477  -0.233837  -0.074224   0.018187   0.364640  -0.142486
     7  C   -0.173993  -0.016499   0.012895  -0.008711   0.366700  -0.355139
     8  N    0.016018   0.004226  -0.000658  -0.001340  -0.013767   0.020594
     9  C    0.000788  -0.000780   0.001963  -0.005839  -0.000539   0.024774
    10  C   -0.008279  -0.000424  -0.001558   0.002392  -0.001054  -0.051014
    11  C   -0.020583   0.022674   0.005632  -0.001900  -0.005379   0.001936
    12  O    0.003570  -0.000042  -0.000031   0.000049   0.000481  -0.004061
    13  O    8.264997   0.029194  -0.006064   0.006862  -0.003414   0.024763
    14  H    0.029194   2.961864   0.133945  -0.341555  -0.041363   0.072465
    15  H   -0.006064   0.133945   2.141464  -0.645563  -0.342872   0.227797
    16  H    0.006862  -0.341555  -0.645563   2.383962   0.234435  -0.489309
    17  H   -0.003414  -0.041363  -0.342872   0.234435   2.759529  -0.875302
    18  H    0.024763   0.072465   0.227797  -0.489309  -0.875302   2.726533
    19  H   -0.009325  -0.587259  -0.245132   0.218434   0.069801  -0.068058
    20  H    0.005777   0.097266   0.070575  -0.087590  -0.388849   0.288579
    21  H    0.004047  -0.059621  -0.025572   0.098282   0.196988  -0.421092
    22  H   -0.000391  -0.000084   0.000044   0.000057   0.001027  -0.004370
    23  H   -0.000146   0.000036   0.000021  -0.000015  -0.002230   0.003559
    24  H   -0.002493  -0.003461   0.000511   0.001060   0.013796  -0.020776
    25  C   -0.034938  -0.180097  -0.023410   0.033260   0.083028  -0.088128
    26  H    0.006432   0.000997   0.000412  -0.002439  -0.002163   0.007835
    27  H    0.067113   0.229249   0.033579  -0.031724  -0.036896   0.083336
    28  H    0.367713  -0.010291  -0.001897   0.001047   0.001915  -0.009108
    29  H   -0.014196   0.002786   0.000637  -0.003581  -0.001821   0.006498
    30  H   -0.001458  -0.000148  -0.000032   0.000370   0.000136  -0.001034
    31  O   -0.051031   0.003213  -0.001638   0.000937   0.001716   0.004521
    32  H    0.001402  -0.000765  -0.000277   0.000203   0.000565  -0.002689
    33  H    0.026666  -0.006806  -0.000955   0.006602  -0.001190   0.003888
    34  H    0.047098  -0.012961  -0.001757   0.013793   0.001291  -0.012030
    35  H    0.005501   0.010319   0.002372  -0.011894  -0.004392   0.018206
    36  H   -0.017618   0.024015  -0.003758   0.003350   0.013033  -0.008866
    37  O    0.000840  -0.000232   0.000031  -0.002935  -0.000808   0.006489
    38  H   -0.000274  -0.000332  -0.000224   0.001857   0.000023  -0.002295
    39  H   -0.000378   0.000481   0.000327  -0.001574  -0.000199   0.001754
              19         20         21         22         23         24
     1  N   -0.301872  -0.154107  -0.130359   0.005057  -0.003637   0.030807
     2  C    0.012230  -2.951988  -0.190224  -0.047203   0.059218  -0.025297
     3  C   -0.034879   0.826558  -0.306282   0.001950   0.007072  -0.105617
     4  C    0.030671  -0.057191   0.020878   0.000205   0.001106  -0.009867
     5  C   -0.199410   0.023444   0.016579  -0.001222  -0.000774   0.003825
     6  C    0.192851   1.157460  -0.359008  -0.149226   0.033126   1.178796
     7  C    0.018121  -0.213816  -1.135673   0.211951  -0.079478   0.060114
     8  N   -0.001330  -0.008172  -0.014335  -0.180868  -0.055484  -0.023424
     9  C   -0.000703   0.044081  -0.243634  -0.467027   0.414301  -0.199386
    10  C   -0.000508  -0.017305   0.258994   0.118448  -1.199579   0.615980
    11  C    0.024448  -0.037544  -0.214812   0.219712   0.533561  -2.410144
    12  O    0.000037  -0.000650   0.086379   0.003570  -0.000300   0.000616
    13  O   -0.009325   0.005777   0.004047  -0.000391  -0.000146  -0.002493
    14  H   -0.587259   0.097266  -0.059621  -0.000084   0.000036  -0.003461
    15  H   -0.245132   0.070575  -0.025572   0.000044   0.000021   0.000511
    16  H    0.218434  -0.087590   0.098282   0.000057  -0.000015   0.001060
    17  H    0.069801  -0.388849   0.196988   0.001027  -0.002230   0.013796
    18  H   -0.068058   0.288579  -0.421092  -0.004370   0.003559  -0.020776
    19  H    2.459516  -0.114147   0.026090   0.000079  -0.000503   0.004346
    20  H   -0.114147   3.580448  -0.093054  -0.000643   0.005502  -0.152619
    21  H    0.026090  -0.093054   5.026017   0.052181  -0.025082   0.010156
    22  H    0.000079  -0.000643   0.052181   2.019142  -0.117314  -0.003571
    23  H   -0.000503   0.005502  -0.025082  -0.117314   2.184743  -0.149392
    24  H    0.004346  -0.152619   0.010156  -0.003571  -0.149392   3.018326
    25  C   -0.030622  -0.099531   0.138492   0.002603  -0.010728   0.073495
    26  H   -0.000308   0.001342  -0.166927  -0.068099   0.010479  -0.001628
    27  H   -0.023809   0.048528  -0.212211  -0.004318   0.002833   0.000151
    28  H    0.004362  -0.002672   0.036844   0.000379  -0.000091   0.000285
    29  H   -0.000676   0.001826  -0.069670   0.001315   0.000131  -0.000246
    30  H    0.000039  -0.000322   0.013469   0.004554  -0.000631   0.000052
    31  O    0.000739  -0.000562   0.014000   0.000703   0.000024  -0.000096
    32  H    0.000577  -0.000739   0.010736  -0.000011  -0.000057   0.000013
    33  H   -0.000636   0.000373  -0.026501  -0.000282   0.000104  -0.000373
    34  H    0.006651   0.009738   0.025732   0.000337  -0.001213   0.004872
    35  H    0.000632   0.012668  -0.019525  -0.002400  -0.000941  -0.016247
    36  H    0.054931   0.058131   0.016830   0.000310   0.000363   0.003947
    37  O    0.000246   0.000148  -0.023064  -0.000025   0.000003  -0.000001
    38  H    0.000038  -0.000099   0.004369  -0.000004   0.000001   0.000004
    39  H   -0.000082   0.000123  -0.001427   0.000008   0.000001  -0.000002
              25         26         27         28         29         30
     1  N    1.185095  -0.010234  -0.433820  -0.006037  -0.010145   0.002276
     2  C   -1.058564   0.055398   0.696158  -0.030627   0.022531  -0.009206
     3  C   -0.321228  -0.004612   0.154943  -0.008460   0.000344   0.000489
     4  C    0.028289  -0.001007  -0.054490   0.005549   0.003331   0.000110
     5  C   -0.109028  -0.004248  -0.162805   0.007021  -0.003447   0.000323
     6  C    0.640341  -0.041746  -0.300246   0.008912  -0.026793   0.017232
     7  C    0.025570  -0.085924   0.038401   0.014385   0.070114   0.016974
     8  N   -0.010548   0.138579  -0.042158   0.004448  -0.018544  -0.011165
     9  C   -0.068083   0.132347   0.034302   0.000566  -0.001688  -0.016969
    10  C    0.134480  -0.093575  -0.042256   0.000107  -0.002502   0.012559
    11  C   -0.267124   0.023736  -0.027408   0.007377   0.000094  -0.007918
    12  O   -0.000343   0.249890  -0.003430   0.001735   0.031435   0.347236
    13  O   -0.034938   0.006432   0.067113   0.367713  -0.014196  -0.001458
    14  H   -0.180097   0.000997   0.229249  -0.010291   0.002786  -0.000148
    15  H   -0.023410   0.000412   0.033579  -0.001897   0.000637  -0.000032
    16  H    0.033260  -0.002439  -0.031724   0.001047  -0.003581   0.000370
    17  H    0.083028  -0.002163  -0.036896   0.001915  -0.001821   0.000136
    18  H   -0.088128   0.007835   0.083336  -0.009108   0.006498  -0.001034
    19  H   -0.030622  -0.000308  -0.023809   0.004362  -0.000676   0.000039
    20  H   -0.099531   0.001342   0.048528  -0.002672   0.001826  -0.000322
    21  H    0.138492  -0.166927  -0.212211   0.036844  -0.069670   0.013469
    22  H    0.002603  -0.068099  -0.004318   0.000379   0.001315   0.004554
    23  H   -0.010728   0.010479   0.002833  -0.000091   0.000131  -0.000631
    24  H    0.073495  -0.001628   0.000151   0.000285  -0.000246   0.000052
    25  C    4.723096  -0.009751  -0.275148   0.012763  -0.004346   0.001292
    26  H   -0.009751   0.585984   0.018425  -0.001753   0.005496  -0.112211
    27  H   -0.275148   0.018425   0.854438  -0.168286   0.015952  -0.002385
    28  H    0.012763  -0.001753  -0.168286   0.613062  -0.001395  -0.000117
    29  H   -0.004346   0.005496   0.015952  -0.001395   0.404529  -0.014043
    30  H    0.001292  -0.112211  -0.002385  -0.000117  -0.014043   0.578869
    31  O    0.006007  -0.020820  -0.089003   0.015433   0.147198   0.004019
    32  H   -0.000366   0.001887   0.003096  -0.001081  -0.023190   0.000008
    33  H    0.012016   0.001013  -0.004348  -0.018405  -0.033827   0.001255
    34  H    0.191067  -0.001641   0.054815  -0.012324  -0.000648   0.000246
    35  H   -0.078314   0.001755   0.021686   0.013022   0.001154  -0.000188
    36  H    0.315400  -0.000343  -0.078034   0.004241  -0.000424   0.000038
    37  O   -0.000240  -0.000326   0.001560  -0.000089  -0.000187   0.000574
    38  H    0.000205  -0.000129   0.000502  -0.000253  -0.000126   0.000211
    39  H   -0.000269  -0.000056  -0.000890   0.000205   0.000620  -0.000156
              31         32         33         34         35         36
     1  N   -0.032815   0.002269   0.033111  -0.411334   0.166672  -0.644031
     2  C   -0.034833   0.002136  -0.044339   0.154726  -0.016034  -0.084720
     3  C    0.044049  -0.000936   0.010946  -0.109641   0.126001   0.014407
     4  C   -0.032702  -0.000466  -0.011682   0.078977  -0.053002   0.014229
     5  C    0.024076   0.000138   0.011095  -0.006777  -0.031972   0.119585
     6  C    0.019730  -0.002003   0.040016   0.010980   0.043114   0.037394
     7  C   -0.135596  -0.005639  -0.003323   0.001210   0.040426  -0.001082
     8  N    0.040626  -0.002887   0.001387  -0.002516  -0.000575   0.001804
     9  C    0.006582  -0.000173  -0.004471  -0.007563   0.003246   0.001562
    10  C    0.003524  -0.001803   0.007345   0.023535  -0.012293  -0.017142
    11  C    0.002525   0.003849  -0.009016  -0.049626   0.038622   0.084352
    12  O   -0.107746   0.006578  -0.016010  -0.000227   0.000275  -0.000011
    13  O   -0.051031   0.001402   0.026666   0.047098   0.005501  -0.017618
    14  H    0.003213  -0.000765  -0.006806  -0.012961   0.010319   0.024015
    15  H   -0.001638  -0.000277  -0.000955  -0.001757   0.002372  -0.003758
    16  H    0.000937   0.000203   0.006602   0.013793  -0.011894   0.003350
    17  H    0.001716   0.000565  -0.001190   0.001291  -0.004392   0.013033
    18  H    0.004521  -0.002689   0.003888  -0.012030   0.018206  -0.008866
    19  H    0.000739   0.000577  -0.000636   0.006651   0.000632   0.054931
    20  H   -0.000562  -0.000739   0.000373   0.009738   0.012668   0.058131
    21  H    0.014000   0.010736  -0.026501   0.025732  -0.019525   0.016830
    22  H    0.000703  -0.000011  -0.000282   0.000337  -0.002400   0.000310
    23  H    0.000024  -0.000057   0.000104  -0.001213  -0.000941   0.000363
    24  H   -0.000096   0.000013  -0.000373   0.004872  -0.016247   0.003947
    25  C    0.006007  -0.000366   0.012016   0.191067  -0.078314   0.315400
    26  H   -0.020820   0.001887   0.001013  -0.001641   0.001755  -0.000343
    27  H   -0.089003   0.003096  -0.004348   0.054815   0.021686  -0.078034
    28  H    0.015433  -0.001081  -0.018405  -0.012324   0.013022   0.004241
    29  H    0.147198  -0.023190  -0.033827  -0.000648   0.001154  -0.000424
    30  H    0.004019   0.000008   0.001255   0.000246  -0.000188   0.000038
    31  O    8.337964   0.297390   0.104463   0.000655   0.002386   0.000391
    32  H    0.297390   0.368331  -0.024720  -0.000440   0.000500  -0.000032
    33  H    0.104463  -0.024720   0.393564   0.004277  -0.008638   0.003375
    34  H    0.000655  -0.000440   0.004277   2.284904  -0.688239  -0.363603
    35  H    0.002386   0.000500  -0.008638  -0.688239   2.002734  -0.421154
    36  H    0.000391  -0.000032   0.003375  -0.363603  -0.421154   2.039051
    37  O   -0.088581  -0.011554   0.008350  -0.000045   0.000091  -0.000030
    38  H    0.001894  -0.004020   0.001396   0.000028  -0.000037   0.000010
    39  H    0.003400  -0.008462   0.001747  -0.000043   0.000033  -0.000018
              37         38         39
     1  N    0.001260   0.001463  -0.001145
     2  C   -0.000657   0.001314  -0.000397
     3  C    0.003290  -0.002463   0.001884
     4  C   -0.000301   0.001076  -0.000810
     5  C    0.002726  -0.000330   0.000090
     6  C    0.004261  -0.000224  -0.000468
     7  C    0.005704  -0.002976   0.003144
     8  N   -0.003646   0.000110  -0.000199
     9  C   -0.001233  -0.000164   0.000029
    10  C    0.000008   0.000057   0.000019
    11  C    0.000626  -0.000053   0.000053
    12  O    0.000569  -0.000411  -0.000088
    13  O    0.000840  -0.000274  -0.000378
    14  H   -0.000232  -0.000332   0.000481
    15  H    0.000031  -0.000224   0.000327
    16  H   -0.002935   0.001857  -0.001574
    17  H   -0.000808   0.000023  -0.000199
    18  H    0.006489  -0.002295   0.001754
    19  H    0.000246   0.000038  -0.000082
    20  H    0.000148  -0.000099   0.000123
    21  H   -0.023064   0.004369  -0.001427
    22  H   -0.000025  -0.000004   0.000008
    23  H    0.000003   0.000001   0.000001
    24  H   -0.000001   0.000004  -0.000002
    25  C   -0.000240   0.000205  -0.000269
    26  H   -0.000326  -0.000129  -0.000056
    27  H    0.001560   0.000502  -0.000890
    28  H   -0.000089  -0.000253   0.000205
    29  H   -0.000187  -0.000126   0.000620
    30  H    0.000574   0.000211  -0.000156
    31  O   -0.088581   0.001894   0.003400
    32  H   -0.011554  -0.004020  -0.008462
    33  H    0.008350   0.001396   0.001747
    34  H   -0.000045   0.000028  -0.000043
    35  H    0.000091  -0.000037   0.000033
    36  H   -0.000030   0.000010  -0.000018
    37  O    7.718341   0.359257   0.355915
    38  H    0.359257   0.543754  -0.070954
    39  H    0.355915  -0.070954   0.543870
 Mulliken charges:
               1
     1  N   -1.460079
     2  C    0.942536
     3  C    1.091742
     4  C    0.853774
     5  C    1.361972
     6  C    0.598337
     7  C    1.218522
     8  N   -0.571237
     9  C    0.201115
    10  C    0.550040
    11  C    1.248165
    12  O   -0.470968
    13  O   -0.569665
    14  H   -0.564323
    15  H   -0.289547
    16  H   -0.320834
    17  H   -0.526461
    18  H   -0.345418
    19  H   -0.505583
    20  H   -0.850969
    21  H   -1.318989
    22  H   -0.596574
    23  H   -0.608592
    24  H   -0.896514
    25  C    1.064310
    26  H    0.387931
    27  H    0.634600
    28  H    0.151514
    29  H    0.515504
    30  H    0.175652
    31  O   -0.492743
    32  H    0.392631
    33  H    0.542533
    34  H   -0.232304
    35  H   -0.145570
    36  H   -0.169883
    37  O   -0.336336
    38  H    0.167798
    39  H    0.173913
 Sum of Mulliken charges =   1.00000
 Mulliken charges with hydrogens summed into heavy atoms:
               1
     1  N   -1.460079
     2  C    0.091568
     3  C    0.219864
     4  C    0.243394
     5  C    0.292065
     6  C    0.598337
     7  C   -0.100467
     8  N   -0.571237
     9  C   -0.395459
    10  C   -0.058551
    11  C    0.351651
    12  O    0.092615
    13  O    0.216450
    25  C    0.516552
    31  O    0.957924
    37  O    0.005375
 Electronic spatial extent (au):  <R**2>=           4635.2264
 Charge=              1.0000 electrons
 Dipole moment (field-independent basis, Debye):
    X=             -3.7928    Y=             -0.4758    Z=              0.4218  Tot=              3.8457
[...]
 808,-0.00030061,0.00014732,-0.00066606,0.00167559,-0.00106196,0.000450
 13,-0.00010080,0.00064596,-0.00014184,0.00023004,0.00033005,-0.0000570
 0,-0.00006626,-0.00004875,0.00011504,-0.00000104,-0.00009137,-0.000058
 89,0.00013813,0.00007420,0.00010946,-0.00011421,0.00039702,0.00001511,
 0.00000512,0.00003169,-0.00043668,0.00032629,0.00045522,0.00013470,0.0
 0014403,0.00011298,-0.00007396,0.00002256,-0.00014484,-0.00004470,0.00
 001912,-0.00007555,0.00001760,0.00002310,-0.00003406,-0.00001636,0.000
 03361,-0.00001794,-0.00005340,0.00021644,0.00019638,0.00007920,-0.0000
 5778,-0.00004235,-0.00000409,-0.00000995,-0.00002828,0.00000372,0.0000
 0565,-0.00000055,-0.00000723,0.00001028,-0.00001296,0.00001990,0.00000
 454,-0.00011603,0.01719154,-0.30482379,-0.06300666,0.00000473,0.000002
 75,-0.00001954,0.00066341,-0.00037531,-0.00054640,-0.00007800,-0.00023
 734,-0.00008302,-0.00002382,-0.00002817,-0.00001588,-0.00000858,0.0000
 1026,-0.00001450,-0.00000088,0.00006026,0.00002726,-0.00002750,-0.0000
 2816,-0.00003930,-0.00000671,-0.00006679,-0.00003148,0.00225360,-0.013
 82893,-0.00457101,-0.01701100,0.32675322,-0.00078254,-0.03070133,-0.00
 942762,0.00038183,-0.00149372,0.00098264,-0.00014356,-0.00020188,0.000
 27053,-0.00011639,-0.00163452,-0.00033379,-0.00257033,0.00183622,-0.00
 428253,-0.00013893,0.00018734,-0.00081967,-0.00045173,0.00016841,-0.00
 003023,0.00021016,-0.00005898,-0.00003441,-0.00008620,-0.00001321,0.00
 000191,0.00015133,0.00004183,-0.00001062,0.00019569,0.00044706,-0.0001
 2228,0.00025146,0.00007677,-0.00010064,-0.00051941,0.00006199,0.000076
 20,-0.00026006,-0.00027870,0.00014477,-0.00024602,0.00003709,-0.000391
 50,-0.00005846,-0.00000731,-0.00018033,0.00002217,0.00003629,0.0000433
 9,-0.00001387,0.00006581,-0.00003108,0.00006502,0.00025417,-0.00003455
 ,0.00015388,0.00008922,-0.00015137,0.00006251,-0.00002955,0.00000976,0
 .00000762,-0.00001310,-0.00000149,-0.00000282,-0.00000796,0.00000725,0
 .00002190,-0.00001397,-0.00002529,0.00381896,-0.05522995,-0.06153142,-
 0.00034853,0.00003045,0.00009590,0.00077577,-0.00013662,-0.00021625,-0
 .00002513,0.00010032,0.00001568,-0.00008131,-0.00017559,0.00005561,-0.
 00001004,0.00000614,0.00002189,-0.00001401,0.00017149,-0.00006364,-0.0
 0001816,-0.00001702,-0.00000679,0.00010261,-0.00014400,0.00008426,-0.0
 0235660,0.02322256,0.00742584,0.00116620,0.06922700,0.06978659,-0.0267
 2371,0.00226121,-0.00856906,0.00106958,-0.00123961,0.00229524,0.000546
 29,-0.00017897,0.00013892,0.00056500,-0.00009547,0.00005438,0.00070070
 ,0.00239806,0.00117120,0.00007292,-0.00004612,-0.00008455,-0.00020384,
 -0.00012891,0.00000049,0.00009756,0.00004505,-0.00003422,0.00003153,0.
 00002181,-0.00000844,0.00003524,0.00008142,0.00003521,-0.00026302,0.00
 004960,0.00002984,0.00002994,0.00012950,-0.00003053,-0.00207022,0.0001
 8288,0.00116321,-0.00004066,-0.00011916,0.00007721,-0.00000717,-0.0000
 1133,-0.00015296,0.00013875,-0.00001593,0.00023328,-0.00002652,-0.0000
 4891,-0.00011791,0.00013125,0.00009181,0.00018175,0.00028891,-0.001584
 36,-0.00065764,0.00066693,0.00071180,-0.00162467,0.00012907,-0.0000355
 2,0.00004614,0.00001267,0.00000677,0.00000051,-0.00000252,0.00001548,-
 0.00000667,0.00005871,0.00002944,-0.00008568,-0.27180725,0.05940560,0.
 04665124,-0.00002798,-0.00001747,0.00001266,0.00338849,-0.00041410,-0.
 00217032,-0.00012753,0.00013317,-0.00005639,-0.00005961,-0.00023762,0.
 00003241,0.00001181,-0.00001699,-0.00000669,-0.00031056,0.00034064,-0.
 00015039,0.00011230,0.00004666,0.00010289,0.00052097,-0.00048096,0.000
 19446,-0.00895562,0.00362277,0.00181775,-0.00026707,-0.00054900,0.0008
 5507,0.30232431,-0.00689639,0.00146631,0.00049172,0.00109612,-0.000030
 40,-0.00018584,-0.00008006,0.00004105,0.00016526,0.00011961,-0.0000782
 4,-0.00012812,-0.00322778,0.00239650,0.00068330,-0.00010418,-0.0001160
 1,-0.00003066,0.00010617,-0.00011015,0.00002799,-0.00009599,0.00022362
 ,0.00003319,-0.00007245,-0.00000280,-0.00000458,-0.00001994,-0.0000824
 7,-0.00005301,0.00026579,0.00008693,-0.00009475,-0.00002448,-0.0000292
 7,0.00003673,0.00011659,0.00003002,0.00012994,0.00012882,-0.00009485,-
 0.00000288,0.00004232,-0.00000377,-0.00003172,0.00007506,-0.00007697,0
 .00003748,0.00000757,-0.00000805,0.00002909,-0.00005573,-0.00009220,-0
 .00000423,0.00087501,0.00021214,0.00012776,0.00005771,-0.00005125,0.00
 029612,-0.00003417,0.00000997,-0.00002561,-0.00001221,0.00000515,0.000
 00965,0.00000562,-0.00001260,0.00000583,-0.00009369,-0.00003690,0.0001
 4054,0.06072205,-0.06598083,-0.01252316,0.00005044,0.00000798,-0.00003
 550,-0.00030782,-0.00010349,-0.00021537,0.00005547,-0.00003837,0.00001
 475,-0.00000081,0.00003296,-0.00001985,-0.00000760,0.00000962,-0.00000
 856,0.00003540,-0.00002848,0.00003227,-0.00001876,-0.00000864,-0.00002
 048,-0.00006218,0.00002977,-0.00004129,-0.01723431,0.00457628,0.003179
 67,0.02891826,-0.00540608,-0.00590616,-0.06433633,0.06326010,-0.034458
 15,0.00516418,-0.00385464,-0.00474757,-0.00081546,0.00362189,0.0003664
 8,-0.00016033,0.00006408,0.00029896,0.00006018,0.00013695,-0.00164221,
 0.00340721,0.00129365,0.00044893,0.00002374,-0.00023843,-0.00016078,-0
 .00007361,0.00002147,0.00008759,-0.00000997,0.00001615,0.00001229,0.00
 004688,-0.00002343,0.00000872,0.00001978,-0.00000008,0.00000519,0.0000
 3812,0.00005941,0.00004113,0.00000033,0.00001871,-0.00113767,0.0002651
 5,0.00111686,0.00023358,-0.00031667,-0.00020946,0.00006647,0.00001159,
 -0.00004108,0.00008801,0.00004470,0.00005049,0.00007139,-0.00005800,-0
 .00006393,0.00012789,0.00000956,0.00008923,0.00135922,-0.00023570,0.00
 022076,0.00165485,-0.00039054,0.00016589,0.00006411,-0.00002697,-0.000
 01581,0.00000686,-0.00000039,0.00000049,0.00000310,-0.00000022,0.00000
 390,0.00000961,0.00001909,0.00000560,0.04909360,-0.01276167,-0.0587419
 6,-0.00003841,0.00000430,-0.00000627,0.00137657,-0.00051485,-0.0020566
 2,-0.00043222,-0.00009297,-0.00005740,-0.00002090,-0.00002425,-0.00001
 499,-0.00001125,0.00001235,-0.00000961,0.00000026,0.00004986,0.0000122
 5,-0.00002366,-0.00001300,-0.00003141,-0.00001388,-0.00004609,0.000011
 67,0.02199340,-0.00727772,-0.00330699,0.00655533,-0.00024500,-0.001229
 59,-0.04129345,0.01388178,0.06298194,-0.00047290,0.00010432,0.00013145
 ,0.00004900,0.00002334,-0.00006271,0.00012312,-0.00007113,0.00001963,0
 .00007321,-0.00000260,0.00000048,0.00004230,-0.00014794,-0.00003732,-0
 .00020282,-0.00013469,0.00001935,0.00037910,0.00020234,-0.00003853,-0.
 00034633,-0.00006400,0.00007415,-0.00003312,0.00016079,0.00001306,0.00
 000206,-0.00008838,-0.00000699,0.00002771,0.00010239,0.00000117,-0.000
 46378,-0.00221611,0.00048487,-0.00177231,0.00124092,-0.00022412,0.0000
 2815,-0.00002598,-0.00000803,-0.00005295,0.00001929,0.00001277,-0.0000
 0735,-0.00009468,-0.00001026,-0.00004975,0.00001707,-0.00000342,0.0000
 1209,0.00006944,-0.00006721,-0.00006184,0.00002018,0.00000474,-0.00007
 010,-0.00000446,0.00000755,0.00007169,-0.00008615,-0.00002915,0.000000
 56,-0.00002101,-0.00000347,-0.00001718,-0.00000131,0.00000073,-0.00001
 738,0.00000314,-0.00000043,0.00011310,0.00002045,0.00012563,0.00065115
 ,0.00003569,-0.00015531,0.00091292,0.00009516,-0.00040977,-0.00017600,
 -0.00011818,0.00012641,0.00051513,0.00463919,-0.00131429,-0.00034907,0
 .00007583,0.00007241,-0.01248458,-0.00778587,-0.01719794,-0.00226970,-
 0.00268083,0.00594341,0.00260946,-0.00329761,0.00024798,0.00002725,-0.
 00000672,-0.00000029,0.00001640,0.00000327,0.00000705,-0.00006068,0.00
 000914,0.00000871,0.44974288,-0.00012301,0.00017493,0.00012111,0.00001
 496,-0.00012041,-0.00001420,0.00001848,-0.00000012,-0.00000702,-0.0001
 7336,-0.00003613,0.00004745,-0.00000775,-0.00015651,-0.00010506,-0.000
 07152,-0.00013869,0.00001786,0.00012081,-0.00004794,-0.00000795,-0.000
 55893,0.00009297,0.00012339,0.00008791,0.00018791,0.00000014,-0.000078
 47,0.00000544,0.00000253,-0.00002726,0.00004562,0.00000065,-0.00122220
 ,-0.00070870,0.00004118,-0.00104958,0.00151668,0.00005906,-0.00001086,
 0.00001601,-0.00003236,0.00000537,0.00003447,0.00000723,0.00003826,0.0
 0002206,-0.00004324,0.00000039,0.00001666,-0.00000588,-0.00003321,-0.0
 0005687,-0.00002592,0.00000990,0.00003727,0.00003768,-0.00001234,0.000
 02407,0.00001790,0.00010535,-0.00014223,-0.00003593,0.00002050,-0.0000
 0680,-0.00000101,-0.00001680,0.00000736,0.00000400,-0.00002190,-0.0000
 0782,0.00000231,0.00002171,-0.00000892,-0.00000495,0.00124487,-0.00005
 051,-0.00032598,0.00024874,0.00003829,-0.00022189,-0.00023225,-0.00015
 597,-0.00006955,0.00124207,0.00138825,0.00067061,0.00004530,0.00011270
 ,0.00012592,-0.00805569,0.00425970,-0.00900753,-0.00100363,-0.01281629
 ,0.00450852,0.00210334,-0.00391375,-0.00040491,0.00001043,-0.00000377,
 -0.00000686,0.00001655,0.00002380,0.00002522,-0.00001160,0.00000058,0.
 00000903,0.19181578,0.34598403,-0.00063363,0.00015479,0.00043834,0.000
 04688,0.00001665,-0.00023894,-0.00009306,0.00009725,-0.00003324,-0.000
 03585,0.00000159,0.00004112,0.00005058,-0.00020342,-0.00017283,-0.0001
 1397,-0.00010115,0.00003192,0.00015877,0.00001801,0.00007993,-0.000477
 44,0.00001898,0.00026386,0.00002134,0.00016384,-0.00002342,-0.00004618
 ,-0.00003565,-0.00001029,-0.00001171,0.00005217,-0.00000600,-0.0012530
 4,-0.00295756,0.00131670,-0.00290949,0.00166591,0.00022112,0.00002501,
 -0.00003917,0.00002824,-0.00003439,0.00001990,0.00002240,0.00001318,0.
 00001698,-0.00012166,-0.00003238,0.00000015,0.00002607,-0.00000339,-0.
 00009137,-0.00006532,-0.00003479,0.00004367,0.00005490,-0.00004758,0.0
 0000312,0.00009035,0.00010286,-0.00003472,-0.00028047,0.00001070,-0.00
 001462,-0.00001959,-0.00001927,0.00000393,-0.00000545,-0.00001662,0.00
 000105,-0.00000857,0.00008582,0.00001015,0.00006075,0.00117396,-0.0000
 8899,-0.00051477,0.00142402,0.00009076,-0.00086594,0.00004719,-0.00007
 761,0.00009946,0.00044190,0.00624877,-0.00329581,-0.00009814,0.0001166
 2,0.00006705,-0.01940668,-0.01065312,-0.01114393,0.00902541,0.00432086
 ,-0.00782001,0.00360882,-0.00469317,0.00000001,0.00003528,-0.00003609,
 0.00002608,0.00003606,0.00002279,-0.00000003,-0.00005835,0.00001266,0.
 00001804,0.04942008,-0.29675108,0.43369746,-0.00003471,-0.00000944,0.0
 0009727,-0.00000228,0.00001654,-0.00006890,-0.00009991,0.00007635,-0.0
 0001362,-0.00000412,0.00001331,0.00001207,-0.00000453,-0.00000419,-0.0
 0002825,0.00005358,0.00004049,0.00000891,-0.00012274,-0.00005196,0.000
 05100,0.00004886,0.00001788,0.00006927,0.00000854,-0.00004794,-0.00001
 345,-0.00000858,0.00002613,-0.00000265,-0.00001661,-0.00003092,-0.0000
 0720,-0.00016845,-0.00020372,0.00041127,-0.00031532,0.00005652,0.00009
 303,-0.00000124,-0.00000669,0.00001827,0.00000571,-0.00000891,0.000003
 14,0.00000252,0.00002943,-0.00003159,0.00000929,-0.00000867,0.00000931
 ,0.00000489,-0.00004726,-0.00000580,0.00001311,0.00000423,0.00001178,0
 .00001549,-0.00000099,0.00003359,0.00000620,0.00005421,-0.00011576,0.0
 0000037,0.00000512,-0.00000476,0.00000334,0.00000080,-0.00000281,0.000
 00502,-0.00000138,-0.00000359,-0.00002122,-0.00000544,-0.00002205,0.00
 000134,-0.00006122,-0.00012738,0.00015404,0.00001735,-0.00013851,0.000
 04270,0.00000754,0.00000019,0.00004246,0.00071757,-0.00088157,0.000109
 52,-0.00002466,0.00000999,-0.00189076,-0.00226739,-0.00126991,0.002328
 06,0.00479063,0.00147226,0.00038020,-0.00013745,0.00004027,0.00000073,
 -0.00001107,0.00001094,0.00000471,0.00000524,-0.00000744,0.00000464,0.
 00000051,-0.00000076,-0.07084754,0.06307364,-0.12759019,0.06350753,-0.
 00008588,-0.00005749,0.00000301,-0.00000198,0.00008014,-0.00002449,0.0
 0001636,-0.00002439,0.00000915,0.00006062,0.00001088,-0.00002402,0.000
 00672,0.00001797,0.00003556,-0.00001968,0.00002507,-0.00000345,0.00003
 906,0.00011229,0.00000368,0.00020693,-0.00007343,-0.00000657,-0.000069
 12,-0.00006006,0.00000256,0.00004167,-0.00003363,-0.00000615,0.0000153
 5,0.00000970,-0.00000023,0.00045177,-0.00061064,0.00045303,-0.00024538
 ,0.00000803,-0.00003973,0.00000637,-0.00001185,0.00000632,-0.00000332,
 -0.00001196,0.00000144,-0.00002120,-0.00002469,0.00002743,-0.00000833,
 0.00000201,0.00000367,0.00002013,0.00004570,0.00000202,-0.00001477,-0.
 00000707,-0.00001227,-0.00001123,-0.00001617,-0.00000169,-0.00001458,0
 .00004563,-0.00002290,-0.00001438,-0.00000477,-0.00000561,0.00000413,-
 0.00000333,-0.00000364,0.00000687,0.00000190,-0.00000231,0.00001472,0.
 00000853,0.00002707,-0.00045617,0.00003331,0.00005408,0.00016222,0.000
 04374,-0.00005839,0.00001777,0.00001552,0.00002726,-0.00017042,0.00151
 774,-0.00086616,-0.00009953,-0.00001725,-0.00008808,-0.00318848,-0.003
 02235,-0.00236252,0.00469496,0.00478438,0.00224988,0.00011891,-0.00019
 025,0.00005116,0.00000110,-0.00000408,0.00000417,-0.00000052,-0.000007
 29,-0.00001263,-0.00000890,0.00000244,-0.00000194,0.03139782,-0.167725
 78,0.22211220,-0.04314323,0.17757268,0.00012393,-0.00003605,-0.0000977
 6,-0.00001727,0.00001088,0.00005818,0.00002599,-0.00003348,0.00000668,
 -0.00002256,-0.00000805,-0.00001389,-0.00000989,0.00003622,0.00003768,
 0.00003938,0.00002362,-0.00000708,-0.00005318,0.00000291,-0.00001222,0
 .00019501,-0.00000421,-0.00009459,-0.00001068,-0.00005577,0.00000668,0
 .00002188,0.00001057,0.00000115,0.00000625,-0.00001393,-0.00000275,0.0
 0056237,0.00024121,-0.00008505,0.00047996,-0.00017346,-0.00001788,-0.0
 0000750,0.00000924,-0.00001253,0.00001736,-0.00000567,-0.00000262,-0.0
 0000207,0.00000445,0.00003143,0.00002561,-0.00000158,-0.00000633,-0.00
 001127,0.00002021,0.00003965,0.00000959,-0.00000740,-0.00000952,0.0000
 1038,-0.00000432,-0.00002094,-0.00002816,0.00001305,0.00004329,-0.0000
 0434,0.00000576,0.00000874,0.00000764,-0.00000128,0.00000331,0.0000064
 8,-0.00000060,0.00000431,-0.00001524,0.00000077,-0.00001011,-0.0004658
 7,0.00002338,0.00020584,-0.00029806,-0.00000196,0.00014733,-0.00002417
 ,0.00000749,-0.00001384,-0.00060717,-0.00031054,-0.00039858,-0.0000625
 8,-0.00006854,-0.00001273,0.00010681,-0.00102624,0.00007686,-0.0004466
 0,0.00269495,-0.00219249,-0.00058957,0.00037535,-0.00013601,-0.0000072
 9,0.00000815,-0.00000738,-0.00000723,-0.00000486,0.00000013,0.00001253
 ,-0.00000336,-0.00000415,-0.08609630,0.23855989,-0.35354536,0.09510295
 ,-0.24297168,0.36299795,0.00011956,0.00000036,-0.00001305,-0.00001164,
 -0.00002335,0.00001489,-0.00001441,0.00000783,0.00000289,-0.00006717,-
 0.00001032,0.00001321,-0.00001478,0.00001058,-0.00001185,0.00004113,-0
 .00000624,-0.00000550,-0.00004958,-0.00000329,0.00000724,0.00004540,0.
 00001465,-0.00000099,0.00001089,-0.00002501,-0.00000135,-0.00000730,0.
 00001777,-0.00000021,-0.00001534,-0.00001145,0.00000227,0.00008719,0.0
 0020035,0.00003088,0.00031241,0.00009711,0.00005987,-0.00001548,0.0000
 0934,-0.00000586,0.00001711,0.00000231,-0.00000327,0.00001236,0.000021
 51,-0.00000154,0.00000949,0.00000455,-0.00000320,-0.00000278,-0.000024
 65,0.00000433,0.00002568,0.00000308,0.00000618,0.00001826,0.00000454,-
 0.00000010,0.00001973,-0.00000216,0.00001303,-0.00000028,0.00000440,-0
 .00000061,0.00000245,0.00000157,-0.00000076,-0.00000038,-0.00000406,-0
 .00000018,-0.00003310,-0.00000526,-0.00004114,-0.00007582,0.00000100,0
 .00001411,-0.00021969,-0.00000652,0.00008675,-0.00006072,-0.00002165,-
 0.00008288,-0.00009403,-0.00033412,-0.00007930,0.00003762,-0.00002283,
 -0.00002674,0.00040029,0.00003102,-0.00053654,-0.00241488,-0.00048761,
 0.00139359,-0.00011147,-0.00014986,-0.00000878,-0.00000586,-0.00000076
 ,-0.00000142,-0.00000081,0.00000483,0.00000232,0.00001637,-0.00000278,
 -0.00000134,-0.36564189,-0.24753403,0.08718828,0.00678515,0.01029363,-
 0.00796710,0.36089629,0.00002430,-0.00006803,-0.00001623,-0.00000436,0
 .00003581,-0.00001343,-0.00003928,0.00002337,-0.00000619,0.00005527,0.
 00001083,-0.00001714,0.00000931,0.00006148,0.00002192,0.00002948,0.000
 04457,-0.00000941,-0.00004508,0.00000360,0.00001934,0.00016554,-0.0000
 2612,-0.00003114,-0.00002667,-0.00004932,-0.00000069,0.00002223,-0.000
 00163,-0.00000271,0.00000522,-0.00001576,0.00000212,0.00036583,0.00018
 361,-0.00006191,0.00019287,-0.00042410,0.00005216,0.00000718,-0.000006
 27,0.00001993,0.00000740,-0.00001225,-0.00000348,-0.00001798,0.0000221
 5,0.00000450,0.00000469,-0.00001086,0.00000571,0.00000754,-0.00000738,
 0.00001228,-0.00000335,-0.00001289,-0.00000752,0.00000614,-0.00000661,
 0.00000272,-0.00002451,0.00003533,-0.00000380,-0.00000530,0.00000152,-
 0.00000075,0.00000460,-0.00000184,-0.00000116,0.00000861,0.00000268,-0
 .00000205,-0.00000498,0.00000408,-0.00000138,-0.00035246,0.00001409,0.
 00008332,-0.00004698,0.00000484,0.00003635,0.00009859,0.00009239,0.000
 03616,-0.00013782,-0.00033044,0.00010408,-0.00007270,-0.00003362,-0.00
 003458,0.00085809,0.00032607,0.00050417,-0.00236108,-0.00157813,-0.000
 78493,-0.00058354,0.00072522,-0.00040414,-0.00000200,0.00000088,0.0000
 0645,-0.00000505,-0.00000927,-0.00000919,0.00000361,0.00000039,-0.0000
 0248,-0.21320790,-0.16789158,0.08056493,-0.02288097,-0.01243116,0.0026
 8486,0.23794550,0.18132437,0.00003934,-0.00000510,-0.00006307,-0.00000
 020,-0.00001169,0.00003656,0.00001949,-0.00001519,0.00000037,0.0000169
 4,0.00000274,-0.00000821,-0.00001188,-0.00000148,0.00003171,-0.0000166
 6,-0.00001168,-0.00000241,0.00002341,0.00002305,-0.00001466,-0.0000184
 2,-0.00000643,-0.00001718,-0.00000289,0.00001116,0.00000714,0.00000042
 ,-0.00000735,-0.00000053,0.00000137,0.00000810,-0.00000227,0.00000559,
 -0.00013493,-0.00005396,0.00007011,0.00024136,-0.00017083,-0.00000056,
 0.00000574,-0.00000963,0.00000478,-0.00000236,-0.00000086,-0.00000634,
 -0.00000864,0.00002796,0.00000242,0.00000229,-0.00000355,-0.00000331,0
 .00002139,0.00000335,-0.00000154,-0.00000177,-0.00001010,-0.00000081,0
 .00000156,-0.00001180,0.00000849,-0.00001295,0.00001863,-0.00000005,-0
 .00000328,0.00000386,-0.00000067,0.00000013,0.00000228,-0.00000177,-0.
 00000046,0.00000323,0.00000138,-0.00000395,0.00001638,0.00001768,0.000
 00193,0.00001019,-0.00012278,0.00004132,0.00007192,-0.00016984,-0.0000
 3068,0.00000921,0.00012502,0.00028571,0.00010349,-0.00006265,-0.000013
 80,0.00003548,-0.00261885,-0.00074109,-0.00480058,0.00071413,-0.000398
 45,0.00851466,0.00021395,-0.00062304,0.00003808,-0.00000147,0.00000793
 ,-0.00000639,-0.00000385,-0.00000322,0.00000282,0.00000154,-0.00000059
 ,-0.00000358,0.04894392,0.06268963,-0.05841218,0.03288069,0.02144076,-
 0.00696542,-0.08004614,-0.08274669,0.06161991\\-0.00000480,0.00000112,
 0.00000179,0.00000122,0.00000069,-0.00000150,0.00000039,0.00000069,-0.
 00000184,0.00000019,0.00000018,-0.00000255,-0.00000174,-0.00000158,-0.
 00000203,-0.00000092,-0.00000095,0.00000037,0.00000157,-0.00000048,0.0
 0000133,0.00000128,-0.00000107,0.00000084,-0.00000109,0.00000065,0.000
 00253,0.00000167,-0.00000046,0.00000260,0.00000081,0.00000088,0.000001
 46,0.00000046,0.00000298,0.00000052,0.00000457,-0.00000344,-0.00000231
 ,-0.00000060,-0.00000086,-0.00000193,-0.00000053,0.00000103,-0.0000025
 2,-0.00000011,0.00000112,-0.00000188,0.00000014,0.00000140,-0.00000135
 ,0.00000046,0.00000119,-0.00000015,-0.00000073,0.00000014,-0.00000147,
 -0.00000071,-0.00000048,0.00000100,0.00000020,0.00000016,0.00000005,0.
 00000094,0.00000008,0.00000337,0.00000064,-0.00000027,0.00000248,0.000
 00036,-0.00000001,0.00000197,0.00000096,-0.00000056,0.00000165,-0.0000
 0091,0.00000029,0.00000189,0.00000098,-0.00000100,-0.00000021,0.000000
 16,-0.00000159,-0.00000082,0.00000001,-0.00000146,-0.00000060,0.000000
 46,-0.00000047,0.00000241,0.00000514,-0.00000424,0.00000621,-0.0000034
 5,-0.00000003,-0.00000699,-0.00000775,0.00000715,-0.00000178,-0.000000
 53,-0.00000210,-0.00000037,-0.00000076,-0.00000173,0.00000075,-0.00000
 092,-0.00000154,-0.00000029,0.00000124,-0.00000150,-0.00000406,0.00000
 134,0.00000486,0.,0.00000034,0.00000122,0.00000139\\\@



 IN THIS SHORT LIFE

 THAT ONLY LASTS AN HOUR

 HOW MUCH, HOW LITTLE, IS WITHIN OUR POWER....


 EMILY DICKINSON BOLTS OF MELODY NO. 521
 Job cpu time:       1 days  7 hours 35 minutes 33.1 seconds.
 Elapsed time:       0 days  1 hours  7 minutes 44.9 seconds.
 File lengths (MBytes):  RWF=   1240 Int=      0 D2E=      0 Chk=     32 Scr=      8
 Normal termination of Gaussian 16 at Wed Mar  1 00:03:17 2023.
