 Entering Gaussian System, Link 0=g16
 Input=NicWa4h3bLMidTS2_2.gjf
 Output=NicWa4h3bLMidTS2_2.log
 Initial command:
 /sw/contrib/gaussian/g16/A03/g16/l1.exe "/gscratch/scrubbed/gds001/Gau-157761.inp" -scrdir="/gscratch/scrubbed/gds001/"
 Entering Link 1 = /sw/contrib/gaussian/g16/A03/g16/l1.exe PID=    157762.
  
 Copyright (c) 1988,1990,1992,1993,1995,1998,2003,2009,2016,
            Gaussian, Inc.  All Rights Reserved.
  
 This is part of the Gaussian(R) 16 program.  It is based on
 the Gaussian(R) 09 system (copyright 2009, Gaussian, Inc.),
 the Gaussian(R) 03 system (copyright 2003, Gaussian, Inc.),
 the Gaussian(R) 98 system (copyright 1998, Gaussian, Inc.),
 the Gaussian(R) 94 system (copyright 1995, Gaussian, Inc.),
 the Gaussian 92(TM) system (copyright 1992, Gaussian, Inc.),
 the Gaussian 90(TM) system (copyright 1990, Gaussian, Inc.),
 the Gaussian 88(TM) system (copyright 1988, Gaussian, Inc.),
 the Gaussian 86(TM) system (copyright 1986, Carnegie Mellon
 University), and the Gaussian 82(TM) system (copyright 1983,
 Carnegie Mellon University). Gaussian is a federally registered
 trademark of Gaussian, Inc.
  
 This software contains proprietary and confidential information,
 including trade secrets, belonging to Gaussian, Inc.
  
 This software is provided under written license and may be
 used, copied, transmitted, or stored only in accord with that
 written license.
  
 The following legend is applicable only to US Government
 contracts under FAR:
  
                    RESTRICTED RIGHTS LEGEND
  
 Use, reproduction and disclosure by the US Government is
 subject to restrictions as set forth in subparagraphs (a)
 and (c) of the Commercial Computer Software - Restricted
 Rights clause in FAR 52.227-19.
  
 Gaussian, Inc.
 340 Quinnipiac St., Bldg. 40, Wallingford CT 06492
  
  
 ---------------------------------------------------------------
 Warning -- This program may not be used in any manner that
 competes with the business of Gaussian, Inc. or will provide
 assistance to any competitor of Gaussian, Inc.  The licensee
 of this program is prohibited from giving any competitor of
 Gaussian, Inc. access to this program.  By using this program,
 the user acknowledges that Gaussian, Inc. is engaged in the
 business of creating and licensing software in the field of
 computational chemistry and represents and warrants to the
 licensee that it is not a competitor of Gaussian, Inc. and that
 it will not use this program in any manner prohibited above.
 ---------------------------------------------------------------
  

 Cite this work as:
 Gaussian 16, Revision A.03,
 M. J. Frisch, G. W. Trucks, H. B. Schlegel, G. E. Scuseria, 
 M. A. Robb, J. R. Cheeseman, G. Scalmani, V. Barone, 
 G. A. Petersson, H. Nakatsuji, X. Li, M. Caricato, A. V. Marenich, 
 J. Bloino, B. G. Janesko, R. Gomperts, B. Mennucci, H. P. Hratchian, 
 J. V. Ortiz, A. F. Izmaylov, J. L. Sonnenberg, D. Williams-Young, 
 F. Ding, F. Lipparini, F. Egidi, J. Goings, B. Peng, A. Petrone, 
 T. Henderson, D. Ranasinghe, V. G. Zakrzewski, J. Gao, N. Rega, 
 G. Zheng, W. Liang, M. Hada, M. Ehara, K. Toyota, R. Fukuda, 
 J. Hasegawa, M. Ishida, T. Nakajima, Y. Honda, O. Kitao, H. Nakai, 
 T. Vreven, K. Throssell, J. A. Montgomery, Jr., J. E. Peralta, 
 F. Ogliaro, M. J. Bearpark, J. J. Heyd, E. N. Brothers, K. N. Kudin, 
 V. N. Staroverov, T. A. Keith, R. Kobayashi, J. Normand, 
 K. Raghavachari, A. P. Rendell, J. C. Burant, S. S. Iyengar, 
 J. Tomasi, M. Cossi, J. M. Millam, M. Klene, C. Adamo, R. Cammi, 
 J. W. Ochterski, R. L. Martin, K. Morokuma, O. Farkas, 
 J. B. Foresman, and D. J. Fox, Gaussian, Inc., Wallingford CT, 2016.
 
 ******************************************
 Gaussian 16:  ES64L-G16RevA.03 25-Dec-2016
                 2-Mar-2023 
 ******************************************
 %nprocshared=32
 Will use up to   32 processors via shared memory.
 %mem=41GB
 ----------------------------------------------------------------
 # wB97XD/aug-cc-pVDZ opt=(TS,CalcAll,MaxStep=5,NoEigenTest) freq
 ----------------------------------------------------------------
 1/5=1,8=5,10=4,11=1,18=20,26=3,38=1/1,3;
 2/9=110,12=2,17=6,18=5,40=1/2;
 3/5=16,7=10,11=2,25=1,30=1,71=2,74=-58,140=1/1,2,3;
 4//1;
 5/5=2,38=5/2;
 8/6=4,10=90,11=11/1;
 11/6=1,8=1,9=11,15=111,16=1/1,2,10;
 10/6=1/2;
 6/7=2,8=2,9=2,10=2,18=1,28=1/1;
 7/10=1,25=1/1,2,3,16;
 1/5=1,8=5,10=4,11=1,18=20,26=3/3(3);
 2/9=110/2;
 7/8=1,9=1,25=1,44=-1/16;
 99//99;
 2/9=110/2;
 3/5=16,7=10,11=2,25=1,30=1,71=2,74=-58,140=1/1,2,3;
 4/5=5,16=3,69=1/1;
 5/5=2,38=5/2;
 8/6=4,10=90,11=11/1;
 11/6=1,8=1,9=11,15=111,16=1/1,2,10;
 10/6=1/2;
 7/10=1,25=1/1,2,3,16;
 1/5=1,8=5,10=4,11=1,18=20,26=3/3(-8);
 2/9=110/2;
 6/7=2,8=2,9=2,10=2,18=1,19=2,28=1/1;
 7/8=1,9=1,25=1,44=-1/16;
 99//99;
 ----
 blah
 ----
 Symbolic Z-matrix:
 Charge =  1 Multiplicity = 1
 N                     1.61977  -1.30518   0.64298 
 C                     1.91699  -0.48234  -0.54498 
 C                     1.3424   -1.30679  -1.71615 
 C                     1.28798  -2.75974  -1.18666 
 C                     1.917    -2.67738   0.20553 
 C                     1.37706   0.92141  -0.41649 
 C                     0.01129   1.13949  -0.25499 
 N                    -0.5306    2.35084  -0.10974 
 C                     0.26538   3.42812  -0.13614 
 C                     1.63862   3.31762  -0.30415 
 C                     2.19825   2.04766  -0.43828 
 O                    -3.00156   1.9952    0.29499 
 O                    -0.97162  -1.50091   1.52115 
 H                     1.5044   -3.40056   0.91931 
 H                     1.82719  -3.46138  -1.83074 
 H                     0.25009  -3.10411  -1.11462 
 H                     1.97641  -1.20135  -2.60261 
 H                     0.34381  -0.9492   -1.99237 
 H                     3.01039  -2.83199   0.15575 
 H                     3.01545  -0.41349  -0.66084 
 H                    -0.68613   0.30269  -0.23734 
 H                    -0.21861   4.39701  -0.01926 
 H                     2.25855   4.21158  -0.32284 
 H                     3.27614   1.93485  -0.55959 
 C                     2.37591  -0.90274   1.82426 
 H                    -1.97987   2.27545   0.13508 
 H                    -0.0366   -1.3924    1.18189 
 H                    -0.91687  -1.86157   2.40861 
 H                    -3.1054    0.85592   0.55036 
 H                    -3.41578   2.56749   0.94793 
 O                    -3.18604  -0.3448    0.7855 
 H                    -3.64515  -0.8822    0.10029 
 H                    -2.34256  -0.79834   1.06292 
 H                     2.1452   -1.5795    2.6559 
 H                     2.09572   0.11551   2.12032 
 H                     3.46509  -0.93481   1.64347 
 O                    -4.41932  -1.83521  -1.07487 
 H                    -4.81248  -1.47471  -1.87471 
 H                    -4.99004  -2.56073  -0.80542 
 
 Add virtual bond connecting atoms H29        and O12        Dist= 2.22D+00.
 Add virtual bond connecting atoms O31        and H29        Dist= 2.32D+00.
 Add virtual bond connecting atoms H26        and N8         Dist= 2.78D+00.
 Add virtual bond connecting atoms N1         and H27        Dist= 3.30D+00.
 Add virtual bond connecting atoms H33        and O13        Dist= 3.04D+00.
 Add virtual bond connecting atoms O37        and H32        Dist= 3.21D+00.

 GradGradGradGradGradGradGradGradGradGradGradGradGradGradGradGradGradGrad
 Berny optimization.
 Initialization pass.
                           ----------------------------
                           !    Initial Parameters    !
                           ! (Angstroms and Degrees)  !
 --------------------------                            --------------------------
 ! Name  Definition              Value          Derivative Info.                !
 --------------------------------------------------------------------------------
 ! R1    R(1,2)                  1.4753         calculate D2E/DX2 analytically  !
 ! R2    R(1,5)                  1.4706         calculate D2E/DX2 analytically  !
 ! R3    R(1,25)                 1.4592         calculate D2E/DX2 analytically  !
 ! R4    R(1,27)                 1.744          calculate D2E/DX2 analytically  !
 ! R5    R(2,3)                  1.5432         calculate D2E/DX2 analytically  !
 ! R6    R(2,6)                  1.5095         calculate D2E/DX2 analytically  !
 ! R7    R(2,20)                 1.1067         calculate D2E/DX2 analytically  !
 ! R8    R(3,4)                  1.5474         calculate D2E/DX2 analytically  !
 ! R9    R(3,17)                 1.0949         calculate D2E/DX2 analytically  !
 ! R10   R(3,18)                 1.0961         calculate D2E/DX2 analytically  !
 ! R11   R(4,5)                  1.5299         calculate D2E/DX2 analytically  !
 ! R12   R(4,15)                 1.0945         calculate D2E/DX2 analytically  !
 ! R13   R(4,16)                 1.0959         calculate D2E/DX2 analytically  !
 ! R14   R(5,14)                 1.0967         calculate D2E/DX2 analytically  !
 ! R15   R(5,19)                 1.1054         calculate D2E/DX2 analytically  !
 ! R16   R(6,7)                  1.3925         calculate D2E/DX2 analytically  !
 ! R17   R(6,11)                 1.394          calculate D2E/DX2 analytically  !
 ! R18   R(7,8)                  1.335          calculate D2E/DX2 analytically  !
 ! R19   R(7,21)                 1.0895         calculate D2E/DX2 analytically  !
 ! R20   R(8,9)                  1.3397         calculate D2E/DX2 analytically  !
 ! R21   R(8,26)                 1.4717         calculate D2E/DX2 analytically  !
 ! R22   R(9,10)                 1.3879         calculate D2E/DX2 analytically  !
 ! R23   R(9,22)                 1.0893         calculate D2E/DX2 analytically  !
 ! R24   R(10,11)                1.3943         calculate D2E/DX2 analytically  !
 ! R25   R(10,23)                1.088          calculate D2E/DX2 analytically  !
 ! R26   R(11,24)                1.0905         calculate D2E/DX2 analytically  !
 ! R27   R(12,26)                1.0714         calculate D2E/DX2 analytically  !
 ! R28   R(12,29)                1.1722         calculate D2E/DX2 analytically  !
 ! R29   R(12,30)                0.962          calculate D2E/DX2 analytically  !
 ! R30   R(13,27)                1.0006         calculate D2E/DX2 analytically  !
 ! R31   R(13,28)                0.9595         calculate D2E/DX2 analytically  !
 ! R32   R(13,33)                1.6072         calculate D2E/DX2 analytically  !
 ! R33   R(25,34)                1.0967         calculate D2E/DX2 analytically  !
 ! R34   R(25,35)                1.0968         calculate D2E/DX2 analytically  !
 ! R35   R(25,36)                1.1046         calculate D2E/DX2 analytically  !
 ! R36   R(29,31)                1.2262         calculate D2E/DX2 analytically  !
 ! R37   R(31,32)                0.9844         calculate D2E/DX2 analytically  !
 ! R38   R(31,33)                0.9971         calculate D2E/DX2 analytically  !
 ! R39   R(32,37)                1.6996         calculate D2E/DX2 analytically  !
 ! R40   R(37,38)                0.9614         calculate D2E/DX2 analytically  !
 ! R41   R(37,39)                0.9616         calculate D2E/DX2 analytically  !
 ! A1    A(2,1,5)              103.8963         calculate D2E/DX2 analytically  !
 ! A2    A(2,1,25)             113.1818         calculate D2E/DX2 analytically  !
 ! A3    A(2,1,27)             117.9066         calculate D2E/DX2 analytically  !
 ! A4    A(5,1,25)             113.1687         calculate D2E/DX2 analytically  !
 ! A5    A(5,1,27)             103.7222         calculate D2E/DX2 analytically  !
 ! A6    A(25,1,27)            104.8207         calculate D2E/DX2 analytically  !
 ! A7    A(1,2,3)              103.7756         calculate D2E/DX2 analytically  !
 ! A8    A(1,2,6)              112.2135         calculate D2E/DX2 analytically  !
 ! A9    A(1,2,20)             108.5996         calculate D2E/DX2 analytically  !
 ! A10   A(3,2,6)              115.3558         calculate D2E/DX2 analytically  !
 ! A11   A(3,2,20)             108.8656         calculate D2E/DX2 analytically  !
 ! A12   A(6,2,20)             107.8231         calculate D2E/DX2 analytically  !
 ! A13   A(2,3,4)              104.7763         calculate D2E/DX2 analytically  !
 ! A14   A(2,3,17)             110.3269         calculate D2E/DX2 analytically  !
 ! A15   A(2,3,18)             110.866          calculate D2E/DX2 analytically  !
 ! A16   A(4,3,17)             112.8189         calculate D2E/DX2 analytically  !
 ! A17   A(4,3,18)             111.1327         calculate D2E/DX2 analytically  !
 ! A18   A(17,3,18)            106.9833         calculate D2E/DX2 analytically  !
 ! A19   A(3,4,5)              104.263          calculate D2E/DX2 analytically  !
 ! A20   A(3,4,15)             112.5357         calculate D2E/DX2 analytically  !
 ! A21   A(3,4,16)             110.5404         calculate D2E/DX2 analytically  !
 ! A22   A(5,4,15)             111.5582         calculate D2E/DX2 analytically  !
 ! A23   A(5,4,16)             110.2722         calculate D2E/DX2 analytically  !
 ! A24   A(15,4,16)            107.6875         calculate D2E/DX2 analytically  !
 ! A25   A(1,5,4)              103.758          calculate D2E/DX2 analytically  !
 ! A26   A(1,5,14)             110.2216         calculate D2E/DX2 analytically  !
 ! A27   A(1,5,19)             110.1103         calculate D2E/DX2 analytically  !
 ! A28   A(4,5,14)             113.7086         calculate D2E/DX2 analytically  !
 ! A29   A(4,5,19)             110.9887         calculate D2E/DX2 analytically  !
 ! A30   A(14,5,19)            108.0117         calculate D2E/DX2 analytically  !
 ! A31   A(2,6,7)              120.4211         calculate D2E/DX2 analytically  !
 ! A32   A(2,6,11)             122.6351         calculate D2E/DX2 analytically  !
 ! A33   A(7,6,11)             116.9407         calculate D2E/DX2 analytically  !
 ! A34   A(6,7,8)              123.5645         calculate D2E/DX2 analytically  !
 ! A35   A(6,7,21)             120.6273         calculate D2E/DX2 analytically  !
 ! A36   A(8,7,21)             115.8079         calculate D2E/DX2 analytically  !
 ! A37   A(7,8,9)              119.1004         calculate D2E/DX2 analytically  !
 ! A38   A(7,8,26)             111.7986         calculate D2E/DX2 analytically  !
 ! A39   A(9,8,26)             129.0164         calculate D2E/DX2 analytically  !
 ! A40   A(8,9,10)             121.7517         calculate D2E/DX2 analytically  !
 ! A41   A(8,9,22)             116.6871         calculate D2E/DX2 analytically  !
 ! A42   A(10,9,22)            121.5612         calculate D2E/DX2 analytically  !
 ! A43   A(9,10,11)            118.7709         calculate D2E/DX2 analytically  !
 ! A44   A(9,10,23)            120.0282         calculate D2E/DX2 analytically  !
 ! A45   A(11,10,23)           121.1997         calculate D2E/DX2 analytically  !
 ! A46   A(6,11,10)            119.8637         calculate D2E/DX2 analytically  !
 ! A47   A(6,11,24)            120.0271         calculate D2E/DX2 analytically  !
 ! A48   A(10,11,24)           120.1091         calculate D2E/DX2 analytically  !
 ! A49   A(26,12,29)           111.7902         calculate D2E/DX2 analytically  !
 ! A50   A(26,12,30)           110.8725         calculate D2E/DX2 analytically  !
 ! A51   A(29,12,30)           113.0915         calculate D2E/DX2 analytically  !
 ! A52   A(27,13,28)           107.5215         calculate D2E/DX2 analytically  !
 ! A53   A(27,13,33)           130.7712         calculate D2E/DX2 analytically  !
 ! A54   A(28,13,33)           118.469          calculate D2E/DX2 analytically  !
 ! A55   A(1,25,34)            109.5533         calculate D2E/DX2 analytically  !
 ! A56   A(1,25,35)            110.0107         calculate D2E/DX2 analytically  !
 ! A57   A(1,25,36)            111.7451         calculate D2E/DX2 analytically  !
 ! A58   A(34,25,35)           108.3275         calculate D2E/DX2 analytically  !
 ! A59   A(34,25,36)           108.2776         calculate D2E/DX2 analytically  !
 ! A60   A(35,25,36)           108.847          calculate D2E/DX2 analytically  !
 ! A61   A(29,31,32)           115.5796         calculate D2E/DX2 analytically  !
 ! A62   A(29,31,33)           116.3055         calculate D2E/DX2 analytically  !
 ! A63   A(32,31,33)           109.8701         calculate D2E/DX2 analytically  !
 ! A64   A(32,37,38)           123.4546         calculate D2E/DX2 analytically  !
 ! A65   A(32,37,39)           119.9777         calculate D2E/DX2 analytically  !
 ! A66   A(38,37,39)           105.8616         calculate D2E/DX2 analytically  !
 ! A67   L(8,26,12,13,-1)      168.8931         calculate D2E/DX2 analytically  !
 ! A68   L(1,27,13,7,-1)       183.8657         calculate D2E/DX2 analytically  !
 ! A69   L(12,29,31,1,-1)      178.5801         calculate D2E/DX2 analytically  !
 ! A70   L(31,32,37,3,-1)      179.4323         calculate D2E/DX2 analytically  !
 ! A71   L(13,33,31,7,-1)      179.2577         calculate D2E/DX2 analytically  !
 ! A72   L(8,26,12,13,-2)      185.1689         calculate D2E/DX2 analytically  !
 ! A73   L(1,27,13,7,-2)       180.0879         calculate D2E/DX2 analytically  !
 ! A74   L(12,29,31,1,-2)      181.5419         calculate D2E/DX2 analytically  !
 ! A75   L(31,32,37,3,-2)      179.0638         calculate D2E/DX2 analytically  !
 ! A76   L(13,33,31,7,-2)      180.9187         calculate D2E/DX2 analytically  !
 ! D1    D(5,1,2,3)             41.4942         calculate D2E/DX2 analytically  !
 ! D2    D(5,1,2,6)            166.6912         calculate D2E/DX2 analytically  !
 ! D3    D(5,1,2,20)           -74.2134         calculate D2E/DX2 analytically  !
 ! D4    D(25,1,2,3)           164.6451         calculate D2E/DX2 analytically  !
 ! D5    D(25,1,2,6)           -70.1579         calculate D2E/DX2 analytically  !
 ! D6    D(25,1,2,20)           48.9375         calculate D2E/DX2 analytically  !
 ! D7    D(27,1,2,3)           -72.5571         calculate D2E/DX2 analytically  !
 ! D8    D(27,1,2,6)            52.6399         calculate D2E/DX2 analytically  !
 ! D9    D(27,1,2,20)          171.7353         calculate D2E/DX2 analytically  !
 ! D10   D(2,1,5,4)            -44.1105         calculate D2E/DX2 analytically  !
 ! D11   D(2,1,5,14)          -166.2068         calculate D2E/DX2 analytically  !
 ! D12   D(2,1,5,19)            74.729          calculate D2E/DX2 analytically  !
 ! D13   D(25,1,5,4)          -167.27           calculate D2E/DX2 analytically  !
 ! D14   D(25,1,5,14)           70.6337         calculate D2E/DX2 analytically  !
 ! D15   D(25,1,5,19)          -48.4305         calculate D2E/DX2 analytically  !
 ! D16   D(27,1,5,4)            79.7189         calculate D2E/DX2 analytically  !
 ! D17   D(27,1,5,14)          -42.3774         calculate D2E/DX2 analytically  !
 ! D18   D(27,1,5,19)         -161.4417         calculate D2E/DX2 analytically  !
 ! D19   D(2,1,13,28)         -164.8837         calculate D2E/DX2 analytically  !
 ! D20   D(2,1,13,33)           -4.943          calculate D2E/DX2 analytically  !
 ! D21   D(5,1,13,28)           81.0487         calculate D2E/DX2 analytically  !
 ! D22   D(5,1,13,33)         -119.0106         calculate D2E/DX2 analytically  !
 ! D23   D(25,1,13,28)         -37.2873         calculate D2E/DX2 analytically  !
 ! D24   D(25,1,13,33)         122.6534         calculate D2E/DX2 analytically  !
 ! D25   D(2,1,25,34)         -177.3932         calculate D2E/DX2 analytically  !
 ! D26   D(2,1,25,35)           63.6287         calculate D2E/DX2 analytically  !
 ! D27   D(2,1,25,36)          -57.395          calculate D2E/DX2 analytically  !
 ! D28   D(5,1,25,34)          -59.525          calculate D2E/DX2 analytically  !
 ! D29   D(5,1,25,35)         -178.5032         calculate D2E/DX2 analytically  !
 ! D30   D(5,1,25,36)           60.4731         calculate D2E/DX2 analytically  !
 ! D31   D(27,1,25,34)          52.8173         calculate D2E/DX2 analytically  !
 ! D32   D(27,1,25,35)         -66.1608         calculate D2E/DX2 analytically  !
 ! D33   D(27,1,25,36)         172.8155         calculate D2E/DX2 analytically  !
 ! D34   D(1,2,3,4)            -22.5948         calculate D2E/DX2 analytically  !
 ! D35   D(1,2,3,17)          -144.2921         calculate D2E/DX2 analytically  !
 ! D36   D(1,2,3,18)            97.3771         calculate D2E/DX2 analytically  !
 ! D37   D(6,2,3,4)           -145.7518         calculate D2E/DX2 analytically  !
 ! D38   D(6,2,3,17)            92.5508         calculate D2E/DX2 analytically  !
 ! D39   D(6,2,3,18)           -25.7799         calculate D2E/DX2 analytically  !
 ! D40   D(20,2,3,4)            92.9248         calculate D2E/DX2 analytically  !
 ! D41   D(20,2,3,17)          -28.7726         calculate D2E/DX2 analytically  !
 ! D42   D(20,2,3,18)         -147.1034         calculate D2E/DX2 analytically  !
 ! D43   D(1,2,6,7)            -60.3395         calculate D2E/DX2 analytically  !
 ! D44   D(1,2,6,11)           119.0007         calculate D2E/DX2 analytically  !
 ! D45   D(3,2,6,7)             58.2252         calculate D2E/DX2 analytically  !
 ! D46   D(3,2,6,11)          -122.4347         calculate D2E/DX2 analytically  !
 ! D47   D(20,2,6,7)          -179.8897         calculate D2E/DX2 analytically  !
 ! D48   D(20,2,6,11)           -0.5495         calculate D2E/DX2 analytically  !
 ! D49   D(2,3,4,5)             -3.5983         calculate D2E/DX2 analytically  !
 ! D50   D(2,3,4,15)          -124.6598         calculate D2E/DX2 analytically  !
 ! D51   D(2,3,4,16)           114.8927         calculate D2E/DX2 analytically  !
 ! D52   D(17,3,4,5)           116.4509         calculate D2E/DX2 analytically  !
 ! D53   D(17,3,4,15)           -4.6106         calculate D2E/DX2 analytically  !
 ! D54   D(17,3,4,16)         -125.0582         calculate D2E/DX2 analytically  !
 ! D55   D(18,3,4,5)          -123.392          calculate D2E/DX2 analytically  !
 ! D56   D(18,3,4,15)          115.5465         calculate D2E/DX2 analytically  !
 ! D57   D(18,3,4,16)           -4.901          calculate D2E/DX2 analytically  !
 ! D58   D(3,4,5,1)             28.684          calculate D2E/DX2 analytically  !
 ! D59   D(3,4,5,14)           148.4321         calculate D2E/DX2 analytically  !
 ! D60   D(3,4,5,19)           -89.5499         calculate D2E/DX2 analytically  !
 ! D61   D(15,4,5,1)           150.3944         calculate D2E/DX2 analytically  !
 ! D62   D(15,4,5,14)          -89.8575         calculate D2E/DX2 analytically  !
 ! D63   D(15,4,5,19)           32.1605         calculate D2E/DX2 analytically  !
 ! D64   D(16,4,5,1)           -89.9901         calculate D2E/DX2 analytically  !
 ! D65   D(16,4,5,14)           29.758          calculate D2E/DX2 analytically  !
 ! D66   D(16,4,5,19)          151.776          calculate D2E/DX2 analytically  !
 ! D67   D(2,6,7,8)            178.6711         calculate D2E/DX2 analytically  !
 ! D68   D(2,6,7,21)            -1.1098         calculate D2E/DX2 analytically  !
 ! D69   D(11,6,7,8)            -0.7056         calculate D2E/DX2 analytically  !
 ! D70   D(11,6,7,21)          179.5135         calculate D2E/DX2 analytically  !
 ! D71   D(2,6,11,10)         -179.4914         calculate D2E/DX2 analytically  !
 ! D72   D(2,6,11,24)            0.4819         calculate D2E/DX2 analytically  !
 ! D73   D(7,6,11,10)           -0.1296         calculate D2E/DX2 analytically  !
 ! D74   D(7,6,11,24)          179.8437         calculate D2E/DX2 analytically  !
 ! D75   D(6,7,8,9)              0.9318         calculate D2E/DX2 analytically  !
 ! D76   D(6,7,8,26)          -176.0215         calculate D2E/DX2 analytically  !
 ! D77   D(21,7,8,9)          -179.2777         calculate D2E/DX2 analytically  !
 ! D78   D(21,7,8,26)            3.769          calculate D2E/DX2 analytically  !
 ! D79   D(7,8,9,10)            -0.3078         calculate D2E/DX2 analytically  !
 ! D80   D(7,8,9,22)           179.6821         calculate D2E/DX2 analytically  !
 ! D81   D(26,8,9,10)          176.0506         calculate D2E/DX2 analytically  !
 ! D82   D(26,8,9,22)           -3.9595         calculate D2E/DX2 analytically  !
 ! D83   D(7,8,12,29)           14.4869         calculate D2E/DX2 analytically  !
 ! D84   D(7,8,12,30)          140.394          calculate D2E/DX2 analytically  !
 ! D85   D(9,8,12,29)         -161.882          calculate D2E/DX2 analytically  !
 ! D86   D(9,8,12,30)          -35.9749         calculate D2E/DX2 analytically  !
 ! D87   D(8,9,10,11)           -0.4892         calculate D2E/DX2 analytically  !
 ! D88   D(8,9,10,23)          179.9068         calculate D2E/DX2 analytically  !
 ! D89   D(22,9,10,11)         179.5213         calculate D2E/DX2 analytically  !
 ! D90   D(22,9,10,23)          -0.0826         calculate D2E/DX2 analytically  !
 ! D91   D(9,10,11,6)            0.694          calculate D2E/DX2 analytically  !
 ! D92   D(9,10,11,24)        -179.2792         calculate D2E/DX2 analytically  !
 ! D93   D(23,10,11,6)        -179.7068         calculate D2E/DX2 analytically  !
 ! D94   D(23,10,11,24)          0.3199         calculate D2E/DX2 analytically  !
 ! D95   D(26,12,31,32)       -113.0508         calculate D2E/DX2 analytically  !
 ! D96   D(26,12,31,33)         17.1532         calculate D2E/DX2 analytically  !
 ! D97   D(30,12,31,32)        120.7567         calculate D2E/DX2 analytically  !
 ! D98   D(30,12,31,33)       -109.0393         calculate D2E/DX2 analytically  !
 ! D99   D(27,13,31,29)        -41.2724         calculate D2E/DX2 analytically  !
 ! D100  D(27,13,31,32)         92.4754         calculate D2E/DX2 analytically  !
 ! D101  D(28,13,31,29)        115.033          calculate D2E/DX2 analytically  !
 ! D102  D(28,13,31,32)       -111.2192         calculate D2E/DX2 analytically  !
 ! D103  D(29,31,37,38)         -2.0971         calculate D2E/DX2 analytically  !
 ! D104  D(29,31,37,39)       -141.8404         calculate D2E/DX2 analytically  !
 ! D105  D(33,31,37,38)       -136.0544         calculate D2E/DX2 analytically  !
 ! D106  D(33,31,37,39)         84.2023         calculate D2E/DX2 analytically  !
 --------------------------------------------------------------------------------
 Trust Radius=5.00D-02 FncErr=1.00D-07 GrdErr=1.00D-06 EigMax=2.50D+02 EigMin=1.00D-04
 Number of steps in this run=    233 maximum allowed number of steps=    234.
 Search for a saddle point of order  1.
 GradGradGradGradGradGradGradGradGradGradGradGradGradGradGradGradGradGrad

                          Input orientation:                          
 ---------------------------------------------------------------------
 Center     Atomic      Atomic             Coordinates (Angstroms)
 Number     Number       Type             X           Y           Z
 ---------------------------------------------------------------------
      1          7           0        1.619771   -1.305183    0.642984
      2          6           0        1.916987   -0.482344   -0.544979
      3          6           0        1.342401   -1.306789   -1.716148
      4          6           0        1.287976   -2.759735   -1.186663
      5          6           0        1.916999   -2.677380    0.205525
      6          6           0        1.377057    0.921408   -0.416489
      7          6           0        0.011288    1.139493   -0.254992
      8          7           0       -0.530600    2.350838   -0.109741
      9          6           0        0.265377    3.428119   -0.136139
     10          6           0        1.638615    3.317622   -0.304151
     11          6           0        2.198248    2.047659   -0.438281
     12          8           0       -3.001564    1.995204    0.294985
     13          8           0       -0.971615   -1.500908    1.521152
     14          1           0        1.504401   -3.400559    0.919309
     15          1           0        1.827193   -3.461378   -1.830735
     16          1           0        0.250093   -3.104108   -1.114621
     17          1           0        1.976409   -1.201345   -2.602608
     18          1           0        0.343809   -0.949200   -1.992372
     19          1           0        3.010395   -2.831994    0.155753
     20          1           0        3.015451   -0.413487   -0.660840
     21          1           0       -0.686125    0.302690   -0.237337
     22          1           0       -0.218611    4.397010   -0.019257
     23          1           0        2.258553    4.211582   -0.322840
     24          1           0        3.276142    1.934845   -0.559590
     25          6           0        2.375906   -0.902738    1.824263
     26          1           0       -1.979873    2.275448    0.135082
     27          1           0       -0.036603   -1.392398    1.181888
     28          1           0       -0.916874   -1.861567    2.408605
     29          1           0       -3.105397    0.855921    0.550357
     30          1           0       -3.415781    2.567494    0.947925
     31          8           0       -3.186036   -0.344796    0.785497
     32          1           0       -3.645153   -0.882204    0.100290
     33          1           0       -2.342560   -0.798335    1.062920
     34          1           0        2.145204   -1.579497    2.655904
     35          1           0        2.095716    0.115505    2.120318
     36          1           0        3.465092   -0.934808    1.643474
     37          8           0       -4.419321   -1.835206   -1.074868
     38          1           0       -4.812482   -1.474712   -1.874713
     39          1           0       -4.990039   -2.560731   -0.805422
 ---------------------------------------------------------------------
                    Distance matrix (angstroms):
                    1          2          3          4          5
     1  N    0.000000
     2  C    1.475350   0.000000
     3  C    2.375382   1.543209   0.000000
     4  C    2.360809   2.448249   1.547375   0.000000
     5  C    1.470592   2.319793   2.429302   1.529915   0.000000
     6  C    2.477721   1.509488   2.579763   3.761903   3.691844
     7  C    3.061049   2.519154   3.145017   4.207365   4.290959
     8  N    4.307805   3.769222   4.412132   5.530365   5.601170
     9  C    4.984532   4.264585   5.106443   6.359155   6.334170
    10  C    4.718871   3.817752   4.844239   6.151101   6.023065
    11  C    3.570059   2.547824   3.690222   4.949718   4.776984
    12  O    5.689499   5.570990   5.815311   6.573042   6.784785
    13  O    2.743131   3.694644   3.984026   3.744684   3.385122
    14  H    2.116664   3.290949   3.369829   2.211925   1.096683
    15  H    3.288082   3.245901   2.211427   1.094480   2.183821
    16  H    2.863795   3.158587   2.187539   1.095894   2.168746
    17  H    3.266778   2.180443   1.094941   2.215270   3.172983
    18  H    2.949560   2.188102   1.096064   2.195144   3.208159
    19  H    2.121881   2.684664   2.934701   2.184955   1.105395
    20  H    2.107843   1.106702   2.170428   2.960665   2.661277
    21  H    2.945739   2.736259   2.981983   3.765201   3.981608
    22  H    6.027704   5.352126   6.152196   7.406189   7.393129
    23  H    5.636981   4.711577   5.764812   7.091366   6.917632
    24  H    3.832431   2.773142   3.947806   5.136643   4.868808
    25  C    1.459151   2.449621   3.710243   3.701041   2.445458
    26  H    5.102580   4.822180   5.224651   6.146455   6.302466
    27  H    1.744018   2.761663   3.210544   3.038775   2.533974
    28  H    3.140310   4.319338   4.735577   4.312079   3.681025
    29  H    5.196745   5.311785   5.440337   5.949112   6.150414
    30  H    6.359827   6.322079   6.689368   7.420321   7.516542
    31  O    4.902901   5.275408   5.262167   5.453268   5.640770
    32  H    5.309694   5.613703   5.324980   5.432967   5.845619
    33  H    4.016629   4.563872   4.643348   4.699841   4.733897
    34  H    2.098374   3.391383   4.453504   4.110124   2.694769
    35  H    2.104137   2.737367   4.160394   4.455959   3.390955
    36  H    2.131518   2.718580   3.991397   4.009971   2.738767
    37  O    6.300998   6.500755   5.821332   5.782775   6.519019
    38  H    6.909516   6.930998   6.159215   6.272183   7.145608
    39  H    6.882141   7.217654   6.519324   6.292728   6.981604
                    6          7          8          9         10
     6  C    0.000000
     7  C    1.392468   0.000000
     8  N    2.403439   1.334952   0.000000
     9  C    2.756452   2.305753   1.339705   0.000000
    10  C    2.413063   2.719348   2.382847   1.387883   0.000000
    11  C    1.394013   2.375111   2.765225   2.394358   1.394269
    12  O    4.564160   3.179936   2.529020   3.593329   4.861997
    13  O    3.890800   3.330541   4.205978   5.345285   5.776094
    14  H    4.525480   4.921427   6.186982   7.019971   6.829994
    15  H    4.627259   5.191194   6.504065   7.264716   6.951321
    16  H    4.238185   4.336374   5.601402   6.605123   6.619930
    17  H    3.105547   3.853897   5.011735   5.517521   5.081149
    18  H    2.655218   2.737097   3.898608   4.755279   4.767849
    19  H    4.133193   4.993602   6.282585   6.841735   6.317521
    20  H    2.127437   3.406091   4.529865   4.753541   3.993004
    21  H    2.161395   1.089466   2.058004   3.268624   3.807715
    22  H    3.844965   3.274117   2.071797   1.089337   2.166918
    23  H    3.407499   3.806906   3.359636   2.149749   1.088043
    24  H    2.157326   3.374113   3.855736   3.387312   2.158429
    25  C    3.057152   3.753056   4.772201   5.201330   4.783846
    26  H    3.661507   2.325355   1.471738   2.538377   3.791109
    27  H    3.147529   2.911596   3.990508   5.006573   5.215262
    28  H    4.581291   4.118567   4.922970   5.987839   6.380718
    29  H    4.586008   3.231521   3.049604   4.295299   5.412560
    30  H    5.248097   3.902691   3.080563   3.932785   5.260922
    31  O    4.885679   3.675406   3.888346   5.195821   6.154502
    32  H    5.361219   4.193214   4.494120   5.824691   6.761680
    33  H    4.356801   3.321546   3.817803   5.109011   5.887252
    34  H    4.035365   4.518829   5.500568   6.033695   5.744592
    35  H    2.757053   3.321971   4.106996   4.406263   4.042344
    36  H    3.471149   4.453724   5.462123   5.695641   5.021197
    37  O    6.452161   5.399197   5.794531   7.108460   7.990258
    38  H    6.795454   5.720692   6.007035   7.269460   8.188393
    39  H    7.267494   6.245631   6.670388   7.995853   8.873858
                   11         12         13         14         15
    11  C    0.000000
    12  O    5.251521   0.000000
    13  O    5.145847   4.224568   0.000000
    14  H    5.657522   7.057461   3.178293   0.000000
    15  H    5.694392   7.590116   4.786639   2.769591   0.000000
    16  H    5.549184   6.209931   3.318150   2.407913   1.768532
    17  H    3.910186   6.587426   5.077990   4.178903   2.392865
    18  H    3.851663   5.009295   3.792041   3.979199   2.921916
    19  H    4.982316   7.711347   4.415032   1.781657   2.396294
    20  H    2.602805   6.551325   4.673357   3.701722   3.474227
    21  H    3.377115   2.917058   2.535104   4.455366   4.798322
    22  H    3.396504   3.689478   6.142093   8.040632   8.319918
    23  H    2.167839   5.741330   6.816659   7.749605   7.831611
    24  H    1.090550   6.335893   5.846138   5.813153   5.730138
    25  C    3.722299   6.297138   3.414027   2.795992   4.495190
    26  H    4.223426   1.071428   4.147124   6.706134   7.160263
    27  H    4.410612   4.588403   1.000561   2.544868   4.102476
    28  H    5.752460   4.867032   0.959502   3.232502   5.297292
    29  H    5.525061   1.172161   3.324171   6.285220   6.974175
    30  H    5.805955   0.961989   4.780631   7.734770   8.459139
    31  O    6.017640   2.397964   2.604121   5.599624   6.456796
    32  H    6.558925   2.954926   3.090218   5.790579   6.350399
    33  H    5.565269   2.971173   1.607195   4.646644   5.731656
    34  H    4.767919   6.696391   3.317891   2.596663   4.875709
    35  H    3.207828   5.731263   3.518567   3.762284   5.336386
    36  H    3.851455   7.226412   4.474349   3.232437   4.597434
    37  O    7.698968   4.307966   4.328712   6.443412   6.498824
    38  H    7.976263   4.475191   5.126875   7.170666   6.930661
    39  H    8.546550   5.091313   4.762762   6.771836   6.952488
                   16         17         18         19         20
    16  H    0.000000
    17  H    2.968969   0.000000
    18  H    2.328703   1.761064   0.000000
    19  H    3.050764   3.367001   3.907689   0.000000
    20  H    3.884915   2.338972   3.032761   2.552651   0.000000
    21  H    3.640385   3.865969   2.389172   4.862615   3.793933
    22  H    7.595148   6.544723   5.726383   7.919319   5.831952
    23  H    7.627591   5.880198   5.752152   7.099738   4.698766
    24  H    5.903904   3.962186   4.355360   4.827535   2.364926
    25  C    4.242894   4.454879   4.324151   2.628408   2.612302
    26  H    5.956016   5.935925   4.508205   7.140670   5.728623
    27  H    2.878559   4.290819   3.227548   3.522724   3.697154
    28  H    3.913929   5.824022   4.668012   4.630390   5.194382
    29  H    5.450990   6.324420   4.649834   7.152576   6.367352
    30  H    7.061147   7.475704   5.928491   8.430762   7.268777
    31  O    4.799087   6.234081   4.532291   6.706600   6.368285
    32  H    4.646053   6.245756   4.505057   6.935494   6.720317
    33  H    4.096355   5.679085   4.071136   5.797659   5.641608
    34  H    4.486953   5.274793   5.024815   2.927125   3.621837
    35  H    4.923115   4.904524   4.595323   3.658402   2.976673
    36  H    4.759114   4.507375   4.791867   2.453442   2.404956
    37  O    4.838917   6.606143   4.930946   7.596624   7.580801
    38  H    5.372368   6.833272   5.184336   8.195268   7.992260
    39  H    5.277295   7.321831   5.697001   8.062530   8.289718
                   21         22         23         24         25
    21  H    0.000000
    22  H    4.126692   0.000000
    23  H    4.894678   2.502576   0.000000
    24  H    4.297364   4.309004   2.505009   0.000000
    25  C    3.883206   6.182023   5.547981   3.813798   0.000000
    26  H    2.388358   2.761682   4.682154   5.312652   5.650399
    27  H    2.304214   5.915498   6.239915   5.007751   2.544133
    28  H    3.426115   6.749213   7.377484   6.387825   3.478967
    29  H    2.603729   4.604053   6.387088   6.566590   5.895795
    30  H    3.739680   3.808473   6.042842   6.888736   6.808386
    31  O    2.777586   5.651368   7.185579   6.983249   5.685555
    32  H    3.205279   6.294885   7.808933   7.501702   6.263039
    33  H    2.376279   5.716107   6.941890   6.455434   4.780634
    34  H    4.464291   6.961519   6.513245   4.895817   1.096747
    35  H    3.651331   5.316500   4.772147   3.447508   1.096802
    36  H    4.722442   6.690488   5.639810   3.622720   1.104554
    37  O    4.382786   7.589519   9.040088   8.584809   7.446447
    38  H    4.781943   7.682674   9.205530   8.875836   8.104474
    39  H    5.200536   8.473178   9.931727   9.412778   7.995082
                   26         27         28         29         30
    26  H    0.000000
    27  H    4.280794   0.000000
    28  H    4.838777   1.581085   0.000000
    29  H    1.858579   3.856328   3.953158   0.000000
    30  H    1.675660   5.210981   5.291002   1.784343   0.000000
    31  O    2.956949   3.342682   3.175558   1.226179   2.925850
    32  H    3.570033   3.801550   3.705533   1.874827   3.559707
    33  H    3.231187   2.384219   2.230227   1.892407   3.534662
    34  H    6.183155   2.639699   3.084970   6.159010   7.144178
    35  H    5.021647   2.775105   3.614917   5.483117   6.145190
    36  H    6.498356   3.561505   4.543780   6.897314   7.752182
    37  O    4.930757   4.949469   4.939880   3.407333   4.947985
    38  H    5.111423   5.670856   5.802778   3.771863   5.124206
    39  H    5.773584   5.463601   5.235406   4.130802   5.643687
                   31         32         33         34         35
    31  O    0.000000
    32  H    0.984431   0.000000
    33  H    0.997052   1.621863   0.000000
    34  H    5.783168   6.367544   4.825747   0.000000
    35  H    5.467223   6.167132   4.653116   1.778295   0.000000
    36  H    6.732142   7.275972   5.838192   1.784024   1.790455
    37  O    2.683891   1.699572   3.155658   7.554934   7.514000
    38  H    3.316437   2.369464   3.897138   8.303425   8.137092
    39  H    3.270446   2.333771   3.688616   7.990951   8.119736
                   36         37         38         39
    36  H    0.000000
    37  O    8.388329   0.000000
    38  H    9.010403   0.961397   0.000000
    39  H    8.951534   0.961617   1.534388   0.000000
 Stoichiometry    C10H23N2O4(1+)
 Framework group  C1[X(C10H23N2O4)]
 Deg. of freedom   111
 Full point group                 C1      NOp   1
 Largest Abelian subgroup         C1      NOp   1
 Largest concise Abelian subgroup C1      NOp   1
                         Standard orientation:                         
 ---------------------------------------------------------------------
 Center     Atomic      Atomic             Coordinates (Angstroms)
 Number     Number       Type             X           Y           Z
 ---------------------------------------------------------------------
      1          7           0        1.619771   -1.305183    0.642984
      2          6           0        1.916987   -0.482344   -0.544979
      3          6           0        1.342401   -1.306789   -1.716148
      4          6           0        1.287976   -2.759735   -1.186663
      5          6           0        1.916999   -2.677380    0.205525
      6          6           0        1.377057    0.921408   -0.416489
      7          6           0        0.011288    1.139493   -0.254992
      8          7           0       -0.530600    2.350838   -0.109741
      9          6           0        0.265377    3.428119   -0.136139
     10          6           0        1.638615    3.317622   -0.304151
     11          6           0        2.198248    2.047659   -0.438281
     12          8           0       -3.001564    1.995204    0.294985
     13          8           0       -0.971615   -1.500908    1.521152
     14          1           0        1.504401   -3.400559    0.919309
     15          1           0        1.827193   -3.461378   -1.830735
     16          1           0        0.250093   -3.104108   -1.114621
     17          1           0        1.976409   -1.201345   -2.602608
     18          1           0        0.343809   -0.949200   -1.992372
     19          1           0        3.010395   -2.831994    0.155753
     20          1           0        3.015451   -0.413487   -0.660840
     21          1           0       -0.686125    0.302690   -0.237337
     22          1           0       -0.218611    4.397010   -0.019257
     23          1           0        2.258553    4.211582   -0.322840
     24          1           0        3.276142    1.934845   -0.559590
     25          6           0        2.375906   -0.902738    1.824263
     26          1           0       -1.979873    2.275448    0.135082
     27          1           0       -0.036603   -1.392398    1.181888
     28          1           0       -0.916874   -1.861567    2.408605
     29          1           0       -3.105397    0.855921    0.550357
     30          1           0       -3.415781    2.567494    0.947925
     31          8           0       -3.186036   -0.344796    0.785497
     32          1           0       -3.645153   -0.882204    0.100290
     33          1           0       -2.342560   -0.798335    1.062920
     34          1           0        2.145204   -1.579497    2.655904
     35          1           0        2.095716    0.115505    2.120318
     36          1           0        3.465092   -0.934808    1.643474
     37          8           0       -4.419321   -1.835206   -1.074868
     38          1           0       -4.812482   -1.474712   -1.874713
     39          1           0       -4.990039   -2.560731   -0.805422
 ---------------------------------------------------------------------
 Rotational constants (GHZ):           0.4380856           0.3699025           0.2431769
 Standard basis: Aug-CC-pVDZ (5D, 7F)
 There are   607 symmetry adapted cartesian basis functions of A   symmetry.
 There are   575 symmetry adapted basis functions of A   symmetry.
   575 basis functions,   941 primitive gaussians,   607 cartesian basis functions
    64 alpha electrons       64 beta electrons
       nuclear repulsion energy      1233.1581119033 Hartrees.
 NAtoms=   39 NActive=   39 NUniq=   39 SFac= 1.00D+00 NAtFMM=   60 NAOKFM=F Big=F
 Integral buffers will be    131072 words long.
 Raffenetti 2 integral format.
 Two-electron integral symmetry is turned on.
 Nuclear repulsion after empirical dispersion term =     1233.1282212468 Hartrees.
 One-electron integrals computed using PRISM.
 NBasis=   575 RedAO= T EigKep=  1.82D-06  NBF=   575
 NBsUse=   575 1.00D-06 EigRej= -1.00D+00 NBFU=   575
 ExpMin= 2.97D-02 ExpMax= 1.17D+04 ExpMxC= 4.01D+02 IAcc=3 IRadAn=         5 AccDes= 0.00D+00
 Harris functional with IExCor= 4639 and IRadAn=       5 diagonalized for initial guess.
 HarFok:  IExCor= 4639 AccDes= 0.00D+00 IRadAn=         5 IDoV= 1 UseB2=F ITyADJ=14
 ICtDFT=  3500011 ScaDFX=  1.000000  1.000000  1.000000  1.000000
 FoFCou: FMM=F IPFlag=           0 FMFlag=      100000 FMFlg1=           0
         NFxFlg=           0 DoJE=T BraDBF=F KetDBF=T FulRan=T
         wScrn=  0.000000 ICntrl=       500 IOpCl=  0 I1Cent=   200000004 NGrid=           0
         NMat0=    1 NMatS0=      1 NMatT0=    0 NMatD0=    1 NMtDS0=    0 NMtDT0=    0
 Petite list used in FoFCou.
 Requested convergence on RMS density matrix=1.00D-08 within 128 cycles.
 Requested convergence on MAX density matrix=1.00D-06.
 Requested convergence on             energy=1.00D-06.
 No special actions if energy rises.
 SCF Done:  E(RwB97XD) =  -805.019409653     A.U. after   15 cycles
            NFock= 15  Conv=0.34D-08     -V/T= 2.0062
 DoSCS=F DFT=T ScalE2(SS,OS)=  1.000000  1.000000
 Range of M.O.s used for correlation:     1   575
 NBasis=   575 NAE=    64 NBE=    64 NFC=     0 NFV=     0
 NROrb=    575 NOA=    64 NOB=    64 NVA=   511 NVB=   511

 **** Warning!!: The largest alpha MO coefficient is  0.12662970D+03

 Symmetrizing basis deriv contribution to polar:
 IMax=3 JMax=2 DiffMx= 0.00D+00
 G2DrvN: will do    40 centers at a time, making    1 passes.
 Calling FoFCou, ICntrl=  3107 FMM=F I1Cent=   0 AccDes= 0.00D+00.
 End of G2Drv F.D. properties file   721 does not exist.
 End of G2Drv F.D. properties file   722 does not exist.
 End of G2Drv F.D. properties file   788 does not exist.
          IDoAtm=111111111111111111111111111111111111111
          Differentiating once with respect to electric field.
                with respect to dipole field.
          Differentiating once with respect to nuclear coordinates.
 CalDSu exits because no D1Ps are significant.
          There are   120 degrees of freedom in the 1st order CPHF.  IDoFFX=6 NUNeed=     3.
    117 vectors produced by pass  0 Test12= 3.27D-14 1.00D-09 XBig12= 7.82D+01 3.88D+00.
 AX will form   117 AO Fock derivatives at one time.
    117 vectors produced by pass  1 Test12= 3.27D-14 1.00D-09 XBig12= 1.24D+01 6.77D-01.
    117 vectors produced by pass  2 Test12= 3.27D-14 1.00D-09 XBig12= 3.07D-01 8.82D-02.
    117 vectors produced by pass  3 Test12= 3.27D-14 1.00D-09 XBig12= 2.66D-03 5.33D-03.
    117 vectors produced by pass  4 Test12= 3.27D-14 1.00D-09 XBig12= 2.21D-05 4.39D-04.
    117 vectors produced by pass  5 Test12= 3.27D-14 1.00D-09 XBig12= 1.42D-07 2.56D-05.
    114 vectors produced by pass  6 Test12= 3.27D-14 1.00D-09 XBig12= 7.61D-10 1.81D-06.
     45 vectors produced by pass  7 Test12= 3.27D-14 1.00D-09 XBig12= 3.62D-12 1.53D-07.
      3 vectors produced by pass  8 Test12= 3.27D-14 1.00D-09 XBig12= 2.08D-14 8.83D-09.
      3 vectors produced by pass  9 Test12= 3.27D-14 1.00D-09 XBig12= 2.89D-15 3.90D-09.
 InvSVY:  IOpt=1 It=  1 EMax= 7.11D-15
 Solved reduced A of dimension   867 with   120 vectors.
 Isotropic polarizability for W=    0.000000      163.67 Bohr**3.
 End of Minotr F.D. properties file   721 does not exist.
 End of Minotr F.D. properties file   722 does not exist.
 End of Minotr F.D. properties file   788 does not exist.

 **********************************************************************

            Population analysis using the SCF density.

 **********************************************************************

 Orbital symmetries:
       Occupied  (A) (A) (A) (A) (A) (A) (A) (A) (A) (A) (A) (A)
                 (A) (A) (A) (A) (A) (A) (A) (A) (A) (A) (A) (A)
                 (A) (A) (A) (A) (A) (A) (A) (A) (A) (A) (A) (A)
                 (A) (A) (A) (A) (A) (A) (A) (A) (A) (A) (A) (A)
                 (A) (A) (A) (A) (A) (A) (A) (A) (A) (A) (A) (A)
                 (A) (A) (A) (A)
       Virtual   (A) (A) (A) (A) (A) (A) (A) (A) (A) (A) (A) (A)
                 (A) (A) (A) (A) (A) (A) (A) (A) (A) (A) (A) (A)
                 (A) (A) (A) (A) (A) (A) (A) (A) (A) (A) (A) (A)
                 (A) (A) (A) (A) (A) (A) (A) (A) (A) (A) (A) (A)
                 (A) (A) (A) (A) (A) (A) (A) (A) (A) (A) (A) (A)
                 (A) (A) (A) (A) (A) (A) (A) (A) (A) (A) (A) (A)
                 (A) (A) (A) (A) (A) (A) (A) (A) (A) (A) (A) (A)
                 (A) (A) (A) (A) (A) (A) (A) (A) (A) (A) (A) (A)
                 (A) (A) (A) (A) (A) (A) (A) (A) (A) (A) (A) (A)
                 (A) (A) (A) (A) (A) (A) (A) (A) (A) (A) (A) (A)
                 (A) (A) (A) (A) (A) (A) (A) (A) (A) (A) (A) (A)
                 (A) (A) (A) (A) (A) (A) (A) (A) (A) (A) (A) (A)
                 (A) (A) (A) (A) (A) (A) (A) (A) (A) (A) (A) (A)
                 (A) (A) (A) (A) (A) (A) (A) (A) (A) (A) (A) (A)
                 (A) (A) (A) (A) (A) (A) (A) (A) (A) (A) (A) (A)
                 (A) (A) (A) (A) (A) (A) (A) (A) (A) (A) (A) (A)
                 (A) (A) (A) (A) (A) (A) (A) (A) (A) (A) (A) (A)
                 (A) (A) (A) (A) (A) (A) (A) (A) (A) (A) (A) (A)
                 (A) (A) (A) (A) (A) (A) (A) (A) (A) (A) (A) (A)
                 (A) (A) (A) (A) (A) (A) (A) (A) (A) (A) (A) (A)
                 (A) (A) (A) (A) (A) (A) (A) (A) (A) (A) (A) (A)
                 (A) (A) (A) (A) (A) (A) (A) (A) (A) (A) (A) (A)
                 (A) (A) (A) (A) (A) (A) (A) (A) (A) (A) (A) (A)
                 (A) (A) (A) (A) (A) (A) (A) (A) (A) (A) (A) (A)
                 (A) (A) (A) (A) (A) (A) (A) (A) (A) (A) (A) (A)
                 (A) (A) (A) (A) (A) (A) (A) (A) (A) (A) (A) (A)
                 (A) (A) (A) (A) (A) (A) (A) (A) (A) (A) (A) (A)
                 (A) (A) (A) (A) (A) (A) (A) (A) (A) (A) (A) (A)
                 (A) (A) (A) (A) (A) (A) (A) (A) (A) (A) (A) (A)
                 (A) (A) (A) (A) (A) (A) (A) (A) (A) (A) (A) (A)
                 (A) (A) (A) (A) (A) (A) (A) (A) (A) (A) (A) (A)
                 (A) (A) (A) (A) (A) (A) (A) (A) (A) (A) (A) (A)
                 (A) (A) (A) (A) (A) (A) (A) (A) (A) (A) (A) (A)
                 (A) (A) (A) (A) (A) (A) (A) (A) (A) (A) (A) (A)
                 (A) (A) (A) (A) (A) (A) (A) (A) (A) (A) (A) (A)
                 (A) (A) (A) (A) (A) (A) (A) (A) (A) (A) (A) (A)
                 (A) (A) (A) (A) (A) (A) (A) (A) (A) (A) (A) (A)
                 (A) (A) (A) (A) (A) (A) (A) (A) (A) (A) (A) (A)
                 (A) (A) (A) (A) (A) (A) (A) (A) (A) (A) (A) (A)
                 (A) (A) (A) (A) (A) (A) (A) (A) (A) (A) (A) (A)
                 (A) (A) (A) (A) (A) (A) (A) (A) (A) (A) (A) (A)
                 (A) (A) (A) (A) (A) (A) (A) (A) (A) (A) (A) (A)
                 (A) (A) (A) (A) (A) (A) (A)
 The electronic state is 1-A.
 Alpha  occ. eigenvalues --  -19.42749 -19.41780 -19.41254 -19.38839 -14.60448
 Alpha  occ. eigenvalues --  -14.57697 -10.47037 -10.46990 -10.45236 -10.44740
 Alpha  occ. eigenvalues --  -10.44401 -10.43738 -10.42883 -10.42856 -10.40711
 Alpha  occ. eigenvalues --  -10.39976  -1.28739  -1.26349  -1.25105  -1.22786
 Alpha  occ. eigenvalues --   -1.19621  -1.16747  -1.04863  -1.01224  -0.99689
 Alpha  occ. eigenvalues --   -0.94046  -0.88916  -0.86590  -0.85655  -0.79975
 Alpha  occ. eigenvalues --   -0.79241  -0.79162  -0.77988  -0.77674  -0.76441
 Alpha  occ. eigenvalues --   -0.74952  -0.73088  -0.71630  -0.70069  -0.68720
 Alpha  occ. eigenvalues --   -0.66457  -0.65719  -0.65281  -0.63825  -0.63169
 Alpha  occ. eigenvalues --   -0.62637  -0.61856  -0.61074  -0.60020  -0.59365
 Alpha  occ. eigenvalues --   -0.58197  -0.57205  -0.56397  -0.55604  -0.55244
 Alpha  occ. eigenvalues --   -0.54725  -0.54623  -0.53338  -0.52622  -0.51730
 Alpha  occ. eigenvalues --   -0.50223  -0.49921  -0.46511  -0.44230
 Alpha virt. eigenvalues --   -0.10000  -0.08348  -0.06730  -0.05364  -0.04861
 Alpha virt. eigenvalues --   -0.04444  -0.03366  -0.03062  -0.02748  -0.02357
 Alpha virt. eigenvalues --   -0.01787  -0.01388  -0.00968  -0.00616  -0.00345
 Alpha virt. eigenvalues --   -0.00168   0.00572   0.00904   0.01081   0.01897
 Alpha virt. eigenvalues --    0.02056   0.02345   0.02445   0.02715   0.03401
 Alpha virt. eigenvalues --    0.03468   0.04069   0.04291   0.04555   0.05057
 Alpha virt. eigenvalues --    0.05544   0.05784   0.05959   0.06321   0.06444
 Alpha virt. eigenvalues --    0.06679   0.06837   0.07128   0.07256   0.07446
 Alpha virt. eigenvalues --    0.07682   0.08113   0.08296   0.08744   0.08932
 Alpha virt. eigenvalues --    0.09319   0.09486   0.09982   0.10257   0.10736
 Alpha virt. eigenvalues --    0.10939   0.11146   0.11514   0.11821   0.12106
 Alpha virt. eigenvalues --    0.12377   0.12468   0.12527   0.13192   0.13662
 Alpha virt. eigenvalues --    0.13971   0.14097   0.14424   0.14529   0.15192
 Alpha virt. eigenvalues --    0.15630   0.15742   0.15982   0.16185   0.16469
 Alpha virt. eigenvalues --    0.16694   0.17194   0.17443   0.17475   0.17878
 Alpha virt. eigenvalues --    0.18341   0.18490   0.18827   0.19092   0.19193
 Alpha virt. eigenvalues --    0.19857   0.19919   0.20393   0.20471   0.20732
 Alpha virt. eigenvalues --    0.21046   0.21369   0.21731   0.21865   0.22057
 Alpha virt. eigenvalues --    0.22792   0.23226   0.23772   0.24001   0.24434
 Alpha virt. eigenvalues --    0.24985   0.25288   0.25684   0.25893   0.26058
 Alpha virt. eigenvalues --    0.26235   0.26617   0.26926   0.27276   0.27385
 Alpha virt. eigenvalues --    0.27821   0.28466   0.28863   0.29109   0.29350
 Alpha virt. eigenvalues --    0.29681   0.30159   0.30616   0.30948   0.30967
 Alpha virt. eigenvalues --    0.31451   0.31753   0.32369   0.33083   0.33575
 Alpha virt. eigenvalues --    0.33659   0.33977   0.34225   0.34465   0.35107
 Alpha virt. eigenvalues --    0.35211   0.35573   0.35706   0.36550   0.37572
 Alpha virt. eigenvalues --    0.37796   0.38259   0.38540   0.38808   0.39022
 Alpha virt. eigenvalues --    0.39443   0.40185   0.40452   0.40677   0.40730
 Alpha virt. eigenvalues --    0.41350   0.42092   0.42189   0.42605   0.43199
 Alpha virt. eigenvalues --    0.43654   0.43919   0.44340   0.44651   0.44888
 Alpha virt. eigenvalues --    0.45436   0.45910   0.46470   0.46644   0.47234
 Alpha virt. eigenvalues --    0.47510   0.47922   0.48434   0.48731   0.48938
 Alpha virt. eigenvalues --    0.49280   0.49562   0.49944   0.50443   0.50950
 Alpha virt. eigenvalues --    0.51137   0.51314   0.51599   0.52065   0.52332
 Alpha virt. eigenvalues --    0.52818   0.53307   0.53470   0.53698   0.54130
 Alpha virt. eigenvalues --    0.54643   0.54911   0.55247   0.55414   0.56608
 Alpha virt. eigenvalues --    0.56912   0.57268   0.57672   0.58123   0.58384
 Alpha virt. eigenvalues --    0.59019   0.59122   0.59504   0.59757   0.60577
 Alpha virt. eigenvalues --    0.61209   0.61544   0.61945   0.62372   0.62915
 Alpha virt. eigenvalues --    0.63186   0.63989   0.64435   0.64733   0.65351
 Alpha virt. eigenvalues --    0.65566   0.65790   0.66602   0.66980   0.67441
 Alpha virt. eigenvalues --    0.68151   0.68511   0.69245   0.69682   0.69930
 Alpha virt. eigenvalues --    0.70275   0.70930   0.71478   0.71665   0.71964
 Alpha virt. eigenvalues --    0.72682   0.72820   0.73400   0.73739   0.74271
 Alpha virt. eigenvalues --    0.74664   0.75004   0.75629   0.75965   0.76708
 Alpha virt. eigenvalues --    0.77145   0.77318   0.77843   0.78399   0.78604
 Alpha virt. eigenvalues --    0.78692   0.79577   0.80590   0.80675   0.81102
 Alpha virt. eigenvalues --    0.82420   0.82857   0.83731   0.84482   0.84663
 Alpha virt. eigenvalues --    0.85158   0.86333   0.86648   0.87759   0.88160
 Alpha virt. eigenvalues --    0.88818   0.89309   0.89405   0.90868   0.91087
 Alpha virt. eigenvalues --    0.91473   0.92442   0.93143   0.93474   0.93996
 Alpha virt. eigenvalues --    0.95265   0.95867   0.96196   0.96699   0.97075
 Alpha virt. eigenvalues --    0.97940   0.98180   0.99864   1.00921   1.01714
 Alpha virt. eigenvalues --    1.01913   1.02716   1.03799   1.04249   1.04994
 Alpha virt. eigenvalues --    1.05860   1.06403   1.07637   1.08009   1.08672
 Alpha virt. eigenvalues --    1.09461   1.10516   1.10972   1.11806   1.12579
 Alpha virt. eigenvalues --    1.13414   1.13586   1.14824   1.15170   1.15509
 Alpha virt. eigenvalues --    1.17088   1.18038   1.18841   1.19859   1.20474
 Alpha virt. eigenvalues --    1.20591   1.22471   1.23373   1.24065   1.25354
 Alpha virt. eigenvalues --    1.25591   1.26296   1.27418   1.27887   1.29784
 Alpha virt. eigenvalues --    1.30915   1.31632   1.32492   1.33095   1.33900
 Alpha virt. eigenvalues --    1.34966   1.36014   1.36085   1.37176   1.38455
 Alpha virt. eigenvalues --    1.38861   1.39804   1.40493   1.41461   1.41605
 Alpha virt. eigenvalues --    1.42728   1.43730   1.44563   1.45822   1.46945
 Alpha virt. eigenvalues --    1.47712   1.48801   1.49250   1.50359   1.50864
 Alpha virt. eigenvalues --    1.51472   1.53142   1.54159   1.55322   1.55807
 Alpha virt. eigenvalues --    1.56761   1.58381   1.59604   1.60843   1.61353
 Alpha virt. eigenvalues --    1.61593   1.61924   1.63548   1.64476   1.64714
 Alpha virt. eigenvalues --    1.65428   1.66261   1.67506   1.68383   1.68579
 Alpha virt. eigenvalues --    1.69067   1.70027   1.70889   1.71015   1.72113
 Alpha virt. eigenvalues --    1.72791   1.73235   1.74249   1.74707   1.75384
 Alpha virt. eigenvalues --    1.75597   1.77400   1.77614   1.78789   1.79478
 Alpha virt. eigenvalues --    1.80194   1.81114   1.81404   1.82662   1.83270
 Alpha virt. eigenvalues --    1.83530   1.84635   1.85110   1.85692   1.86777
 Alpha virt. eigenvalues --    1.87396   1.87795   1.88383   1.88777   1.89087
 Alpha virt. eigenvalues --    1.90966   1.91956   1.92402   1.93350   1.95106
 Alpha virt. eigenvalues --    1.95787   1.96681   1.97715   1.98191   1.98860
 Alpha virt. eigenvalues --    2.00281   2.01337   2.01786   2.02825   2.03353
 Alpha virt. eigenvalues --    2.04489   2.05392   2.06343   2.07335   2.08509
 Alpha virt. eigenvalues --    2.10276   2.11143   2.11302   2.12179   2.12747
 Alpha virt. eigenvalues --    2.13566   2.14483   2.14894   2.15586   2.17278
 Alpha virt. eigenvalues --    2.18406   2.18857   2.19598   2.20056   2.21627
 Alpha virt. eigenvalues --    2.22098   2.23086   2.23485   2.26009   2.26691
 Alpha virt. eigenvalues --    2.27571   2.28256   2.29068   2.29876   2.30463
 Alpha virt. eigenvalues --    2.30977   2.32418   2.32977   2.34631   2.35297
 Alpha virt. eigenvalues --    2.38403   2.38749   2.39889   2.40872   2.41337
 Alpha virt. eigenvalues --    2.42265   2.44086   2.45866   2.46270   2.47493
 Alpha virt. eigenvalues --    2.50071   2.51263   2.51827   2.52079   2.53413
 Alpha virt. eigenvalues --    2.55248   2.55836   2.56307   2.57296   2.58522
 Alpha virt. eigenvalues --    2.59463   2.60078   2.61171   2.63575   2.64066
 Alpha virt. eigenvalues --    2.64829   2.66453   2.67462   2.67874   2.69107
 Alpha virt. eigenvalues --    2.69716   2.70854   2.72318   2.73208   2.73922
 Alpha virt. eigenvalues --    2.74844   2.76920   2.78194   2.81276   2.82611
 Alpha virt. eigenvalues --    2.83685   2.84388   2.86256   2.87183   2.87435
 Alpha virt. eigenvalues --    2.90270   2.91552   2.92247   2.94385   2.94969
 Alpha virt. eigenvalues --    2.98544   2.99321   3.01232   3.03447   3.06300
 Alpha virt. eigenvalues --    3.11204   3.15913   3.18243   3.24410   3.28774
 Alpha virt. eigenvalues --    3.31875   3.32951   3.34309   3.35401   3.37150
 Alpha virt. eigenvalues --    3.40064   3.40674   3.42606   3.44130   3.47404
 Alpha virt. eigenvalues --    3.47584   3.54702   3.62191   3.65227   3.66210
 Alpha virt. eigenvalues --    3.67832   3.81024   3.89247   3.89997   3.93521
 Alpha virt. eigenvalues --    4.00739   4.10058   4.13847   4.22810   4.38412
 Alpha virt. eigenvalues --    5.04473
          Condensed to atoms (all electrons):
               1          2          3          4          5          6
     1  N   14.867393  -6.146747  -0.943626  -0.530728  -0.286446   2.090108
     2  C   -6.146747  27.836228  -1.614037   0.409247  -0.491203  -8.816608
     3  C   -0.943626  -1.614037   9.243875  -1.100629   0.805402   0.138798
     4  C   -0.530728   0.409247  -1.100629   6.437115  -0.062701   0.230493
     5  C   -0.286446  -0.491203   0.805402  -0.062701   5.918687  -0.265001
     6  C    2.090108  -8.816608   0.138798   0.230493  -0.265001  23.263138
     7  C    0.656804  -2.737316  -0.930718  -0.038462  -0.281284  -3.467733
     8  N   -0.106156   0.788903   0.039320   0.001714   0.058606  -0.204523
     9  C    0.132916  -0.751646  -0.038426   0.006427  -0.033555  -1.117641
    10  C   -0.128186   0.278670  -0.116625  -0.021131   0.003570   0.416870
    11  C   -0.381784  -1.391225  -0.080263  -0.044874   0.033426  -8.793621
    12  O   -0.000977   0.010834  -0.006922  -0.000427   0.000226  -0.068894
    13  O   -0.138616   0.152887   0.041729   0.026609   0.003765  -0.008335
    14  H   -0.971646   0.631797   0.189422   0.040385  -0.202112  -0.284158
    15  H   -0.127911   0.052810   0.287656  -0.341702   0.192129  -0.066576
    16  H    0.170602   0.036323   0.158917  -0.337237  -0.131753   0.034168
    17  H    0.472569  -0.048639  -1.235985   0.133689  -0.255715   0.468331
    18  H   -0.120190   0.170666  -0.112862   0.343817   0.081897  -0.170418
    19  H   -0.239760   0.066787  -0.112453   0.090844  -0.265233   0.187745
    20  H   -0.077313  -2.720549   0.735954  -0.027671   0.010155   1.104618
    21  H   -0.129949  -0.185698  -0.348013   0.006820   0.008315  -0.770686
    22  H    0.007525  -0.044409   0.004021   0.000284  -0.001094  -0.109245
    23  H   -0.003288   0.075502   0.002923   0.000884  -0.000141   0.052910
    24  H    0.030267  -0.098308  -0.083045  -0.012101  -0.000880   1.118827
    25  C    1.032124  -1.099999  -0.333620   0.052018  -0.195091   0.616803
    26  H   -0.001166   0.055585  -0.012109  -0.001046  -0.003351  -0.003837
    27  H   -0.207530   0.606870   0.226321  -0.106838  -0.076934  -0.233847
    28  H   -0.019886  -0.014609  -0.014208   0.009808   0.006225   0.005116
    29  H   -0.005429   0.013674   0.004963   0.001761   0.000967  -0.007636
    30  H    0.000686  -0.004703  -0.000085   0.000107  -0.000111   0.011744
    31  O   -0.007215  -0.058888   0.010100  -0.015603   0.011823  -0.014751
    32  H    0.003863   0.000519  -0.002553  -0.000707  -0.001774  -0.002239
    33  H    0.004293  -0.025516   0.014005  -0.008752   0.006913   0.025522
    34  H   -0.336834   0.146992  -0.085137   0.068673   0.011316  -0.006886
    35  H    0.189085   0.009738   0.110981  -0.045434  -0.029420   0.019436
    36  H   -0.585973  -0.108387  -0.006570   0.026849   0.073258   0.107704
    37  O   -0.000129   0.002115   0.001582   0.000397   0.001433   0.001819
    38  H    0.000464   0.000042  -0.000257   0.000185  -0.000086  -0.000181
    39  H   -0.000624   0.000493   0.000292   0.000012   0.000053  -0.000383
               7          8          9         10         11         12
     1  N    0.656804  -0.106156   0.132916  -0.128186  -0.381784  -0.000977
     2  C   -2.737316   0.788903  -0.751646   0.278670  -1.391225   0.010834
     3  C   -0.930718   0.039320  -0.038426  -0.116625  -0.080263  -0.006922
     4  C   -0.038462   0.001714   0.006427  -0.021131  -0.044874  -0.000427
     5  C   -0.281284   0.058606  -0.033555   0.003570   0.033426   0.000226
     6  C   -3.467733  -0.204523  -1.117641   0.416870  -8.793621  -0.068894
     7  C   17.023802  -1.117037  -1.138623   0.236915  -2.133017  -0.212591
     8  N   -1.117037   8.443663   0.014137   0.176309  -0.347181  -0.034128
     9  C   -1.138623   0.014137  10.092070  -2.607659   1.542983   0.047747
    10  C    0.236915   0.176309  -2.607659  11.627676  -4.156315  -0.024898
    11  C   -2.133017  -0.347181   1.542983  -4.156315  22.515159   0.030220
    12  O   -0.212591  -0.034128   0.047747  -0.024898   0.030220   8.054082
    13  O   -0.113137   0.013438  -0.004904  -0.001151  -0.023411   0.001175
    14  H   -0.038056   0.003529  -0.001899   0.000074   0.016181   0.000083
    15  H    0.004424  -0.000647   0.001756  -0.001349   0.010204  -0.000012
    16  H    0.009204  -0.000250  -0.003092   0.001374   0.000034  -0.000148
    17  H    0.345714  -0.021452  -0.004844   0.005956  -0.031671   0.000204
    18  H   -0.309275   0.031116   0.030643  -0.052952   0.045359  -0.004735
    19  H    0.035304  -0.000072   0.000378  -0.001731   0.018394  -0.000011
    20  H   -0.299238   0.008622   0.039366  -0.021734  -0.056240  -0.000110
    21  H   -0.912383   0.014563  -0.308127   0.307169  -0.159380   0.132313
    22  H    0.158355  -0.120050  -0.543863   0.122816   0.199032   0.002150
    23  H   -0.164089  -0.038490   0.415928  -1.146607   0.540432   0.000186
    24  H    0.223721  -0.051671  -0.201326   0.629165  -2.412073   0.000251
    25  C    0.185766  -0.042955  -0.042547   0.104352  -0.230813  -0.000829
    26  H   -0.118998   0.193894   0.064832  -0.091063  -0.000222   0.147556
    27  H   -0.014492  -0.043112   0.006843  -0.027227  -0.045362  -0.006037
    28  H    0.002217   0.005542   0.000614   0.001005   0.005449   0.001752
    29  H    0.051086  -0.004900  -0.000873   0.001938  -0.001172   0.140769
    30  H    0.005902   0.000697  -0.017614   0.012388  -0.007432   0.356533
    31  O   -0.158541   0.034640   0.000362   0.002847   0.012854  -0.091275
    32  H   -0.010876  -0.002607  -0.001250  -0.001205   0.003413   0.007765
    33  H    0.033689  -0.005964  -0.000134   0.000626  -0.004033  -0.023171
    34  H   -0.004329  -0.003994  -0.007509   0.020011  -0.033119  -0.000279
    35  H    0.011094   0.004980  -0.005996   0.007482   0.014636   0.000798
    36  H   -0.006341   0.000630   0.004744  -0.013829   0.039843  -0.000037
    37  O    0.013343  -0.002631  -0.000184  -0.000233   0.000402  -0.000801
    38  H   -0.001633   0.000086   0.000111  -0.000064   0.000034  -0.000199
    39  H    0.001261  -0.000150   0.000048   0.000016  -0.000044  -0.000163
              13         14         15         16         17         18
     1  N   -0.138616  -0.971646  -0.127911   0.170602   0.472569  -0.120190
     2  C    0.152887   0.631797   0.052810   0.036323  -0.048639   0.170666
     3  C    0.041729   0.189422   0.287656   0.158917  -1.235985  -0.112862
     4  C    0.026609   0.040385  -0.341702  -0.337237   0.133689   0.343817
     5  C    0.003765  -0.202112   0.192129  -0.131753  -0.255715   0.081897
     6  C   -0.008335  -0.284158  -0.066576   0.034168   0.468331  -0.170418
     7  C   -0.113137  -0.038056   0.004424   0.009204   0.345714  -0.309275
     8  N    0.013438   0.003529  -0.000647  -0.000250  -0.021452   0.031116
     9  C   -0.004904  -0.001899   0.001756  -0.003092  -0.004844   0.030643
    10  C   -0.001151   0.000074  -0.001349   0.001374   0.005956  -0.052952
    11  C   -0.023411   0.016181   0.010204   0.000034  -0.031671   0.045359
    12  O    0.001175   0.000083  -0.000012  -0.000148   0.000204  -0.004735
    13  O    8.104593   0.023639  -0.006311   0.008214   0.000065   0.006438
    14  H    0.023639   2.846919   0.110642  -0.310375  -0.041133   0.071416
    15  H   -0.006311   0.110642   2.114094  -0.618718  -0.350460   0.219688
    16  H    0.008214  -0.310375  -0.618718   2.300196   0.238641  -0.491243
    17  H    0.000065  -0.041133  -0.350460   0.238641   2.746320  -0.794076
    18  H    0.006438   0.071416   0.219688  -0.491243  -0.794076   2.574023
    19  H   -0.005831  -0.561965  -0.229152   0.206060   0.068127  -0.074234
    20  H    0.001339   0.085492   0.065652  -0.080126  -0.391521   0.254718
    21  H   -0.014134  -0.092247  -0.024034   0.108223   0.143976  -0.325922
    22  H   -0.000433  -0.000146   0.000030   0.000144   0.000770  -0.003196
    23  H   -0.000013   0.000072   0.000015  -0.000021  -0.001710   0.002496
    24  H   -0.001813  -0.004151   0.000418   0.001213   0.013687  -0.013758
    25  C   -0.019314  -0.141826  -0.011330   0.020107   0.080299  -0.064219
    26  H    0.005292   0.001219   0.000264  -0.001495  -0.000019   0.000721
    27  H    0.077263   0.177948   0.017184  -0.015769  -0.030713   0.058058
    28  H    0.389537  -0.010968  -0.001185   0.001078   0.001106  -0.005257
    29  H   -0.002615   0.001406   0.000183  -0.001489  -0.000676   0.005449
    30  H   -0.001394  -0.000134  -0.000013   0.000222   0.000050  -0.001183
    31  O   -0.053838   0.000288  -0.000844   0.002634   0.001024  -0.004428
    32  H   -0.012189  -0.000798  -0.000076   0.000073  -0.000119   0.000335
    33  H    0.043750  -0.000549  -0.000239   0.000778  -0.000085   0.002293
    34  H    0.034094  -0.001125  -0.001387   0.010227   0.000377  -0.007024
    35  H   -0.002256   0.010759   0.003166  -0.013316  -0.006049   0.017396
    36  H   -0.009044   0.011812  -0.003811   0.006610   0.015274  -0.010876
    37  O    0.002705   0.000238   0.000080  -0.002857  -0.000040   0.003972
    38  H   -0.000003  -0.000082  -0.000074   0.000445   0.000058  -0.000556
    39  H   -0.000317   0.000162   0.000120  -0.000349  -0.000081   0.000336
              19         20         21         22         23         24
     1  N   -0.239760  -0.077313  -0.129949   0.007525  -0.003288   0.030267
     2  C    0.066787  -2.720549  -0.185698  -0.044409   0.075502  -0.098308
     3  C   -0.112453   0.735954  -0.348013   0.004021   0.002923  -0.083045
     4  C    0.090844  -0.027671   0.006820   0.000284   0.000884  -0.012101
     5  C   -0.265233   0.010155   0.008315  -0.001094  -0.000141  -0.000880
     6  C    0.187745   1.104618  -0.770686  -0.109245   0.052910   1.118827
     7  C    0.035304  -0.299238  -0.912383   0.158355  -0.164089   0.223721
     8  N   -0.000072   0.008622   0.014563  -0.120050  -0.038490  -0.051671
     9  C    0.000378   0.039366  -0.308127  -0.543863   0.415928  -0.201326
    10  C   -0.001731  -0.021734   0.307169   0.122816  -1.146607   0.629165
    11  C    0.018394  -0.056240  -0.159380   0.199032   0.540432  -2.412073
    12  O   -0.000011  -0.000110   0.132313   0.002150   0.000186   0.000251
    13  O   -0.005831   0.001339  -0.014134  -0.000433  -0.000013  -0.001813
    14  H   -0.561965   0.085492  -0.092247  -0.000146   0.000072  -0.004151
    15  H   -0.229152   0.065652  -0.024034   0.000030   0.000015   0.000418
    16  H    0.206060  -0.080126   0.108223   0.000144  -0.000021   0.001213
    17  H    0.068127  -0.391521   0.143976   0.000770  -0.001710   0.013687
    18  H   -0.074234   0.254718  -0.325922  -0.003196   0.002496  -0.013758
    19  H    2.375001  -0.102508   0.043332   0.000116  -0.000360   0.003183
    20  H   -0.102508   3.523495  -0.065338   0.000300   0.002300  -0.161644
    21  H    0.043332  -0.065338   5.193518   0.046085  -0.019677   0.009131
    22  H    0.000116   0.000300   0.046085   2.172975  -0.127275  -0.006128
    23  H   -0.000360   0.002300  -0.019677  -0.127275   2.140378  -0.139635
    24  H    0.003183  -0.161644   0.009131  -0.006128  -0.139635   2.993157
    25  C   -0.047515  -0.067199   0.148110   0.002960  -0.008017   0.060683
    26  H   -0.000477  -0.001065  -0.160253  -0.113333   0.012709  -0.000010
    27  H   -0.017293   0.024843  -0.294985  -0.003404   0.001929  -0.002094
    28  H    0.003968  -0.001528   0.045769   0.000286  -0.000061   0.000279
    29  H   -0.000242   0.000691  -0.086955   0.007134  -0.000308  -0.000130
    30  H    0.000020  -0.000091   0.015642   0.004269  -0.000578   0.000004
    31  O    0.000593  -0.001779   0.149980   0.000870   0.000090   0.000297
    32  H    0.000273  -0.000124   0.010934  -0.000472  -0.000010  -0.000027
    33  H   -0.001149   0.000297  -0.049859  -0.000663   0.000164  -0.000335
    34  H   -0.002649   0.016911   0.027811   0.000286  -0.000784   0.002622
    35  H   -0.004721   0.006109  -0.035366  -0.002745  -0.000695  -0.009689
    36  H    0.069468   0.048219   0.022317   0.000394   0.000075   0.006672
    37  O    0.000057   0.000088  -0.026818   0.000003  -0.000008   0.000010
    38  H   -0.000005  -0.000031  -0.000105  -0.000008  -0.000002   0.000005
    39  H   -0.000015   0.000043   0.002200   0.000008  -0.000000  -0.000001
              25         26         27         28         29         30
     1  N    1.032124  -0.001166  -0.207530  -0.019886  -0.005429   0.000686
     2  C   -1.099999   0.055585   0.606870  -0.014609   0.013674  -0.004703
     3  C   -0.333620  -0.012109   0.226321  -0.014208   0.004963  -0.000085
     4  C    0.052018  -0.001046  -0.106838   0.009808   0.001761   0.000107
     5  C   -0.195091  -0.003351  -0.076934   0.006225   0.000967  -0.000111
     6  C    0.616803  -0.003837  -0.233847   0.005116  -0.007636   0.011744
     7  C    0.185766  -0.118998  -0.014492   0.002217   0.051086   0.005902
     8  N   -0.042955   0.193894  -0.043112   0.005542  -0.004900   0.000697
     9  C   -0.042547   0.064832   0.006843   0.000614  -0.000873  -0.017614
    10  C    0.104352  -0.091063  -0.027227   0.001005   0.001938   0.012388
    11  C   -0.230813  -0.000222  -0.045362   0.005449  -0.001172  -0.007432
    12  O   -0.000829   0.147556  -0.006037   0.001752   0.140769   0.356533
    13  O   -0.019314   0.005292   0.077263   0.389537  -0.002615  -0.001394
    14  H   -0.141826   0.001219   0.177948  -0.010968   0.001406  -0.000134
    15  H   -0.011330   0.000264   0.017184  -0.001185   0.000183  -0.000013
    16  H    0.020107  -0.001495  -0.015769   0.001078  -0.001489   0.000222
    17  H    0.080299  -0.000019  -0.030713   0.001106  -0.000676   0.000050
    18  H   -0.064219   0.000721   0.058058  -0.005257   0.005449  -0.001183
    19  H   -0.047515  -0.000477  -0.017293   0.003968  -0.000242   0.000020
    20  H   -0.067199  -0.001065   0.024843  -0.001528   0.000691  -0.000091
    21  H    0.148110  -0.160253  -0.294985   0.045769  -0.086955   0.015642
    22  H    0.002960  -0.113333  -0.003404   0.000286   0.007134   0.004269
    23  H   -0.008017   0.012709   0.001929  -0.000061  -0.000308  -0.000578
    24  H    0.060683  -0.000010  -0.002094   0.000279  -0.000130   0.000004
    25  C    4.674329  -0.007130  -0.201458   0.005410  -0.003198   0.000990
    26  H   -0.007130   0.565033   0.017876  -0.001733   0.004100  -0.056858
    27  H   -0.201458   0.017876   0.852047  -0.187248   0.009319  -0.001116
    28  H    0.005410  -0.001733  -0.187248   0.610653   0.000795  -0.000354
    29  H   -0.003198   0.004100   0.009319   0.000795   0.319825  -0.047038
    30  H    0.000990  -0.056858  -0.001116  -0.000354  -0.047038   0.576063
    31  O    0.005282  -0.039588  -0.073061   0.012974   0.003296   0.000323
    32  H   -0.000013   0.002729   0.004452  -0.002343  -0.009505  -0.000698
    33  H    0.003612   0.004776   0.007745  -0.015006  -0.015731   0.000913
    34  H    0.191493  -0.001848   0.038989  -0.009295  -0.000852   0.000278
    35  H   -0.009771   0.002879   0.015027   0.010009   0.001385  -0.000369
    36  H    0.310895  -0.000462  -0.064917   0.003987  -0.000253   0.000027
    37  O   -0.000050   0.000344   0.000968   0.000455   0.004110   0.000429
    38  H    0.000068   0.000505   0.000900  -0.000393  -0.001915   0.000171
    39  H   -0.000132  -0.000533  -0.001389   0.000500   0.000934  -0.000033
              31         32         33         34         35         36
     1  N   -0.007215   0.003863   0.004293  -0.336834   0.189085  -0.585973
     2  C   -0.058888   0.000519  -0.025516   0.146992   0.009738  -0.108387
     3  C    0.010100  -0.002553   0.014005  -0.085137   0.110981  -0.006570
     4  C   -0.015603  -0.000707  -0.008752   0.068673  -0.045434   0.026849
     5  C    0.011823  -0.001774   0.006913   0.011316  -0.029420   0.073258
     6  C   -0.014751  -0.002239   0.025522  -0.006886   0.019436   0.107704
     7  C   -0.158541  -0.010876   0.033689  -0.004329   0.011094  -0.006341
     8  N    0.034640  -0.002607  -0.005964  -0.003994   0.004980   0.000630
     9  C    0.000362  -0.001250  -0.000134  -0.007509  -0.005996   0.004744
    10  C    0.002847  -0.001205   0.000626   0.020011   0.007482  -0.013829
    11  C    0.012854   0.003413  -0.004033  -0.033119   0.014636   0.039843
    12  O   -0.091275   0.007765  -0.023171  -0.000279   0.000798  -0.000037
    13  O   -0.053838  -0.012189   0.043750   0.034094  -0.002256  -0.009044
    14  H    0.000288  -0.000798  -0.000549  -0.001125   0.010759   0.011812
    15  H   -0.000844  -0.000076  -0.000239  -0.001387   0.003166  -0.003811
    16  H    0.002634   0.000073   0.000778   0.010227  -0.013316   0.006610
    17  H    0.001024  -0.000119  -0.000085   0.000377  -0.006049   0.015274
    18  H   -0.004428   0.000335   0.002293  -0.007024   0.017396  -0.010876
    19  H    0.000593   0.000273  -0.001149  -0.002649  -0.004721   0.069468
    20  H   -0.001779  -0.000124   0.000297   0.016911   0.006109   0.048219
    21  H    0.149980   0.010934  -0.049859   0.027811  -0.035366   0.022317
    22  H    0.000870  -0.000472  -0.000663   0.000286  -0.002745   0.000394
    23  H    0.000090  -0.000010   0.000164  -0.000784  -0.000695   0.000075
    24  H    0.000297  -0.000027  -0.000335   0.002622  -0.009689   0.006672
    25  C    0.005282  -0.000013   0.003612   0.191493  -0.009771   0.310895
    26  H   -0.039588   0.002729   0.004776  -0.001848   0.002879  -0.000462
    27  H   -0.073061   0.004452   0.007745   0.038989   0.015027  -0.064917
    28  H    0.012974  -0.002343  -0.015006  -0.009295   0.010009   0.003987
    29  H    0.003296  -0.009505  -0.015731  -0.000852   0.001385  -0.000253
    30  H    0.000323  -0.000698   0.000913   0.000278  -0.000369   0.000027
    31  O    8.407616   0.364344   0.168590   0.000771   0.000770   0.000400
    32  H    0.364344   0.423627  -0.067032   0.000144   0.000147  -0.000148
    33  H    0.168590  -0.067032   0.509784   0.001672  -0.005369   0.002245
    34  H    0.000771   0.000144   0.001672   2.172838  -0.651665  -0.363275
    35  H    0.000770   0.000147  -0.005369  -0.651665   1.960642  -0.412776
    36  H    0.000400  -0.000148   0.002245  -0.363275  -0.412776   2.029407
    37  O   -0.085904  -0.011689   0.008241  -0.000037   0.000093  -0.000022
    38  H    0.004271  -0.001730   0.002220   0.000004  -0.000014   0.000008
    39  H    0.001180  -0.007317   0.000183  -0.000022   0.000020  -0.000011
              37         38         39
     1  N   -0.000129   0.000464  -0.000624
     2  C    0.002115   0.000042   0.000493
     3  C    0.001582  -0.000257   0.000292
     4  C    0.000397   0.000185   0.000012
     5  C    0.001433  -0.000086   0.000053
     6  C    0.001819  -0.000181  -0.000383
     7  C    0.013343  -0.001633   0.001261
     8  N   -0.002631   0.000086  -0.000150
     9  C   -0.000184   0.000111   0.000048
    10  C   -0.000233  -0.000064   0.000016
    11  C    0.000402   0.000034  -0.000044
    12  O   -0.000801  -0.000199  -0.000163
[...]
 8278,-0.00008576,0.00011910,-0.00000050,-0.00001020,-0.00003486,-0.000
 08189,0.00001302,0.00001694,0.00003408,0.00010415,0.00016753,0.0002444
 7,0.00000450,-0.00000572,0.00004485,-0.00051973,0.00023846,0.00045295,
 0.00007385,0.00025726,0.00014816,-0.00010409,0.00000189,-0.00024419,-0
 .00003968,-0.00000004,-0.00006140,0.00001247,0.00003742,-0.00002571,-0
 .00002463,0.00002776,-0.00002157,0.00000384,0.00008866,0.00013551,0.00
 005531,0.00000053,-0.00010210,-0.00002818,-0.00003572,-0.00007331,-0.0
 0000003,0.00000396,0.00000260,-0.00000498,0.00000385,-0.00000693,-0.00
 000414,0.00000020,-0.00006856,0.08353377,-0.27393481,-0.05786463,0.000
 02968,0.00001657,-0.00004045,0.00082255,-0.00027318,-0.00051289,0.0000
 4244,-0.00015791,-0.00009042,-0.00002549,-0.00002230,-0.00002888,-0.00
 001976,0.00001569,-0.00001969,0.00001100,0.00006155,0.00005121,-0.0000
 3315,-0.00003578,-0.00003734,0.00000229,-0.00007471,-0.00006073,0.0072
 1381,-0.01575302,-0.00529036,-0.08977123,0.29553771,0.00852360,-0.0316
 2753,-0.01006206,0.00075465,-0.00134293,0.00114087,-0.00012354,-0.0002
 5755,0.00027514,0.00041109,-0.00167443,-0.00038469,-0.00262916,0.00128
 470,-0.00481942,-0.00014246,0.00020673,-0.00082822,-0.00042738,0.00007
 706,-0.00014680,0.00024065,0.00009076,-0.00001955,-0.00014407,-0.00007
 722,-0.00000211,0.00018388,0.00001919,-0.00001829,0.00008576,0.0004688
 0,-0.00006844,0.00029456,0.00015648,-0.00009743,-0.00045525,-0.0000155
 3,0.00002293,-0.00019774,-0.00030610,0.00014212,-0.00022389,-0.0000279
 4,-0.00043718,-0.00002898,-0.00002207,-0.00019302,0.00000799,0.0000425
 2,0.00005311,-0.00003078,0.00006179,-0.00003418,0.00005406,0.00022286,
 -0.00004389,0.00011909,0.00015354,-0.00017833,0.00002986,-0.00004949,0
 .00001525,0.00000468,-0.00000621,0.00000027,-0.00000225,-0.00001106,0.
 00000346,0.00000613,-0.00001142,-0.00000568,0.01876943,-0.05047572,-0.
 06075421,-0.00046004,-0.00005681,0.00010989,0.00073415,0.00002602,-0.0
 0013864,-0.00004420,0.00003885,0.00000276,-0.00005193,-0.00022822,0.00
 004814,-0.00001243,0.00000712,0.00002600,-0.00000931,0.00017474,-0.000
 05299,-0.00002207,-0.00002105,-0.00001328,0.00007854,-0.00010345,0.000
 05884,-0.00861159,0.02047307,0.00683565,-0.01836577,0.06555955,0.07009
 442,-0.01952579,-0.00404953,-0.01052791,0.00126617,-0.00090223,0.00206
 889,0.00053660,-0.00003506,0.00012137,0.00047667,0.00006145,0.00011617
 ,0.00121681,0.00180542,0.00099484,0.00008475,0.00003925,-0.00009622,-0
 .00020044,-0.00013133,0.00002046,0.00011695,-0.00000549,-0.00004098,0.
 00004946,0.00004496,-0.00001237,-0.00000849,0.00011331,0.00005697,-0.0
 0029772,-0.00006658,0.00002806,0.00001448,0.00015726,-0.00003595,-0.00
 179876,-0.00035384,0.00060275,-0.00008275,-0.00010165,0.00009311,-0.00
 000706,-0.00001741,-0.00013878,0.00007971,0.00001861,0.00021363,-0.000
 01237,-0.00004213,-0.00012446,0.00008309,0.00013577,0.00018791,0.00039
 939,-0.00153170,-0.00071316,0.00039935,0.00090515,-0.00168433,0.000142
 16,-0.00005391,0.00006851,0.00001145,0.00000910,-0.00000182,-0.0000100
 1,0.00001685,-0.00001230,0.00005703,0.00004979,-0.00011397,-0.29300163
 ,-0.00159297,0.02644674,-0.00002959,-0.00002690,0.00001742,0.00293606,
 0.00058185,-0.00120195,-0.00008055,0.00013939,-0.00001648,-0.00001519,
 -0.00026757,0.00004138,0.00001930,-0.00002375,-0.00000466,-0.00029278,
 0.00025534,-0.00010803,0.00010194,0.00005624,0.00007149,0.00045390,-0.
 00030130,0.00011792,-0.00691903,0.00129878,0.00064992,-0.00866838,-0.0
 0135810,0.00167887,0.32254347,-0.01242848,-0.00146331,-0.00296433,0.00
 146214,0.00004336,0.00042961,0.00003735,0.00001398,0.00020281,0.000292
 35,-0.00002119,-0.00007761,-0.00370942,0.00204449,0.00065363,-0.000059
 25,-0.00016770,-0.00003859,0.00011153,-0.00014042,0.00001941,-0.000130
 17,0.00024766,0.00002642,-0.00008721,-0.00002676,-0.00001035,0.0000395
 3,-0.00007953,-0.00003344,0.00012596,0.00015944,-0.00008224,-0.0000214
 6,0.00000361,0.00002730,-0.00040897,-0.00005012,0.00025266,0.00013706,
 -0.00008502,0.00003669,0.00004399,0.00000439,-0.00006843,0.00010841,-0
 .00004840,0.00010479,0.00000619,-0.00002019,-0.00000224,-0.00001163,-0
 .00007319,0.00003797,0.00094924,0.00006818,0.00007582,0.00015556,0.000
 18622,-0.00014557,-0.00001464,-0.00000565,-0.00004086,-0.00000843,0.00
 000385,0.00001002,0.00000496,-0.00000561,0.00000515,-0.00005290,-0.000
 04104,0.00009329,-0.00041087,-0.04992927,0.00029063,0.00005211,0.00001
 639,-0.00003710,0.00057619,-0.00001059,-0.00052420,0.00001004,0.000044
 64,0.00003370,-0.00001307,-0.00003454,-0.00001036,-0.00000967,0.000004
 98,-0.00001135,-0.00003886,0.00005068,0.00000165,0.00000582,0.00000287
 ,0.00000289,0.00007023,-0.00007420,-0.00000094,-0.02046917,0.00027685,
 0.00165274,0.02849345,0.00203899,-0.00275559,0.00519407,0.04706659,-0.
 03632683,-0.00443747,-0.00833546,-0.00461445,-0.00223602,0.00350350,0.
 00044989,-0.00006297,0.00009330,0.00032691,0.00015437,0.00018195,-0.00
 269210,0.00313770,0.00126850,0.00045162,0.00011324,-0.00019384,-0.0001
 2074,-0.00012149,0.00002844,0.00009238,0.00004472,0.00001292,-0.000012
 87,0.00004305,-0.00002738,0.00001611,0.00001887,0.00000360,-0.00003487
 ,0.00007239,0.00004232,0.00004401,0.00002659,0.00001370,-0.00133851,-0
 .00007335,0.00095832,0.00033818,-0.00025725,-0.00018571,0.00006084,0.0
 0002544,-0.00004998,0.00007268,0.00006374,0.00008727,0.00009586,-0.000
 04438,-0.00007605,0.00012595,0.00004747,0.00011804,0.00147668,0.000018
 07,0.00030196,0.00179671,0.00011838,0.00023590,0.00008154,-0.00003583,
 -0.00002092,0.00000642,0.00000323,0.00000165,0.00000240,0.00000200,0.0
 0000082,0.00000651,0.00002225,0.00000318,0.02831264,0.00054554,-0.0517
 6332,-0.00004640,-0.00000634,-0.00000698,0.00172693,0.00000264,-0.0017
 4071,-0.00026471,-0.00014096,-0.00013940,-0.00002035,-0.00005868,-0.00
 001229,-0.00001445,0.00001074,-0.00001132,-0.00003760,0.00008519,0.000
 01237,-0.00001206,-0.00001152,-0.00001777,0.00006450,-0.00009338,-0.00
 000111,0.02222536,-0.00123218,-0.00100721,0.00648964,0.00140482,-0.000
 53668,-0.01873216,0.00284692,0.05725278,-0.00044040,-0.00003810,0.0000
 7443,0.00004812,0.00003600,-0.00006645,0.00009268,-0.00001875,0.000007
 66,0.00006597,0.00002206,0.00000375,0.00008292,-0.00011038,-0.00003021
 ,-0.00015205,-0.00015532,0.00002296,0.00025568,0.00018135,-0.00004437,
 -0.00037768,-0.00008400,0.00008981,-0.00006999,0.00013907,0.00000826,0
 .00003093,-0.00007894,-0.00000546,0.00000046,0.00010278,-0.00000307,-0
 .00028035,-0.00294228,0.00063552,-0.00151780,0.00045349,-0.00020327,0.
 00003773,-0.00001404,0.00000375,-0.00004710,0.00000066,0.00000928,0.00
 001016,-0.00006455,-0.00002146,-0.00004133,-0.00000135,0.00000062,-0.0
 0000625,0.00005059,-0.00004896,-0.00006298,-0.00000077,0.00000047,-0.0
 0006115,-0.00002010,0.00000850,0.00012748,-0.00001393,-0.00002774,0.00
 000807,-0.00001402,-0.00000331,-0.00001407,-0.00000342,0.00000090,-0.0
 0001168,0.00000079,0.00000019,0.00008953,0.00004077,0.00012341,0.00081
 702,0.00019066,-0.00021227,0.00076457,0.00030519,-0.00024749,-0.000066
 85,-0.00008756,0.00014810,-0.00013856,0.00543052,-0.00132421,-0.000349
 67,0.00010197,0.00007467,-0.00983799,-0.00989653,-0.01167958,-0.002275
 03,-0.00145756,0.00545753,0.00188452,-0.00204002,0.00008573,0.00002524
 ,0.00000041,0.00000461,0.00001461,0.00000452,0.00000551,-0.00006052,-0
 .00000536,0.00000346,0.44623905,-0.00017535,0.00012493,0.00006543,0.00
 005808,-0.00009901,0.00001084,0.00002680,0.00000786,-0.00001940,-0.000
 08393,-0.00004703,0.00002613,0.00003878,-0.00014376,-0.00007269,-0.000
 05433,-0.00015793,0.00000908,0.00013553,-0.00005428,-0.00000460,-0.000
 78769,-0.00004831,0.00016317,0.00003262,0.00023934,-0.00000477,-0.0000
 7449,-0.00002207,0.00000282,-0.00002560,0.00004797,-0.00000178,-0.0013
 5664,-0.00168109,0.00029942,-0.00100904,0.00114917,0.00006552,0.000000
 35,0.00000956,-0.00002819,-0.00001419,0.00002519,0.00000787,0.00002761
 ,0.00000646,-0.00002030,-0.00000989,0.00000994,-0.00000468,-0.00001934
 ,-0.00003083,-0.00002944,-0.00001669,0.00002694,0.00002223,-0.00002363
 ,0.00001984,0.00000893,0.00015069,-0.00008887,-0.00003248,0.00002958,-
 0.00000003,0.00000226,-0.00001928,0.00000316,0.00000340,-0.00001632,-0
 .00000997,0.00000269,0.00003699,-0.00000510,0.00001899,0.00179789,0.00
 030862,-0.00044995,0.00019552,0.00013299,-0.00011892,-0.00031890,-0.00
 022398,-0.00014349,0.00074240,0.00276912,-0.00017523,0.00002506,0.0001
 6729,0.00017079,-0.00929998,-0.00075541,-0.00774947,0.00034336,-0.0076
 2233,0.00370192,0.00200647,-0.00324122,-0.00041346,0.00001309,0.000001
 70,-0.00000709,0.00000665,0.00002504,0.00002398,-0.00001937,-0.0000013
 5,0.00000840,0.20470744,0.15216301,-0.00040687,-0.00000450,0.00022522,
 0.00004569,0.00001620,-0.00014021,-0.00006491,0.00004294,-0.00003070,-
 0.00003147,-0.00001222,0.00001916,0.00008029,-0.00012178,-0.00010884,-
 0.00007925,-0.00010502,0.00002503,0.00008722,0.00001151,0.00003447,-0.
 00053138,-0.00005883,0.00021632,-0.00001672,0.00014669,-0.00001587,-0.
 00003221,-0.00004081,-0.00000262,-0.00001509,0.00004316,-0.00000513,-0
 .00083291,-0.00330477,0.00103819,-0.00180552,0.00060345,0.00030377,0.0
 0001623,-0.00001825,0.00001584,-0.00002205,0.00000709,0.00001394,0.000
 01025,0.00001738,-0.00006345,-0.00001948,-0.00000430,0.00001445,0.0000
 1241,-0.00005008,-0.00004245,-0.00003209,0.00001967,0.00003228,-0.0000
 3833,-0.00000408,0.00005207,0.00012428,-0.00000096,-0.00019274,0.00001
 295,-0.00000619,-0.00001779,-0.00001671,-0.00000062,-0.00000582,-0.000
 01309,-0.00000413,-0.00000655,0.00004922,0.00001102,0.00003130,0.00132
 594,0.00021543,-0.00048151,0.00077902,0.00029895,-0.00037363,0.0001331
 6,-0.00006264,-0.00000593,-0.00024705,0.00575480,-0.00208322,-0.000063
 11,0.00014144,0.00005155,-0.01361564,-0.01038000,-0.00374535,0.0076629
 7,0.00388586,-0.00866748,0.00207211,-0.00261066,-0.00041748,0.00002927
 ,-0.00001804,0.00001733,0.00002102,0.00002603,0.00000288,-0.00004043,-
 0.00000034,0.00001247,-0.02744268,-0.18542841,0.62263244,-0.00000401,0
 .00001080,0.00007332,0.00000242,-0.00001060,-0.00004094,-0.00009064,0.
 00003507,-0.00002035,-0.00003626,-0.00001077,0.00001006,-0.00000162,-0
 .00001153,-0.00003598,0.00003581,0.00001761,0.00000615,-0.00007038,-0.
 00006032,0.00003395,-0.00006910,0.00001045,0.00006250,0.00002552,0.000
 00012,-0.00001096,-0.00002928,0.00001774,0.00000043,-0.00001298,-0.000
 02789,-0.00000331,-0.00022651,-0.00044631,0.00025676,-0.00024497,0.000
 09707,0.00017465,-0.00000637,-0.00000268,0.00000879,0.00001087,0.00000
 130,0.00000259,0.00000148,0.00003703,-0.00002322,0.00001225,-0.0000016
 1,0.00000719,0.00001074,-0.00004809,-0.00000193,0.00001333,0.00001070,
 0.00001555,0.00001153,0.00000744,0.00002532,0.00000759,0.00001243,-0.0
 0008531,0.00000213,0.00000256,-0.00000428,-0.00000094,0.00000123,-0.00
 000195,-0.00000036,-0.00000263,-0.00000249,-0.00001675,-0.00001329,-0.
 00003154,0.00023935,-0.00000055,-0.00013287,0.00004187,0.00002406,-0.0
 0008691,0.00004346,-0.00000163,-0.00002732,-0.00005652,0.00076492,-0.0
 0056055,0.00006654,-0.00001086,0.00001887,-0.00210397,-0.00244228,-0.0
 0073767,0.00302049,0.00448524,0.00042853,0.00045765,-0.00022198,-0.000
 15401,0.00000173,-0.00000708,0.00000607,0.00000255,0.00000896,-0.00000
 087,0.00000729,0.00000183,0.00000157,-0.06378413,0.00846338,-0.1298270
 8,0.05701266,-0.00004201,-0.00006856,0.00000799,-0.00001623,0.00005699
 ,-0.00003575,-0.00001066,-0.00000385,0.00000510,0.00004713,0.00002614,
 -0.00001120,-0.00000034,0.00002394,0.00002316,-0.00001679,0.00002859,0
 .00000185,-0.00000942,0.00008155,0.00000703,0.00020944,-0.00000607,-0.
 00000211,-0.00004013,-0.00006553,0.00000185,0.00003715,-0.00001580,-0.
 00000459,0.00000483,0.00000410,-0.00000144,0.00039508,-0.00055273,0.00
 032902,-0.00016327,-0.00009155,-0.00003819,0.00000676,-0.00000904,0.00
 001240,0.00000153,-0.00001132,0.00000058,-0.00001271,-0.00001446,0.000
 00936,-0.00000433,-0.00000242,0.00000427,0.00001211,0.00002524,0.00000
 074,-0.00000497,-0.00000815,-0.00000806,-0.00000291,-0.00001332,0.0000
 0464,-0.00001188,0.00003924,-0.00004009,-0.00001178,-0.00000733,-0.000
 00805,0.00000294,-0.00000202,-0.00000322,0.00000420,0.00000289,-0.0000
 0236,0.00000235,0.00000652,0.00001526,-0.00043461,-0.00007042,0.000032
 74,0.00010932,0.00006981,-0.00003283,0.00002274,0.00003336,0.00004236,
 -0.00027820,0.00123214,-0.00070183,-0.00006039,-0.00001199,-0.00006538
 ,-0.00267589,-0.00263630,-0.00117087,0.00422883,0.00375769,0.00021808,
 -0.00009552,-0.00019286,-0.00003124,0.00000189,-0.00000431,0.00000549,
 0.00000274,-0.00000571,-0.00001143,-0.00000474,0.00000031,-0.00000230,
 -0.00569285,-0.03289837,0.09382789,-0.00149760,0.03493385,0.00011101,0
 .00000141,-0.00006865,-0.00001695,-0.00000166,0.00004499,0.00002120,-0
 .00001620,0.00000642,-0.00000381,-0.00000353,-0.00001033,-0.00002244,0
 .00002721,0.00003178,0.00002681,0.00002878,-0.00000770,-0.00003212,-0.
 00000307,-0.00000313,0.00018369,0.00002673,-0.00007209,0.00000391,-0.0
 0004458,0.00000586,0.00001283,0.00001288,-0.00000184,0.00000549,-0.000
 01194,-0.00000098,0.00039335,0.00040343,-0.00011836,0.00039597,-0.0000
 2488,-0.00003202,-0.00000525,0.00000622,-0.00000950,0.00001218,-0.0000
 0148,-0.00000222,-0.00000598,0.00000009,0.00002446,0.00001635,0.000003
 17,-0.00000361,-0.00001166,0.00001187,0.00002608,0.00000969,-0.0000039
 6,-0.00000803,0.00001108,0.00000016,-0.00001565,-0.00003310,-0.0000040
 7,0.00003338,-0.00000480,0.00000261,0.00000663,0.00000576,0.00000070,0
 .00000358,0.00000495,0.00000082,0.00000363,-0.00001279,-0.00000199,-0.
 00000750,-0.00044999,-0.00008030,0.00015877,-0.00022325,-0.00006732,0.
 00009067,-0.00005281,-0.00000141,-0.00001454,-0.00029850,-0.00064429,-
 0.00006494,-0.00004017,-0.00005775,-0.00001532,0.00088052,0.00037761,0
 .00072696,-0.00137528,0.00001661,-0.00225965,-0.00042156,0.00012176,-0
 .00005795,-0.00000810,0.00000543,-0.00000614,-0.00000530,-0.00000672,-
 0.00000025,0.00001136,0.00000009,-0.00000298,-0.07939011,0.11281966,-0
 .49672561,0.09112002,-0.11339622,0.51356411,0.00010624,0.00002840,-0.0
 0001405,-0.00000728,-0.00002072,0.00002272,-0.00001043,0.00000272,0.00
 000135,-0.00002941,-0.00001026,0.00000374,-0.00002042,0.00000571,0.000
 00250,0.00003464,0.00001000,-0.00000703,-0.00004212,-0.00001782,0.0000
 0687,0.00003920,0.00001585,-0.00000547,0.00001653,-0.00001842,-0.00000
 001,-0.00001207,0.00001352,0.00000060,-0.00000679,-0.00001559,0.000001
 14,0.00003932,0.00025696,0.00001325,0.00028269,0.00014270,0.00000544,-
 0.00001057,0.00000552,-0.00000660,0.00000770,0.00000240,-0.00000249,0.
 00000508,0.00001103,0.00000589,0.00000541,0.00000357,-0.00000243,0.000
 00249,-0.00001299,0.00000207,0.00001664,0.00000502,0.00000155,0.000014
 15,0.00000743,-0.00000299,0.00000491,0.00000061,0.00000897,-0.00000154
 ,0.00000235,-0.00000113,0.00000160,0.00000096,-0.00000076,0.00000051,-
 0.00000292,0.00000008,-0.00002294,-0.00001325,-0.00003170,-0.00007911,
 -0.00002071,0.00001733,-0.00019868,-0.00005419,0.00005690,-0.00012403,
 -0.00003832,-0.00007343,-0.00006047,-0.00044864,-0.00009389,0.00004653
 ,-0.00002267,-0.00001904,0.00027355,-0.00000217,-0.00062162,-0.0017767
 4,0.00000154,0.00175602,-0.00007845,-0.00013028,0.00008851,-0.00000516
 ,-0.00000058,-0.00000280,-0.00000223,0.00000264,0.00000121,0.00001503,
 0.00000154,-0.00000069,-0.37099914,-0.20551364,0.16273209,0.00572755,0
 .00599819,-0.01081219,0.36684782,0.00001777,-0.00004440,0.00000279,-0.
 00001197,0.00002905,-0.00001850,-0.00001807,0.00000301,0.00000322,0.00
 001721,0.00000809,-0.00000698,-0.00000250,0.00004218,0.00000662,0.0000
 0729,0.00002827,-0.00000211,-0.00001989,0.00003005,0.00000624,0.000197
 04,0.00000868,-0.00003861,-0.00001688,-0.00005197,0.00000330,0.0000214
 7,-0.00000181,-0.00000166,0.00000432,-0.00000563,0.00000072,0.00040591
 ,0.00012625,-0.00005324,0.00009684,-0.00022414,0.00003863,0.00000032,-
 0.00000583,0.00001284,0.00000729,-0.00000514,-0.00000169,-0.00001221,0
 .00000809,-0.00000135,0.00000218,-0.00000340,0.00000241,0.00000699,-0.
 00000406,0.00000617,0.00000313,-0.00000671,-0.00000190,0.00000430,-0.0
 0000552,0.00000316,-0.00002403,0.00001984,-0.00000614,-0.00000795,-0.0
 0000190,-0.00000133,0.00000385,-0.00000056,-0.00000126,0.00000435,0.00
 000241,-0.00000110,-0.00000652,0.00000436,-0.00000322,-0.00044251,-0.0
 0007107,0.00010535,0.00000524,-0.00000480,0.00000455,0.00009687,0.0000
 8929,0.00003285,-0.00016577,-0.00006231,0.00005188,-0.00011192,-0.0000
 5206,-0.00003680,0.00009513,-0.00023495,-0.00069738,-0.00141529,-0.000
 71853,0.00179723,-0.00034683,0.00031351,-0.00034392,-0.00000185,-0.000
 00105,0.00000481,-0.00000012,-0.00000639,-0.00000604,0.00000299,0.0000
 0059,-0.00000165,-0.18902841,-0.11010718,0.09716710,-0.00919225,-0.003
 63026,0.00050413,0.19982451,0.11453599,0.00000272,0.00000553,-0.000036
 66,0.00000443,-0.00001213,0.00002209,0.00001785,-0.00000704,0.00000126
 ,0.00001167,0.00000542,-0.00000013,-0.00000437,-0.00000720,0.00001620,
 -0.00001466,-0.00001973,0.00000104,0.00002723,0.00002456,-0.00001245,-
 0.00003549,-0.00000732,-0.00001010,-0.00000500,0.00001706,0.00000276,0
 .00000183,-0.00000799,-0.00000039,-0.00000130,0.00001027,-0.00000123,-
 0.00001393,-0.00026539,-0.00000896,-0.00003812,0.00013918,-0.00016079,
 0.00000279,0.00000434,-0.00000519,-0.00000056,0.00000002,-0.00000093,-
 0.00000062,-0.00000954,0.00000908,-0.00000040,0.00000137,-0.00000288,-
 0.00000486,0.00001336,0.00000010,-0.00000353,-0.00000087,-0.00000539,-
 0.00000312,0.00000069,-0.00000715,0.00001934,-0.00001197,0.00001659,0.
 00000157,-0.00000203,0.00000553,-0.00000110,0.00000016,0.00000271,-0.0
 0000182,-0.00000063,0.00000276,0.00000686,0.00000042,0.00002345,0.0000
 6937,0.00001470,0.00000229,-0.00004210,0.00001590,0.00001710,-0.000142
 44,-0.00001731,0.00005068,0.00000980,0.00048691,-0.00003717,-0.0000691
 0,-0.00001854,0.00005271,-0.00206738,-0.00164006,-0.00364792,0.0015764
 5,0.00189759,0.00694889,0.00021571,-0.00037129,0.00012290,-0.00000258,
 0.00000765,-0.00000417,-0.00000216,-0.00000450,0.00000363,-0.00000181,
 -0.00000065,-0.00000387,0.11398154,0.07727082,-0.11160634,0.03953722,0
 .02101734,-0.01521833,-0.15302990,-0.09852912,0.12346830\\-0.00000007,
 -0.00000066,-0.00000063,0.00000054,-0.00000147,0.00000052,-0.00000017,
 0.00000196,-0.00000098,0.00000032,0.00000025,-0.00000049,-0.00000066,0
 .00000040,-0.00000105,0.00000008,-0.00000061,0.00000007,0.00000139,0.0
 0000016,0.00000073,-0.00000036,-0.00000031,0.00000120,-0.00000085,-0.0
 0000021,0.00000134,0.00000027,0.00000071,0.00000080,0.00000084,0.00000
 098,0.00000185,-0.00000047,0.00000015,0.00000073,0.00000204,0.00000061
 ,-0.00000016,-0.00000031,-0.00000039,-0.00000096,-0.00000002,0.0000005
 1,-0.00000097,-0.00000034,0.00000058,-0.00000096,-0.00000036,0.0000010
 4,-0.00000011,0.00000061,0.00000018,-0.00000054,-0.00000023,-0.0000003
 7,-0.00000067,0.00000027,-0.00000001,-0.00000024,-0.00000039,0.0000005
 5,-0.00000042,0.00000022,-0.00000016,0.00000151,0.00000005,-0.00000014
 ,0.00000168,0.00000017,-0.00000011,0.00000080,0.00000040,-0.00000074,-
 0.00000060,0.00000066,0.00000022,0.00000048,-0.00000301,0.,-0.00000078
 ,-0.00000014,-0.00000058,-0.00000096,-0.00000033,-0.00000039,0.0000010
 7,-0.00000015,-0.00000045,0.00000110,0.00000092,-0.00000124,-0.0000005
 5,0.00000031,0.00000013,-0.00000071,-0.00000115,0.00000041,-0.00000041
 ,0.00000013,-0.00000081,-0.00000014,0.00000003,-0.00000106,0.00000005,
 -0.00000016,-0.00000066,-0.00000012,0.00000053,0.00000008,0.00000081,-
 0.00000138,0.00000061,-0.00000013,0.00000079,0.00000084,-0.00000217\\\
 @


 IT PROBABLY IS NOT POSSIBLE FOR A SCIENTIST TO INTERROGATE NATURE 
 FROM A WHOLLY DISINTERESTED VIEWPOINT.
 EVEN IF HE HAS NO PARTICULAR AXE TO GRIND, HE IS LIKELY TO HAVE 
 A DISTINCTIVE WAY OF VIEWING NATURE.

                                                   -- JOHN LOSEE
 Job cpu time:       1 days  5 hours 56 minutes 34.3 seconds.
 Elapsed time:       0 days  0 hours 56 minutes 19.5 seconds.
 File lengths (MBytes):  RWF=   1236 Int=      0 D2E=      0 Chk=     32 Scr=      8
 Normal termination of Gaussian 16 at Fri Mar  3 05:47:46 2023.
