 Entering Gaussian System, Link 0=g16
 Input=NicWa4h3bLMid_4.gjf
 Output=NicWa4h3bLMid_4.log
 Initial command:
 /sw/contrib/gaussian/g16/A03/g16/l1.exe "/gscratch/scrubbed/gds001/Gau-1329.inp" -scrdir="/gscratch/scrubbed/gds001/"
 Entering Link 1 = /sw/contrib/gaussian/g16/A03/g16/l1.exe PID=      1330.
  
 Copyright (c) 1988,1990,1992,1993,1995,1998,2003,2009,2016,
            Gaussian, Inc.  All Rights Reserved.
  
 This is part of the Gaussian(R) 16 program.  It is based on
 the Gaussian(R) 09 system (copyright 2009, Gaussian, Inc.),
 the Gaussian(R) 03 system (copyright 2003, Gaussian, Inc.),
 the Gaussian(R) 98 system (copyright 1998, Gaussian, Inc.),
 the Gaussian(R) 94 system (copyright 1995, Gaussian, Inc.),
 the Gaussian 92(TM) system (copyright 1992, Gaussian, Inc.),
 the Gaussian 90(TM) system (copyright 1990, Gaussian, Inc.),
 the Gaussian 88(TM) system (copyright 1988, Gaussian, Inc.),
 the Gaussian 86(TM) system (copyright 1986, Carnegie Mellon
 University), and the Gaussian 82(TM) system (copyright 1983,
 Carnegie Mellon University). Gaussian is a federally registered
 trademark of Gaussian, Inc.
  
 This software contains proprietary and confidential information,
 including trade secrets, belonging to Gaussian, Inc.
  
 This software is provided under written license and may be
 used, copied, transmitted, or stored only in accord with that
 written license.
  
 The following legend is applicable only to US Government
 contracts under FAR:
  
                    RESTRICTED RIGHTS LEGEND
  
 Use, reproduction and disclosure by the US Government is
 subject to restrictions as set forth in subparagraphs (a)
 and (c) of the Commercial Computer Software - Restricted
 Rights clause in FAR 52.227-19.
  
 Gaussian, Inc.
 340 Quinnipiac St., Bldg. 40, Wallingford CT 06492
  
  
 ---------------------------------------------------------------
 Warning -- This program may not be used in any manner that
 competes with the business of Gaussian, Inc. or will provide
 assistance to any competitor of Gaussian, Inc.  The licensee
 of this program is prohibited from giving any competitor of
 Gaussian, Inc. access to this program.  By using this program,
 the user acknowledges that Gaussian, Inc. is engaged in the
 business of creating and licensing software in the field of
 computational chemistry and represents and warrants to the
 licensee that it is not a competitor of Gaussian, Inc. and that
 it will not use this program in any manner prohibited above.
 ---------------------------------------------------------------
  

 Cite this work as:
 Gaussian 16, Revision A.03,
 M. J. Frisch, G. W. Trucks, H. B. Schlegel, G. E. Scuseria, 
 M. A. Robb, J. R. Cheeseman, G. Scalmani, V. Barone, 
 G. A. Petersson, H. Nakatsuji, X. Li, M. Caricato, A. V. Marenich, 
 J. Bloino, B. G. Janesko, R. Gomperts, B. Mennucci, H. P. Hratchian, 
 J. V. Ortiz, A. F. Izmaylov, J. L. Sonnenberg, D. Williams-Young, 
 F. Ding, F. Lipparini, F. Egidi, J. Goings, B. Peng, A. Petrone, 
 T. Henderson, D. Ranasinghe, V. G. Zakrzewski, J. Gao, N. Rega, 
 G. Zheng, W. Liang, M. Hada, M. Ehara, K. Toyota, R. Fukuda, 
 J. Hasegawa, M. Ishida, T. Nakajima, Y. Honda, O. Kitao, H. Nakai, 
 T. Vreven, K. Throssell, J. A. Montgomery, Jr., J. E. Peralta, 
 F. Ogliaro, M. J. Bearpark, J. J. Heyd, E. N. Brothers, K. N. Kudin, 
 V. N. Staroverov, T. A. Keith, R. Kobayashi, J. Normand, 
 K. Raghavachari, A. P. Rendell, J. C. Burant, S. S. Iyengar, 
 J. Tomasi, M. Cossi, J. M. Millam, M. Klene, C. Adamo, R. Cammi, 
 J. W. Ochterski, R. L. Martin, K. Morokuma, O. Farkas, 
 J. B. Foresman, and D. J. Fox, Gaussian, Inc., Wallingford CT, 2016.
 
 ******************************************
 Gaussian 16:  ES64L-G16RevA.03 25-Dec-2016
                25-Feb-2023 
 ******************************************
 %nprocshared=28
 Will use up to   28 processors via shared memory.
 %mem=41GB
 ----------------------------------------------------------------
 # wB97XD/aug-cc-pVDZ opt=(TS,CalcAll,MaxStep=5,NoEigenTest) freq
 ----------------------------------------------------------------
 1/5=1,8=5,10=4,11=1,18=20,26=3,38=1/1,3;
 2/9=110,12=2,17=6,18=5,40=1/2;
 3/5=16,7=10,11=2,25=1,30=1,71=2,74=-58,140=1/1,2,3;
 4//1;
 5/5=2,38=5/2;
 8/6=4,10=90,11=11/1;
 11/6=1,8=1,9=11,15=111,16=1/1,2,10;
 10/6=1/2;
 6/7=2,8=2,9=2,10=2,18=1,28=1/1;
 7/10=1,25=1/1,2,3,16;
 1/5=1,8=5,10=4,11=1,18=20,26=3/3(3);
 2/9=110/2;
 7/8=1,9=1,25=1,44=-1/16;
 99//99;
 2/9=110/2;
 3/5=16,7=10,11=2,25=1,30=1,71=2,74=-58,140=1/1,2,3;
 4/5=5,16=3,69=1/1;
 5/5=2,38=5/2;
 8/6=4,10=90,11=11/1;
 11/6=1,8=1,9=11,15=111,16=1/1,2,10;
 10/6=1/2;
 7/10=1,25=1/1,2,3,16;
 1/5=1,8=5,10=4,11=1,18=20,26=3/3(-8);
 2/9=110/2;
 6/7=2,8=2,9=2,10=2,18=1,19=2,28=1/1;
 7/8=1,9=1,25=1,44=-1/16;
 99//99;
 ----
 blah
 ----
 Symbolic Z-matrix:
 Charge =  1 Multiplicity = 1
 N                     1.11367  -1.65346   0.6279 
 C                     1.55005  -0.94979  -0.61015 
 C                     0.65768  -1.5583   -1.71095 
 C                     0.17905  -2.91423  -1.13864 
 C                     0.92485  -3.0525    0.18903 
 C                     1.50994   0.55124  -0.46343 
 C                     0.29866   1.22587  -0.32038 
 N                     0.19307   2.54399  -0.15014 
 C                     1.31581   3.27107  -0.1342 
 C                     2.57643   2.70263  -0.28416 
 C                     2.67162   1.32265  -0.44437 
 O                    -2.47704   2.7165    0.28559 
 O                    -1.12552  -1.06729   1.59819 
 H                     0.37241  -3.61073   0.95321 
 H                     0.39294  -3.75377  -1.80689 
 H                    -0.90241  -2.89656  -0.96211 
 H                     1.23181  -1.67032  -2.6361 
 H                    -0.19003  -0.90369  -1.93939 
 H                     1.90912  -3.52848   0.05185 
 H                     2.59655  -1.24567  -0.7953 
 H                    -0.64318   0.67701  -0.34455 
 H                     1.19796   4.34606   0.00219 
 H                     3.46475   3.33114  -0.27144 
 H                     3.64773   0.84876  -0.55634 
 C                     2.06181  -1.51418   1.73684 
 H                    -1.51037   2.88242   0.13654 
 H                    -0.11853  -1.26222   1.12932 
 H                    -1.12341  -1.24597   2.54121 
 H                    -2.80467   1.25984   0.73533 
 H                    -2.84596   3.48808   0.72096 
 O                    -2.98577   0.28741   0.93211 
 H                    -3.52324  -0.10382   0.20357 
 H                    -2.08212  -0.34109   1.23195 
 H                     1.70371  -2.09394   2.59542 
 H                     2.13556  -0.46036   2.02782 
 H                     3.05917  -1.88367   1.45373 
 O                    -4.38626  -0.80195  -1.07085 
 H                    -4.67029  -0.26154  -1.81422 
 H                    -5.12332  -1.38951  -0.87909 
 
 Add virtual bond connecting atoms H33        and O31        Dist= 2.16D+00.
 Add virtual bond connecting atoms H33        and O13        Dist= 2.37D+00.
 Add virtual bond connecting atoms H27        and N1         Dist= 2.62D+00.
 Add virtual bond connecting atoms H29        and O12        Dist= 2.95D+00.
 Add virtual bond connecting atoms O37        and H32        Dist= 3.19D+00.

 GradGradGradGradGradGradGradGradGradGradGradGradGradGradGradGradGradGrad
 Berny optimization.
 Initialization pass.
                           ----------------------------
                           !    Initial Parameters    !
                           ! (Angstroms and Degrees)  !
 --------------------------                            --------------------------
 ! Name  Definition              Value          Derivative Info.                !
 --------------------------------------------------------------------------------
 ! R1    R(1,2)                  1.4894         calculate D2E/DX2 analytically  !
 ! R2    R(1,5)                  1.4784         calculate D2E/DX2 analytically  !
 ! R3    R(1,25)                 1.4657         calculate D2E/DX2 analytically  !
 ! R4    R(1,27)                 1.3867         calculate D2E/DX2 analytically  !
 ! R5    R(2,3)                  1.5422         calculate D2E/DX2 analytically  !
 ! R6    R(2,6)                  1.5087         calculate D2E/DX2 analytically  !
 ! R7    R(2,20)                 1.1032         calculate D2E/DX2 analytically  !
 ! R8    R(3,4)                  1.5476         calculate D2E/DX2 analytically  !
 ! R9    R(3,17)                 1.0946         calculate D2E/DX2 analytically  !
 ! R10   R(3,18)                 1.0951         calculate D2E/DX2 analytically  !
 ! R11   R(4,5)                  1.5291         calculate D2E/DX2 analytically  !
 ! R12   R(4,15)                 1.0941         calculate D2E/DX2 analytically  !
 ! R13   R(4,16)                 1.0959         calculate D2E/DX2 analytically  !
 ! R14   R(5,14)                 1.0958         calculate D2E/DX2 analytically  !
 ! R15   R(5,19)                 1.1019         calculate D2E/DX2 analytically  !
 ! R16   R(6,7)                  1.3938         calculate D2E/DX2 analytically  !
 ! R17   R(6,11)                 1.3946         calculate D2E/DX2 analytically  !
 ! R18   R(7,8)                  1.3333         calculate D2E/DX2 analytically  !
 ! R19   R(7,21)                 1.0904         calculate D2E/DX2 analytically  !
 ! R20   R(8,9)                  1.3377         calculate D2E/DX2 analytically  !
 ! R21   R(9,10)                 1.391          calculate D2E/DX2 analytically  !
 ! R22   R(9,22)                 1.09           calculate D2E/DX2 analytically  !
 ! R23   R(10,11)                1.3925         calculate D2E/DX2 analytically  !
 ! R24   R(10,23)                1.0883         calculate D2E/DX2 analytically  !
 ! R25   R(11,24)                1.0908         calculate D2E/DX2 analytically  !
 ! R26   R(12,26)                0.9921         calculate D2E/DX2 analytically  !
 ! R27   R(12,29)                1.5593         calculate D2E/DX2 analytically  !
 ! R28   R(12,30)                0.9597         calculate D2E/DX2 analytically  !
 ! R29   R(13,27)                1.1278         calculate D2E/DX2 analytically  !
 ! R30   R(13,28)                0.9598         calculate D2E/DX2 analytically  !
 ! R31   R(13,33)                1.2556         calculate D2E/DX2 analytically  !
 ! R32   R(25,34)                1.0961         calculate D2E/DX2 analytically  !
 ! R33   R(25,35)                1.0957         calculate D2E/DX2 analytically  !
 ! R34   R(25,36)                1.1006         calculate D2E/DX2 analytically  !
 ! R35   R(29,31)                1.0085         calculate D2E/DX2 analytically  !
 ! R36   R(31,32)                0.9863         calculate D2E/DX2 analytically  !
 ! R37   R(31,33)                1.1408         calculate D2E/DX2 analytically  !
 ! R38   R(32,37)                1.6901         calculate D2E/DX2 analytically  !
 ! R39   R(37,38)                0.9619         calculate D2E/DX2 analytically  !
 ! R40   R(37,39)                0.9619         calculate D2E/DX2 analytically  !
 ! A1    A(2,1,5)              103.7544         calculate D2E/DX2 analytically  !
 ! A2    A(2,1,25)             113.2342         calculate D2E/DX2 analytically  !
 ! A3    A(2,1,27)             115.3177         calculate D2E/DX2 analytically  !
 ! A4    A(5,1,25)             113.4012         calculate D2E/DX2 analytically  !
 ! A5    A(5,1,27)             105.121          calculate D2E/DX2 analytically  !
 ! A6    A(25,1,27)            105.9288         calculate D2E/DX2 analytically  !
 ! A7    A(1,2,3)              103.7315         calculate D2E/DX2 analytically  !
 ! A8    A(1,2,6)              112.4215         calculate D2E/DX2 analytically  !
 ! A9    A(1,2,20)             106.902          calculate D2E/DX2 analytically  !
 ! A10   A(3,2,6)              116.5252         calculate D2E/DX2 analytically  !
 ! A11   A(3,2,20)             108.8611         calculate D2E/DX2 analytically  !
 ! A12   A(6,2,20)             107.9625         calculate D2E/DX2 analytically  !
 ! A13   A(2,3,4)              105.1111         calculate D2E/DX2 analytically  !
 ! A14   A(2,3,17)             109.8877         calculate D2E/DX2 analytically  !
 ! A15   A(2,3,18)             111.1579         calculate D2E/DX2 analytically  !
 ! A16   A(4,3,17)             112.6509         calculate D2E/DX2 analytically  !
 ! A17   A(4,3,18)             111.1888         calculate D2E/DX2 analytically  !
 ! A18   A(17,3,18)            106.9117         calculate D2E/DX2 analytically  !
 ! A19   A(3,4,5)              104.4464         calculate D2E/DX2 analytically  !
 ! A20   A(3,4,15)             112.7023         calculate D2E/DX2 analytically  !
 ! A21   A(3,4,16)             110.5258         calculate D2E/DX2 analytically  !
 ! A22   A(5,4,15)             111.4429         calculate D2E/DX2 analytically  !
 ! A23   A(5,4,16)             110.0546         calculate D2E/DX2 analytically  !
 ! A24   A(15,4,16)            107.6777         calculate D2E/DX2 analytically  !
 ! A25   A(1,5,4)              103.5609         calculate D2E/DX2 analytically  !
 ! A26   A(1,5,14)             109.8437         calculate D2E/DX2 analytically  !
 ! A27   A(1,5,19)             109.3696         calculate D2E/DX2 analytically  !
 ! A28   A(4,5,14)             113.9341         calculate D2E/DX2 analytically  !
 ! A29   A(4,5,19)             111.5093         calculate D2E/DX2 analytically  !
 ! A30   A(14,5,19)            108.4873         calculate D2E/DX2 analytically  !
 ! A31   A(2,6,7)              120.9729         calculate D2E/DX2 analytically  !
 ! A32   A(2,6,11)             121.9715         calculate D2E/DX2 analytically  !
 ! A33   A(7,6,11)             117.0489         calculate D2E/DX2 analytically  !
 ! A34   A(6,7,8)              124.0863         calculate D2E/DX2 analytically  !
 ! A35   A(6,7,21)             120.3136         calculate D2E/DX2 analytically  !
 ! A36   A(8,7,21)             115.6            calculate D2E/DX2 analytically  !
 ! A37   A(7,8,9)              118.1913         calculate D2E/DX2 analytically  !
 ! A38   A(8,9,10)             122.4964         calculate D2E/DX2 analytically  !
 ! A39   A(8,9,22)             116.5384         calculate D2E/DX2 analytically  !
 ! A40   A(10,9,22)            120.9651         calculate D2E/DX2 analytically  !
 ! A41   A(9,10,11)            118.6428         calculate D2E/DX2 analytically  !
 ! A42   A(9,10,23)            120.1662         calculate D2E/DX2 analytically  !
 ! A43   A(11,10,23)           121.1905         calculate D2E/DX2 analytically  !
 ! A44   A(6,11,10)            119.5242         calculate D2E/DX2 analytically  !
 ! A45   A(6,11,24)            120.2437         calculate D2E/DX2 analytically  !
 ! A46   A(10,11,24)           120.2319         calculate D2E/DX2 analytically  !
 ! A47   A(26,12,29)           113.8472         calculate D2E/DX2 analytically  !
 ! A48   A(26,12,30)           107.9552         calculate D2E/DX2 analytically  !
 ! A49   A(29,12,30)           122.6463         calculate D2E/DX2 analytically  !
 ! A50   A(27,13,28)           111.9837         calculate D2E/DX2 analytically  !
 ! A51   A(27,13,33)           131.2209         calculate D2E/DX2 analytically  !
 ! A52   A(28,13,33)           113.3235         calculate D2E/DX2 analytically  !
 ! A53   A(1,25,34)            109.3317         calculate D2E/DX2 analytically  !
 ! A54   A(1,25,35)            109.6245         calculate D2E/DX2 analytically  !
 ! A55   A(1,25,36)            111.0804         calculate D2E/DX2 analytically  !
 ! A56   A(34,25,35)           108.8243         calculate D2E/DX2 analytically  !
 ! A57   A(34,25,36)           108.6606         calculate D2E/DX2 analytically  !
 ! A58   A(35,25,36)           109.2803         calculate D2E/DX2 analytically  !
 ! A59   A(29,31,32)           109.6459         calculate D2E/DX2 analytically  !
 ! A60   A(29,31,33)           116.1191         calculate D2E/DX2 analytically  !
 ! A61   A(32,31,33)           114.0334         calculate D2E/DX2 analytically  !
 ! A62   A(32,37,38)           120.096          calculate D2E/DX2 analytically  !
 ! A63   A(32,37,39)           119.5559         calculate D2E/DX2 analytically  !
 ! A64   A(38,37,39)           105.7221         calculate D2E/DX2 analytically  !
 ! A65   L(1,27,13,7,-1)       186.9969         calculate D2E/DX2 analytically  !
 ! A66   L(12,29,31,2,-1)      176.2614         calculate D2E/DX2 analytically  !
 ! A67   L(31,32,37,2,-1)      177.6616         calculate D2E/DX2 analytically  !
 ! A68   L(13,33,31,7,-1)      182.8603         calculate D2E/DX2 analytically  !
 ! A69   L(1,27,13,7,-2)       179.9228         calculate D2E/DX2 analytically  !
 ! A70   L(12,29,31,2,-2)      184.6234         calculate D2E/DX2 analytically  !
 ! A71   L(31,32,37,2,-2)      179.7487         calculate D2E/DX2 analytically  !
 ! A72   L(13,33,31,7,-2)      180.1696         calculate D2E/DX2 analytically  !
 ! D1    D(5,1,2,3)             40.6729         calculate D2E/DX2 analytically  !
 ! D2    D(5,1,2,6)            167.4104         calculate D2E/DX2 analytically  !
 ! D3    D(5,1,2,20)           -74.2919         calculate D2E/DX2 analytically  !
 ! D4    D(25,1,2,3)           164.0443         calculate D2E/DX2 analytically  !
 ! D5    D(25,1,2,6)           -69.2181         calculate D2E/DX2 analytically  !
 ! D6    D(25,1,2,20)           49.0796         calculate D2E/DX2 analytically  !
 ! D7    D(27,1,2,3)           -73.7139         calculate D2E/DX2 analytically  !
 ! D8    D(27,1,2,6)            53.0236         calculate D2E/DX2 analytically  !
 ! D9    D(27,1,2,20)          171.3213         calculate D2E/DX2 analytically  !
 ! D10   D(2,1,5,4)            -44.1675         calculate D2E/DX2 analytically  !
 ! D11   D(2,1,5,14)          -166.221          calculate D2E/DX2 analytically  !
 ! D12   D(2,1,5,19)            74.8183         calculate D2E/DX2 analytically  !
 ! D13   D(25,1,5,4)          -167.4295         calculate D2E/DX2 analytically  !
 ! D14   D(25,1,5,14)           70.517          calculate D2E/DX2 analytically  !
 ! D15   D(25,1,5,19)          -48.4436         calculate D2E/DX2 analytically  !
 ! D16   D(27,1,5,4)            77.3121         calculate D2E/DX2 analytically  !
 ! D17   D(27,1,5,14)          -44.7414         calculate D2E/DX2 analytically  !
 ! D18   D(27,1,5,19)         -163.7021         calculate D2E/DX2 analytically  !
 ! D19   D(2,1,13,28)         -153.9152         calculate D2E/DX2 analytically  !
 ! D20   D(2,1,13,33)            6.0873         calculate D2E/DX2 analytically  !
 ! D21   D(5,1,13,28)           92.5942         calculate D2E/DX2 analytically  !
 ! D22   D(5,1,13,33)         -107.4032         calculate D2E/DX2 analytically  !
 ! D23   D(25,1,13,28)         -26.3523         calculate D2E/DX2 analytically  !
 ! D24   D(25,1,13,33)         133.6503         calculate D2E/DX2 analytically  !
 ! D25   D(2,1,25,34)         -177.2572         calculate D2E/DX2 analytically  !
 ! D26   D(2,1,25,35)           63.5255         calculate D2E/DX2 analytically  !
 ! D27   D(2,1,25,36)          -57.3478         calculate D2E/DX2 analytically  !
 ! D28   D(5,1,25,34)          -59.3706         calculate D2E/DX2 analytically  !
 ! D29   D(5,1,25,35)         -178.588          calculate D2E/DX2 analytically  !
 ! D30   D(5,1,25,36)           60.5388         calculate D2E/DX2 analytically  !
 ! D31   D(27,1,25,34)          55.407          calculate D2E/DX2 analytically  !
 ! D32   D(27,1,25,35)         -63.8103         calculate D2E/DX2 analytically  !
 ! D33   D(27,1,25,36)         175.3164         calculate D2E/DX2 analytically  !
 ! D34   D(1,2,3,4)            -21.2926         calculate D2E/DX2 analytically  !
 ! D35   D(1,2,3,17)          -142.7519         calculate D2E/DX2 analytically  !
 ! D36   D(1,2,3,18)            99.1024         calculate D2E/DX2 analytically  !
 ! D37   D(6,2,3,4)           -145.4035         calculate D2E/DX2 analytically  !
 ! D38   D(6,2,3,17)            93.1372         calculate D2E/DX2 analytically  !
 ! D39   D(6,2,3,18)           -25.0085         calculate D2E/DX2 analytically  !
 ! D40   D(20,2,3,4)            92.2699         calculate D2E/DX2 analytically  !
 ! D41   D(20,2,3,17)          -29.1894         calculate D2E/DX2 analytically  !
 ! D42   D(20,2,3,18)         -147.3352         calculate D2E/DX2 analytically  !
 ! D43   D(1,2,6,7)            -67.1683         calculate D2E/DX2 analytically  !
 ! D44   D(1,2,6,11)           111.867          calculate D2E/DX2 analytically  !
 ! D45   D(3,2,6,7)             52.3657         calculate D2E/DX2 analytically  !
 ! D46   D(3,2,6,11)          -128.5991         calculate D2E/DX2 analytically  !
 ! D47   D(20,2,6,7)           175.1607         calculate D2E/DX2 analytically  !
 ! D48   D(20,2,6,11)           -5.804          calculate D2E/DX2 analytically  !
 ! D49   D(2,3,4,5)             -4.9876         calculate D2E/DX2 analytically  !
 ! D50   D(2,3,4,15)          -126.1183         calculate D2E/DX2 analytically  !
 ! D51   D(2,3,4,16)           113.3436         calculate D2E/DX2 analytically  !
 ! D52   D(17,3,4,5)           114.6489         calculate D2E/DX2 analytically  !
 ! D53   D(17,3,4,15)           -6.4818         calculate D2E/DX2 analytically  !
 ! D54   D(17,3,4,16)         -127.0199         calculate D2E/DX2 analytically  !
 ! D55   D(18,3,4,5)          -125.3622         calculate D2E/DX2 analytically  !
 ! D56   D(18,3,4,15)          113.5071         calculate D2E/DX2 analytically  !
 ! D57   D(18,3,4,16)           -7.0309         calculate D2E/DX2 analytically  !
 ! D58   D(3,4,5,1)             29.747          calculate D2E/DX2 analytically  !
 ! D59   D(3,4,5,14)           149.0285         calculate D2E/DX2 analytically  !
 ! D60   D(3,4,5,19)           -87.7542         calculate D2E/DX2 analytically  !
 ! D61   D(15,4,5,1)           151.7096         calculate D2E/DX2 analytically  !
 ! D62   D(15,4,5,14)          -89.0089         calculate D2E/DX2 analytically  !
 ! D63   D(15,4,5,19)           34.2083         calculate D2E/DX2 analytically  !
 ! D64   D(16,4,5,1)           -88.9052         calculate D2E/DX2 analytically  !
 ! D65   D(16,4,5,14)           30.3763         calculate D2E/DX2 analytically  !
 ! D66   D(16,4,5,19)          153.5935         calculate D2E/DX2 analytically  !
 ! D67   D(2,6,7,8)            178.1002         calculate D2E/DX2 analytically  !
 ! D68   D(2,6,7,21)            -1.9554         calculate D2E/DX2 analytically  !
 ! D69   D(11,6,7,8)            -0.9808         calculate D2E/DX2 analytically  !
 ! D70   D(11,6,7,21)          178.9636         calculate D2E/DX2 analytically  !
 ! D71   D(2,6,11,10)         -178.9397         calculate D2E/DX2 analytically  !
 ! D72   D(2,6,11,24)            1.1929         calculate D2E/DX2 analytically  !
 ! D73   D(7,6,11,10)            0.1315         calculate D2E/DX2 analytically  !
 ! D74   D(7,6,11,24)         -179.7359         calculate D2E/DX2 analytically  !
 ! D75   D(6,7,8,9)              1.0064         calculate D2E/DX2 analytically  !
 ! D76   D(21,7,8,9)          -178.9404         calculate D2E/DX2 analytically  !
 ! D77   D(7,8,9,10)            -0.1776         calculate D2E/DX2 analytically  !
 ! D78   D(7,8,9,22)           179.7354         calculate D2E/DX2 analytically  !
 ! D79   D(8,9,10,11)           -0.6119         calculate D2E/DX2 analytically  !
 ! D80   D(8,9,10,23)          179.6166         calculate D2E/DX2 analytically  !
 ! D81   D(22,9,10,11)         179.4788         calculate D2E/DX2 analytically  !
 ! D82   D(22,9,10,23)          -0.2926         calculate D2E/DX2 analytically  !
 ! D83   D(9,10,11,6)            0.6089         calculate D2E/DX2 analytically  !
 ! D84   D(9,10,11,24)        -179.5237         calculate D2E/DX2 analytically  !
 ! D85   D(23,10,11,6)        -179.6221         calculate D2E/DX2 analytically  !
 ! D86   D(23,10,11,24)          0.2453         calculate D2E/DX2 analytically  !
 ! D87   D(26,12,31,32)       -114.9165         calculate D2E/DX2 analytically  !
 ! D88   D(26,12,31,33)         13.5173         calculate D2E/DX2 analytically  !
 ! D89   D(30,12,31,32)        110.5121         calculate D2E/DX2 analytically  !
 ! D90   D(30,12,31,33)       -121.0542         calculate D2E/DX2 analytically  !
 ! D91   D(27,13,31,29)        -53.9225         calculate D2E/DX2 analytically  !
 ! D92   D(27,13,31,32)         76.0906         calculate D2E/DX2 analytically  !
 ! D93   D(28,13,31,29)        103.8024         calculate D2E/DX2 analytically  !
 ! D94   D(28,13,31,32)       -126.1844         calculate D2E/DX2 analytically  !
 ! D95   D(29,31,37,38)         -2.5378         calculate D2E/DX2 analytically  !
 ! D96   D(29,31,37,39)       -136.9713         calculate D2E/DX2 analytically  !
 ! D97   D(33,31,37,38)       -133.8205         calculate D2E/DX2 analytically  !
 ! D98   D(33,31,37,39)         91.7461         calculate D2E/DX2 analytically  !
 --------------------------------------------------------------------------------
 Trust Radius=5.00D-02 FncErr=1.00D-07 GrdErr=1.00D-06 EigMax=2.50D+02 EigMin=1.00D-04
 Number of steps in this run=    220 maximum allowed number of steps=    234.
 Search for a saddle point of order  1.
 GradGradGradGradGradGradGradGradGradGradGradGradGradGradGradGradGradGrad

                          Input orientation:                          
 ---------------------------------------------------------------------
 Center     Atomic      Atomic             Coordinates (Angstroms)
 Number     Number       Type             X           Y           Z
 ---------------------------------------------------------------------
      1          7           0        1.113667   -1.653457    0.627899
      2          6           0        1.550054   -0.949785   -0.610145
      3          6           0        0.657683   -1.558298   -1.710954
      4          6           0        0.179045   -2.914227   -1.138637
      5          6           0        0.924848   -3.052500    0.189028
      6          6           0        1.509936    0.551240   -0.463426
      7          6           0        0.298659    1.225872   -0.320375
      8          7           0        0.193074    2.543992   -0.150138
      9          6           0        1.315806    3.271072   -0.134197
     10          6           0        2.576425    2.702632   -0.284155
     11          6           0        2.671615    1.322649   -0.444372
     12          8           0       -2.477039    2.716503    0.285594
     13          8           0       -1.125516   -1.067290    1.598191
     14          1           0        0.372406   -3.610725    0.953205
     15          1           0        0.392937   -3.753770   -1.806890
     16          1           0       -0.902409   -2.896555   -0.962111
     17          1           0        1.231814   -1.670321   -2.636095
     18          1           0       -0.190029   -0.903686   -1.939388
     19          1           0        1.909118   -3.528484    0.051848
     20          1           0        2.596550   -1.245671   -0.795300
     21          1           0       -0.643182    0.677007   -0.344546
     22          1           0        1.197960    4.346058    0.002187
     23          1           0        3.464749    3.331141   -0.271444
     24          1           0        3.647732    0.848760   -0.556342
     25          6           0        2.061814   -1.514175    1.736844
     26          1           0       -1.510370    2.882422    0.136544
     27          1           0       -0.118532   -1.262219    1.129322
     28          1           0       -1.123408   -1.245969    2.541206
     29          1           0       -2.804667    1.259838    0.735332
     30          1           0       -2.845958    3.488078    0.720962
     31          8           0       -2.985767    0.287407    0.932113
     32          1           0       -3.523239   -0.103824    0.203568
     33          1           0       -2.082120   -0.341092    1.231951
     34          1           0        1.703711   -2.093940    2.595423
     35          1           0        2.135556   -0.460361    2.027818
     36          1           0        3.059171   -1.883667    1.453725
     37          8           0       -4.386262   -0.801946   -1.070854
     38          1           0       -4.670291   -0.261540   -1.814224
     39          1           0       -5.123316   -1.389506   -0.879094
 ---------------------------------------------------------------------
                    Distance matrix (angstroms):
                    1          2          3          4          5
     1  N    0.000000
     2  C    1.489410   0.000000
     3  C    2.384787   1.542204   0.000000
     4  C    2.362987   2.453162   1.547638   0.000000
     5  C    1.478371   2.334731   2.431861   1.529064   0.000000
     6  C    2.491728   1.508712   2.594766   3.773148   3.708769
     7  C    3.139108   2.526547   3.132764   4.221881   4.353857
     8  N    4.367083   3.776173   4.413705   5.547025   5.654312
     9  C    4.987247   4.254061   5.122705   6.368599   6.343886
    10  C    4.684764   3.807868   4.885985   6.166577   6.006093
    11  C    3.526212   2.539554   3.736309   4.964477   4.753348
    12  O    5.666294   5.519193   5.664504   6.386575   6.698026
    13  O    2.509781   3.471200   3.790953   3.550110   3.182890
    14  H    2.118063   3.303259   3.375142   2.213211   1.095798
    15  H    3.295294   3.260897   2.213457   1.094141   2.181375
    16  H    2.852716   3.150931   2.187598   1.095909   2.165250
    17  H    3.266175   2.173689   1.094560   2.213144   3.160058
    18  H    2.975356   2.190183   1.095132   2.195380   3.223431
    19  H    2.116673   2.686420   2.924926   2.188086   1.101892
    20  H    2.095406   1.103170   2.166879   2.957413   2.651060
    21  H    3.076236   2.743589   2.925049   3.768766   4.080765
    22  H    6.032645   5.342740   6.171561   7.419663   7.405954
    23  H    5.584140   4.701819   5.818799   7.110028   6.885783
    24  H    3.752999   2.763677   4.008422   5.150818   4.815548
    25  C    1.465654   2.467548   3.723015   3.711247   2.460665
    26  H    5.263193   4.960801   5.275765   6.171009   6.415321
    27  H    1.386653   2.430543   2.959280   2.821581   2.275500
    28  H    2.971749   4.143204   4.620682   4.245081   3.604393
    29  H    4.883868   5.065208   5.090587   5.462336   5.727477
    30  H    6.490198   6.386814   6.607240   7.321083   7.568427
    31  O    4.545862   4.948017   4.864890   4.955250   5.196159
    32  H    4.907374   5.207310   4.822966   4.838056   5.336701
    33  H    3.507169   4.117829   4.201048   4.165763   4.181062
    34  H    2.100792   3.407105   4.463851   4.115906   2.704848
    35  H    2.104165   2.746124   4.167492   4.458232   3.400904
    36  H    2.126022   2.721972   3.986001   4.009678   2.742438
    37  O    5.818939   5.956002   5.140348   5.030741   5.904251
    38  H    6.430829   6.373082   5.484483   5.568593   6.565673
    39  H    6.421889   6.693247   5.842981   5.523330   6.362918
                    6          7          8          9         10
     6  C    0.000000
     7  C    1.393838   0.000000
     8  N    2.409011   1.333255   0.000000
     9  C    2.746555   2.291745   1.337695   0.000000
    10  C    2.407909   2.714839   2.392381   1.390961   0.000000
    11  C    1.394609   2.378163   2.778744   2.393905   1.392510
    12  O    4.598409   3.208376   2.710927   3.856092   5.085499
    13  O    3.716922   3.311761   4.223351   5.270921   5.608913
    14  H    4.541230   5.002011   6.255403   7.030759   6.800532
    15  H    4.646041   5.197639   6.515104   7.279972   6.983657
    16  H    4.237380   4.341520   5.608827   6.606477   6.626674
    17  H    3.119804   3.823777   5.001939   5.539306   5.144154
    18  H    2.680514   2.719382   3.903161   4.791123   4.837209
    19  H    4.131465   5.033491   6.313523   6.827927   6.275747
    20  H    2.125973   3.407988   4.533705   4.741132   3.981303
    21  H    2.160062   1.090368   2.054933   3.257461   3.804297
    22  H    3.835983   3.263181   2.068923   1.089992   2.164026
    23  H    3.403821   3.802457   3.367221   2.154159   1.088258
    24  H    2.160399   3.378488   3.869557   3.388758   2.158385
    25  C    3.067849   3.853404   4.849908   5.191908   4.704330
    26  H    3.862204   2.495099   1.760239   2.865592   4.112324
    27  H    2.911595   2.909685   4.027575   4.919810   4.998075
    28  H    4.380899   4.039916   4.831176   5.788886   6.104333
    29  H    4.533755   3.278155   3.379284   4.666845   5.663670
    30  H    5.385314   4.011306   3.299368   4.254253   5.570406
    31  O    4.714709   3.638255   4.045797   5.342547   6.184707
    32  H    5.119262   4.080381   4.576791   5.909346   6.732011
    33  H    4.071047   3.245489   3.925607   5.143928   5.767571
    34  H    4.048590   4.636507   5.597369   6.031969   5.662217
    35  H    2.760622   3.425140   4.188420   4.389748   3.942602
    36  H    3.464732   4.520740   5.512808   5.668523   4.928226
    37  O    6.079904   5.159821   5.745723   7.069680   7.834537
    38  H    6.378125   5.397633   5.855981   7.150888   7.977614
    39  H    6.923822   6.045675   6.653404   7.983618   8.739883
                   11         12         13         14         15
    11  C    0.000000
    12  O    5.383709   0.000000
    13  O    4.929714   4.226892   0.000000
    14  H    5.619409   6.971288   3.021397   0.000000
    15  H    5.728775   7.381035   4.595373   2.763876   0.000000
    16  H    5.553682   5.961765   3.154542   2.409072   1.768160
    17  H    3.979265   6.444849   4.883629   4.169751   2.394171
    18  H    3.921817   4.825632   3.662836   4.001436   2.912110
    19  H    4.935699   7.634977   4.202101   1.783449   2.409246
    20  H    2.593271   6.527516   4.428814   3.687488   3.488522
    21  H    3.378564   2.814188   2.655079   4.593498   4.779516
    22  H    3.392945   4.030060   6.103286   8.055828   8.338347
    23  H    2.166335   5.999410   6.626633   7.697523   7.873347
    24  H    1.090831   6.458339   5.576482   5.735285   5.774153
    25  C    3.630032   6.372280   3.221491   2.804231   4.512093
    26  H    4.501039   0.992066   4.229036   6.809753   7.172068
    27  H    4.116185   4.701559   1.127764   2.405726   3.884684
    28  H    5.469339   4.756184   0.959796   3.217340   5.243501
    29  H    5.602259   1.559319   2.996598   5.819248   6.467135
    30  H    6.040753   0.959674   4.947811   7.797744   8.326154
    31  O    5.913747   2.564624   2.395704   5.145212   5.937078
    32  H    6.389904   3.009237   2.936378   5.294937   5.718433
    33  H    5.308115   3.224971   1.255622   4.097914   5.196810
    34  H    4.674427   6.778963   3.170648   2.601901   4.884007
    35  H    3.094868   5.865479   3.344777   3.766734   5.346798
    36  H    3.746123   7.292168   4.266022   3.232948   4.608438
    37  O    7.397298   4.226650   4.222165   5.884809   5.665312
    38  H    7.634771   4.253038   4.985904   6.656162   6.150772
    39  H    8.264727   5.021811   4.714146   6.204361   6.072857
                   16         17         18         19         20
    16  H    0.000000
    17  H    2.976706   0.000000
    18  H    2.331112   1.759195   0.000000
    19  H    3.054854   3.337147   3.906533   0.000000
    20  H    3.872461   2.330527   3.031652   2.530110   0.000000
    21  H    3.635785   3.778459   2.290733   4.935334   3.794171
    22  H    7.602425   6.569512   5.766805   7.906745   5.818889
    23  H    7.637623   5.965919   5.837225   7.041233   4.687793
    24  H    5.907268   4.062979   4.439853   4.748993   2.355573
    25  C    4.240513   4.453749   4.354099   2.630583   2.601882
    26  H    5.913817   5.994545   4.515242   7.266346   5.897141
    27  H    2.767600   4.020988   3.090411   3.226185   3.328080
    28  H    3.878982   5.703647   4.589562   4.539052   4.997035
    29  H    4.876013   6.020426   4.321029   6.753884   6.147646
    30  H    6.882852   7.382895   5.780918   8.502388   7.370775
    31  O    4.250421   5.861126   4.180953   6.268635   6.041237
    32  H    4.003362   5.755704   4.042565   6.423536   6.305027
    33  H    3.568756   5.264104   3.735493   5.242336   5.178606
    34  H    4.482421   5.269812   5.056428   2.927436   3.607454
    35  H    4.909577   4.902330   4.619914   3.656379   2.966348
    36  H    4.749350   4.484571   4.799050   2.448123   2.383101
    37  O    4.066503   5.896341   4.286382   6.951710   7.002320
    38  H    4.676145   6.123314   4.527777   7.579167   7.403627
    39  H    4.482649   6.599514   5.069277   7.409252   7.721661
                   21         22         23         24         25
    21  H    0.000000
    22  H    4.119704   0.000000
    23  H    4.891305   2.498652   0.000000
    24  H    4.299570   4.306325   2.505367   0.000000
    25  C    4.055917   6.172326   5.429414   3.654764   0.000000
    26  H    2.418123   3.081450   5.011947   5.587655   5.886554
    27  H    2.491614   5.869954   5.991745   4.634915   2.277383
    28  H    3.500860   6.565526   7.064851   6.061887   3.296145
    29  H    2.485527   5.107179   6.679032   6.593243   5.690414
    30  H    3.726882   4.195955   6.390189   7.124992   7.081015
    31  O    2.696173   5.902625   7.233396   6.821578   5.419535
    32  H    3.033950   6.490895   7.801064   7.273768   5.960943
    33  H    2.364828   5.851548   6.820062   6.119227   4.336269
    34  H    4.672202   6.960907   6.383705   4.729939   1.096140
    35  H    3.826631   5.299427   4.629130   3.267776   1.095732
    36  H    4.847499   6.661872   5.507715   3.442809   1.100637
    37  O    4.089679   7.670521   8.908414   8.217945   7.068813
    38  H    4.388443   7.678911   9.025874   8.485549   7.713651
    39  H    4.962642   8.580902   9.818788   9.057885   7.647533
                   26         27         28         29         30
    26  H    0.000000
    27  H    4.483399   0.000000
    28  H    4.793303   1.733048   0.000000
    29  H    2.160215   3.705580   3.516658   0.000000
    30  H    1.578657   5.492807   5.356460   2.228669   0.000000
    31  O    3.089309   3.265160   2.899794   1.008535   3.210674
    32  H    3.601916   3.713614   3.539525   1.630550   3.691635
    33  H    3.452225   2.171333   1.857977   1.825289   3.937906
    34  H    6.414092   2.482294   2.952049   5.918888   7.441238
    35  H    5.295648   2.555618   3.391400   5.388451   6.489493
    36  H    6.732850   3.254110   4.368437   6.691958   8.016429
    37  O    4.827332   4.823499   4.887776   3.164602   4.897698
    38  H    4.865706   5.512198   5.702565   3.506477   4.880061
    39  H    5.686323   5.394238   5.264819   3.873181   5.615814
                   31         32         33         34         35
    31  O    0.000000
    32  H    0.986263   0.000000
    33  H    1.140829   1.786251   0.000000
    34  H    5.516214   6.082971   4.389083   0.000000
    35  H    5.290338   5.956254   4.293765   1.782483   0.000000
    36  H    6.444138   6.932449   5.372299   1.784646   1.791214
    37  O    2.675809   1.690069   3.290041   7.224860   7.228593
    38  H    3.268231   2.326389   3.998017   7.964332   7.817952
    39  H    3.265214   2.320643   3.847669   7.692645   7.874304
                   36         37         38         39
    36  H    0.000000
    37  O    7.935874   0.000000
    38  H    8.547243   0.961930   0.000000
    39  H    8.522871   0.961898   1.533625   0.000000
 Stoichiometry    C10H23N2O4(1+)
 Framework group  C1[X(C10H23N2O4)]
 Deg. of freedom   111
 Full point group                 C1      NOp   1
 Largest Abelian subgroup         C1      NOp   1
 Largest concise Abelian subgroup C1      NOp   1
                         Standard orientation:                         
 ---------------------------------------------------------------------
 Center     Atomic      Atomic             Coordinates (Angstroms)
 Number     Number       Type             X           Y           Z
 ---------------------------------------------------------------------
      1          7           0        1.113666   -1.653457    0.627899
      2          6           0        1.550054   -0.949785   -0.610145
      3          6           0        0.657682   -1.558298   -1.710954
      4          6           0        0.179044   -2.914227   -1.138637
      5          6           0        0.924847   -3.052500    0.189028
      6          6           0        1.509936    0.551240   -0.463426
      7          6           0        0.298659    1.225872   -0.320375
      8          7           0        0.193075    2.543992   -0.150138
      9          6           0        1.315807    3.271072   -0.134197
     10          6           0        2.576426    2.702631   -0.284155
     11          6           0        2.671615    1.322648   -0.444372
     12          8           0       -2.477038    2.716504    0.285594
     13          8           0       -1.125516   -1.067290    1.598191
     14          1           0        0.372405   -3.610725    0.953205
     15          1           0        0.392936   -3.753770   -1.806890
     16          1           0       -0.902410   -2.896555   -0.962111
     17          1           0        1.231813   -1.670321   -2.636095
     18          1           0       -0.190029   -0.903686   -1.939388
     19          1           0        1.909117   -3.528485    0.051848
     20          1           0        2.596549   -1.245672   -0.795300
     21          1           0       -0.643182    0.677007   -0.344546
     22          1           0        1.197961    4.346058    0.002187
     23          1           0        3.464750    3.331140   -0.271444
     24          1           0        3.647732    0.848759   -0.556342
     25          6           0        2.061813   -1.514176    1.736844
     26          1           0       -1.510369    2.882423    0.136544
     27          1           0       -0.118533   -1.262219    1.129322
     28          1           0       -1.123409   -1.245969    2.541206
     29          1           0       -2.804667    1.259839    0.735332
     30          1           0       -2.845957    3.488079    0.720962
     31          8           0       -2.985767    0.287408    0.932113
     32          1           0       -3.523239   -0.103823    0.203568
     33          1           0       -2.082120   -0.341091    1.231951
     34          1           0        1.703710   -2.093941    2.595423
     35          1           0        2.135556   -0.460362    2.027818
     36          1           0        3.059170   -1.883668    1.453725
     37          8           0       -4.386262   -0.801944   -1.070854
     38          1           0       -4.670291   -0.261538   -1.814224
     39          1           0       -5.123317   -1.389504   -0.879094
 ---------------------------------------------------------------------
 Rotational constants (GHZ):           0.4356445           0.3997758           0.2557188
 Standard basis: Aug-CC-pVDZ (5D, 7F)
 There are   607 symmetry adapted cartesian basis functions of A   symmetry.
 There are   575 symmetry adapted basis functions of A   symmetry.
   575 basis functions,   941 primitive gaussians,   607 cartesian basis functions
    64 alpha electrons       64 beta electrons
       nuclear repulsion energy      1245.0994616505 Hartrees.
 NAtoms=   39 NActive=   39 NUniq=   39 SFac= 1.00D+00 NAtFMM=   60 NAOKFM=F Big=F
 Integral buffers will be    131072 words long.
 Raffenetti 2 integral format.
 Two-electron integral symmetry is turned on.
 Nuclear repulsion after empirical dispersion term =     1245.0687616800 Hartrees.
 One-electron integrals computed using PRISM.
 NBasis=   575 RedAO= T EigKep=  1.80D-06  NBF=   575
 NBsUse=   575 1.00D-06 EigRej= -1.00D+00 NBFU=   575
 ExpMin= 2.97D-02 ExpMax= 1.17D+04 ExpMxC= 4.01D+02 IAcc=3 IRadAn=         5 AccDes= 0.00D+00
 Harris functional with IExCor= 4639 and IRadAn=       5 diagonalized for initial guess.
 HarFok:  IExCor= 4639 AccDes= 0.00D+00 IRadAn=         5 IDoV= 1 UseB2=F ITyADJ=14
 ICtDFT=  3500011 ScaDFX=  1.000000  1.000000  1.000000  1.000000
 FoFCou: FMM=F IPFlag=           0 FMFlag=      100000 FMFlg1=           0
         NFxFlg=           0 DoJE=T BraDBF=F KetDBF=T FulRan=T
         wScrn=  0.000000 ICntrl=       500 IOpCl=  0 I1Cent=   200000004 NGrid=           0
         NMat0=    1 NMatS0=      1 NMatT0=    0 NMatD0=    1 NMtDS0=    0 NMtDT0=    0
 Petite list used in FoFCou.
 Requested convergence on RMS density matrix=1.00D-08 within 128 cycles.
 Requested convergence on MAX density matrix=1.00D-06.
 Requested convergence on             energy=1.00D-06.
 No special actions if energy rises.
 SCF Done:  E(RwB97XD) =  -805.018762274     A.U. after   15 cycles
            NFock= 15  Conv=0.32D-08     -V/T= 2.0062
 DoSCS=F DFT=T ScalE2(SS,OS)=  1.000000  1.000000
 Range of M.O.s used for correlation:     1   575
 NBasis=   575 NAE=    64 NBE=    64 NFC=     0 NFV=     0
 NROrb=    575 NOA=    64 NOB=    64 NVA=   511 NVB=   511

 **** Warning!!: The largest alpha MO coefficient is  0.11007127D+03

 Symmetrizing basis deriv contribution to polar:
 IMax=3 JMax=2 DiffMx= 0.00D+00
 G2DrvN: will do    40 centers at a time, making    1 passes.
 Calling FoFCou, ICntrl=  3107 FMM=F I1Cent=   0 AccDes= 0.00D+00.
 End of G2Drv F.D. properties file   721 does not exist.
 End of G2Drv F.D. properties file   722 does not exist.
 End of G2Drv F.D. properties file   788 does not exist.
          IDoAtm=111111111111111111111111111111111111111
          Differentiating once with respect to electric field.
                with respect to dipole field.
          Differentiating once with respect to nuclear coordinates.
 CalDSu exits because no D1Ps are significant.
          There are   120 degrees of freedom in the 1st order CPHF.  IDoFFX=6 NUNeed=     3.
    117 vectors produced by pass  0 Test12= 3.27D-14 1.00D-09 XBig12= 7.68D+01 3.54D+00.
 AX will form   117 AO Fock derivatives at one time.
    117 vectors produced by pass  1 Test12= 3.27D-14 1.00D-09 XBig12= 1.17D+01 6.21D-01.
    117 vectors produced by pass  2 Test12= 3.27D-14 1.00D-09 XBig12= 1.98D-01 6.30D-02.
    117 vectors produced by pass  3 Test12= 3.27D-14 1.00D-09 XBig12= 1.62D-03 4.36D-03.
    117 vectors produced by pass  4 Test12= 3.27D-14 1.00D-09 XBig12= 1.48D-05 4.76D-04.
    117 vectors produced by pass  5 Test12= 3.27D-14 1.00D-09 XBig12= 9.92D-08 2.92D-05.
    114 vectors produced by pass  6 Test12= 3.27D-14 1.00D-09 XBig12= 5.72D-10 1.60D-06.
     40 vectors produced by pass  7 Test12= 3.27D-14 1.00D-09 XBig12= 3.01D-12 1.19D-07.
      3 vectors produced by pass  8 Test12= 3.27D-14 1.00D-09 XBig12= 1.74D-14 6.42D-09.
      3 vectors produced by pass  9 Test12= 3.27D-14 1.00D-09 XBig12= 2.96D-15 3.53D-09.
 InvSVY:  IOpt=1 It=  1 EMax= 4.26D-14
 Solved reduced A of dimension   862 with   120 vectors.
 Isotropic polarizability for W=    0.000000      162.43 Bohr**3.
 End of Minotr F.D. properties file   721 does not exist.
 End of Minotr F.D. properties file   722 does not exist.
 End of Minotr F.D. properties file   788 does not exist.

 **********************************************************************

            Population analysis using the SCF density.

 **********************************************************************

 Orbital symmetries:
       Occupied  (A) (A) (A) (A) (A) (A) (A) (A) (A) (A) (A) (A)
                 (A) (A) (A) (A) (A) (A) (A) (A) (A) (A) (A) (A)
                 (A) (A) (A) (A) (A) (A) (A) (A) (A) (A) (A) (A)
                 (A) (A) (A) (A) (A) (A) (A) (A) (A) (A) (A) (A)
                 (A) (A) (A) (A) (A) (A) (A) (A) (A) (A) (A) (A)
                 (A) (A) (A) (A)
       Virtual   (A) (A) (A) (A) (A) (A) (A) (A) (A) (A) (A) (A)
                 (A) (A) (A) (A) (A) (A) (A) (A) (A) (A) (A) (A)
                 (A) (A) (A) (A) (A) (A) (A) (A) (A) (A) (A) (A)
                 (A) (A) (A) (A) (A) (A) (A) (A) (A) (A) (A) (A)
                 (A) (A) (A) (A) (A) (A) (A) (A) (A) (A) (A) (A)
                 (A) (A) (A) (A) (A) (A) (A) (A) (A) (A) (A) (A)
                 (A) (A) (A) (A) (A) (A) (A) (A) (A) (A) (A) (A)
                 (A) (A) (A) (A) (A) (A) (A) (A) (A) (A) (A) (A)
                 (A) (A) (A) (A) (A) (A) (A) (A) (A) (A) (A) (A)
                 (A) (A) (A) (A) (A) (A) (A) (A) (A) (A) (A) (A)
                 (A) (A) (A) (A) (A) (A) (A) (A) (A) (A) (A) (A)
                 (A) (A) (A) (A) (A) (A) (A) (A) (A) (A) (A) (A)
                 (A) (A) (A) (A) (A) (A) (A) (A) (A) (A) (A) (A)
                 (A) (A) (A) (A) (A) (A) (A) (A) (A) (A) (A) (A)
                 (A) (A) (A) (A) (A) (A) (A) (A) (A) (A) (A) (A)
                 (A) (A) (A) (A) (A) (A) (A) (A) (A) (A) (A) (A)
                 (A) (A) (A) (A) (A) (A) (A) (A) (A) (A) (A) (A)
                 (A) (A) (A) (A) (A) (A) (A) (A) (A) (A) (A) (A)
                 (A) (A) (A) (A) (A) (A) (A) (A) (A) (A) (A) (A)
                 (A) (A) (A) (A) (A) (A) (A) (A) (A) (A) (A) (A)
                 (A) (A) (A) (A) (A) (A) (A) (A) (A) (A) (A) (A)
                 (A) (A) (A) (A) (A) (A) (A) (A) (A) (A) (A) (A)
                 (A) (A) (A) (A) (A) (A) (A) (A) (A) (A) (A) (A)
                 (A) (A) (A) (A) (A) (A) (A) (A) (A) (A) (A) (A)
                 (A) (A) (A) (A) (A) (A) (A) (A) (A) (A) (A) (A)
                 (A) (A) (A) (A) (A) (A) (A) (A) (A) (A) (A) (A)
                 (A) (A) (A) (A) (A) (A) (A) (A) (A) (A) (A) (A)
                 (A) (A) (A) (A) (A) (A) (A) (A) (A) (A) (A) (A)
                 (A) (A) (A) (A) (A) (A) (A) (A) (A) (A) (A) (A)
                 (A) (A) (A) (A) (A) (A) (A) (A) (A) (A) (A) (A)
                 (A) (A) (A) (A) (A) (A) (A) (A) (A) (A) (A) (A)
                 (A) (A) (A) (A) (A) (A) (A) (A) (A) (A) (A) (A)
                 (A) (A) (A) (A) (A) (A) (A) (A) (A) (A) (A) (A)
                 (A) (A) (A) (A) (A) (A) (A) (A) (A) (A) (A) (A)
                 (A) (A) (A) (A) (A) (A) (A) (A) (A) (A) (A) (A)
                 (A) (A) (A) (A) (A) (A) (A) (A) (A) (A) (A) (A)
                 (A) (A) (A) (A) (A) (A) (A) (A) (A) (A) (A) (A)
                 (A) (A) (A) (A) (A) (A) (A) (A) (A) (A) (A) (A)
                 (A) (A) (A) (A) (A) (A) (A) (A) (A) (A) (A) (A)
                 (A) (A) (A) (A) (A) (A) (A) (A) (A) (A) (A) (A)
                 (A) (A) (A) (A) (A) (A) (A) (A) (A) (A) (A) (A)
                 (A) (A) (A) (A) (A) (A) (A) (A) (A) (A) (A) (A)
                 (A) (A) (A) (A) (A) (A) (A)
 The electronic state is 1-A.
 Alpha  occ. eigenvalues --  -19.42325 -19.42267 -19.39501 -19.38809 -14.60953
 Alpha  occ. eigenvalues --  -14.58275 -10.46485 -10.46019 -10.45672 -10.44654
 Alpha  occ. eigenvalues --  -10.44606 -10.44090 -10.43951 -10.42816 -10.41685
 Alpha  occ. eigenvalues --  -10.41253  -1.28489  -1.26400  -1.23496  -1.22747
 Alpha  occ. eigenvalues --   -1.19042  -1.17703  -1.04451  -1.01652  -0.99986
 Alpha  occ. eigenvalues --   -0.94614  -0.90597  -0.86068  -0.84830  -0.81700
 Alpha  occ. eigenvalues --   -0.80390  -0.78676  -0.78335  -0.76893  -0.76514
 Alpha  occ. eigenvalues --   -0.74255  -0.72528  -0.71671  -0.70345  -0.69366
 Alpha  occ. eigenvalues --   -0.66729  -0.66340  -0.65239  -0.64421  -0.62679
 Alpha  occ. eigenvalues --   -0.61969  -0.61777  -0.61061  -0.60178  -0.59624
 Alpha  occ. eigenvalues --   -0.58777  -0.57840  -0.56986  -0.56436  -0.55411
 Alpha  occ. eigenvalues --   -0.55150  -0.54643  -0.53822  -0.52793  -0.52716
 Alpha  occ. eigenvalues --   -0.49062  -0.48140  -0.47396  -0.45843
 Alpha virt. eigenvalues --   -0.08863  -0.07736  -0.06769  -0.05517  -0.04682
 Alpha virt. eigenvalues --   -0.04568  -0.03493  -0.03018  -0.02835  -0.02525
 Alpha virt. eigenvalues --   -0.01924  -0.01392  -0.01097  -0.00790  -0.00449
 Alpha virt. eigenvalues --   -0.00229   0.00506   0.00902   0.00922   0.01754
 Alpha virt. eigenvalues --    0.01895   0.02029   0.02349   0.02793   0.03456
 Alpha virt. eigenvalues --    0.03691   0.03971   0.04430   0.04501   0.04796
 Alpha virt. eigenvalues --    0.05260   0.05626   0.05914   0.06193   0.06470
 Alpha virt. eigenvalues --    0.06552   0.06709   0.06996   0.07116   0.07215
 Alpha virt. eigenvalues --    0.07577   0.08159   0.08185   0.08466   0.08817
 Alpha virt. eigenvalues --    0.09104   0.09270   0.09649   0.09887   0.10510
 Alpha virt. eigenvalues --    0.10812   0.11022   0.11338   0.11650   0.11954
 Alpha virt. eigenvalues --    0.12031   0.12299   0.12565   0.12944   0.13659
 Alpha virt. eigenvalues --    0.13725   0.13916   0.14286   0.14632   0.14888
 Alpha virt. eigenvalues --    0.15319   0.15663   0.15940   0.16225   0.16478
 Alpha virt. eigenvalues --    0.16624   0.16773   0.17308   0.17774   0.18158
 Alpha virt. eigenvalues --    0.18407   0.18480   0.18767   0.19130   0.19432
 Alpha virt. eigenvalues --    0.19612   0.19971   0.20516   0.20703   0.20795
 Alpha virt. eigenvalues --    0.21204   0.21511   0.21919   0.22099   0.22285
 Alpha virt. eigenvalues --    0.22693   0.22916   0.23503   0.23796   0.23952
 Alpha virt. eigenvalues --    0.24552   0.24855   0.25261   0.25614   0.25994
 Alpha virt. eigenvalues --    0.26368   0.26536   0.27007   0.27312   0.27396
 Alpha virt. eigenvalues --    0.27946   0.28244   0.28849   0.28863   0.29008
 Alpha virt. eigenvalues --    0.29347   0.30042   0.30193   0.30988   0.31118
 Alpha virt. eigenvalues --    0.31688   0.32051   0.32436   0.32611   0.33369
 Alpha virt. eigenvalues --    0.33718   0.33874   0.34270   0.34361   0.34950
 Alpha virt. eigenvalues --    0.35104   0.35435   0.35814   0.36854   0.37039
 Alpha virt. eigenvalues --    0.37300   0.37855   0.38220   0.38701   0.38976
 Alpha virt. eigenvalues --    0.39876   0.40233   0.40535   0.40901   0.41273
 Alpha virt. eigenvalues --    0.41475   0.41959   0.42371   0.42767   0.43176
 Alpha virt. eigenvalues --    0.43436   0.43795   0.44153   0.44443   0.44518
 Alpha virt. eigenvalues --    0.45492   0.45854   0.46053   0.46296   0.47069
 Alpha virt. eigenvalues --    0.47975   0.48179   0.48804   0.49151   0.49393
 Alpha virt. eigenvalues --    0.49606   0.50208   0.50370   0.50602   0.51106
 Alpha virt. eigenvalues --    0.51278   0.51555   0.51665   0.51982   0.52656
 Alpha virt. eigenvalues --    0.53114   0.53432   0.53969   0.54107   0.54558
 Alpha virt. eigenvalues --    0.54982   0.55558   0.55728   0.55849   0.56447
 Alpha virt. eigenvalues --    0.57220   0.57636   0.57741   0.58570   0.58853
 Alpha virt. eigenvalues --    0.58923   0.59339   0.59892   0.60135   0.61004
 Alpha virt. eigenvalues --    0.61091   0.61437   0.61791   0.62344   0.62575
 Alpha virt. eigenvalues --    0.62699   0.63898   0.64338   0.64424   0.65117
 Alpha virt. eigenvalues --    0.65365   0.66012   0.66325   0.66713   0.67007
 Alpha virt. eigenvalues --    0.67774   0.68367   0.68576   0.68787   0.69818
 Alpha virt. eigenvalues --    0.70432   0.70687   0.71176   0.71412   0.71598
 Alpha virt. eigenvalues --    0.71949   0.72734   0.73263   0.73298   0.73944
 Alpha virt. eigenvalues --    0.74564   0.75164   0.75649   0.75894   0.76296
 Alpha virt. eigenvalues --    0.76631   0.77337   0.78082   0.78652   0.79049
 Alpha virt. eigenvalues --    0.79743   0.80654   0.81023   0.81312   0.82142
 Alpha virt. eigenvalues --    0.82610   0.82760   0.83864   0.84537   0.85003
 Alpha virt. eigenvalues --    0.85506   0.86534   0.86828   0.87980   0.88378
 Alpha virt. eigenvalues --    0.88860   0.89244   0.90121   0.90847   0.91321
 Alpha virt. eigenvalues --    0.91548   0.92468   0.92533   0.93323   0.94109
 Alpha virt. eigenvalues --    0.95311   0.96335   0.96342   0.97618   0.98283
 Alpha virt. eigenvalues --    0.99225   0.99999   1.00408   1.00478   1.01674
 Alpha virt. eigenvalues --    1.02062   1.02582   1.03333   1.04309   1.04527
 Alpha virt. eigenvalues --    1.05846   1.06526   1.06709   1.07481   1.08069
 Alpha virt. eigenvalues --    1.09577   1.10634   1.11251   1.11971   1.12864
 Alpha virt. eigenvalues --    1.14002   1.14152   1.15633   1.15894   1.16138
 Alpha virt. eigenvalues --    1.17921   1.18035   1.19025   1.19639   1.21111
 Alpha virt. eigenvalues --    1.21594   1.22400   1.22854   1.23625   1.24898
 Alpha virt. eigenvalues --    1.25563   1.26440   1.27052   1.28895   1.29558
 Alpha virt. eigenvalues --    1.31125   1.32075   1.32697   1.33761   1.34104
 Alpha virt. eigenvalues --    1.34818   1.35174   1.36988   1.37387   1.38551
 Alpha virt. eigenvalues --    1.38990   1.39696   1.41352   1.42096   1.42429
 Alpha virt. eigenvalues --    1.43042   1.44585   1.45091   1.46264   1.47365
 Alpha virt. eigenvalues --    1.48189   1.48996   1.49734   1.50729   1.51098
 Alpha virt. eigenvalues --    1.51762   1.53324   1.54082   1.55573   1.56742
 Alpha virt. eigenvalues --    1.57603   1.57930   1.59545   1.59976   1.60388
 Alpha virt. eigenvalues --    1.61332   1.62215   1.63096   1.63906   1.65499
 Alpha virt. eigenvalues --    1.65748   1.65801   1.67591   1.68438   1.68680
 Alpha virt. eigenvalues --    1.69816   1.69958   1.70754   1.71521   1.71912
 Alpha virt. eigenvalues --    1.72470   1.73109   1.73876   1.75142   1.75756
 Alpha virt. eigenvalues --    1.76549   1.76927   1.77280   1.78908   1.79675
 Alpha virt. eigenvalues --    1.80291   1.80540   1.82005   1.82436   1.82934
 Alpha virt. eigenvalues --    1.84615   1.84699   1.85475   1.86193   1.86484
 Alpha virt. eigenvalues --    1.86925   1.88004   1.88934   1.89716   1.89982
 Alpha virt. eigenvalues --    1.91365   1.92075   1.93049   1.93322   1.94008
 Alpha virt. eigenvalues --    1.95424   1.96078   1.97654   1.98088   1.99703
 Alpha virt. eigenvalues --    2.00225   2.01310   2.01497   2.01965   2.03633
 Alpha virt. eigenvalues --    2.04004   2.04667   2.06102   2.07403   2.08885
 Alpha virt. eigenvalues --    2.09880   2.11170   2.11471   2.12496   2.12816
 Alpha virt. eigenvalues --    2.13624   2.13943   2.15566   2.16675   2.17109
 Alpha virt. eigenvalues --    2.18256   2.19121   2.19258   2.20597   2.21595
 Alpha virt. eigenvalues --    2.22454   2.23607   2.24700   2.25451   2.26805
 Alpha virt. eigenvalues --    2.28053   2.28455   2.28514   2.29870   2.30796
 Alpha virt. eigenvalues --    2.31138   2.32672   2.33449   2.36017   2.36463
 Alpha virt. eigenvalues --    2.37068   2.38046   2.40320   2.41769   2.42765
 Alpha virt. eigenvalues --    2.44292   2.45138   2.45810   2.47095   2.48029
 Alpha virt. eigenvalues --    2.49168   2.49702   2.51625   2.52423   2.53717
 Alpha virt. eigenvalues --    2.54639   2.55438   2.56515   2.56818   2.58646
 Alpha virt. eigenvalues --    2.60413   2.61534   2.61936   2.63085   2.65042
 Alpha virt. eigenvalues --    2.65322   2.67023   2.67858   2.68457   2.69297
 Alpha virt. eigenvalues --    2.71284   2.72056   2.73419   2.74430   2.75483
 Alpha virt. eigenvalues --    2.75606   2.77766   2.80144   2.82134   2.84008
 Alpha virt. eigenvalues --    2.84237   2.85271   2.85849   2.87310   2.89235
 Alpha virt. eigenvalues --    2.89812   2.91347   2.92120   2.93342   2.97604
 Alpha virt. eigenvalues --    2.99551   3.00802   3.01760   3.04732   3.08839
 Alpha virt. eigenvalues --    3.12157   3.15255   3.18431   3.22743   3.29361
 Alpha virt. eigenvalues --    3.31367   3.32587   3.35862   3.36401   3.39432
 Alpha virt. eigenvalues --    3.39625   3.41655   3.42300   3.43955   3.45598
 Alpha virt. eigenvalues --    3.49183   3.50243   3.58204   3.65376   3.67105
 Alpha virt. eigenvalues --    3.70093   3.83623   3.89705   3.91093   3.93972
 Alpha virt. eigenvalues --    4.00991   4.07556   4.09200   4.31284   4.34487
 Alpha virt. eigenvalues --    5.03506
          Condensed to atoms (all electrons):
               1          2          3          4          5          6
     1  N   17.369283  -5.411463  -1.010097  -0.523433  -0.100978   1.875483
     2  C   -5.411463  25.814884  -2.688527   0.782865  -0.923021  -7.695901
     3  C   -1.010097  -2.688527   9.946416  -1.430170   1.011716   0.302313
     4  C   -0.523433   0.782865  -1.430170   6.755040  -0.238415   0.065791
     5  C   -0.100978  -0.923021   1.011716  -0.238415   5.946521  -0.094299
     6  C    1.875483  -7.695901   0.302313   0.065791  -0.094299  22.780832
     7  C   -0.471994  -1.493965  -0.951007   0.075341  -0.318841  -4.628170
     8  N   -0.016102   0.510934   0.022717  -0.007844   0.052980  -0.040568
     9  C    0.017211  -0.585230  -0.047225   0.000219  -0.045646  -1.226990
    10  C    0.071390   0.114191  -0.128578  -0.022632   0.022223   0.926893
    11  C   -0.761917  -1.336946   0.088894  -0.068623   0.018405  -9.086177
    12  O   -0.003089  -0.000807  -0.003783  -0.000051  -0.000774  -0.054321
    13  O   -0.272090   0.290523   0.078918   0.024021  -0.007906  -0.083302
    14  H   -1.224809   0.643412   0.152781   0.079351  -0.308633  -0.211494
    15  H   -0.180839   0.114575   0.273445  -0.350264   0.168314  -0.077401
    16  H    0.184413  -0.013393   0.193685  -0.412715  -0.063310   0.038855
    17  H    0.353039   0.276552  -1.316182   0.130731  -0.251248   0.371308
    18  H   -0.105839   0.034375  -0.028747   0.368794   0.070138  -0.193847
    19  H   -0.313314   0.049093  -0.037246  -0.004822  -0.193289   0.178838
    20  H   -0.398020  -2.944187   0.793745  -0.025266  -0.013784   1.103779
    21  H   -0.161766  -0.256511  -0.225802   0.002136   0.041251  -0.406257
    22  H    0.004881  -0.044648   0.001386   0.000158  -0.001102  -0.156093
    23  H   -0.002961   0.056702   0.006646   0.001187  -0.001121   0.017640
    24  H    0.020545   0.008510  -0.098286  -0.011777   0.007672   1.169680
    25  C    1.303166  -1.023999  -0.293105   0.025417  -0.042258   0.612705
    26  H   -0.013610   0.055925  -0.006414  -0.000308  -0.005270  -0.046632
    27  H   -0.608670   0.740459   0.180075  -0.068411  -0.243434  -0.346258
    28  H    0.016872  -0.024396  -0.010306   0.007248   0.004963   0.004216
    29  H   -0.011044   0.019748  -0.001432   0.004275  -0.003972  -0.026354
    30  H    0.002552  -0.008987   0.000797  -0.000021   0.000482   0.017430
    31  O   -0.037260  -0.015173   0.050697  -0.035085   0.023376   0.019483
    32  H    0.000128   0.005384   0.001576  -0.001828   0.000917  -0.003497
    33  H    0.061212  -0.079283   0.015139  -0.015807   0.016889   0.063832
    34  H   -0.388525   0.134911  -0.106536   0.080678  -0.011158   0.018518
    35  H    0.077281  -0.004851   0.127859  -0.055635  -0.034716   0.051935
    36  H   -0.659175  -0.058899   0.015278   0.011559   0.135320   0.018636
    37  O    0.001475   0.000563   0.002873  -0.000690   0.002819   0.003477
    38  H    0.001645   0.001185  -0.002343   0.000805  -0.000405  -0.000139
    39  H   -0.001070  -0.000371   0.001746  -0.000646   0.000109  -0.000410
               7          8          9         10         11         12
     1  N   -0.471994  -0.016102   0.017211   0.071390  -0.761917  -0.003089
     2  C   -1.493965   0.510934  -0.585230   0.114191  -1.336946  -0.000807
     3  C   -0.951007   0.022717  -0.047225  -0.128578   0.088894  -0.003783
     4  C    0.075341  -0.007844   0.000219  -0.022632  -0.068623  -0.000051
     5  C   -0.318841   0.052980  -0.045646   0.022223   0.018405  -0.000774
     6  C   -4.628170  -0.040568  -1.226990   0.926893  -9.086177  -0.054321
     7  C   17.607991  -0.710935  -1.308194  -0.330492  -1.255113  -0.100354
     8  N   -0.710935   7.909899   0.188557   0.222504  -0.407313  -0.010910
     9  C   -1.308194   0.188557  10.303902  -2.641568   1.405359   0.058083
    10  C   -0.330492   0.222504  -2.641568  11.620458  -4.092853  -0.018799
    11  C   -1.255113  -0.407313   1.405359  -4.092853  22.305454   0.029326
    12  O   -0.100354  -0.010910   0.058083  -0.018799   0.029326   7.954499
    13  O   -0.221631   0.019634   0.001367  -0.010085  -0.024012   0.003573
    14  H   -0.011563   0.004161  -0.001171  -0.000161   0.022689  -0.000056
    15  H    0.018531  -0.000888   0.001729  -0.000751   0.008171  -0.000036
    16  H   -0.010783  -0.002113  -0.006365   0.002046  -0.005454   0.000055
    17  H    0.326730  -0.013372  -0.000770  -0.000373  -0.004298   0.000423
    18  H   -0.297461   0.022668   0.023905  -0.048995   0.007396  -0.003172
    19  H    0.013687  -0.001102  -0.000859  -0.001616   0.023083   0.000026
    20  H   -0.143180  -0.010171   0.048425  -0.024299  -0.033242  -0.000533
    21  H   -1.151298  -0.031570  -0.210616   0.225962  -0.204074   0.068828
    22  H    0.208062  -0.182038  -0.461533   0.119284   0.219946   0.004293
    23  H   -0.063037  -0.055760   0.408174  -1.189347   0.533698  -0.000341
    24  H    0.033510  -0.021205  -0.197644   0.634519  -2.434439   0.000606
    25  C   -0.027811  -0.003979  -0.066629   0.134147  -0.253130  -0.000488
    26  H   -0.068666   0.133187   0.126066  -0.089070   0.022755   0.259957
    27  H    0.090057  -0.046276   0.048234  -0.052512  -0.022351  -0.000993
    28  H    0.016178   0.004270   0.000091  -0.000027   0.007224   0.001677
    29  H    0.065827  -0.016047  -0.003070  -0.002072  -0.000088   0.029520
    30  H    0.017635  -0.012317  -0.015995   0.012004  -0.007586   0.347853
    31  O   -0.151406   0.040935   0.007588   0.002515  -0.001111  -0.105073
    32  H   -0.009924  -0.002018   0.000920  -0.002508   0.004599   0.001994
    33  H    0.000589   0.000261  -0.006059   0.010877  -0.015810  -0.010533
    34  H   -0.003085  -0.002996  -0.007828   0.023971  -0.052816  -0.000186
    35  H    0.040508   0.000878   0.007621  -0.016356   0.039953   0.000157
    36  H    0.005670   0.001937   0.001379  -0.016987   0.098345  -0.000025
    37  O    0.007009  -0.003700  -0.001228   0.000053   0.000517   0.001458
    38  H   -0.002587   0.000109  -0.000114   0.000033   0.000017  -0.000382
    39  H    0.002678  -0.000216  -0.000021   0.000038   0.000015  -0.000018
              13         14         15         16         17         18
     1  N   -0.272090  -1.224809  -0.180839   0.184413   0.353039  -0.105839
     2  C    0.290523   0.643412   0.114575  -0.013393   0.276552   0.034375
     3  C    0.078918   0.152781   0.273445   0.193685  -1.316182  -0.028747
     4  C    0.024021   0.079351  -0.350264  -0.412715   0.130731   0.368794
     5  C   -0.007906  -0.308633   0.168314  -0.063310  -0.251248   0.070138
     6  C   -0.083302  -0.211494  -0.077401   0.038855   0.371308  -0.193847
     7  C   -0.221631  -0.011563   0.018531  -0.010783   0.326730  -0.297461
     8  N    0.019634   0.004161  -0.000888  -0.002113  -0.013372   0.022668
     9  C    0.001367  -0.001171   0.001729  -0.006365  -0.000770   0.023905
    10  C   -0.010085  -0.000161  -0.000751   0.002046  -0.000373  -0.048995
    11  C   -0.024012   0.022689   0.008171  -0.005454  -0.004298   0.007396
    12  O    0.003573  -0.000056  -0.000036   0.000055   0.000423  -0.003172
    13  O    8.498867   0.034663  -0.006935   0.010360  -0.004595   0.019754
    14  H    0.034663   2.963916   0.126865  -0.333342  -0.040497   0.064038
    15  H   -0.006935   0.126865   2.125497  -0.632827  -0.338535   0.212960
    16  H    0.010360  -0.333342  -0.632827   2.387069   0.240242  -0.475660
    17  H   -0.004595  -0.040497  -0.338535   0.240242   2.725624  -0.859799
    18  H    0.019754   0.064038   0.212960  -0.475660  -0.859799   2.695849
    19  H   -0.014145  -0.577358  -0.227353   0.220864   0.071457  -0.065905
    20  H    0.006804   0.106467   0.074657  -0.096775  -0.402226   0.299661
    21  H    0.020094  -0.051449  -0.022764   0.097696   0.182438  -0.384367
    22  H   -0.000621  -0.000084   0.000046   0.000074   0.000975  -0.004711
    23  H   -0.000087   0.000026   0.000022  -0.000019  -0.002081   0.003591
    24  H   -0.003223  -0.003066   0.000490   0.001012   0.012197  -0.018389
    25  C   -0.054543  -0.185988  -0.025002   0.031726   0.079057  -0.078005
    26  H    0.007047   0.000845   0.000412  -0.002599  -0.001959   0.006825
    27  H   -0.016286   0.284815   0.046026  -0.041665  -0.043851   0.092158
    28  H    0.346127  -0.012039  -0.002160   0.001618   0.001836  -0.009334
    29  H   -0.010125   0.002356   0.000561  -0.003174  -0.001482   0.005253
    30  H   -0.001271  -0.000115  -0.000034   0.000372   0.000129  -0.000673
    31  O   -0.060362   0.003569  -0.002057   0.001311   0.002466  -0.001255
    32  H    0.011818  -0.000150  -0.000178  -0.001257   0.000265  -0.001617
    33  H    0.072657  -0.007420  -0.001200   0.008822  -0.001143   0.006459
    34  H    0.061200  -0.017471  -0.001173   0.013267   0.000775  -0.009392
    35  H    0.002152   0.010524   0.002734  -0.012654  -0.004175   0.016398
    36  H   -0.027892   0.025785  -0.005117   0.003920   0.013811  -0.009220
    37  O   -0.000014  -0.000218   0.000216  -0.004539  -0.000910   0.006709
    38  H   -0.000256  -0.000339  -0.000272   0.002540   0.000056  -0.002429
    39  H   -0.000406   0.000406   0.000333  -0.001654  -0.000178   0.001486
              19         20         21         22         23         24
     1  N   -0.313314  -0.398020  -0.161766   0.004881  -0.002961   0.020545
     2  C    0.049093  -2.944187  -0.256511  -0.044648   0.056702   0.008510
     3  C   -0.037246   0.793745  -0.225802   0.001386   0.006646  -0.098286
     4  C   -0.004822  -0.025266   0.002136   0.000158   0.001187  -0.011777
     5  C   -0.193289  -0.013784   0.041251  -0.001102  -0.001121   0.007672
     6  C    0.178838   1.103779  -0.406257  -0.156093   0.017640   1.169680
     7  C    0.013687  -0.143180  -1.151298   0.208062  -0.063037   0.033510
     8  N   -0.001102  -0.010171  -0.031570  -0.182038  -0.055760  -0.021205
     9  C   -0.000859   0.048425  -0.210616  -0.461533   0.408174  -0.197644
    10  C   -0.001616  -0.024299   0.225962   0.119284  -1.189347   0.634519
    11  C    0.023083  -0.033242  -0.204074   0.219946   0.533698  -2.434439
    12  O    0.000026  -0.000533   0.068828   0.004293  -0.000341   0.000606
    13  O   -0.014145   0.006804   0.020094  -0.000621  -0.000087  -0.003223
    14  H   -0.577358   0.106467  -0.051449  -0.000084   0.000026  -0.003066
    15  H   -0.227353   0.074657  -0.022764   0.000046   0.000022   0.000490
    16  H    0.220864  -0.096775   0.097696   0.000074  -0.000019   0.001012
    17  H    0.071457  -0.402226   0.182438   0.000975  -0.002081   0.012197
    18  H   -0.065905   0.299661  -0.384367  -0.004711   0.003591  -0.018389
    19  H    2.436603  -0.117411   0.026157   0.000064  -0.000499   0.003908
    20  H   -0.117411   3.807525  -0.091619  -0.000404   0.005416  -0.155606
    21  H    0.026157  -0.091619   5.092881   0.060168  -0.026429   0.006563
    22  H    0.000064  -0.000404   0.060168   2.009039  -0.117708  -0.003588
    23  H   -0.000499   0.005416  -0.026429  -0.117708   2.181583  -0.149313
    24  H    0.003908  -0.155606   0.006563  -0.003588  -0.149313   3.032238
    25  C   -0.034703  -0.111690   0.114615   0.002858  -0.011105   0.069314
    26  H   -0.000329   0.001574  -0.165703  -0.066274   0.010272  -0.001527
    27  H   -0.034431   0.082039  -0.227654  -0.006126   0.004022   0.001907
    28  H    0.003996  -0.002666   0.031570   0.000451  -0.000110   0.000125
    29  H   -0.000627   0.001681  -0.060231   0.000627   0.000115  -0.000130
    30  H    0.000042  -0.000329   0.010753   0.004728  -0.000617   0.000037
    31  O    0.000601  -0.000199   0.029286   0.000705  -0.000010  -0.000283
    32  H    0.000527  -0.000556   0.007851   0.000047  -0.000058  -0.000032
    33  H   -0.001155  -0.001009  -0.043833  -0.000409   0.000180  -0.000316
    34  H    0.006599   0.012208   0.018211   0.000359  -0.001196   0.004248
    35  H   -0.000882   0.029815  -0.010528  -0.002311  -0.001043  -0.016852
    36  H    0.058713   0.050271   0.017029   0.000347   0.000086   0.005877
    37  O    0.000254   0.000203  -0.021313  -0.000035   0.000004  -0.000005
    38  H    0.000032  -0.000127   0.003871  -0.000006   0.000002   0.000004
    39  H   -0.000062   0.000123  -0.000654   0.000005   0.000001  -0.000002
              25         26         27         28         29         30
     1  N    1.303166  -0.013610  -0.608670   0.016872  -0.011044   0.002552
     2  C   -1.023999   0.055925   0.740459  -0.024396   0.019748  -0.008987
     3  C   -0.293105  -0.006414   0.180075  -0.010306  -0.001432   0.000797
     4  C    0.025417  -0.000308  -0.068411   0.007248   0.004275  -0.000021
     5  C   -0.042258  -0.005270  -0.243434   0.004963  -0.003972   0.000482
     6  C    0.612705  -0.046632  -0.346258   0.004216  -0.026354   0.017430
     7  C   -0.027811  -0.068666   0.090057   0.016178   0.065827   0.017635
     8  N   -0.003979   0.133187  -0.046276   0.004270  -0.016047  -0.012317
     9  C   -0.066629   0.126066   0.048234   0.000091  -0.003070  -0.015995
    10  C    0.134147  -0.089070  -0.052512  -0.000027  -0.002072   0.012004
    11  C   -0.253130   0.022755  -0.022351   0.007224  -0.000088  -0.007586
    12  O   -0.000488   0.259957  -0.000993   0.001677   0.029520   0.347853
    13  O   -0.054543   0.007047  -0.016286   0.346127  -0.010125  -0.001271
    14  H   -0.185988   0.000845   0.284815  -0.012039   0.002356  -0.000115
    15  H   -0.025002   0.000412   0.046026  -0.002160   0.000561  -0.000034
    16  H    0.031726  -0.002599  -0.041665   0.001618  -0.003174   0.000372
    17  H    0.079057  -0.001959  -0.043851   0.001836  -0.001482   0.000129
    18  H   -0.078005   0.006825   0.092158  -0.009334   0.005253  -0.000673
    19  H   -0.034703  -0.000329  -0.034431   0.003996  -0.000627   0.000042
    20  H   -0.111690   0.001574   0.082039  -0.002666   0.001681  -0.000329
    21  H    0.114615  -0.165703  -0.227654   0.031570  -0.060231   0.010753
    22  H    0.002858  -0.066274  -0.006126   0.000451   0.000627   0.004728
    23  H   -0.011105   0.010272   0.004022  -0.000110   0.000115  -0.000617
    24  H    0.069314  -0.001527   0.001907   0.000125  -0.000130   0.000037
    25  C    4.706046  -0.009344  -0.351740   0.017612  -0.003397   0.001156
    26  H   -0.009344   0.607971   0.020675  -0.001604   0.004132  -0.116279
    27  H   -0.351740   0.020675   0.939278  -0.135647   0.013663  -0.002650
    28  H    0.017612  -0.001604  -0.135647   0.609389  -0.000681  -0.000091
    29  H   -0.003397   0.004132   0.013663  -0.000681   0.451770  -0.010477
    30  H    0.001156  -0.116279  -0.002650  -0.000091  -0.010477   0.574679
    31  O    0.006086  -0.015116  -0.080502   0.011579   0.189633   0.002730
    32  H   -0.000498   0.001892   0.001320  -0.000906  -0.043682   0.000016
    33  H    0.016367  -0.000359  -0.002351  -0.038459  -0.020204   0.001693
    34  H    0.163265  -0.001413   0.071880  -0.012376  -0.000379   0.000206
    35  H   -0.083465   0.001629   0.038420   0.011222   0.000917  -0.000152
    36  H    0.324503  -0.000408  -0.112023   0.004329  -0.000456   0.000043
    37  O   -0.000363  -0.000345   0.002233  -0.000020  -0.000943   0.000651
    38  H    0.000194  -0.000132   0.000305  -0.000227   0.000021   0.000195
    39  H   -0.000256  -0.000107  -0.000785   0.000188   0.000169  -0.000126
              31         32         33         34         35         36
     1  N   -0.037260   0.000128   0.061212  -0.388525   0.077281  -0.659175
     2  C   -0.015173   0.005384  -0.079283   0.134911  -0.004851  -0.058899
     3  C    0.050697   0.001576   0.015139  -0.106536   0.127859   0.015278
     4  C   -0.035085  -0.001828  -0.015807   0.080678  -0.055635   0.011559
     5  C    0.023376   0.000917   0.016889  -0.011158  -0.034716   0.135320
     6  C    0.019483  -0.003497   0.063832   0.018518   0.051935   0.018636
     7  C   -0.151406  -0.009924   0.000589  -0.003085   0.040508   0.005670
     8  N    0.040935  -0.002018   0.000261  -0.002996   0.000878   0.001937
     9  C    0.007588   0.000920  -0.006059  -0.007828   0.007621   0.001379
    10  C    0.002515  -0.002508   0.010877   0.023971  -0.016356  -0.016987
    11  C   -0.001111   0.004599  -0.015810  -0.052816   0.039953   0.098345
    12  O   -0.105073   0.001994  -0.010533  -0.000186   0.000157  -0.000025
    13  O   -0.060362   0.011818   0.072657   0.061200   0.002152  -0.027892
    14  H    0.003569  -0.000150  -0.007420  -0.017471   0.010524   0.025785
    15  H   -0.002057  -0.000178  -0.001200  -0.001173   0.002734  -0.005117
    16  H    0.001311  -0.001257   0.008822   0.013267  -0.012654   0.003920
    17  H    0.002466   0.000265  -0.001143   0.000775  -0.004175   0.013811
    18  H   -0.001255  -0.001617   0.006459  -0.009392   0.016398  -0.009220
    19  H    0.000601   0.000527  -0.001155   0.006599  -0.000882   0.058713
    20  H   -0.000199  -0.000556  -0.001009   0.012208   0.029815   0.050271
    21  H    0.029286   0.007851  -0.043833   0.018211  -0.010528   0.017029
    22  H    0.000705   0.000047  -0.000409   0.000359  -0.002311   0.000347
    23  H   -0.000010  -0.000058   0.000180  -0.001196  -0.001043   0.000086
    24  H   -0.000283  -0.000032  -0.000316   0.004248  -0.016852   0.005877
    25  C    0.006086  -0.000498   0.016367   0.163265  -0.083465   0.324503
    26  H   -0.015116   0.001892  -0.000359  -0.001413   0.001629  -0.000408
    27  H   -0.080502   0.001320  -0.002351   0.071880   0.038420  -0.112023
    28  H    0.011579  -0.000906  -0.038459  -0.012376   0.011222   0.004329
    29  H    0.189633  -0.043682  -0.020204  -0.000379   0.000917  -0.000456
    30  H    0.002730   0.000016   0.001693   0.000206  -0.000152   0.000043
    31  O    8.414837   0.327867   0.002372   0.000621   0.002459   0.000334
    32  H    0.327867   0.396780  -0.012271  -0.000696   0.000682   0.000008
    33  H    0.002372  -0.012271   0.337663   0.004219  -0.010533   0.004586
    34  H    0.000621  -0.000696   0.004219   2.262590  -0.670796  -0.375841
    35  H    0.002459   0.000682  -0.010533  -0.670796   1.999260  -0.421499
    36  H    0.000334   0.000008   0.004586  -0.375841  -0.421499   2.052926
    37  O   -0.090020  -0.006652   0.010161  -0.000040   0.000067  -0.000037
    38  H    0.001724  -0.003767   0.001597   0.000027  -0.000042   0.000012
    39  H    0.003677  -0.007128   0.001750  -0.000034   0.000032  -0.000021
              37         38         39
     1  N    0.001475   0.001645  -0.001070
     2  C    0.000563   0.001185  -0.000371
     3  C    0.002873  -0.002343   0.001746
     4  C   -0.000690   0.000805  -0.000646
     5  C    0.002819  -0.000405   0.000109
     6  C    0.003477  -0.000139  -0.000410
     7  C    0.007009  -0.002587   0.002678
     8  N   -0.003700   0.000109  -0.000216
     9  C   -0.001228  -0.000114  -0.000021
    10  C    0.000053   0.000033   0.000038
    11  C    0.000517   0.000017   0.000015
    12  O    0.001458  -0.000382  -0.000018
    13  O   -0.000014  -0.000256  -0.000406
    14  H   -0.000218  -0.000339   0.000406
    15  H    0.000216  -0.000272   0.000333
    16  H   -0.004539   0.002540  -0.001654
    17  H   -0.000910   0.000056  -0.000178
    18  H    0.006709  -0.002429   0.001486
    19  H    0.000254   0.000032  -0.000062
    20  H    0.000203  -0.000127   0.000123
    21  H   -0.021313   0.003871  -0.000654
    22  H   -0.000035  -0.000006   0.000005
    23  H    0.000004   0.000002   0.000001
    24  H   -0.000005   0.000004  -0.000002
    25  C   -0.000363   0.000194  -0.000256
    26  H   -0.000345  -0.000132  -0.000107
    27  H    0.002233   0.000305  -0.000785
    28  H   -0.000020  -0.000227   0.000188
    29  H   -0.000943   0.000021   0.000169
    30  H    0.000651   0.000195  -0.000126
    31  O   -0.090020   0.001724   0.003677
    32  H   -0.006652  -0.003767  -0.007128
    33  H    0.010161   0.001597   0.001750
    34  H   -0.000040   0.000027  -0.000034
    35  H    0.000067  -0.000042   0.000032
    36  H   -0.000037   0.000012  -0.000021
    37  O    7.706496   0.357643   0.354139
    38  H    0.357643   0.550924  -0.072894
[...]
 08399,-0.00017363,-0.00006993,0.00018959,-0.00000843,-0.00007784,-0.00
 008953,0.00018078,0.00010498,0.00000732,-0.00035208,0.00051501,-0.0000
 0165,-0.00000024,0.00002447,-0.00043554,0.00036004,0.00049797,0.000150
 52,0.00009567,0.00008891,-0.00004901,0.00002274,-0.00007746,-0.0000395
 6,0.00002345,-0.00007210,0.00001076,0.00001689,-0.00003095,-0.00000791
 ,0.00002973,-0.00001093,-0.00006976,0.00022452,0.00019800,0.00003719,-
 0.00006277,-0.00002963,-0.00001038,-0.00000846,-0.00001152,0.00000486,
 0.00000261,-0.00000270,-0.00000610,0.00001158,-0.00001619,0.00004566,0
 .00000837,-0.00011795,-0.01057857,-0.30724486,-0.06813084,0.00001405,-
 0.00000104,-0.00000911,0.00077572,-0.00039620,-0.00072147,-0.00025008,
 -0.00025565,-0.00001861,-0.00000660,-0.00000658,-0.00001449,-0.0000030
 9,0.00000447,-0.00001013,0.00000801,0.00002342,0.00002472,-0.00001511,
 -0.00002457,-0.00003334,-0.00006524,-0.00000609,-0.00000664,0.00078843
 ,-0.01304973,-0.00483618,0.01279485,0.32745731,-0.00382376,-0.02849541
 ,-0.00950698,0.00021757,-0.00147417,0.00090086,-0.00012313,-0.00018704
 ,0.00022442,-0.00029194,-0.00149725,-0.00027189,-0.00268039,0.00217751
 ,-0.00349253,-0.00015427,0.00013518,-0.00079239,-0.00044302,0.00026861
 ,0.00006476,0.00017411,-0.00019584,-0.00006034,-0.00001272,0.00001391,
 0.00000126,0.00013750,0.00009086,0.00001278,0.00019636,0.00048417,-0.0
 0020441,0.00022488,0.00006615,-0.00008558,-0.00073223,0.00019177,0.000
 15972,-0.00027843,-0.00029169,0.00008543,-0.00025148,0.00006869,-0.000
 34287,-0.00006960,0.00001124,-0.00016051,0.00003088,0.00003191,0.00002
 389,0.00000054,0.00006121,-0.00002159,0.00004784,0.00029134,-0.0000276
 5,0.00014908,0.00003832,-0.00013246,0.00006332,-0.00001873,0.00001004,
 0.00001196,-0.00001691,-0.00000270,-0.00000137,-0.00000802,0.00001402,
 0.00006473,-0.00002024,-0.00007470,-0.00233790,-0.06011603,-0.06410937
 ,-0.00030461,0.00003616,0.00007508,0.00120607,-0.00029988,-0.00027148,
 0.00003017,0.00012493,0.00003230,-0.00007823,-0.00015240,0.00005340,-0
 .00001042,0.00000665,0.00001762,-0.00006232,0.00020251,-0.00010159,-0.
 00001544,-0.00001563,-0.00000081,0.00018560,-0.00023364,0.00014976,0.0
 0034603,0.02382860,0.00826299,0.00886599,0.07330774,0.07155431,-0.0293
 2685,0.00616165,-0.00307367,0.00078556,-0.00106606,0.00223112,0.000517
 66,-0.00022194,0.00007073,0.00053655,-0.00016738,-0.00000952,0.0005109
 5,0.00236507,0.00127817,0.00003494,-0.00004937,-0.00008128,-0.00014066
 ,-0.00009739,-0.00002531,0.00009717,0.00002304,-0.00002182,0.00000888,
 0.00000853,-0.00000361,0.00004954,0.00004812,0.00001060,-0.00021451,0.
 00006277,0.00005445,0.00004138,0.00011073,-0.00003319,-0.00246811,0.00
 063556,0.00191940,-0.00000957,-0.00010923,0.00002103,-0.00001832,0.000
 00527,-0.00013420,0.00015750,-0.00003358,0.00020668,-0.00003987,-0.000
 04442,-0.00009406,0.00014949,0.00006632,0.00015592,0.00021737,-0.00135
 956,-0.00057769,0.00067328,0.00051966,-0.00134271,0.00007599,-0.000020
 53,0.00004535,0.00001078,0.00000152,0.00000113,0.00000112,0.00000842,-
 0.00000072,0.00006743,0.00002360,-0.00006153,-0.25757582,0.07604115,0.
 06601582,-0.00005116,-0.00000890,0.00001753,0.00429395,-0.00145786,-0.
 00421199,-0.00031974,0.00012759,-0.00007382,-0.00005580,-0.00020766,0.
 00002447,0.00000926,-0.00000953,-0.00000426,-0.00039893,0.00036809,-0.
 00022737,0.00008411,0.00006249,0.00010455,0.00068453,-0.00056965,0.000
 40402,-0.00751154,0.00391583,0.00231126,0.00310868,-0.00146651,-0.0002
 8125,0.28604775,-0.00416894,0.00106473,0.00132266,0.00101349,-0.000086
 58,-0.00043102,-0.00011719,0.00005951,0.00015809,0.00004441,-0.0000643
 4,-0.00013281,-0.00256508,0.00202291,0.00075267,-0.00011600,-0.0000892
 4,0.00001468,0.00009489,-0.00007669,0.00002501,-0.00010363,0.00017930,
 0.00003711,-0.00003776,0.00000713,-0.00000469,-0.00006948,-0.00004633,
 -0.00005389,0.00035591,0.00002762,-0.00010168,-0.00003780,-0.00003458,
 0.00003595,0.00032643,0.00000967,0.00007372,0.00008218,-0.00008232,-0.
 00001900,0.00003094,-0.00000898,-0.00001781,0.00005130,-0.00007576,0.0
 0002252,0.00001148,-0.00000333,0.00003376,-0.00007018,-0.00008813,-0.0
 0001704,0.00059941,0.00010996,-0.00008175,0.00001392,-0.00003596,0.000
 44036,-0.00003338,-0.00000098,-0.00001056,-0.00001539,0.00000793,0.000
 00821,0.00000629,-0.00001346,0.00000183,-0.00013353,-0.00004454,0.0001
 7666,0.07809400,-0.07781136,-0.02458972,0.00006292,0.00000380,-0.00003
 192,-0.00083637,0.00010456,-0.00006995,0.00001873,-0.00016071,0.000000
 32,0.00000825,0.00004995,-0.00002023,-0.00000340,0.00000521,-0.0000067
 8,0.00006581,-0.00006568,0.00005897,-0.00001359,-0.00001161,-0.0000242
 1,-0.00013090,0.00009344,-0.00010153,-0.01629803,0.00589658,0.00458803
 ,0.02750947,-0.00719809,-0.00841903,-0.08364475,0.07635288,-0.03233090
 ,0.00838298,0.00061941,-0.00380596,-0.00030191,0.00329912,0.00026195,-
 0.00015610,0.00004902,0.00022539,0.00004257,0.00011257,-0.00092131,0.0
 0291192,0.00123392,0.00039638,-0.00000334,-0.00022455,-0.00014107,-0.0
 0004466,0.00000979,0.00006129,-0.00004615,0.00001382,0.00002467,0.0000
 3743,-0.00001681,0.00000778,0.00002399,0.00000253,0.00001937,-0.000007
 96,0.00006111,0.00004038,-0.00000065,0.00001493,-0.00124788,0.00043013
 ,0.00149549,0.00014822,-0.00028860,-0.00018659,0.00005558,0.00000976,-
 0.00002468,0.00007848,0.00003369,0.00002082,0.00005100,-0.00004469,-0.
 00004157,0.00010982,-0.00000052,0.00006881,0.00102292,-0.00029989,0.00
 013002,0.00123908,-0.00039255,-0.00010905,0.00003404,-0.00002453,-0.00
 000197,0.00000558,-0.00000178,-0.00000200,0.00000263,-0.00000286,0.000
 00475,0.00001180,0.00003859,-0.00000238,0.07091179,-0.02556226,-0.0704
 0563,-0.00004171,0.00000435,-0.00000263,0.00122618,-0.00103060,-0.0033
 6826,-0.00062006,0.00006401,0.00006694,-0.00001358,-0.00001405,-0.0000
 1138,-0.00000969,0.00000976,-0.00000766,0.00001044,0.00002418,0.000001
 07,-0.00001712,-0.00001161,-0.00002942,-0.00007154,0.00000330,0.000067
 73,0.02117138,-0.00947920,-0.00526774,0.00666675,-0.00067937,-0.001981
 68,-0.06456546,0.02637214,0.07440359,-0.00048679,0.00013436,0.00016635
 ,0.00002579,0.00007074,-0.00001781,0.00017577,-0.00014577,0.00002138,0
 .00012881,-0.00002002,-0.00003575,-0.00000168,-0.00011054,0.00000842,-
 0.00019927,-0.00008236,-0.00000579,0.00040926,0.00021746,-0.00001155,-
 0.00020086,-0.00011647,0.00001482,-0.00003989,0.00011547,0.00001293,0.
 00001075,-0.00009363,-0.00000900,0.00004659,0.00008769,0.00000375,0.00
 001085,-0.00138608,0.00025593,-0.00194761,0.00134520,-0.00036770,0.000
 01624,-0.00002896,-0.00001790,-0.00006295,0.00001934,0.00001233,-0.000
 02482,-0.00015537,0.00004792,-0.00006820,0.00002738,-0.00000695,0.0000
 4693,0.00014449,-0.00006812,-0.00005702,0.00001534,-0.00000617,-0.0000
 6811,-0.00001021,-0.00000949,0.00007724,-0.00002559,0.00000299,-0.0000
 0929,-0.00001901,-0.00000203,-0.00001281,-0.00000251,-0.00000032,-0.00
 001270,0.00000669,0.00000034,0.00011248,0.00001531,0.00012443,0.000250
 22,0.00005941,-0.00002878,0.00100587,-0.00012395,-0.00050908,-0.000115
 52,-0.00009320,0.00014177,-0.00011266,0.00288127,-0.00100068,-0.000310
 32,0.00000220,0.00002803,-0.00760771,-0.00631503,-0.01372853,-0.001750
 70,-0.00083220,0.00542725,0.00287365,-0.00272692,0.00086331,0.00002118
 ,-0.00000473,-0.00000597,0.00001030,-0.00000240,0.00000280,-0.00004343
 ,0.00000716,0.00000665,0.42341423,-0.00031901,0.00025518,0.00029734,-0
 .00002394,-0.00011760,-0.00006161,0.00006851,-0.00005295,0.00001970,-0
 .00031050,-0.00003124,0.00011246,-0.00001625,-0.00022043,-0.00018214,-
 0.00010546,-0.00016112,0.00002597,0.00022718,0.00003328,-0.00000452,-0
 .00048705,0.00006520,0.00007881,0.00008845,0.00017521,0.00000956,-0.00
 007887,0.00000618,-0.00000303,-0.00003327,0.00006590,0.00000279,-0.000
 98028,-0.00069035,-0.00004351,-0.00217318,0.00214009,-0.00020749,-0.00
 001977,0.00001805,-0.00003772,0.00000832,0.00005166,0.00001024,0.00002
 588,0.00002766,-0.00011752,-0.00000611,0.00003179,-0.00001104,-0.00003
 979,-0.00008699,-0.00003753,0.00003381,0.00004973,0.00006568,-0.000021
 57,0.00001522,0.00003190,0.00016374,-0.00014641,-0.00003540,0.00001220
 ,-0.00001083,-0.00000071,-0.00001659,0.00000927,0.00000381,-0.00002989
 ,-0.00000832,0.00000191,0.00003016,0.00001306,0.00000949,0.00099825,-0
 .00005706,-0.00020345,0.00077685,-0.00017423,-0.00058350,-0.00012416,-
 0.00014052,0.00002911,0.00102600,0.00140804,0.00073326,0.00001104,0.00
 010630,0.00010653,-0.00793834,0.00350645,-0.00953574,0.00088157,-0.011
 16187,0.00477410,0.00358083,-0.00436685,0.00062391,0.00001506,-0.00001
 112,-0.00000646,0.00002681,0.00002101,0.00003006,-0.00002092,-0.000001
 95,0.00000920,0.17907925,0.41973376,-0.00096678,0.00034483,0.00072501,
 0.00003539,0.00001257,-0.00033546,-0.00013191,0.00015599,-0.00000383,0
 .00000546,0.00001860,0.00007016,0.00000345,-0.00024255,-0.00022215,-0.
 00011130,-0.00010895,0.00003962,0.00018794,0.00004310,0.00011580,-0.00
 037415,-0.00001069,0.00021386,0.00002696,0.00014567,-0.00002660,-0.000
 04213,-0.00002909,-0.00001621,-0.00001067,0.00005970,-0.00000087,-0.00
 080313,-0.00222926,0.00109569,-0.00427128,0.00246247,-0.00017794,0.000
 03837,-0.00005257,0.00004004,-0.00006543,0.00003138,0.00002628,-0.0000
 0471,0.00001038,-0.00021220,-0.00005122,0.00000487,0.00003443,-0.00004
 056,-0.00014333,-0.00012418,-0.00002482,0.00005714,0.00007191,-0.00003
 642,0.00000217,0.00012262,0.00013785,-0.00003517,-0.00034865,0.0000058
 9,-0.00001417,-0.00001752,-0.00001621,0.00000577,-0.00000525,-0.000019
 02,0.00000263,-0.00001140,0.00009367,0.00001873,0.00010493,0.00084362,
 -0.00006404,-0.00036131,0.00237301,-0.00039454,-0.00143745,0.00003204,
 -0.00003410,0.00016601,-0.00010896,0.00474620,-0.00307661,-0.00011558,
 0.00007159,0.00002130,-0.01614976,-0.00968771,-0.01098972,0.00879403,0
 .00480420,-0.00419451,0.00536971,-0.00511184,0.00135867,0.00004257,-0.
 00004491,0.00002626,0.00004431,0.00001890,-0.00000503,-0.00006679,0.00
 001644,0.00001527,0.08201377,-0.29546569,0.37298454,-0.00006235,0.0000
 1320,0.00011843,0.00000893,-0.00000142,-0.00009281,-0.00012299,0.00012
 660,-0.00000035,0.00003197,0.00003466,0.00001817,-0.00001222,-0.000012
 17,-0.00002626,0.00006567,0.00003582,0.00001636,-0.00015648,-0.0000736
 3,0.00005101,0.00004931,0.00002628,0.00006681,0.00000948,-0.00004660,-
 0.00001829,-0.00000616,0.00003258,-0.00000171,-0.00001990,-0.00002961,
 -0.00000694,-0.00015386,-0.00004605,0.00035600,-0.00032033,0.00005538,
 0.00004478,0.00000621,-0.00000543,0.00002181,-0.00001110,-0.00000943,0
 .00000339,0.00000825,0.00001261,-0.00005052,0.00000074,-0.00000984,0.0
 0001304,-0.00001439,-0.00006086,-0.00004046,0.00000957,0.00000601,0.00
 000952,0.00001992,0.00000182,0.00004137,0.00000359,0.00005629,-0.00014
 009,0.00000323,0.00000609,-0.00000373,0.00000386,0.00000088,-0.0000018
 6,0.00000565,-0.00000247,-0.00000469,-0.00002612,-0.00000439,-0.000011
 74,0.00000163,-0.00005168,-0.00010992,0.00025240,-0.00003347,-0.000163
 57,0.00001845,0.00000635,-0.00000695,0.00004384,0.00038910,-0.00073370
 ,0.00011888,-0.00001169,0.00001048,-0.00098766,-0.00160067,-0.00068043
 ,0.00081650,0.00351566,0.00094802,0.00030664,-0.00007721,0.00012027,0.
 00000261,-0.00001073,0.00001124,0.00000539,0.00000466,-0.00000889,-0.0
 0000030,0.00000190,-0.00000214,-0.08395673,0.08948608,-0.14289353,0.07
 623274,-0.00009135,-0.00004993,-0.00000039,0.00000175,0.00009828,-0.00
 001112,0.00000587,-0.00002761,0.00000409,0.00006291,0.00000633,-0.0000
 3801,0.00000345,0.00002044,0.00005083,-0.00000479,0.00003534,-0.000008
 39,0.00000820,0.00007840,0.00001528,0.00019588,-0.00007928,0.00000368,
 -0.00006998,-0.00006257,-0.00000562,0.00004216,-0.00003369,-0.00000516
 ,0.00002020,0.00000502,-0.00000098,0.00050360,-0.00041009,0.00047293,-
 0.00022612,0.00000885,-0.00003713,0.00000782,-0.00001138,0.00000232,0.
 00000434,-0.00001648,0.00000296,-0.00002448,-0.00002425,0.00005249,-0.
 00000493,0.00000323,0.00000554,0.00003712,0.00006615,0.00000273,-0.000
 01953,-0.00000680,-0.00001570,-0.00001025,-0.00001572,-0.00000412,-0.0
 0002209,0.00007093,-0.00003860,-0.00001208,-0.00000143,-0.00000434,0.0
 0000503,-0.00000462,-0.00000362,0.00001072,0.00000138,-0.00000293,0.00
 001645,0.00000390,0.00002715,-0.00043151,0.00004449,0.00003084,0.00015
 607,0.00001176,-0.00006574,0.00001096,0.00001975,0.00002141,-0.0003128
 9,0.00113125,-0.00085815,-0.00009839,-0.00004164,-0.00010610,-0.002305
 83,-0.00300217,-0.00211828,0.00326188,0.00484929,0.00230746,0.00017368
 ,-0.00010485,0.00009038,-0.00000051,-0.00000345,0.00000331,-0.00000275
 ,-0.00000583,-0.00001475,-0.00000613,0.00000390,-0.00000180,0.05335163
 ,-0.19839172,0.22336083,-0.06718842,0.21159507,0.00016430,-0.00006616,
 -0.00013423,-0.00001231,0.00001919,0.00007028,0.00002801,-0.00004560,-
 0.00000148,-0.00004966,-0.00001168,-0.00000883,0.00000538,0.00003644,0
 .00003365,0.00004473,0.00002411,-0.00000630,-0.00007065,-0.00001104,-0
 .00001196,0.00017040,0.00000624,-0.00007366,-0.00001405,-0.00005221,0.
 00000471,0.00002151,0.00000794,0.00000304,0.00000684,-0.00001447,-0.00
 000603,0.00050032,0.00021634,-0.00005081,0.00066108,-0.00030989,0.0000
 2950,-0.00001189,0.00001022,-0.00001357,0.00002698,-0.00001045,-0.0000
 0336,-0.00000179,0.00001488,0.00003400,0.00004048,-0.00000759,-0.00000
 890,-0.00001124,0.00002250,0.00006657,0.00001052,-0.00000811,-0.000007
 51,0.00000829,-0.00000514,-0.00002229,-0.00004470,0.00001937,0.0000434
 7,-0.00000305,0.00000600,0.00000808,0.00000683,-0.00000181,0.00000322,
 0.00000724,-0.00000151,0.00000490,-0.00001453,0.00000060,-0.00001800,-
 0.00037651,0.00003149,0.00015576,-0.00042282,0.00007329,0.00022806,-0.
 00001177,0.00000481,-0.00002056,-0.00060862,-0.00024616,-0.00049863,-0
 .00005898,-0.00007471,-0.00000262,0.00039604,-0.00142447,0.00011048,-0
 .00072206,0.00313138,-0.00176515,-0.00080347,0.00057243,-0.00028274,-0
 .00000820,0.00000852,-0.00000643,-0.00000811,-0.00000272,0.00000123,0.
 00001270,-0.00000390,-0.00000347,-0.10499581,0.24223074,-0.30853046,0.
 11387803,-0.24629195,0.31634421,0.00010997,0.00000130,-0.00000271,-0.0
 0001510,-0.00003006,0.00000338,0.00000958,-0.00001188,0.00001404,-0.00
 012741,-0.00000972,0.00004222,-0.00000732,-0.00001225,-0.00004024,0.00
 003232,-0.00002053,0.00000573,-0.00002871,0.00000429,-0.00000390,0.000
 01649,0.00001841,0.00000377,0.00001228,-0.00001917,0.00000058,-0.00000
 986,0.00001995,-0.00000023,-0.00002075,-0.00000421,0.00000257,0.000025
 28,0.00013951,0.00003873,0.00022958,0.00011064,0.00006962,-0.00002174,
 0.00001805,-0.00001038,0.00001937,0.00000723,-0.00000413,0.00001066,0.
 00002012,-0.00002686,0.00000584,0.00001304,-0.00000846,-0.00000743,-0.
 00002724,-0.00000077,0.00003301,0.00000824,0.00001695,0.00001333,0.000
 00321,0.00000164,0.00001956,-0.00000804,0.00001424,0.00000097,0.000004
 41,-0.00000009,0.00000204,0.00000228,-0.00000051,-0.00000327,-0.000005
 46,-0.00000019,-0.00003414,0.00000311,-0.00004174,-0.00001871,-0.00000
 179,0.00000128,-0.00019391,0.00000761,0.00007308,-0.00001851,-0.000022
 36,-0.00006162,-0.00003175,-0.00020493,-0.00006875,0.00003677,-0.00001
 108,-0.00002461,0.00046019,0.00013445,-0.00025885,-0.00207404,-0.00063
 452,0.00081493,-0.00006222,-0.00017985,-0.00001570,-0.00000482,-0.0000
 0221,-0.00000208,0.00000246,0.00000639,0.00000598,0.00001073,-0.000003
 46,-0.00000113,-0.33154711,-0.26379505,0.06625632,0.00782511,0.0129522
 9,-0.00773948,0.32535127,0.00006913,-0.00008677,-0.00005726,0.00000926
 ,0.00002434,-0.00000803,-0.00006896,0.00005769,-0.00001532,0.00009364,
 0.00000354,-0.00003559,0.00001709,0.00007960,0.00003974,0.00003728,0.0
 0004150,-0.00000955,-0.00007497,-0.00000884,0.00001230,0.00014285,-0.0
 0001619,-0.00001737,-0.00002394,-0.00004410,-0.00000194,0.00002327,-0.
 00000064,-0.00000145,0.00000516,-0.00002195,0.00000289,0.00029876,0.00
 017057,-0.00003180,0.00045794,-0.00052798,0.00011292,0.00001582,-0.000
 00638,0.00002659,0.00001957,-0.00001806,-0.00000836,-0.00001405,0.0000
 5991,0.00001716,0.00000865,-0.00002007,0.00000904,0.00000083,-0.000024
 21,0.00001457,-0.00000886,-0.00001591,-0.00001426,0.00001259,-0.000002
 43,0.00000351,-0.00004090,0.00001931,-0.00000346,-0.00000327,0.0000039
 7,-0.00000054,0.00000423,-0.00000196,-0.00000138,0.00001024,0.00000305
 ,-0.00000189,-0.00000743,-0.00000434,-0.00000502,-0.00027488,0.0000134
 9,0.00004858,-0.00018981,0.00006267,0.00012575,0.00004984,0.00007032,0
 .00000364,-0.00009097,-0.00029460,0.00008979,-0.00005859,-0.00003640,-
 0.00003153,0.00109514,0.00026588,0.00058578,-0.00235567,-0.00157970,-0
 .00082173,-0.00086257,0.00084010,-0.00049495,-0.00000208,0.00000345,0.
 00000747,-0.00000795,-0.00000834,-0.00001083,0.00000597,0.00000156,-0.
 00000290,-0.22528543,-0.21190147,0.07727444,-0.02453619,-0.01576023,0.
 00215306,0.25152929,0.22865962,0.00008306,-0.00003363,-0.00009569,-0.0
 0000686,-0.00000738,0.00005585,0.00002368,-0.00002012,-0.00000319,0.00
 000196,0.00000752,-0.00001905,-0.00001682,-0.00000312,0.00005003,-0.00
 001750,-0.00000771,-0.00000791,0.00001885,0.00002537,-0.00001817,-0.00
 000425,-0.00001094,-0.00002064,-0.00000247,0.00000257,0.00000875,0.000
 00139,-0.00000576,-0.00000062,0.00000072,0.00000518,-0.00000312,0.0000
 4469,-0.00004029,-0.00007716,0.00011161,0.00028249,-0.00018277,-0.0000
 1016,0.00001029,-0.00001619,0.00001783,-0.00000747,-0.00000106,-0.0000
 0081,-0.00001249,0.00006266,0.00000751,0.00000429,-0.00000359,0.000003
 79,0.00003049,0.00000380,-0.00000157,-0.00000197,-0.00001581,-0.000001
 23,0.00000168,-0.00001592,0.00001333,-0.00000425,0.00002525,-0.0000016
 5,-0.00000288,0.00000293,-0.00000042,-0.00000030,0.00000233,-0.0000006
 9,-0.00000050,0.00000393,-0.00000122,-0.00000558,0.00000753,-0.0000160
 9,0.00000429,0.00001705,-0.00024456,0.00007503,0.00012661,-0.00013402,
 -0.00005862,-0.00000031,0.00007337,0.00010357,0.00016436,-0.00004800,-
 0.00001948,0.00002820,-0.00173736,-0.00044196,-0.00429371,-0.00030566,
 -0.00082839,0.00707413,0.00026379,-0.00060084,0.00009507,-0.00000385,0
 .00000824,-0.00000686,-0.00000524,-0.00000277,0.00000267,0.00000533,-0
 .00000161,-0.00000325,0.03167229,0.05733047,-0.04713504,0.02926986,0.0
 2317865,-0.00566420,-0.05905263,-0.07895209,0.04985309\\-0.00000041,-0
 .00000050,-0.00000021,0.00000030,-0.00000064,-0.00000054,0.00000039,0.
 00000023,-0.00000015,0.00000011,0.00000064,-0.00000153,0.00000011,0.00
 000065,-0.00000038,-0.00000019,-0.00000086,0.00000047,-0.00000085,-0.0
 0000045,0.00000048,-0.00000031,-0.00000013,0.00000156,0.00000169,0.000
 00189,0.00000160,0.00000101,-0.00000016,0.00000167,-0.00000021,-0.0000
 0024,0.00000115,0.00000037,0.00000006,0.00000079,-0.00000054,-0.000000
 16,-0.00000090,-0.00000064,-0.00000053,-0.00000141,0.00000002,0.000000
 69,-0.00000138,-0.00000039,0.00000046,-0.00000145,0.00000041,0.0000010
 7,-0.00000042,0.00000011,0.00000013,-0.00000092,-0.00000059,-0.0000001
 4,-0.00000114,0.00000007,0.00000012,0.00000018,0.00000052,0.00000071,0
 .00000165,0.00000053,-0.00000024,0.00000232,0.00000041,-0.00000022,0.0
 0000231,0.00000025,0.,0.00000132,-0.00000045,-0.00000104,-0.00000013,0
 .00000034,0.,0.00000112,-0.00000030,-0.00000051,-0.00000062,-0.0000005
 7,-0.00000084,-0.00000077,0.00000012,0.00000023,-0.00000006,0.00000016
 ,0.00000008,0.00000104,-0.00000020,-0.00000013,-0.00000040,0.00000011,
 0.00000033,-0.00000075,-0.00000028,-0.00000048,-0.00000060,-0.00000077
 ,-0.00000143,-0.00000039,-0.00000059,-0.00000116,0.00000040,-0.0000004
 4,-0.00000086,-0.00000009,0.00000024,0.00000097,-0.00000120,0.00000040
 ,0.00000134,-0.00000102,0.00000006,0.00000115,-0.00000160\\\@


 THIS CURIOUS WORLD WHICH WE INHABIT IS MORE WONDERFUL THAN IT IS CONVENIENT;
 MORE BEAUTIFUL THAN IT IS USEFUL;
 IT IS MORE TO BE ADMIRED THAN IT IS TO BE USED.

                                                                 -- THOREAU
 Job cpu time:       1 days  8 hours 22 minutes 35.4 seconds.
 Elapsed time:       0 days  1 hours  9 minutes 26.0 seconds.
 File lengths (MBytes):  RWF=   1236 Int=      0 D2E=      0 Chk=     32 Scr=      8
 Normal termination of Gaussian 16 at Sun Feb 26 02:38:02 2023.
