 Entering Gaussian System, Link 0=g16
 Input=h11o5B.gjf
 Output=h11o5B.log
 Initial command:
 /sw/contrib/gaussian/g16/A03/g16/l1.exe "/gscratch/scrubbed/gds001/Gau-21448.inp" -scrdir="/gscratch/scrubbed/gds001/"
 Entering Link 1 = /sw/contrib/gaussian/g16/A03/g16/l1.exe PID=     21449.
  
 Copyright (c) 1988,1990,1992,1993,1995,1998,2003,2009,2016,
            Gaussian, Inc.  All Rights Reserved.
  
 This is part of the Gaussian(R) 16 program.  It is based on
 the Gaussian(R) 09 system (copyright 2009, Gaussian, Inc.),
 the Gaussian(R) 03 system (copyright 2003, Gaussian, Inc.),
 the Gaussian(R) 98 system (copyright 1998, Gaussian, Inc.),
 the Gaussian(R) 94 system (copyright 1995, Gaussian, Inc.),
 the Gaussian 92(TM) system (copyright 1992, Gaussian, Inc.),
 the Gaussian 90(TM) system (copyright 1990, Gaussian, Inc.),
 the Gaussian 88(TM) system (copyright 1988, Gaussian, Inc.),
 the Gaussian 86(TM) system (copyright 1986, Carnegie Mellon
 University), and the Gaussian 82(TM) system (copyright 1983,
 Carnegie Mellon University). Gaussian is a federally registered
 trademark of Gaussian, Inc.
  
 This software contains proprietary and confidential information,
 including trade secrets, belonging to Gaussian, Inc.
  
 This software is provided under written license and may be
 used, copied, transmitted, or stored only in accord with that
 written license.
  
 The following legend is applicable only to US Government
 contracts under FAR:
  
                    RESTRICTED RIGHTS LEGEND
  
 Use, reproduction and disclosure by the US Government is
 subject to restrictions as set forth in subparagraphs (a)
 and (c) of the Commercial Computer Software - Restricted
 Rights clause in FAR 52.227-19.
  
 Gaussian, Inc.
 340 Quinnipiac St., Bldg. 40, Wallingford CT 06492
  
  
 ---------------------------------------------------------------
 Warning -- This program may not be used in any manner that
 competes with the business of Gaussian, Inc. or will provide
 assistance to any competitor of Gaussian, Inc.  The licensee
 of this program is prohibited from giving any competitor of
 Gaussian, Inc. access to this program.  By using this program,
 the user acknowledges that Gaussian, Inc. is engaged in the
 business of creating and licensing software in the field of
 computational chemistry and represents and warrants to the
 licensee that it is not a competitor of Gaussian, Inc. and that
 it will not use this program in any manner prohibited above.
 ---------------------------------------------------------------
  

 Cite this work as:
 Gaussian 16, Revision A.03,
 M. J. Frisch, G. W. Trucks, H. B. Schlegel, G. E. Scuseria, 
 M. A. Robb, J. R. Cheeseman, G. Scalmani, V. Barone, 
 G. A. Petersson, H. Nakatsuji, X. Li, M. Caricato, A. V. Marenich, 
 J. Bloino, B. G. Janesko, R. Gomperts, B. Mennucci, H. P. Hratchian, 
 J. V. Ortiz, A. F. Izmaylov, J. L. Sonnenberg, D. Williams-Young, 
 F. Ding, F. Lipparini, F. Egidi, J. Goings, B. Peng, A. Petrone, 
 T. Henderson, D. Ranasinghe, V. G. Zakrzewski, J. Gao, N. Rega, 
 G. Zheng, W. Liang, M. Hada, M. Ehara, K. Toyota, R. Fukuda, 
 J. Hasegawa, M. Ishida, T. Nakajima, Y. Honda, O. Kitao, H. Nakai, 
 T. Vreven, K. Throssell, J. A. Montgomery, Jr., J. E. Peralta, 
 F. Ogliaro, M. J. Bearpark, J. J. Heyd, E. N. Brothers, K. N. Kudin, 
 V. N. Staroverov, T. A. Keith, R. Kobayashi, J. Normand, 
 K. Raghavachari, A. P. Rendell, J. C. Burant, S. S. Iyengar, 
 J. Tomasi, M. Cossi, J. M. Millam, M. Klene, C. Adamo, R. Cammi, 
 J. W. Ochterski, R. L. Martin, K. Morokuma, O. Farkas, 
 J. B. Foresman, and D. J. Fox, Gaussian, Inc., Wallingford CT, 2016.
 
 ******************************************
 Gaussian 16:  ES64L-G16RevA.03 25-Dec-2016
                26-Apr-2023 
 ******************************************
 %nprocshared=28
 Will use up to   28 processors via shared memory.
 %mem=41GB
 -----------------------------
 # wB97XD/aug-cc-pVDZ opt freq
 -----------------------------
 1/18=20,19=15,26=3,38=1/1,3;
 2/9=110,12=2,17=6,18=5,40=1/2;
 3/5=16,7=10,11=2,25=1,30=1,71=1,74=-58/1,2,3;
 4//1;
 5/5=2,38=5/2;
 6/7=2,8=2,9=2,10=2,28=1/1;
 7//1,2,3,16;
 1/18=20,19=15,26=3/3(2);
 2/9=110/2;
 99//99;
 2/9=110/2;
 3/5=16,7=10,11=2,25=1,30=1,71=1,74=-58/1,2,3;
 4/5=5,16=3,69=1/1;
 5/5=2,38=5/2;
 7//1,2,3,16;
 1/18=20,19=15,26=3/3(-5);
 2/9=110/2;
 6/7=2,8=2,9=2,10=2,19=2,28=1/1;
 99/9=1/99;
 ----
 blah
 ----
 Symbolic Z-matrix:
 Charge =  1 Multiplicity = 1
 H                    -4.34671   0.65243  -0.30805 
 H                     1.38179  -0.7807   -0.22627 
 H                    -0.13642  -0.09794   0.1993 
 O                    -1.38305  -0.13878   0.90735 
 H                     1.21701   0.87794  -0.19773 
 H                     2.19069   2.81748  -0.79457 
 O                     2.01083   2.24798  -0.03821 
 H                     1.97218   2.8176    0.73779 
 H                    -2.23702  -0.12686   0.4107 
 O                    -3.67397  -0.01724  -0.46995 
 H                    -4.10358  -0.7236   -0.96321 
 O                     0.75677  -0.00347  -0.34362 
 H                     2.47005  -2.6577   -0.83551 
 O                     2.29563  -2.07957  -0.08444 
 H                    -1.50142  -0.68157   1.6926 
 H                     3.04378  -2.16846   0.51599 
 
 Add virtual bond connecting atoms O4         and H3         Dist= 2.71D+00.
 Add virtual bond connecting atoms O7         and H5         Dist= 3.01D+00.
 Add virtual bond connecting atoms O14        and H2         Dist= 3.01D+00.
 Add virtual bond connecting atoms O10        and H9         Dist= 3.19D+00.

 GradGradGradGradGradGradGradGradGradGradGradGradGradGradGradGradGradGrad
 Berny optimization.
 Initialization pass.
                           ----------------------------
                           !    Initial Parameters    !
                           ! (Angstroms and Degrees)  !
 --------------------------                            --------------------------
 ! Name  Definition              Value          Derivative Info.                !
 --------------------------------------------------------------------------------
 ! R1    R(1,10)                 0.9629         estimate D2E/DX2                !
 ! R2    R(2,12)                 1.0043         estimate D2E/DX2                !
 ! R3    R(2,14)                 1.5944         estimate D2E/DX2                !
 ! R4    R(3,4)                  1.4343         estimate D2E/DX2                !
 ! R5    R(3,12)                 1.0495         estimate D2E/DX2                !
 ! R6    R(4,9)                  0.988          estimate D2E/DX2                !
 ! R7    R(4,15)                 0.9619         estimate D2E/DX2                !
 ! R8    R(5,7)                  1.5914         estimate D2E/DX2                !
 ! R9    R(5,12)                 1.005          estimate D2E/DX2                !
 ! R10   R(6,7)                  0.9637         estimate D2E/DX2                !
 ! R11   R(7,8)                  0.9634         estimate D2E/DX2                !
 ! R12   R(9,10)                 1.6889         estimate D2E/DX2                !
 ! R13   R(10,11)                0.9627         estimate D2E/DX2                !
 ! R14   R(13,14)                0.9637         estimate D2E/DX2                !
 ! R15   R(14,16)                0.9634         estimate D2E/DX2                !
 ! A1    A(3,4,9)              120.1847         estimate D2E/DX2                !
 ! A2    A(3,4,15)             121.7376         estimate D2E/DX2                !
 ! A3    A(9,4,15)             108.1096         estimate D2E/DX2                !
 ! A4    A(5,7,6)              121.5448         estimate D2E/DX2                !
 ! A5    A(5,7,8)              124.7327         estimate D2E/DX2                !
 ! A6    A(6,7,8)              106.8726         estimate D2E/DX2                !
 ! A7    A(1,10,9)             123.496          estimate D2E/DX2                !
 ! A8    A(1,10,11)            106.5375         estimate D2E/DX2                !
 ! A9    A(9,10,11)            126.8141         estimate D2E/DX2                !
 ! A10   A(2,12,3)             113.55           estimate D2E/DX2                !
 ! A11   A(2,12,5)             112.1352         estimate D2E/DX2                !
 ! A12   A(3,12,5)             113.179          estimate D2E/DX2                !
 ! A13   A(2,14,13)            121.5396         estimate D2E/DX2                !
 ! A14   A(2,14,16)            125.148          estimate D2E/DX2                !
 ! A15   A(13,14,16)           106.8466         estimate D2E/DX2                !
 ! A16   L(12,2,14,15,-1)      178.4256         estimate D2E/DX2                !
 ! A17   L(4,3,12,8,-1)        177.7058         estimate D2E/DX2                !
 ! A18   L(7,5,12,16,-1)       178.3612         estimate D2E/DX2                !
 ! A19   L(4,9,10,6,-1)        176.9725         estimate D2E/DX2                !
 ! A20   L(12,2,14,15,-2)      175.8582         estimate D2E/DX2                !
 ! A21   L(4,3,12,8,-2)        183.6024         estimate D2E/DX2                !
 ! A22   L(7,5,12,16,-2)       183.6226         estimate D2E/DX2                !
 ! A23   L(4,9,10,6,-2)        181.6025         estimate D2E/DX2                !
 ! D1    D(3,4,10,1)          -123.5619         estimate D2E/DX2                !
 ! D2    D(3,4,10,11)           77.9887         estimate D2E/DX2                !
 ! D3    D(15,4,10,1)           88.8583         estimate D2E/DX2                !
 ! D4    D(15,4,10,11)         -69.5911         estimate D2E/DX2                !
 ! D5    D(9,4,12,2)          -120.0103         estimate D2E/DX2                !
 ! D6    D(9,4,12,5)           109.9967         estimate D2E/DX2                !
 ! D7    D(15,4,12,2)           22.762          estimate D2E/DX2                !
 ! D8    D(15,4,12,5)         -107.231          estimate D2E/DX2                !
 ! D9    D(6,7,12,2)           108.1866         estimate D2E/DX2                !
 ! D10   D(6,7,12,3)          -120.9259         estimate D2E/DX2                !
 ! D11   D(8,7,12,2)          -103.6645         estimate D2E/DX2                !
 ! D12   D(8,7,12,3)            27.223          estimate D2E/DX2                !
 ! D13   D(3,12,14,13)         112.8759         estimate D2E/DX2                !
 ! D14   D(3,12,14,16)         -97.9964         estimate D2E/DX2                !
 ! D15   D(5,12,14,13)        -116.1438         estimate D2E/DX2                !
 ! D16   D(5,12,14,16)          32.9839         estimate D2E/DX2                !
 --------------------------------------------------------------------------------
 Trust Radius=3.00D-01 FncErr=1.00D-07 GrdErr=1.00D-06 EigMax=2.50D+02 EigMin=1.00D-04
 Number of steps in this run=     64 maximum allowed number of steps=    100.
 GradGradGradGradGradGradGradGradGradGradGradGradGradGradGradGradGradGrad

                          Input orientation:                          
 ---------------------------------------------------------------------
 Center     Atomic      Atomic             Coordinates (Angstroms)
 Number     Number       Type             X           Y           Z
 ---------------------------------------------------------------------
      1          1           0       -4.346707    0.652428   -0.308054
      2          1           0        1.381790   -0.780703   -0.226267
      3          1           0       -0.136420   -0.097944    0.199299
      4          8           0       -1.383053   -0.138783    0.907346
      5          1           0        1.217011    0.877935   -0.197730
      6          1           0        2.190689    2.817482   -0.794573
      7          8           0        2.010826    2.247976   -0.038213
      8          1           0        1.972184    2.817604    0.737787
      9          1           0       -2.237017   -0.126855    0.410698
     10          8           0       -3.673970   -0.017241   -0.469951
     11          1           0       -4.103578   -0.723602   -0.963211
     12          8           0        0.756770   -0.003465   -0.343622
     13          1           0        2.470046   -2.657699   -0.835506
     14          8           0        2.295631   -2.079565   -0.084437
     15          1           0       -1.501415   -0.681569    1.692595
     16          1           0        3.043783   -2.168461    0.515985
 ---------------------------------------------------------------------
                    Distance matrix (angstroms):
                    1          2          3          4          5
     1  H    0.000000
     2  H    5.905610   0.000000
     3  H    4.306621   1.718205   0.000000
     4  O    3.299463   3.056386   1.434257   0.000000
     5  H    5.569379   1.667047   1.715152   3.002539   0.000000
     6  H    6.903746   3.731518   3.860431   4.940411   2.250803
     7  O    6.560245   3.099024   3.189109   4.255481   1.591415
     8  H    6.760928   3.771708   3.638214   4.475108   2.282059
     9  H    2.361076   3.732158   2.111405   0.987955   3.648301
    10  O    0.962934   5.118883   3.601204   2.675821   4.979673
    11  H    1.543308   5.534944   4.181055   3.352947   5.608881
    12  O    5.145575   1.004252   1.049513   2.482353   1.004974
    13  H    7.596267   2.253572   3.796950   4.922280   3.804939
    14  O    7.185711   1.594448   3.149952   4.275861   3.150089
    15  H    3.725296   3.464784   2.105650   0.961895   3.659948
    16  H    7.953351   2.288893   3.808021   4.885656   3.623122
                    6          7          8          9         10
     6  H    0.000000
     7  O    0.963726   0.000000
     8  H    1.547860   0.963403   0.000000
     9  H    5.452190   4.887281   5.147252   0.000000
    10  O    6.521906   6.134697   6.432265   1.688903   0.000000
    11  H    7.223954   6.860892   7.235221   2.393279   0.962712
    12  O    3.196439   2.595172   3.256548   3.089819   4.432562
    13  H    5.482456   4.991213   5.718572   5.487681   6.697356
    14  O    4.949381   4.337149   4.976237   4.960155   6.327554
    15  H    5.662243   4.890170   5.022127   1.578632   3.136548
    16  H    5.225415   4.569360   5.104739   5.662693   7.122361
                   11         12         13         14         15
    11  H    0.000000
    12  O    4.952320   0.000000
    13  H    6.853435   3.197221   0.000000
    14  O    6.600057   2.597203   0.963724   0.000000
    15  H    3.718377   3.115350   5.105770   4.419253   0.000000
    16  H    7.440457   3.264439   1.547597   0.963400   4.924844
                   16
    16  H    0.000000
 Stoichiometry    H11O5(1+)
 Framework group  C1[X(H11O5)]
 Deg. of freedom    42
 Full point group                 C1      NOp   1
 Largest Abelian subgroup         C1      NOp   1
 Largest concise Abelian subgroup C1      NOp   1
                         Standard orientation:                         
 ---------------------------------------------------------------------
 Center     Atomic      Atomic             Coordinates (Angstroms)
 Number     Number       Type             X           Y           Z
 ---------------------------------------------------------------------
      1          1           0       -4.346707    0.652428   -0.308054
      2          1           0        1.381790   -0.780703   -0.226267
      3          1           0       -0.136420   -0.097944    0.199299
      4          8           0       -1.383053   -0.138783    0.907346
      5          1           0        1.217011    0.877935   -0.197730
      6          1           0        2.190689    2.817482   -0.794573
      7          8           0        2.010826    2.247976   -0.038213
      8          1           0        1.972184    2.817604    0.737787
      9          1           0       -2.237017   -0.126855    0.410698
     10          8           0       -3.673970   -0.017241   -0.469951
     11          1           0       -4.103578   -0.723602   -0.963211
     12          8           0        0.756770   -0.003465   -0.343622
     13          1           0        2.470046   -2.657699   -0.835506
     14          8           0        2.295631   -2.079565   -0.084437
     15          1           0       -1.501415   -0.681569    1.692595
     16          1           0        3.043783   -2.168461    0.515985
 ---------------------------------------------------------------------
 Rotational constants (GHZ):           2.4519235           1.0092837           0.7696400
 Standard basis: Aug-CC-pVDZ (5D, 7F)
 There are   224 symmetry adapted cartesian basis functions of A   symmetry.
 There are   214 symmetry adapted basis functions of A   symmetry.
   214 basis functions,   336 primitive gaussians,   224 cartesian basis functions
    25 alpha electrons       25 beta electrons
       nuclear repulsion energy       201.6132757735 Hartrees.
 NAtoms=   16 NActive=   16 NUniq=   16 SFac= 1.00D+00 NAtFMM=   60 NAOKFM=F Big=F
 Integral buffers will be    131072 words long.
 Raffenetti 2 integral format.
 Two-electron integral symmetry is turned on.
 Nuclear repulsion after empirical dispersion term =      201.6090647027 Hartrees.
 One-electron integrals computed using PRISM.
 NBasis=   214 RedAO= T EigKep=  9.18D-04  NBF=   214
 NBsUse=   214 1.00D-06 EigRej= -1.00D+00 NBFU=   214
 ExpMin= 2.97D-02 ExpMax= 1.17D+04 ExpMxC= 4.01D+02 IAcc=3 IRadAn=         5 AccDes= 0.00D+00
 Harris functional with IExCor= 4639 and IRadAn=       5 diagonalized for initial guess.
 HarFok:  IExCor= 4639 AccDes= 0.00D+00 IRadAn=         5 IDoV= 1 UseB2=F ITyADJ=14
 ICtDFT=  3500011 ScaDFX=  1.000000  1.000000  1.000000  1.000000
 FoFCou: FMM=F IPFlag=           0 FMFlag=      100000 FMFlg1=           0
         NFxFlg=           0 DoJE=T BraDBF=F KetDBF=T FulRan=T
         wScrn=  0.000000 ICntrl=       500 IOpCl=  0 I1Cent=   200000004 NGrid=           0
         NMat0=    1 NMatS0=      1 NMatT0=    0 NMatD0=    1 NMtDS0=    0 NMtDT0=    0
 Petite list used in FoFCou.
 Requested convergence on RMS density matrix=1.00D-08 within 128 cycles.
 Requested convergence on MAX density matrix=1.00D-06.
 Requested convergence on             energy=1.00D-06.
 No special actions if energy rises.
 SCF Done:  E(RwB97XD) =  -382.521279457     A.U. after   11 cycles
            NFock= 11  Conv=0.50D-08     -V/T= 2.0060

 **********************************************************************

            Population analysis using the SCF density.

 **********************************************************************

 Orbital symmetries:
       Occupied  (A) (A) (A) (A) (A) (A) (A) (A) (A) (A) (A) (A)
                 (A) (A) (A) (A) (A) (A) (A) (A) (A) (A) (A) (A)
                 (A)
       Virtual   (A) (A) (A) (A) (A) (A) (A) (A) (A) (A) (A) (A)
                 (A) (A) (A) (A) (A) (A) (A) (A) (A) (A) (A) (A)
                 (A) (A) (A) (A) (A) (A) (A) (A) (A) (A) (A) (A)
                 (A) (A) (A) (A) (A) (A) (A) (A) (A) (A) (A) (A)
                 (A) (A) (A) (A) (A) (A) (A) (A) (A) (A) (A) (A)
                 (A) (A) (A) (A) (A) (A) (A) (A) (A) (A) (A) (A)
                 (A) (A) (A) (A) (A) (A) (A) (A) (A) (A) (A) (A)
                 (A) (A) (A) (A) (A) (A) (A) (A) (A) (A) (A) (A)
                 (A) (A) (A) (A) (A) (A) (A) (A) (A) (A) (A) (A)
                 (A) (A) (A) (A) (A) (A) (A) (A) (A) (A) (A) (A)
                 (A) (A) (A) (A) (A) (A) (A) (A) (A) (A) (A) (A)
                 (A) (A) (A) (A) (A) (A) (A) (A) (A) (A) (A) (A)
                 (A) (A) (A) (A) (A) (A) (A) (A) (A) (A) (A) (A)
                 (A) (A) (A) (A) (A) (A) (A) (A) (A) (A) (A) (A)
                 (A) (A) (A) (A) (A) (A) (A) (A) (A) (A) (A) (A)
                 (A) (A) (A) (A) (A) (A) (A) (A) (A)
 The electronic state is 1-A.
 Alpha  occ. eigenvalues --  -19.48119 -19.45177 -19.45130 -19.43374 -19.42710
 Alpha  occ. eigenvalues --   -1.34080  -1.29420  -1.29143  -1.27951  -1.26459
 Alpha  occ. eigenvalues --   -0.83882  -0.83627  -0.79888  -0.79835  -0.79017
 Alpha  occ. eigenvalues --   -0.77437  -0.69395  -0.65779  -0.65480  -0.63248
 Alpha  occ. eigenvalues --   -0.61564  -0.58289  -0.58229  -0.57207  -0.55680
 Alpha virt. eigenvalues --   -0.09033  -0.06969  -0.06959  -0.05141  -0.03932
 Alpha virt. eigenvalues --   -0.02992  -0.02826  -0.01725  -0.00627   0.00057
 Alpha virt. eigenvalues --    0.00356   0.03800   0.04928   0.05032   0.06263
 Alpha virt. eigenvalues --    0.06992   0.08234   0.08897   0.09102   0.09469
 Alpha virt. eigenvalues --    0.09638   0.09836   0.10780   0.11012   0.11515
 Alpha virt. eigenvalues --    0.12214   0.13689   0.13810   0.14820   0.15194
 Alpha virt. eigenvalues --    0.16279   0.16564   0.16945   0.17542   0.18444
 Alpha virt. eigenvalues --    0.19931   0.20876   0.21555   0.22374   0.23249
 Alpha virt. eigenvalues --    0.24338   0.24827   0.25733   0.25947   0.27032
 Alpha virt. eigenvalues --    0.29359   0.31364   0.32929   0.35040   0.35663
 Alpha virt. eigenvalues --    0.36391   0.36982   0.37833   0.38554   0.39619
 Alpha virt. eigenvalues --    0.40054   0.40615   0.41482   0.42138   0.43131
 Alpha virt. eigenvalues --    0.43315   0.44207   0.45081   0.46092   0.48029
 Alpha virt. eigenvalues --    0.48092   0.48531   0.49006   0.49839   0.50510
 Alpha virt. eigenvalues --    0.51133   0.60187   0.61760   0.63063   0.64620
 Alpha virt. eigenvalues --    0.65754   0.66435   0.68280   0.69772   0.70823
 Alpha virt. eigenvalues --    0.71875   0.72656   0.74597   0.75018   0.76015
 Alpha virt. eigenvalues --    0.77485   0.88047   0.88286   0.89607   0.92356
 Alpha virt. eigenvalues --    0.93619   0.95184   0.95933   1.00407   1.00697
 Alpha virt. eigenvalues --    1.02157   1.03176   1.04487   1.06243   1.09223
 Alpha virt. eigenvalues --    1.11986   1.13266   1.14324   1.15800   1.19001
 Alpha virt. eigenvalues --    1.19255   1.20318   1.20743   1.25043   1.26074
 Alpha virt. eigenvalues --    1.30095   1.30732   1.33145   1.35454   1.37560
 Alpha virt. eigenvalues --    1.42906   1.62263   1.63187   1.63524   1.65544
 Alpha virt. eigenvalues --    1.67634   1.68184   1.69532   1.70107   1.70705
 Alpha virt. eigenvalues --    1.71247   1.71837   1.77033   1.81412   1.82489
 Alpha virt. eigenvalues --    1.83294   1.84551   1.89139   1.91368   1.95924
 Alpha virt. eigenvalues --    2.06568   2.08807   2.11114   2.12855   2.16066
 Alpha virt. eigenvalues --    2.18413   2.19139   2.19909   2.23220   2.24483
 Alpha virt. eigenvalues --    2.26795   2.30265   2.35390   2.39425   2.43147
 Alpha virt. eigenvalues --    2.44052   2.51004   2.52161   2.53918   2.56933
 Alpha virt. eigenvalues --    2.59025   2.60461   2.62858   2.63850   2.72290
 Alpha virt. eigenvalues --    2.75375   2.77800   2.79215   2.81167   3.23942
 Alpha virt. eigenvalues --    3.24130   3.25689   3.26043   3.26708   3.28638
 Alpha virt. eigenvalues --    3.29926   3.30502   3.31552   3.32986   3.33242
 Alpha virt. eigenvalues --    3.35493   3.38505   3.39358   3.62258   3.62416
 Alpha virt. eigenvalues --    3.64361   3.74045   3.84261   3.85002   3.86177
 Alpha virt. eigenvalues --    3.86990   3.97043   3.98728   4.04399
          Condensed to atoms (all electrons):
               1          2          3          4          5          6
     1  H    0.560937   0.000021   0.000810   0.001843  -0.000194   0.000008
     2  H    0.000021   0.478949  -0.047763  -0.010714  -0.064207   0.001225
     3  H    0.000810  -0.047763   0.401757   0.013171  -0.053604  -0.000479
     4  O    0.001843  -0.010714   0.013171   7.794284   0.005600  -0.000143
     5  H   -0.000194  -0.064207  -0.053604   0.005600   0.482567  -0.008797
     6  H    0.000008   0.001225  -0.000479  -0.000143  -0.008797   0.555815
     7  O    0.000027   0.003186  -0.009301   0.001160   0.003630   0.362909
     8  H    0.000001   0.000428  -0.001391  -0.000060  -0.002886  -0.071952
     9  H   -0.005344  -0.001723  -0.015984   0.332229   0.003346  -0.000102
    10  O    0.362110  -0.000015  -0.002232  -0.041997   0.000217  -0.000008
    11  H   -0.072275  -0.000196   0.000437   0.001777   0.000071  -0.000006
    12  O   -0.000029   0.285218   0.227125  -0.076068   0.282320   0.000849
    13  H    0.000000  -0.009356   0.002034   0.000177  -0.001243  -0.000062
    14  O    0.000005   0.002107   0.003767   0.001211  -0.008512   0.000292
    15  H   -0.000977   0.001326  -0.005314   0.362196  -0.000568  -0.000068
    16  H    0.000000  -0.003000   0.000749  -0.000157  -0.000749   0.000008
               7          8          9         10         11         12
     1  H    0.000027   0.000001  -0.005344   0.362110  -0.072275  -0.000029
     2  H    0.003186   0.000428  -0.001723  -0.000015  -0.000196   0.285218
     3  H   -0.009301  -0.001391  -0.015984  -0.002232   0.000437   0.227125
     4  O    0.001160  -0.000060   0.332229  -0.041997   0.001777  -0.076068
     5  H    0.003630  -0.002886   0.003346   0.000217   0.000071   0.282320
     6  H    0.362909  -0.071952  -0.000102  -0.000008  -0.000006   0.000849
     7  O    7.689850   0.358135   0.000034   0.000296   0.000015  -0.061670
     8  H    0.358135   0.546871   0.000126   0.000046  -0.000004   0.001487
     9  H    0.000034   0.000126   0.517537   0.007283  -0.003761   0.000616
    10  O    0.000296   0.000046   0.007283   7.651698   0.357102   0.000413
    11  H    0.000015  -0.000004  -0.003761   0.357102   0.555755   0.000101
    12  O   -0.061670   0.001487   0.000616   0.000413   0.000101   7.583009
    13  H    0.000065  -0.000077  -0.000179   0.000023   0.000005   0.001323
    14  O    0.001510  -0.000122  -0.000263   0.000121   0.000042  -0.056654
    15  H   -0.000066   0.000072  -0.096851  -0.001342  -0.000045  -0.000544
    16  H   -0.000267   0.000045  -0.000068   0.000007   0.000002   0.001410
              13         14         15         16
     1  H    0.000000   0.000005  -0.000977   0.000000
     2  H   -0.009356   0.002107   0.001326  -0.003000
     3  H    0.002034   0.003767  -0.005314   0.000749
     4  O    0.000177   0.001211   0.362196  -0.000157
     5  H   -0.001243  -0.008512  -0.000568  -0.000749
     6  H   -0.000062   0.000292  -0.000068   0.000008
     7  O    0.000065   0.001510  -0.000066  -0.000267
     8  H   -0.000077  -0.000122   0.000072   0.000045
     9  H   -0.000179  -0.000263  -0.096851  -0.000068
    10  O    0.000023   0.000121  -0.001342   0.000007
    11  H    0.000005   0.000042  -0.000045   0.000002
    12  O    0.001323  -0.056654  -0.000544   0.001410
    13  H    0.555907   0.364946   0.000053  -0.072033
    14  O    0.364946   7.681174  -0.000223   0.357772
    15  H    0.000053  -0.000223   0.586683   0.000024
    16  H   -0.072033   0.357772   0.000024   0.547173
 Mulliken charges:
               1
     1  H    0.153058
     2  H    0.364514
     3  H    0.486219
     4  O   -0.384509
     5  H    0.363009
     6  H    0.160512
     7  O   -0.349512
     8  H    0.169280
     9  H    0.263104
    10  O   -0.333722
    11  H    0.160981
    12  O   -0.188906
    13  H    0.158417
    14  O   -0.347175
    15  H    0.155645
    16  H    0.169084
 Sum of Mulliken charges =   1.00000
 Mulliken charges with hydrogens summed into heavy atoms:
               1
     4  O    0.034240
     7  O   -0.019720
    10  O   -0.019683
    12  O    1.024835
    14  O   -0.019674
 Electronic spatial extent (au):  <R**2>=           1420.0773
 Charge=              1.0000 electrons
 Dipole moment (field-independent basis, Debye):
    X=              0.9609    Y=             -0.1005    Z=              0.2754  Tot=              1.0046
 Quadrupole moment (field-independent basis, Debye-Ang):
   XX=             14.8218   YY=             -6.3877   ZZ=            -25.2263
   XY=             -0.3184   XZ=              1.1658   YZ=              0.9463
 Traceless Quadrupole moment (field-independent basis, Debye-Ang):
   XX=             20.4192   YY=             -0.7903   ZZ=            -19.6289
   XY=             -0.3184   XZ=              1.1658   YZ=              0.9463
 Octapole moment (field-independent basis, Debye-Ang**2):
  XXX=            -79.0639  YYY=             23.0987  ZZZ=              5.7655  XYY=             53.9747
  XXY=            -18.2954  XXZ=            -16.8580  XZZ=              2.3300  YZZ=             -3.4804
  YYZ=             -7.9894  XYZ=             -0.4030
 Hexadecapole moment (field-independent basis, Debye-Ang**3):
 XXXX=           -307.7975 YYYY=           -198.2435 ZZZZ=            -64.2212 XXXY=            -94.1675
 XXXZ=             96.9661 YYYX=             27.0464 YYYZ=             22.4637 ZZZX=             -9.5415
 ZZZY=             -3.1557 XXYY=            -52.4646 XXZZ=           -142.1867 YYZZ=            -45.9822
 XXYZ=             11.6330 YYXZ=            -13.9876 ZZXY=             15.1586
 N-N= 2.016090647027D+02 E-N=-1.298239566220D+03  KE= 3.802362641282D+02
 Calling FoFJK, ICntrl=      2127 FMM=F ISym2X=0 I1Cent= 0 IOpClX= 0 NMat=1 NMatS=1 NMatT=0.
 ***** Axes restored to original set *****
 -------------------------------------------------------------------
 Center     Atomic                   Forces (Hartrees/Bohr)
 Number     Number              X              Y              Z
 -------------------------------------------------------------------
      1        1           0.000983340   -0.001498740   -0.000546278
      2        1          -0.001266613    0.001826973   -0.000141901
      3        1           0.002738393    0.000413503   -0.001568630
      4        8          -0.001006693   -0.000762495   -0.000826649
      5        1          -0.000850028   -0.002074729   -0.000214238
      6        1          -0.000254045   -0.000663410    0.001697103
      7        8          -0.000330733    0.000747614   -0.000142022
      8        1           0.000215532   -0.000682442   -0.001664325
      9        1           0.001452738   -0.000196551    0.001437176
     10        8          -0.000962770   -0.000093213   -0.000029525
     11        1           0.000445538    0.001550260    0.000918941
     12        8          -0.000273884   -0.000036688    0.002442122
     13        1           0.000061293    0.000877659    0.001618469
     14        8           0.000745273   -0.000125991   -0.000379947
     15        1          -0.000492521    0.000884760   -0.001252187
     16        1          -0.001204820   -0.000166509   -0.001348109
 -------------------------------------------------------------------
 Cartesian Forces:  Max     0.002738393 RMS     0.001098746

 GradGradGradGradGradGradGradGradGradGradGradGradGradGradGradGradGradGrad
 Berny optimization.
 FormGI is forming the generalized inverse of G from B-inverse, IUseBI=4.
 Internal  Forces:  Max     0.003680794 RMS     0.001078408
 Search for a local minimum.
 Step number   1 out of a maximum of   64
 All quantities printed in internal units (Hartrees-Bohrs-Radians)
 Mixed Optimization -- RFO/linear search
 Second derivative matrix not updated -- first step.
 ITU=  0
     Eigenvalues ---    0.00230   0.00230   0.00230   0.00230   0.00230
     Eigenvalues ---    0.00230   0.00230   0.00230   0.00337   0.00360
     Eigenvalues ---    0.00696   0.00726   0.00859   0.01230   0.01266
     Eigenvalues ---    0.01526   0.01898   0.07573   0.09202   0.09262
     Eigenvalues ---    0.13191   0.13220   0.13279   0.14711   0.16000
     Eigenvalues ---    0.16000   0.16000   0.16000   0.16000   0.16000
     Eigenvalues ---    0.16000   0.39943   0.46824   0.46948   0.49870
     Eigenvalues ---    0.54680   0.54680   0.54748   0.54748   0.54847
     Eigenvalues ---    0.54894   0.55068
 RFO step:  Lambda=-1.63221673D-04 EMin= 2.30000000D-03
 Linear search not attempted -- first point.
 Iteration  1 RMS(Cart)=  0.01996054 RMS(Int)=  0.00019813
 Iteration  2 RMS(Cart)=  0.00040154 RMS(Int)=  0.00005254
 Iteration  3 RMS(Cart)=  0.00000007 RMS(Int)=  0.00005254
 Variable       Old X    -DE/DX   Delta X   Delta X   Delta X     New X
                                 (Linear)    (Quad)   (Total)
    R1        1.81968  -0.00182   0.00000  -0.00332  -0.00332   1.81636
    R2        1.89776  -0.00293   0.00000  -0.00624  -0.00624   1.89152
    R3        3.01307  -0.00071   0.00000  -0.00775  -0.00775   3.00532
    R4        2.71035  -0.00051   0.00000  -0.00385  -0.00385   2.70651
    R5        1.98329  -0.00368   0.00000  -0.00921  -0.00921   1.97408
    R6        1.86697  -0.00255   0.00000  -0.00512  -0.00512   1.86184
    R7        1.81772  -0.00146   0.00000  -0.00265  -0.00265   1.81507
    R8        3.00734  -0.00071   0.00000  -0.00765  -0.00765   2.99969
    R9        1.89913  -0.00295   0.00000  -0.00630  -0.00630   1.89283
   R10        1.82118  -0.00177   0.00000  -0.00324  -0.00324   1.81794
   R11        1.82057  -0.00175   0.00000  -0.00320  -0.00320   1.81737
   R12        3.19156  -0.00058   0.00000  -0.00762  -0.00762   3.18395
   R13        1.81926  -0.00181   0.00000  -0.00329  -0.00329   1.81597
   R14        1.82117  -0.00178   0.00000  -0.00325  -0.00325   1.81793
   R15        1.82056  -0.00176   0.00000  -0.00321  -0.00321   1.81735
    A1        2.09762   0.00048   0.00000   0.00374   0.00375   2.10137
    A2        2.12472   0.00041   0.00000   0.00378   0.00389   2.12861
    A3        1.88687  -0.00079   0.00000  -0.00433  -0.00437   1.88250
    A4        2.12136   0.00035   0.00000   0.00180   0.00179   2.12315
    A5        2.17700   0.00028   0.00000   0.00137   0.00137   2.17837
    A6        1.86528  -0.00057   0.00000  -0.00399  -0.00399   1.86128
    A7        2.15541   0.00029   0.00000   0.00180   0.00180   2.15721
    A8        1.85943  -0.00051   0.00000  -0.00323  -0.00323   1.85620
    A9        2.21332   0.00026   0.00000   0.00158   0.00158   2.21490
   A10        1.98182   0.00007   0.00000  -0.00059  -0.00059   1.98123
   A11        1.95713  -0.00021   0.00000  -0.00274  -0.00274   1.95439
   A12        1.97535   0.00007   0.00000  -0.00056  -0.00054   1.97480
   A13        2.12127   0.00035   0.00000   0.00169   0.00168   2.12295
   A14        2.18424   0.00026   0.00000   0.00118   0.00118   2.18542
   A15        1.86483  -0.00056   0.00000  -0.00400  -0.00400   1.86082
   A16        3.11411  -0.00004   0.00000  -0.01215  -0.01214   3.10198
   A17        3.10155  -0.00006   0.00000  -0.01206  -0.01196   3.08959
   A18        3.11299  -0.00007   0.00000  -0.00659  -0.00659   3.10640
   A19        3.08875   0.00012   0.00000   0.02611   0.02604   3.11480
   A20        3.06930  -0.00004   0.00000  -0.01249  -0.01250   3.05680
   A21        3.20447   0.00008   0.00000   0.00633   0.00632   3.21079
   A22        3.20482   0.00006   0.00000   0.00485   0.00485   3.20967
   A23        3.16956  -0.00005   0.00000   0.01262   0.01273   3.18229
    D1       -2.15656   0.00009   0.00000  -0.00416  -0.00429  -2.16085
    D2        1.36116   0.00013   0.00000   0.01073   0.01061   1.37177
    D3        1.55087  -0.00012   0.00000  -0.00890  -0.00878   1.54209
    D4       -1.21459  -0.00009   0.00000   0.00599   0.00612  -1.20848
    D5       -2.09458  -0.00003   0.00000  -0.00633  -0.00643  -2.10100
    D6        1.91980   0.00012   0.00000  -0.00036  -0.00047   1.91933
    D7        0.39727  -0.00011   0.00000   0.00408   0.00419   0.40146
    D8       -1.87153   0.00004   0.00000   0.01004   0.01014  -1.86139
    D9        1.88821   0.00003   0.00000   0.00317   0.00317   1.89138
   D10       -2.11056   0.00000   0.00000  -0.00095  -0.00095  -2.11150
   D11       -1.80929   0.00001   0.00000   0.00381   0.00381  -1.80548
   D12        0.47513  -0.00002   0.00000  -0.00031  -0.00030   0.47483
   D13        1.97006   0.00002   0.00000  -0.00068  -0.00067   1.96938
   D14       -1.71036  -0.00000   0.00000   0.00279   0.00280  -1.70756
   D15       -2.02709   0.00000   0.00000  -0.00321  -0.00322  -2.03031
   D16        0.57568  -0.00002   0.00000   0.00026   0.00025   0.57593
         Item               Value     Threshold  Converged?
 Maximum Force            0.003681     0.000450     NO 
 RMS     Force            0.001078     0.000300     NO 
 Maximum Displacement     0.058164     0.001800     NO 
 RMS     Displacement     0.019878     0.001200     NO 
 Predicted change in Energy=-8.170082D-05
 GradGradGradGradGradGradGradGradGradGradGradGradGradGradGradGradGradGrad

                          Input orientation:                          
 ---------------------------------------------------------------------
 Center     Atomic      Atomic             Coordinates (Angstroms)
 Number     Number       Type             X           Y           Z
 ---------------------------------------------------------------------
      1          1           0       -4.351455    0.643768   -0.293591
      2          1           0        1.392435   -0.771380   -0.229539
      3          1           0       -0.127173   -0.101488    0.182328
      4          8           0       -1.376642   -0.132230    0.881713
      5          1           0        1.218319    0.879182   -0.198653
      6          1           0        2.197341    2.815633   -0.781190
      7          8           0        2.012752    2.243114   -0.030446
      8          1           0        1.971567    2.810419    0.745024
      9          1           0       -2.226936   -0.119148    0.384185
     10          8           0       -3.681668   -0.025075   -0.460620
     11          1           0       -4.122050   -0.737059   -0.932432
     12          8           0        0.765172   -0.000936   -0.351412
     13          1           0        2.470065   -2.652562   -0.829098
     14          8           0        2.290038   -2.075725   -0.080564
     15          1           0       -1.504927   -0.665417    1.670256
     16          1           0        3.029733   -2.173557    0.526187
 ---------------------------------------------------------------------
                    Distance matrix (angstroms):
                    1          2          3          4          5
     1  H    0.000000
     2  H    5.915996   0.000000
     3  H    4.315839   1.711022   0.000000
     4  O    3.291356   3.051422   1.432222   0.000000
     5  H    5.575555   1.660007   1.707983   2.987301   0.000000
     6  H    6.916753   3.717372   3.852444   4.922245   2.246704
     7  O    6.567365   3.084089   3.181463   4.238194   1.587365
     8  H    6.764148   3.756920   3.633254   4.459638   2.277627
     9  H    2.356905   3.728526   2.109518   0.985244   3.634026
    10  O    0.961178   5.133896   3.612985   2.669548   4.989607
    11  H    1.538645   5.559206   4.195913   3.345774   5.627629
    12  O    5.157407   1.000947   1.044637   2.474915   1.001641
    13  H    7.595109   2.249356   3.778439   4.906740   3.799676
    14  O    7.179863   1.590346   3.132032   4.260010   3.145473
    15  H    3.697753   3.466288   2.104793   0.960492   3.646186
    16  H    7.943002   2.284287   3.791802   4.869245   3.622958
                    6          7          8          9         10
     6  H    0.000000
     7  O    0.962013   0.000000
     8  H    1.542832   0.961709   0.000000
     9  H    5.435556   4.871053   5.132250   0.000000
    10  O    6.537212   6.144603   6.438375   1.684872   0.000000
    11  H    7.251151   6.879739   7.247801   2.388881   0.960970
    12  O    3.188868   2.587516   3.249812   3.083470   4.448246
    13  H    5.475201   4.981427   5.707058   5.472847   6.699499
    14  O    4.942150   4.328021   4.965623   4.944414   6.325416
    15  H    5.642170   4.870935   5.002349   1.572795   3.112695
    16  H    5.224378   4.566298   5.099767   5.645646   7.115664
                   11         12         13         14         15
    11  H    0.000000
    12  O    4.976384   0.000000
    13  H    6.865552   3.188410   0.000000
    14  O    6.605496   2.589078   0.962005   0.000000
    15  H    3.691673   3.111595   5.098634   4.410906   0.000000
    16  H    7.439025   3.258635   1.542553   0.961700   4.913911
                   16
    16  H    0.000000
 Stoichiometry    H11O5(1+)
 Framework group  C1[X(H11O5)]
 Deg. of freedom    42
 Full point group                 C1      NOp   1
 Largest Abelian subgroup         C1      NOp   1
 Largest concise Abelian subgroup C1      NOp   1
                         Standard orientation:                         
 ---------------------------------------------------------------------
 Center     Atomic      Atomic             Coordinates (Angstroms)
 Number     Number       Type             X           Y           Z
 ---------------------------------------------------------------------
      1          1           0       -4.350675    0.652953   -0.290075
      2          1           0        1.390012   -0.775168   -0.226975
      3          1           0       -0.127731   -0.100761    0.184394
      4          8           0       -1.376711   -0.126873    0.884841
      5          1           0        1.219696    0.875860   -0.200131
      6          1           0        2.202679    2.808586   -0.788344
      7          8           0        2.017379    2.238392   -0.036007
      8          1           0        1.978108    2.807751    0.738056
      9          1           0       -2.227368   -0.113104    0.387953
     10          8           0       -3.682553   -0.017840   -0.455939
     11          1           0       -4.124936   -0.730007   -0.925598
     12          8           0        0.764416   -0.003602   -0.350304
     13          1           0        2.462861   -2.660322   -0.822618
     14          8           0        2.284749   -2.081182   -0.075405
     15          1           0       -1.505587   -0.657768    1.674833
     16          1           0        3.024701   -2.179172    0.531007
 ---------------------------------------------------------------------
 Rotational constants (GHZ):           2.4722877           1.0099118           0.7696861
 Standard basis: Aug-CC-pVDZ (5D, 7F)
 There are   224 symmetry adapted cartesian basis functions of A   symmetry.
 There are   214 symmetry adapted basis functions of A   symmetry.
   214 basis functions,   336 primitive gaussians,   224 cartesian basis functions
    25 alpha electrons       25 beta electrons
       nuclear repulsion energy       202.0334920524 Hartrees.
 NAtoms=   16 NActive=   16 NUniq=   16 SFac= 1.00D+00 NAtFMM=   60 NAOKFM=F Big=F
 Integral buffers will be    131072 words long.
 Raffenetti 2 integral format.
 Two-electron integral symmetry is turned on.
 Nuclear repulsion after empirical dispersion term =      202.0292668625 Hartrees.
 One-electron integrals computed using PRISM.
 NBasis=   214 RedAO= T EigKep=  8.97D-04  NBF=   214
 NBsUse=   214 1.00D-06 EigRej= -1.00D+00 NBFU=   214
 Initial guess from the checkpoint file:  "/gscratch/scrubbed/gds001/Gau-21449.chk"
 B after Tr=    -0.000000   -0.000000   -0.000000
         Rot=    0.999999    0.001144   -0.000240    0.001093 Ang=   0.18 deg.
 ExpMin= 2.97D-02 ExpMax= 1.17D+04 ExpMxC= 4.01D+02 IAcc=3 IRadAn=         5 AccDes= 0.00D+00
 Harris functional with IExCor= 4639 and IRadAn=       5 diagonalized for initial guess.
 HarFok:  IExCor= 4639 AccDes= 0.00D+00 IRadAn=         5 IDoV= 1 UseB2=F ITyADJ=14
 ICtDFT=  3500011 ScaDFX=  1.000000  1.000000  1.000000  1.000000
 FoFCou: FMM=F IPFlag=           0 FMFlag=      100000 FMFlg1=           0
         NFxFlg=           0 DoJE=T BraDBF=F KetDBF=T FulRan=T
         wScrn=  0.000000 ICntrl=       500 IOpCl=  0 I1Cent=   200000004 NGrid=           0
         NMat0=    1 NMatS0=      1 NMatT0=    0 NMatD0=    1 NMtDS0=    0 NMtDT0=    0
 Petite list used in FoFCou.
 Requested convergence on RMS density matrix=1.00D-08 within 128 cycles.
 Requested convergence on MAX density matrix=1.00D-06.
 Requested convergence on             energy=1.00D-06.
 No special actions if energy rises.
 SCF Done:  E(RwB97XD) =  -382.521353960     A.U. after    9 cycles
            NFock=  9  Conv=0.36D-08     -V/T= 2.0059
 Calling FoFJK, ICntrl=      2127 FMM=F ISym2X=0 I1Cent= 0 IOpClX= 0 NMat=1 NMatS=1 NMatT=0.
 ***** Axes restored to original set *****
 -------------------------------------------------------------------
 Center     Atomic                   Forces (Hartrees/Bohr)
 Number     Number              X              Y              Z
 -------------------------------------------------------------------
      1        1          -0.000079972    0.000038506   -0.000088882
      2        1          -0.000204579   -0.000350179   -0.000022790
      3        1           0.001005097    0.000659574   -0.000495712
      4        8           0.000326464   -0.000284674   -0.000388827
      5        1           0.000145122    0.000061038    0.000000104
      6        1           0.000095992    0.000115939   -0.000016617
      7        8          -0.000304608   -0.000274345   -0.000063272
      8        1           0.000081152    0.000098085    0.000052562
      9        1          -0.000549673   -0.000151560    0.000538648
     10        8           0.000321775   -0.000031586    0.000204926
     11        1          -0.000067285    0.000007798   -0.000111135
     12        8          -0.000410313   -0.000166940    0.000405326
     13        1           0.000043544   -0.000130524   -0.000021427
     14        8          -0.000046539    0.000423365   -0.000061786
     15        1          -0.000432548    0.000088946    0.000019361
     16        1           0.000076372   -0.000103444    0.000049521
 -------------------------------------------------------------------
 Cartesian Forces:  Max     0.001005097 RMS     0.000288947

 GradGradGradGradGradGradGradGradGradGradGradGradGradGradGradGradGradGrad
 Berny optimization.
 Using GEDIIS/GDIIS optimizer.
 FormGI is forming the generalized inverse of G from B-inverse, IUseBI=4.
 Internal  Forces:  Max     0.000641042 RMS     0.000186332
 Search for a local minimum.
 Step number   2 out of a maximum of   64
 All quantities printed in internal units (Hartrees-Bohrs-Radians)
 Mixed Optimization -- En-DIIS/RFO-DIIS
 Update second derivatives using D2CorX and points    1    2
 DE= -7.45D-05 DEPred=-8.17D-05 R= 9.12D-01
 TightC=F SS=  1.41D+00  RLast= 4.91D-02 DXNew= 5.0454D-01 1.4731D-01
 Trust test= 9.12D-01 RLast= 4.91D-02 DXMaxT set to 3.00D-01
 ITU=  1  0
 Use linear search instead of GDIIS.
     Eigenvalues ---    0.00229   0.00230   0.00230   0.00230   0.00230
     Eigenvalues ---    0.00230   0.00230   0.00269   0.00350   0.00396
     Eigenvalues ---    0.00696   0.00725   0.00860   0.01180   0.01285
     Eigenvalues ---    0.01553   0.01907   0.07395   0.08922   0.09234
     Eigenvalues ---    0.13097   0.13204   0.13507   0.14032   0.15471
     Eigenvalues ---    0.16000   0.16000   0.16000   0.16000   0.16000
     Eigenvalues ---    0.16072   0.36453   0.46716   0.46950   0.49868
     Eigenvalues ---    0.54680   0.54710   0.54748   0.54813   0.54875
     Eigenvalues ---    0.55039   0.55329
 RFO step:  Lambda=-1.49226227D-04 EMin= 2.29008872D-03
 Quartic linear search produced a step of -0.08234.
 Iteration  1 RMS(Cart)=  0.08239834 RMS(Int)=  0.00290400
 Iteration  2 RMS(Cart)=  0.00616646 RMS(Int)=  0.00069964
 Iteration  3 RMS(Cart)=  0.00000980 RMS(Int)=  0.00069959
 Iteration  4 RMS(Cart)=  0.00000001 RMS(Int)=  0.00069959
 Variable       Old X    -DE/DX   Delta X   Delta X   Delta X     New X
                                 (Linear)    (Quad)   (Total)
    R1        1.81636   0.00007   0.00027  -0.00322  -0.00294   1.81342
    R2        1.89152   0.00004   0.00051  -0.00619  -0.00568   1.88584
    R3        3.00532  -0.00012   0.00064  -0.00894  -0.00830   2.99702
    R4        2.70651   0.00051   0.00032  -0.00028   0.00001   2.70652
    R5        1.97408  -0.00064   0.00076  -0.01072  -0.00996   1.96412
    R6        1.86184   0.00005   0.00042  -0.00505  -0.00464   1.85720
    R7        1.81507   0.00002   0.00022  -0.00262  -0.00240   1.81267
    R8        2.99969  -0.00012   0.00063  -0.00885  -0.00821   2.99147
    R9        1.89283   0.00000   0.00052  -0.00631  -0.00577   1.88706
   R10        1.81794   0.00010   0.00027  -0.00308  -0.00281   1.81513
   R11        1.81737   0.00010   0.00026  -0.00305  -0.00279   1.81458
   R12        3.18395  -0.00015   0.00063  -0.00948  -0.00884   3.17510
   R13        1.81597   0.00008   0.00027  -0.00317  -0.00289   1.81308
   R14        1.81793   0.00010   0.00027  -0.00308  -0.00282   1.81511
   R15        1.81735   0.00010   0.00026  -0.00305  -0.00279   1.81456
    A1        2.10137   0.00036  -0.00031   0.00792   0.00804   2.10942
    A2        2.12861   0.00026  -0.00032   0.00798   0.00919   2.13781
    A3        1.88250  -0.00046   0.00036  -0.00478  -0.00486   1.87764
    A4        2.12315   0.00010  -0.00015   0.00341   0.00327   2.12643
    A5        2.17837   0.00008  -0.00011   0.00282   0.00269   2.18106
    A6        1.86128  -0.00010   0.00033  -0.00345  -0.00315   1.85813
    A7        2.15721   0.00006  -0.00015   0.00126   0.00109   2.15830
    A8        1.85620  -0.00012   0.00027  -0.00484  -0.00461   1.85159
    A9        2.21490   0.00004  -0.00013   0.00094   0.00078   2.21568
   A10        1.98123   0.00003   0.00005   0.00006   0.00006   1.98129
   A11        1.95439  -0.00001   0.00023  -0.00238  -0.00198   1.95240
   A12        1.97480  -0.00001   0.00004  -0.00024   0.00067   1.97547
   A13        2.12295   0.00009  -0.00014   0.00442   0.00416   2.12711
   A14        2.18542   0.00010  -0.00010   0.00391   0.00370   2.18912
   A15        1.86082  -0.00007   0.00033  -0.00201  -0.00181   1.85901
   A16        3.10198   0.00032   0.00100   0.07935   0.08065   3.18263
   A17        3.08959   0.00041   0.00099   0.08486   0.08684   3.17643
   A18        3.10640   0.00011   0.00054   0.00086   0.00129   3.10769
   A19        3.11480  -0.00028  -0.00214  -0.09401  -0.09678   3.01802
   A20        3.05680   0.00023   0.00103   0.06732   0.06785   3.12465
   A21        3.21079  -0.00014  -0.00052  -0.02615  -0.02687   3.18392
   A22        3.20967  -0.00003  -0.00040   0.00310   0.00239   3.21207
   A23        3.18229  -0.00027  -0.00105  -0.05262  -0.05223   3.13005
    D1       -2.16085   0.00019   0.00035   0.03390   0.03268  -2.12816
    D2        1.37177   0.00008  -0.00087  -0.01039  -0.01284   1.35893
    D3        1.54209  -0.00008   0.00072   0.01004   0.01233   1.55443
    D4       -1.20848  -0.00020  -0.00050  -0.03425  -0.03319  -1.24166
    D5       -2.10100   0.00007   0.00053   0.01998   0.01938  -2.08162
    D6        1.91933   0.00001   0.00004   0.01091   0.00948   1.92882
    D7        0.40146  -0.00000  -0.00034  -0.00483  -0.00372   0.39773
    D8       -1.86139  -0.00007  -0.00084  -0.01391  -0.01362  -1.87501
    D9        1.89138  -0.00007  -0.00026  -0.00108  -0.00167   1.88971
   D10       -2.11150  -0.00002   0.00008  -0.00072  -0.00029  -2.11179
   D11       -1.80548   0.00002  -0.00031   0.00350   0.00284  -1.80264
   D12        0.47483   0.00007   0.00002   0.00386   0.00422   0.47905
   D13        1.96938  -0.00004   0.00006   0.01754   0.01825   1.98763
   D14       -1.70756   0.00003  -0.00023  -0.01428  -0.01380  -1.72136
   D15       -2.03031  -0.00004   0.00027   0.01215   0.01171  -2.01860
   D16        0.57593   0.00003  -0.00002  -0.01967  -0.02034   0.55559
         Item               Value     Threshold  Converged?
 Maximum Force            0.000641     0.000450     NO 
 RMS     Force            0.000186     0.000300     YES
 Maximum Displacement     0.197407     0.001800     NO 
 RMS     Displacement     0.084143     0.001200     NO 
 Predicted change in Energy=-7.653130D-05
 GradGradGradGradGradGradGradGradGradGradGradGradGradGradGradGradGradGrad

                          Input orientation:                          
 ---------------------------------------------------------------------
 Center     Atomic      Atomic             Coordinates (Angstroms)
 Number     Number       Type             X           Y           Z
 ---------------------------------------------------------------------
      1          1           0       -4.326031    0.640872   -0.336710
      2          1           0        1.306440   -0.784486   -0.205796
      3          1           0       -0.169648   -0.060848    0.243125
      4          8           0       -1.409242   -0.167426    0.952576
      5          1           0        1.191973    0.865289   -0.184666
      6          1           0        2.217572    2.755955   -0.821982
      7          8           0        2.036151    2.198710   -0.060951
      8          1           0        2.044692    2.775372    0.706797
      9          1           0       -2.267053   -0.156732    0.473077
     10          8           0       -3.640133   -0.013748   -0.484656
     11          1           0       -4.037436   -0.696814   -1.028801
     12          8           0        0.704356    0.003750   -0.315651
     13          1           0        2.464819   -2.602112   -0.839085
     14          8           0        2.291042   -2.022665   -0.093008
     15          1           0       -1.515139   -0.728484    1.723358
     16          1           0        3.064209   -2.069094    0.474520
 ---------------------------------------------------------------------
                    Distance matrix (angstroms):
                    1          2          3          4          5
     1  H    0.000000
     2  H    5.811499   0.000000
     3  H    4.254897   1.704117   0.000000
     4  O    3.289873   3.016209   1.432227   0.000000
     5  H    5.524658   1.653876   1.701395   3.020950   0.000000
     6  H    6.894042   3.707367   3.842871   4.984877   2.243356
     7  O    6.555933   3.074559   3.172319   4.300764   1.583020
     8  H    6.799347   3.748390   3.628008   4.544242   2.273819
     9  H    2.351875   3.691178   2.112151   0.982789   3.666335
    10  O    0.959621   5.014019   3.546287   2.658219   4.920564
    11  H    1.533520   5.407590   4.120927   3.333693   5.522631
    12  O    5.070617   0.997942   1.039368   2.470829   0.998588
    13  H    7.542213   2.246478   3.817016   4.913867   3.751170
    14  O    7.137190   1.585954   3.164918   4.269339   3.091381
    15  H    3.744347   3.418491   2.108833   0.959221   3.675476
    16  H    7.913132   2.280965   3.813715   4.884326   3.542654
                    6          7          8          9         10
     6  H    0.000000
     7  O    0.960523   0.000000
     8  H    1.538646   0.960234   0.000000
     9  H    5.502072   4.934659   5.219483   0.000000
    10  O    6.488279   6.106938   6.443290   1.680192   0.000000
    11  H    7.147693   6.797738   7.215307   2.383607   0.959439
    12  O    3.181325   2.580000   3.244039   3.078493   4.347810
    13  H    5.363796   4.882329   5.611024   5.485642   6.640458
    14  O    4.834461   4.229184   4.870476   4.957660   6.274390
    15  H    5.705542   4.935978   5.097333   1.566997   3.146708
    16  H    5.067427   4.422418   4.956029   5.663876   7.077617
                   11         12         13         14         15
    11  H    0.000000
    12  O    4.846025   0.000000
    13  H    6.778309   3.188061   0.000000
    14  O    6.533240   2.583312   0.960515   0.000000
    15  H    3.733278   3.101593   5.090841   4.411474   0.000000
    16  H    7.387590   3.238821   1.539134   0.960224   4.932267
                   16
    16  H    0.000000
 Stoichiometry    H11O5(1+)
 Framework group  C1[X(H11O5)]
 Deg. of freedom    42
 Full point group                 C1      NOp   1
 Largest Abelian subgroup         C1      NOp   1
 Largest concise Abelian subgroup C1      NOp   1
                         Standard orientation:                         
 ---------------------------------------------------------------------
 Center     Atomic      Atomic             Coordinates (Angstroms)
 Number     Number       Type             X           Y           Z
 ---------------------------------------------------------------------
      1          1           0       -4.315542    0.685982   -0.346380
      2          1           0        1.302887   -0.793527   -0.212878
      3          1           0       -0.167562   -0.059954    0.238416
      4          8           0       -1.410060   -0.161037    0.943579
      5          1           0        1.203888    0.857006   -0.177582
      6          1           0        2.248987    2.743417   -0.795537
      7          8           0        2.060229    2.181272   -0.039913
      8          1           0        2.072074    2.751090    0.732885
      9          1           0       -2.266404   -0.138058    0.461895
     10          8           0       -3.635427    0.026241   -0.498224
     11          1           0       -4.037633   -0.648262   -1.049403
     12          8           0        0.708551    0.001283   -0.317427
     13          1           0        2.445860   -2.616390   -0.858980
     14          8           0        2.275481   -2.041877   -0.108317
     15          1           0       -1.523360   -0.727792    1.709123
     16          1           0        3.046606   -2.100559    0.460852
 ---------------------------------------------------------------------
 Rotational constants (GHZ):           2.5357673           1.0120614           0.7832123
 Standard basis: Aug-CC-pVDZ (5D, 7F)
 There are   224 symmetry adapted cartesian basis functions of A   symmetry.
 There are   214 symmetry adapted basis functions of A   symmetry.
   214 basis functions,   336 primitive gaussians,   224 cartesian basis functions
    25 alpha electrons       25 beta electrons
       nuclear repulsion energy       202.8119316886 Hartrees.
 NAtoms=   16 NActive=   16 NUniq=   16 SFac= 1.00D+00 NAtFMM=   60 NAOKFM=F Big=F
 Integral buffers will be    131072 words long.
 Raffenetti 2 integral format.
 Two-electron integral symmetry is turned on.
 Nuclear repulsion after empirical dispersion term =      202.8076823088 Hartrees.
 One-electron integrals computed using PRISM.
 NBasis=   214 RedAO= T EigKep=  9.17D-04  NBF=   214
 NBsUse=   214 1.00D-06 EigRej= -1.00D+00 NBFU=   214
 Initial guess from the checkpoint file:  "/gscratch/scrubbed/gds001/Gau-21449.chk"
 B after Tr=     0.000000   -0.000000    0.000000
         Rot=    0.999978   -0.005342    0.001228    0.003670 Ang=  -0.76 deg.
 ExpMin= 2.97D-02 ExpMax= 1.17D+04 ExpMxC= 4.01D+02 IAcc=3 IRadAn=         5 AccDes= 0.00D+00
 Harris functional with IExCor= 4639 and IRadAn=       5 diagonalized for initial guess.
 HarFok:  IExCor= 4639 AccDes= 0.00D+00 IRadAn=         5 IDoV= 1 UseB2=F ITyADJ=14
 ICtDFT=  3500011 ScaDFX=  1.000000  1.000000  1.000000  1.000000
 FoFCou: FMM=F IPFlag=           0 FMFlag=      100000 FMFlg1=           0
         NFxFlg=           0 DoJE=T BraDBF=F KetDBF=T FulRan=T
         wScrn=  0.000000 ICntrl=       500 IOpCl=  0 I1Cent=   200000004 NGrid=           0
         NMat0=    1 NMatS0=      1 NMatT0=    0 NMatD0=    1 NMtDS0=    0 NMtDT0=    0
 Petite list used in FoFCou.
 Requested convergence on RMS density matrix=1.00D-08 within 128 cycles.
 Requested convergence on MAX density matrix=1.00D-06.
 Requested convergence on             energy=1.00D-06.
 No special actions if energy rises.
 SCF Done:  E(RwB97XD) =  -382.521037696     A.U. after   10 cycles
            NFock= 10  Conv=0.53D-08     -V/T= 2.0057
 Calling FoFJK, ICntrl=      2127 FMM=F ISym2X=0 I1Cent= 0 IOpClX= 0 NMat=1 NMatS=1 NMatT=0.
 ***** Axes restored to original set *****
 -------------------------------------------------------------------
 Center     Atomic                   Forces (Hartrees/Bohr)
 Number     Number              X              Y              Z
 -------------------------------------------------------------------
      1        1          -0.001136836    0.001421100    0.000479095
      2        1           0.002905952   -0.000765882    0.000117028
      3        1          -0.001094400   -0.002669754   -0.000497786
      4        8           0.000090689    0.000315118    0.001820014
      5        1           0.001651844    0.001750431   -0.000178375
      6        1           0.000343199    0.000778683   -0.001525853
      7        8          -0.000213396   -0.001153406    0.000118224
      8        1           0.000040087    0.000845004    0.001550929
      9        1          -0.000904502    0.000884535   -0.002568851
     10        8           0.001010347    0.000049657    0.000676086
     11        1          -0.000464260   -0.001509599   -0.000927473
     12        8          -0.002346931    0.001223162   -0.000599526
     13        1           0.000058889   -0.001105071   -0.001259024
     14        8          -0.001398720    0.000387530    0.000037300
     15        1           0.000346653   -0.000442548    0.001520437
     16        1           0.001111385   -0.000008959    0.001237775
 -------------------------------------------------------------------
 Cartesian Forces:  Max     0.002905952 RMS     0.001196157

 GradGradGradGradGradGradGradGradGradGradGradGradGradGradGradGradGradGrad
 Berny optimization.
 Using GEDIIS/GDIIS optimizer.
 FormGI is forming the generalized inverse of G from B-inverse, IUseBI=4.
 Internal  Forces:  Max     0.002810780 RMS     0.001100294
 Search for a local minimum.
 Step number   3 out of a maximum of   64
 All quantities printed in internal units (Hartrees-Bohrs-Radians)
 Mixed Optimization -- RFO/linear search
 Update second derivatives using D2CorX and points    1    3    2
 DE=  3.16D-04 DEPred=-7.65D-05 R=-4.13D+00
 Trust test=-4.13D+00 RLast= 1.91D-01 DXMaxT set to 1.50D-01
 ITU= -1  1  0
 Use linear search instead of GDIIS.
     Eigenvalues ---    0.00227   0.00230   0.00230   0.00230   0.00230
     Eigenvalues ---    0.00230   0.00230   0.00277   0.00354   0.00691
     Eigenvalues ---    0.00721   0.00853   0.01039   0.01223   0.01514
     Eigenvalues ---    0.01883   0.02651   0.07420   0.08969   0.09237
     Eigenvalues ---    0.12921   0.13127   0.13541   0.13979   0.15659
     Eigenvalues ---    0.16000   0.16000   0.16000   0.16000   0.16014
     Eigenvalues ---    0.16047   0.37570   0.46874   0.47609   0.50279
     Eigenvalues ---    0.54680   0.54710   0.54749   0.54814   0.54876
     Eigenvalues ---    0.55042   0.57322
 RFO step:  Lambda=-2.19154680D-05 EMin= 2.27152509D-03
 Quartic linear search produced a step of -0.83638.
 Iteration  1 RMS(Cart)=  0.07722276 RMS(Int)=  0.00192341
 Iteration  2 RMS(Cart)=  0.00392090 RMS(Int)=  0.00015527
 Iteration  3 RMS(Cart)=  0.00000334 RMS(Int)=  0.00015525
 Iteration  4 RMS(Cart)=  0.00000000 RMS(Int)=  0.00015525
 Variable       Old X    -DE/DX   Delta X   Delta X   Delta X     New X
                                 (Linear)    (Quad)   (Total)
    R1        1.81342   0.00186   0.00246   0.00025   0.00271   1.81613
    R2        1.88584   0.00281   0.00475   0.00026   0.00501   1.89085
    R3        2.99702   0.00042   0.00694  -0.00137   0.00557   3.00259
    R4        2.70652   0.00135  -0.00001   0.00468   0.00467   2.71118
    R5        1.96412   0.00219   0.00833  -0.00171   0.00662   1.97074
    R6        1.85720   0.00246   0.00388   0.00025   0.00413   1.86133
    R7        1.81267   0.00145   0.00201   0.00013   0.00214   1.81481
    R8        2.99147   0.00050   0.00687  -0.00124   0.00563   2.99710
    R9        1.88706   0.00281   0.00483   0.00020   0.00502   1.89208
   R10        1.81513   0.00172   0.00235   0.00027   0.00263   1.81775
   R11        1.81458   0.00175   0.00233   0.00028   0.00261   1.81719
   R12        3.17510   0.00035   0.00740  -0.00204   0.00536   3.18046
   R13        1.81308   0.00179   0.00242   0.00025   0.00267   1.81575
   R14        1.81511   0.00166   0.00236   0.00026   0.00261   1.81772
   R15        1.81456   0.00163   0.00233   0.00025   0.00258   1.81714
    A1        2.10942  -0.00041  -0.00673   0.00439  -0.00244   2.10697
    A2        2.13781  -0.00016  -0.00769   0.00464  -0.00342   2.13438
    A3        1.87764   0.00034   0.00406  -0.00051   0.00359   1.88123
    A4        2.12643  -0.00014  -0.00274   0.00198  -0.00076   2.12567
    A5        2.18106  -0.00009  -0.00225   0.00179  -0.00045   2.18061
    A6        1.85813   0.00029   0.00263   0.00065   0.00330   1.86143
    A7        2.15830  -0.00008  -0.00091   0.00127   0.00037   2.15867
    A8        1.85159   0.00049   0.00385   0.00025   0.00412   1.85571
    A9        2.21568  -0.00021  -0.00065   0.00100   0.00037   2.21605
   A10        1.98129  -0.00006  -0.00005   0.00089   0.00077   1.98206
   A11        1.95240  -0.00014   0.00166   0.00027   0.00199   1.95439
   A12        1.97547   0.00041  -0.00056   0.00130   0.00084   1.97632
   A13        2.12711  -0.00005  -0.00348   0.00204  -0.00144   2.12567
   A14        2.18912  -0.00026  -0.00309   0.00178  -0.00131   2.18781
   A15        1.85901   0.00009   0.00152   0.00069   0.00221   1.86122
   A16        3.18263  -0.00168  -0.06746  -0.00512  -0.07255   3.11008
   A17        3.17643  -0.00261  -0.07263  -0.01914  -0.09202   3.08442
   A18        3.10769   0.00015  -0.00108   0.00822   0.00708   3.11477
   A19        3.01802   0.00151   0.08094  -0.02623   0.05490   3.07292
   A20        3.12465  -0.00088  -0.05675   0.01368  -0.04311   3.08154
   A21        3.18392   0.00048   0.02247  -0.01136   0.01116   3.19508
   A22        3.21207  -0.00037  -0.00200  -0.00741  -0.00947   3.20259
   A23        3.13005   0.00083   0.04369  -0.01315   0.03023   3.16028
    D1       -2.12816  -0.00012  -0.02734   0.02002  -0.00695  -2.13511
    D2        1.35893  -0.00006   0.01074  -0.00344   0.00767   1.36660
    D3        1.55443   0.00010  -0.01031   0.00404  -0.00665   1.54778
    D4       -1.24166   0.00016   0.02776  -0.01943   0.00797  -1.23370
    D5       -2.08162  -0.00063  -0.01621  -0.01136  -0.02733  -2.10895
    D6        1.92882  -0.00031  -0.00793  -0.00541  -0.01301   1.91581
    D7        0.39773   0.00036   0.00311   0.01285   0.01563   0.41337
    D8       -1.87501   0.00068   0.01139   0.01880   0.02995  -1.84506
    D9        1.88971  -0.00007   0.00140  -0.00240  -0.00110   1.88861
   D10       -2.11179  -0.00005   0.00024  -0.00053  -0.00019  -2.11198
   D11       -1.80264   0.00008  -0.00238   0.00370   0.00123  -1.80140
   D12        0.47905   0.00010  -0.00353   0.00558   0.00214   0.48119
   D13        1.98763  -0.00037  -0.01526  -0.00531  -0.02051   1.96712
   D14       -1.72136   0.00001   0.01155   0.00706   0.01867  -1.70270
   D15       -2.01860   0.00001  -0.00980  -0.00846  -0.01832  -2.03692
   D16        0.55559   0.00038   0.01701   0.00391   0.02086   0.57644
         Item               Value     Threshold  Converged?
 Maximum Force            0.002811     0.000450     NO 
 RMS     Force            0.001100     0.000300     NO 
 Maximum Displacement     0.179178     0.001800     NO 
 RMS     Displacement     0.076942     0.001200     NO 
 Predicted change in Energy=-2.737576D-05
 GradGradGradGradGradGradGradGradGradGradGradGradGradGradGradGradGradGrad

                          Input orientation:                          
 ---------------------------------------------------------------------
 Center     Atomic      Atomic             Coordinates (Angstroms)
 Number     Number       Type             X           Y           Z
 ---------------------------------------------------------------------
      1          1           0       -4.328918    0.676537   -0.304293
      2          1           0        1.382466   -0.784497   -0.241438
      3          1           0       -0.134997   -0.114851    0.173236
      4          8           0       -1.375563   -0.149347    0.893069
      5          1           0        1.209383    0.865505   -0.208164
      6          1           0        2.175573    2.810559   -0.783821
      7          8           0        1.991154    2.234630   -0.035774
      8          1           0        1.949875    2.798199    0.742294
      9          1           0       -2.235976   -0.132195    0.413931
     10          8           0       -3.668975   -0.004651   -0.459470
     11          1           0       -4.111730   -0.703216   -0.948564
     12          8           0        0.755409   -0.013861   -0.360207
     13          1           0        2.493275   -2.653489   -0.818703
     14          8           0        2.304869   -2.068024   -0.079122
     15          1           0       -1.492948   -0.675088    1.688114
     16          1           0        3.043673   -2.148671    0.531057
 ---------------------------------------------------------------------
                    Distance matrix (angstroms):
                    1          2          3          4          5
     1  H    0.000000
     2  H    5.895633   0.000000
     3  H    4.294567   1.709700   0.000000
     4  O    3.292123   3.049138   1.434696   0.000000
     5  H    5.542358   1.659389   1.707021   2.987404   0.000000
     6  H    6.862390   3.721240   3.848729   4.917679   2.246806
     7  O    6.514834   3.086734   3.175573   4.228579   1.585997
     8  H    6.709698   3.758377   3.627172   4.446268   2.277500
     9  H    2.355908   3.734719   2.114792   0.984976   3.640453
    10  O    0.961053   5.115931   3.591860   2.666465   4.961724
    11  H    1.538172   5.540111   4.173610   3.344398   5.596725
    12  O    5.131292   1.000593   1.042873   2.475903   1.001246
    13  H    7.608943   2.249502   3.786349   4.916177   3.795320
    14  O    7.182649   1.588904   3.135525   4.262869   3.134060
    15  H    3.720122   3.464556   2.110155   0.960354   3.643061
    16  H    7.939441   2.284147   3.790568   4.863948   3.605042
                    6          7          8          9         10
     6  H    0.000000
     7  O    0.961913   0.000000
     8  H    1.542764   0.961616   0.000000
     9  H    5.436558   4.865462   5.120193   0.000000
    10  O    6.495333   6.101717   6.393097   1.683028   0.000000
    11  H    7.204438   6.834422   7.201526   2.387658   0.960853
    12  O    3.189618   2.586124   3.248068   3.092195   4.425506
    13  H    5.473387   4.975822   5.696744   5.499284   6.717046
    14  O    4.930912   4.314294   4.947815   4.960827   6.331586
    15  H    5.631895   4.855638   4.981097   1.571740   3.129967
    16  H    5.203505   4.543393   5.070753   5.652839   7.116010
                   11         12         13         14         15
    11  H    0.000000
    12  O    4.950800   0.000000
    13  H    6.888144   3.193436   0.000000
    14  O    6.617505   2.588324   0.961897   0.000000
    15  H    3.716300   3.112548   5.107659   4.414386   0.000000
    16  H    7.448384   3.253908   1.542605   0.961589   4.908274
                   16
    16  H    0.000000
 Stoichiometry    H11O5(1+)
 Framework group  C1[X(H11O5)]
 Deg. of freedom    42
 Full point group                 C1      NOp   1
 Largest Abelian subgroup         C1      NOp   1
 Largest concise Abelian subgroup C1      NOp   1
                         Standard orientation:                         
 ---------------------------------------------------------------------
 Center     Atomic      Atomic             Coordinates (Angstroms)
 Number     Number       Type             X           Y           Z
 ---------------------------------------------------------------------
      1          1           0       -4.333611    0.647980   -0.302368
      2          1           0        1.387924   -0.772842   -0.240906
      3          1           0       -0.134332   -0.114757    0.174704
      4          8           0       -1.374809   -0.159456    0.894130
      5          1           0        1.203194    0.875827   -0.204358
      6          1           0        2.155782    2.828805   -0.775838
      7          8           0        1.975240    2.250084   -0.029002
      8          1           0        1.929786    2.811779    0.750188
      9          1           0       -2.235198   -0.147409    0.414794
     10          8           0       -3.668837   -0.028221   -0.458736
     11          1           0       -4.106527   -0.728906   -0.949355
     12          8           0        0.755475   -0.006412   -0.358294
     13          1           0        2.512043   -2.632783   -0.821630
     14          8           0        2.319320   -2.050153   -0.080923
     15          1           0       -1.488685   -0.687612    1.688084
     16          1           0        3.058518   -2.126814    0.529293
 ---------------------------------------------------------------------
 Rotational constants (GHZ):           2.4811315           1.0136444           0.7739447
 Standard basis: Aug-CC-pVDZ (5D, 7F)
 There are   224 symmetry adapted cartesian basis functions of A   symmetry.
 There are   214 symmetry adapted basis functions of A   symmetry.
   214 basis functions,   336 primitive gaussians,   224 cartesian basis functions
    25 alpha electrons       25 beta electrons
       nuclear repulsion energy       202.2319859006 Hartrees.
 NAtoms=   16 NActive=   16 NUniq=   16 SFac= 1.00D+00 NAtFMM=   60 NAOKFM=F Big=F
 Integral buffers will be    131072 words long.
 Raffenetti 2 integral format.
 Two-electron integral symmetry is turned on.
 Nuclear repulsion after empirical dispersion term =      202.2277554176 Hartrees.
 One-electron integrals computed using PRISM.
 NBasis=   214 RedAO= T EigKep=  8.96D-04  NBF=   214
 NBsUse=   214 1.00D-06 EigRej= -1.00D+00 NBFU=   214
 Lowest energy guess from the checkpoint file:  "/gscratch/scrubbed/gds001/Gau-21449.chk"
 B after Tr=     0.000000    0.000000   -0.000000
         Rot=    0.999985   -0.002352    0.000133   -0.004843 Ang=  -0.62 deg.
 B after Tr=     0.000000    0.000000   -0.000000
         Rot=    0.999959    0.002900   -0.001055   -0.008521 Ang=   1.04 deg.
 Requested convergence on RMS density matrix=1.00D-08 within 128 cycles.
 Requested convergence on MAX density matrix=1.00D-06.
 Requested convergence on             energy=1.00D-06.
 No special actions if energy rises.
 SCF Done:  E(RwB97XD) =  -382.521363174     A.U. after    9 cycles
            NFock=  9  Conv=0.44D-08     -V/T= 2.0059
 Calling FoFJK, ICntrl=      2127 FMM=F ISym2X=0 I1Cent= 0 IOpClX= 0 NMat=1 NMatS=1 NMatT=0.
 ***** Axes restored to original set *****
 -------------------------------------------------------------------
 Center     Atomic                   Forces (Hartrees/Bohr)
 Number     Number              X              Y              Z
 -------------------------------------------------------------------
      1        1          -0.000169070    0.000125593   -0.000007544
      2        1           0.000256267   -0.000296119    0.000334571
      3        1           0.000961339    0.000606607    0.000183985
      4        8          -0.000238268   -0.000461255    0.000034577
      5        1           0.000007979    0.000442130    0.000171340
      6        1           0.000106260    0.000140612   -0.000102085
      7        8          -0.000177667   -0.000290071   -0.000080139
      8        1           0.000053628    0.000112372    0.000127410
      9        1          -0.000220795    0.000243319   -0.000392485
     10        8           0.000232417   -0.000017398    0.000261239
     11        1          -0.000103410   -0.000156168   -0.000106726
     12        8          -0.000598694   -0.000460425   -0.000443340
     13        1           0.000062919   -0.000207308   -0.000078884
     14        8          -0.000212949    0.000292982   -0.000208973
     15        1          -0.000089572   -0.000002287    0.000193588
     16        1           0.000129615   -0.000072585    0.000113465
 -------------------------------------------------------------------
 Cartesian Forces:  Max     0.000961339 RMS     0.000282590

 GradGradGradGradGradGradGradGradGradGradGradGradGradGradGradGradGradGrad
 Berny optimization.
 Using GEDIIS/GDIIS optimizer.
 FormGI is forming the generalized inverse of G from B-inverse, IUseBI=4.
 Internal  Forces:  Max     0.000693817 RMS     0.000199172
 Search for a local minimum.
 Step number   4 out of a maximum of   64
 All quantities printed in internal units (Hartrees-Bohrs-Radians)
 Mixed Optimization -- En-DIIS/RFO-DIIS
 Update second derivatives using D2CorX and points    1    3    2    4
 DE= -9.21D-06 DEPred=-2.74D-05 R= 3.37D-01
 Trust test= 3.37D-01 RLast= 7.38D-02 DXMaxT set to 1.50D-01
 ITU=  0 -1  1  0
 Use linear search instead of GDIIS.
     Eigenvalues ---    0.00214   0.00230   0.00230   0.00230   0.00230
     Eigenvalues ---    0.00230   0.00244   0.00329   0.00462   0.00686
     Eigenvalues ---    0.00701   0.00844   0.01159   0.01301   0.01717
     Eigenvalues ---    0.02053   0.02888   0.06834   0.08435   0.09234
     Eigenvalues ---    0.11242   0.13138   0.13381   0.14431   0.15473
     Eigenvalues ---    0.16000   0.16000   0.16000   0.16003   0.16033
     Eigenvalues ---    0.16055   0.35465   0.46879   0.48118   0.50822
     Eigenvalues ---    0.54680   0.54711   0.54749   0.54815   0.54876
     Eigenvalues ---    0.55042   0.60069
 RFO step:  Lambda=-6.59480043D-05 EMin= 2.13735059D-03
 Quartic linear search produced a step of -0.37471.
 Iteration  1 RMS(Cart)=  0.02860368 RMS(Int)=  0.00037380
 Iteration  2 RMS(Cart)=  0.00069396 RMS(Int)=  0.00010047
 Iteration  3 RMS(Cart)=  0.00000017 RMS(Int)=  0.00010047
 Variable       Old X    -DE/DX   Delta X   Delta X   Delta X     New X
                                 (Linear)    (Quad)   (Total)
    R1        1.81613   0.00020   0.00009  -0.00139  -0.00130   1.81482
    R2        1.89085   0.00038   0.00025  -0.00312  -0.00287   1.88798
    R3        3.00259  -0.00004   0.00102  -0.00930  -0.00828   2.99431
    R4        2.71118   0.00051  -0.00175   0.01231   0.01056   2.72175
    R5        1.97074  -0.00027   0.00125  -0.01136  -0.01011   1.96063
    R6        1.86133   0.00035   0.00019  -0.00244  -0.00225   1.85909
    R7        1.81481   0.00017   0.00010  -0.00128  -0.00118   1.81362
    R8        2.99710  -0.00004   0.00097  -0.00891  -0.00795   2.98916
    R9        1.89208   0.00037   0.00028  -0.00335  -0.00307   1.88902
   R10        1.81775   0.00018   0.00007  -0.00127  -0.00120   1.81655
   R11        1.81719   0.00017   0.00007  -0.00125  -0.00118   1.81601
   R12        3.18046  -0.00005   0.00131  -0.01117  -0.00987   3.17059
   R13        1.81575   0.00022   0.00008  -0.00134  -0.00126   1.81449
   R14        1.81772   0.00020   0.00008  -0.00131  -0.00123   1.81649
   R15        1.81714   0.00018   0.00008  -0.00133  -0.00125   1.81589
    A1        2.10697   0.00018  -0.00210   0.01692   0.01447   2.12145
    A2        2.13438   0.00005  -0.00216   0.01701   0.01452   2.14890
    A3        1.88123  -0.00004   0.00048  -0.00264  -0.00256   1.87867
    A4        2.12567   0.00008  -0.00094   0.00740   0.00637   2.13204
    A5        2.18061   0.00003  -0.00084   0.00646   0.00554   2.18615
    A6        1.86143  -0.00007  -0.00006  -0.00062  -0.00077   1.86066
    A7        2.15867   0.00009  -0.00055   0.00618   0.00549   2.16417
    A8        1.85571  -0.00001   0.00018  -0.00034  -0.00030   1.85541
    A9        2.21605  -0.00001  -0.00043   0.00501   0.00444   2.22048
   A10        1.98206   0.00004  -0.00031   0.00157   0.00130   1.98335
   A11        1.95439   0.00002  -0.00000  -0.00127  -0.00131   1.95309
   A12        1.97632  -0.00017  -0.00057   0.00236   0.00176   1.97808
   A13        2.12567   0.00012  -0.00102   0.00807   0.00698   2.13265
   A14        2.18781   0.00003  -0.00090   0.00672   0.00575   2.19356
   A15        1.86122  -0.00008  -0.00015  -0.00007  -0.00030   1.86092
   A16        3.11008   0.00021  -0.00304   0.01591   0.01288   3.12296
   A17        3.08442   0.00069   0.00194   0.03398   0.03599   3.12041
   A18        3.11477  -0.00003  -0.00314   0.01502   0.01193   3.12670
   A19        3.07292   0.00049   0.01569   0.01341   0.02912   3.10204
   A20        3.08154  -0.00030  -0.00927  -0.01764  -0.02689   3.05464
   A21        3.19508   0.00029   0.00588   0.01043   0.01629   3.21138
[...]

 Dipole orientation:
     1         -2.00602101          1.11197278         -8.02720344
     1          1.23044258         -1.43658449          2.37337752
     1         -0.40494708         -0.16728461         -0.10361594
     8         -2.40579383         -0.27102654         -1.95455514
     1          1.09886226          1.68819137          2.06131331
     1          2.78097505          5.34922729          3.40989667
     8          1.31518595          4.28123047          3.53521779
     1         -0.07745550          5.35637868          3.99045432
     1         -2.05874194         -0.28485137         -3.78270672
     8         -1.42499902         -0.18784092         -6.89949536
     1         -0.86365362         -1.56083482         -7.94712559
     8          1.07631622          0.01707192          1.17157817
     1          2.95797387         -4.97007830          3.99608276
     8          1.53054779         -3.85105615          4.11732707
     1         -3.98111429         -1.12900685         -1.68128370
     1          0.84294873         -4.05866233          5.78655217

 Electric dipole moment (dipole orientation):
 (Debye = 10**-18 statcoulomb cm , SI units = C m)
                  (au)            (Debye)         (10**-30 SI)
   Tot        0.449437D+00      0.114236D+01      0.381049D+01
   x          0.000000D+00      0.000000D+00      0.000000D+00
   y          0.000000D+00      0.000000D+00      0.000000D+00
   z          0.449437D+00      0.114236D+01      0.381049D+01

 Dipole polarizability, Alpha (dipole orientation).
 (esu units = cm**3 , SI units = C**2 m**2 J**-1)
 Alpha(0;0):
               (au)            (10**-24 esu)      (10**-40 SI)
   iso        0.443254D+02      0.656835D+01      0.730828D+01
   aniso      0.810288D+01      0.120072D+01      0.133598D+01
   xx         0.403186D+02      0.597459D+01      0.664763D+01
   yx        -0.218942D+00     -0.324439D-01     -0.360987D-01
   yy         0.447832D+02      0.663618D+01      0.738375D+01
   zx         0.271733D+01      0.402666D+00      0.448026D+00
   zy        -0.152925D+00     -0.226612D-01     -0.252139D-01
   zz         0.478745D+02      0.709428D+01      0.789345D+01

 ----------------------------------------------------------------------
 1\1\GINC-N2180\Freq\RwB97XD\Aug-CC-pVDZ\H11O5(1+)\GDS001\26-Apr-2023\0
 \\#N Geom=AllCheck Guess=TCheck SCRF=Check GenChk RwB97XD/Aug-CC-pVDZ 
 Freq\\blah\\1,1\H,-4.3578700838,0.6407831877,-0.3397067536\H,1.3897421
 145,-0.7719385844,-0.2279958613\H,-0.1212894658,-0.0900002248,0.184258
 8329\O,-1.3879230151,-0.1415973008,0.8744940653\H,1.2289130902,0.88307
 00284,-0.1897817403\H,2.2101655668,2.8189596832,-0.7766136827\O,2.0194
 212691,2.2445103953,-0.0288973148\H,2.0187406132,2.80176078,0.75487772
 44\H,-2.2462024795,-0.1323650597,0.391848536\O,-3.7016792355,-0.052587
 112,-0.4511385293\H,-4.1401346753,-0.767462827,-0.92036512\O,0.7693515
 474,0.0058610004,-0.3419242794\H,2.4749577091,-2.6444995436,-0.8486496
 65\O,2.3011622362,-2.0615749922,-0.1034409572\H,-1.5217630669,-0.60673
 49407,1.7037777848\H,3.0209778754,-2.1886464898,0.5214029602\\Version=
 ES64L-G16RevA.03\State=1-A\HF=-382.5214072\RMSD=2.490e-09\RMSF=1.322e-
 05\ZeroPoint=0.133615\Thermal=0.1480875\Dipole=0.4259201,-0.0067645,0.
 1433182\DipoleDeriv=0.2418419,0.0062667,-0.0367651,-0.0037847,0.322944
 7,-0.0188387,-0.0423586,-0.0143227,0.3231912,0.6228794,-0.5342182,0.00
 53196,-0.5551896,0.9201414,0.0112983,0.0332053,-0.0256239,0.2694199,1.
 4467121,0.1176771,-0.4642919,0.1210379,0.2121652,-0.0373372,-0.6070535
 ,-0.049993,0.4880765,-1.2330029,0.0116188,0.0008795,0.0148718,-0.51232
 4,-0.0382776,0.0446335,-0.019211,-0.6430407,0.4454296,0.4525588,0.0349
 076,0.4598307,1.0985651,0.0232657,0.0545475,0.0629821,0.2682842,0.3515
 263,-0.0199654,-0.0105686,-0.0217683,0.2507825,-0.0122547,-0.0207786,-
 0.0287778,0.3269614,-0.6625108,-0.1583858,-0.0169217,-0.1485872,-0.734
 4303,-0.0095837,-0.0240635,-0.0270675,-0.4867139,0.3458311,-0.0244255,
 0.0145957,-0.0235375,0.247828,0.0022267,0.0231433,0.0185432,0.326992,0
 .8825416,-0.0518826,0.3401145,-0.0608234,0.2662077,-0.0001737,0.426251
 2,-0.0012599,0.4087887,-0.6940143,0.0014196,-0.0715237,0.0047658,-0.50
 76826,0.0421776,-0.1055474,0.0413174,-0.6263528,0.2386557,0.0016233,-0
 .042041,0.0138094,0.3133277,-0.0056313,-0.0386732,-0.0109626,0.3311837
 ,-1.1860735,-0.0023689,0.2068786,-0.0323694,-1.0345467,0.007866,0.2599
 956,0.0044003,-0.4822296,0.2845755,0.0595244,-0.0047241,0.0511582,0.31
 50783,0.0002674,-0.0156128,0.0141798,0.3283787,-0.6134835,0.1245306,0.
 0116903,0.1427961,-0.7721875,0.0315017,-0.0030497,0.0501323,-0.500666,
 0.2354443,-0.0263971,0.0324216,-0.0134968,0.3218332,0.0265528,0.004461
 4,0.0225299,0.3321744,0.2936474,0.042424,0.0000288,0.0512869,0.2922971
 ,-0.0230592,0.0108997,-0.0368665,0.3355524\Polar=48.7435944,-0.2594399
 ,44.7823363,0.1186849,0.2377421,39.4503539\Quadrupole=15.2511743,-0.66
 81404,-14.5830339,-0.1769607,1.0821607,0.8024282\PG=C01 [X(H11O5)]\NIm
 ag=0\\0.26886702,-0.25315406,0.31486199,-0.03007605,0.06451903,0.02192
 012,-0.00009193,0.00006814,0.00004988,0.17547735,0.00012168,-0.0000328
 5,-0.00005723,-0.13572595,0.23971914,-0.00001158,0.00000589,0.00002768
 ,0.01804737,-0.02781718,0.04197246,-0.00001409,0.00072120,0.00000358,-
 0.01389967,0.01330484,0.00244642,0.17386512,0.00008417,0.00017545,-0.0
 0005980,0.01541830,0.01432053,-0.01622092,0.00899094,0.07774394,-0.000
 10226,-0.00035492,-0.00004702,-0.00479624,-0.01295612,0.00424088,-0.07
 075633,-0.01076457,0.09323560,-0.00120962,-0.00245533,-0.00243388,0.00
 343508,-0.00811684,0.00181272,0.00198964,0.01095208,-0.01789774,0.4780
 2406,-0.00058862,-0.00039816,-0.00101298,-0.00082962,-0.00258005,0.001
 26696,0.00748279,-0.01202498,0.00292262,0.04750880,0.14901750,-0.00154
 626,-0.00146344,-0.00204028,-0.00016020,0.00465928,-0.00226834,-0.0160
 3190,0.00160939,-0.02108178,0.09501290,-0.24692570,0.57696145,-0.00007
 813,0.00010323,0.00004598,0.02588029,0.01189149,0.00520188,-0.00799868
 ,-0.01926990,-0.00744720,0.00123578,0.00061046,0.00027174,0.12579104,0
 .00003351,0.00034432,0.00005108,-0.00331419,-0.02042613,-0.00419752,-0
 .01746618,0.00711528,0.01179386,0.00935828,-0.00107589,-0.00445851,0.1
 1336947,0.28320687,-0.00003070,0.00001112,0.00005794,0.00383202,0.0041
 2310,-0.00190997,-0.00121933,0.01698154,0.00547200,0.00262261,-0.00086
 068,-0.00206308,0.01324378,0.04291694,0.04716603,-0.00006289,-0.000052
 34,0.00002666,0.00020597,-0.00042636,-0.00027436,0.00029382,-0.0000598
 7,0.00004426,-0.00011696,0.00015546,-0.00007552,0.00056544,0.00121068,
 0.00379127,0.02428409,-0.00000912,0.00002330,0.00000253,-0.00030263,0.
 00007499,0.00015929,-0.00019653,-0.00015968,-0.00009701,0.00012308,0.0
 0002739,-0.00001373,0.00275949,0.00170734,0.00545194,0.06782584,0.2160
 5489,0.00000315,-0.00001112,0.00003329,-0.00055651,0.00054611,0.000129
 38,0.00069465,0.00007987,-0.00028555,-0.00046766,-0.00009453,0.0000233
 8,0.00338796,0.00629705,0.00357351,-0.08315261,-0.22820309,0.36403422,
 0.00011542,0.00001858,-0.00002428,-0.00461444,0.00192024,-0.00053732,0
 .00252800,0.00035226,-0.00158934,-0.00142150,-0.00045761,0.00066409,-0
 .00763520,0.00334867,0.00182251,-0.02454692,-0.07473617,0.07416992,0.0
 4208239,-0.00000655,-0.00017373,-0.00002541,-0.00485276,0.00311358,-0.
 00049998,0.00695398,-0.00182909,-0.00459254,-0.00355519,0.00029480,0.0
 0156937,0.00084775,0.00361986,0.00098973,-0.06639439,-0.22911187,0.198
 29042,0.09888246,0.47572619,0.00002194,0.00000224,-0.00006913,-0.00076
 419,0.00015615,-0.00033289,0.00131260,-0.00145586,-0.00152830,-0.00044
 495,0.00023216,0.00082695,0.00283428,0.00309157,-0.02012464,0.08148667
 ,0.25029793,-0.34048735,-0.08462547,0.01098844,0.72298265,-0.00005703,
 -0.00005207,-0.00001879,-0.00009967,-0.00029834,0.00014693,0.00081279,
 -0.00066575,-0.00070481,-0.00019862,0.00043503,0.00033614,0.00240187,0
 .00386173,-0.00327790,0.00033792,0.00607841,0.00764701,-0.00600614,-0.
 01522047,0.00369835,0.00488921,-0.00000527,0.00002842,0.00000320,-0.00
 029551,0.00008537,-0.00025196,0.00016597,-0.00065210,-0.00064073,0.000
 07037,0.00008781,0.00027315,0.00453289,0.00279132,-0.00357871,-0.00055
 176,0.01394360,0.02762165,-0.01059910,-0.21902262,-0.25892942,0.009144
 55,0.20544044,-0.00002465,-0.00000413,0.00004255,0.00050971,-0.0006001
 6,0.00021204,-0.00104896,0.00005736,0.00084168,0.00040497,-0.00002096,
 -0.00052302,-0.00365393,-0.00608459,0.00071956,-0.00097065,-0.02614887
 ,-0.02578972,0.01109357,-0.20588759,-0.36963146,-0.00849839,0.23451176
 ,0.39456102,0.00109012,0.00373197,0.00308787,-0.00134652,0.00160895,0.
 00028161,-0.00995106,-0.00142391,0.00102783,-0.34087695,0.00119881,-0.
 17481438,-0.00103404,-0.00202122,0.00015832,-0.00002348,-0.00008953,0.
 00023114,0.00065652,0.00096516,-0.00015841,-0.00015947,-0.00018430,-0.
 00002913,0.33177107,0.00268257,0.00075900,0.00275092,0.00000383,0.0000
 0778,0.00029790,0.00219941,-0.00147547,-0.00173076,-0.02134446,-0.0204
 6479,0.00988930,0.00017685,0.00072409,-0.00033052,-0.00011532,0.000004
 60,-0.00001446,0.00009876,-0.00028068,0.00004587,-0.00009650,0.0000407
 6,-0.00002703,0.00054420,0.03274617,0.00335478,0.00300159,0.00316385,-
 0.00097112,0.00152293,0.00005122,-0.01037190,-0.00211389,0.01511485,-0
 .13447854,0.02116548,-0.13972113,-0.00056378,-0.00178475,-0.00011623,0
 .00006338,-0.00002569,0.00020123,0.00039089,0.00076717,-0.00015360,-0.
 00008752,-0.00008586,0.00001619,0.16066633,-0.01771531,0.15081761,-0.2
 8028761,0.22336703,0.01282064,0.00082849,-0.00106154,0.00000597,0.0045
 6539,0.00045668,-0.00298230,-0.01923884,0.00098182,-0.01215806,0.00064
 292,0.00120461,0.00006376,0.00006588,0.00005966,-0.00010227,-0.0004332
 9,-0.00056131,0.00000263,0.00009276,0.00008469,0.00006084,-0.00034801,
 0.00189335,0.00154179,0.45322677,0.27192408,-0.29296226,-0.04961467,0.
 00004125,-0.00024590,-0.00003678,-0.00039411,-0.00020253,0.00014305,0.
 00018712,0.00631890,0.00106043,-0.00004575,-0.00043434,0.00004122,0.00
 011341,-0.00001853,0.00001280,-0.00012203,0.00020322,-0.00002370,0.000
 10282,-0.00002535,0.00002347,0.00274199,-0.01343191,-0.00277865,-0.088
 21349,0.61124647,0.03408779,-0.06428939,-0.02107299,0.00030421,-0.0004
 9484,-0.00011558,0.00360824,0.00042977,-0.00306647,-0.01340949,0.00161
 995,-0.00164218,0.00021314,0.00057280,-0.00010973,-0.00004511,0.000006
 05,-0.00013263,-0.00014794,-0.00025271,0.00016850,0.00007030,0.0000442
 2,-0.00006113,0.00191641,-0.00337755,-0.00583055,0.11265465,0.25238412
 ,0.16002041,0.01195922,0.02813570,0.01697705,-0.00007619,-0.00003653,-
 0.00006224,0.00030958,-0.00007472,-0.00054027,-0.00257802,0.00138323,-
 0.00125336,-0.00007122,-0.00013459,-0.00003308,-0.00001574,-0.00001436
 ,-0.00001053,0.00003748,0.00006561,0.00003630,0.00000428,-0.00000383,-
 0.00002001,0.00391828,-0.00394283,0.00186561,-0.15334897,-0.18573243,-
 0.13698190,0.14044886,-0.02090130,-0.02240517,-0.01687839,-0.00014865,
 0.00029847,0.00000808,-0.00065164,0.00002149,0.00042380,0.00358527,-0.
 00095947,0.00125996,-0.00006454,-0.00002595,-0.00002334,-0.00004248,0.
 00000123,0.00000393,0.00008894,0.00000843,0.00000890,-0.00004142,-0.00
 000205,-0.00001331,-0.00525708,0.00189330,-0.00194584,-0.13758848,-0.3
 1065936,-0.18614673,0.16036154,0.33175211,-0.00560350,-0.00163005,-0.0
 0223656,-0.00001935,0.00003468,0.00005226,-0.00042103,0.00001614,0.000
 24783,-0.00054176,0.00054088,-0.00009669,-0.00002111,-0.00001580,0.000
 03717,0.00000173,0.00000503,0.00003508,0.00002596,0.00000565,-0.000049
 47,-0.00002189,-0.00000467,0.00002040,0.00064000,-0.00139175,-0.000832
 38,-0.11388984,-0.20070849,-0.13025584,0.11993062,0.20347739,0.1333561
 2,0.00007281,-0.00045232,-0.00008305,-0.18463718,0.12953696,-0.0271037
 0,-0.16952435,-0.01152971,0.10720554,-0.05082364,-0.00821596,0.0307427
 8,-0.13463439,-0.10769039,-0.02035557,-0.00092871,-0.00158101,-0.00205
 094,-0.00190357,-0.01836963,-0.00342658,-0.00199170,-0.00235260,0.0022
 4824,0.00376829,-0.00101685,0.00930731,-0.00312650,0.00013448,-0.00224
 063,-0.00013747,0.00048233,0.00017558,0.56440394,-0.00010007,-0.000223
 75,0.00002411,0.14109409,-0.23827781,0.05114251,-0.01100416,-0.0779693
 9,0.01156198,-0.00777523,0.00946681,0.00132243,-0.11968528,-0.28153380
 ,-0.06687433,-0.00177434,-0.00247611,-0.00431285,-0.01741795,-0.030761
 98,-0.00390190,-0.00316299,-0.00251818,0.00378921,0.00071218,0.0003501
 1,0.00155371,-0.00034859,0.00038741,-0.00029584,0.00009215,-0.00012071
 ,-0.00001597,-0.00790557,0.65069270,0.00006026,0.00018861,-0.00002337,
 -0.01528415,0.03527863,-0.02764170,0.08868335,0.00923776,-0.08904742,0
 .02975092,0.00269071,-0.00303453,-0.01305598,-0.04873511,-0.03285435,-
 0.00094002,-0.00142735,-0.00133731,-0.00120209,-0.00128646,0.00846311,
 0.00070205,0.00101201,-0.00052660,-0.00129087,0.00068878,-0.00686760,0
 .00146802,-0.00006693,0.00157024,0.00028451,-0.00021297,-0.00016981,-0
 .09115624,0.00330864,0.14430804,-0.00000879,0.00003050,0.00000662,0.00
 275265,-0.00337999,0.00442554,0.00073753,0.00026227,-0.00011608,-0.000
 25640,-0.00023873,-0.00003829,-0.00013053,0.00006635,-0.00019943,0.000
 05717,-0.00002429,0.00000378,-0.00006186,0.00004002,0.00003977,0.00002
 533,-0.00000184,-0.00001770,-0.00001051,0.00009592,0.00010507,0.000033
 36,-0.00009498,-0.00004982,-0.00007044,0.00005597,0.00001594,-0.002163
 80,0.00252775,-0.00105818,0.04819950,0.00001109,0.00000903,-0.00000742
 ,-0.00183120,0.00031990,-0.00488745,0.00058238,-0.00004260,-0.00003914
 ,-0.00028721,-0.00005784,0.00005565,0.00016502,-0.00001521,-0.00011154
 ,0.00005425,-0.00012123,-0.00003666,-0.00011277,0.00012251,0.00012296,
 0.00001910,-0.00002443,-0.00004922,0.00011119,0.00002162,0.00006278,-0
 .00007036,-0.00004136,-0.00001040,0.00000390,0.00004125,-0.00000690,0.
 00145372,-0.00167178,0.00118379,-0.06763783,0.20660489,0.00000126,-0.0
 0000849,0.00001526,0.00501915,-0.00449407,0.00285826,0.00058628,0.0001
 3747,-0.00031862,-0.00045577,0.00006201,0.00003001,-0.00026103,-0.0006
 0851,0.00011471,-0.00001803,0.00003350,0.00012156,0.00011901,0.0002765
 1,-0.00011626,0.00002003,-0.00003699,0.00000690,0.00021915,-0.00002097
 ,0.00019105,-0.00009061,0.00000040,-0.00012348,-0.00001983,0.00001393,
 0.00004909,-0.00318858,0.00322778,-0.00095076,-0.05103527,0.25056963,0
 .34974005,0.00005082,-0.00007113,-0.00002366,-0.00152148,-0.00659580,-
 0.00482579,0.00338434,0.00118576,-0.00220653,-0.00199699,0.00011990,0.
 00095309,-0.00486543,-0.00285426,-0.00070078,-0.00021287,0.00012902,0.
 00018837,0.00153154,0.00146247,0.00020028,-0.00009602,0.00011395,-0.00
 017750,0.00073644,-0.00014552,0.00046273,-0.00045410,0.00008227,-0.000
 16627,0.00008370,0.00001891,0.00001878,-0.01089367,0.02323301,0.000897
 79,-0.05429008,0.06500269,0.03819763,0.38111180,-0.00006106,-0.0000041
 1,0.00002991,-0.00739187,-0.00492851,-0.00274475,-0.00643410,-0.003244
 64,0.00444022,0.00316207,0.00088508,-0.00151779,0.00294892,0.00374634,
 0.00073024,0.00003123,0.00012965,-0.00028789,-0.00088624,-0.00189182,-
 0.00028486,-0.00005566,0.00004655,0.00033082,-0.00076289,-0.00004904,-
 0.00068507,0.00049042,0.00015537,0.00020724,0.00001343,-0.00016772,-0.
 00000300,0.02228036,-0.02095977,0.00007118,0.09025947,-0.20900826,-0.2
 2907383,-0.16379464,0.27592874,0.00001447,0.00000123,-0.00003552,-0.00
 307434,-0.00528234,-0.01748249,0.00086625,0.00096911,-0.00105117,-0.00
 020339,-0.00021195,0.00071558,-0.00111299,0.00001879,-0.00042904,0.000
 06870,-0.00012105,-0.00014008,0.00018361,0.00023007,0.00046129,-0.0000
 4097,0.00016068,-0.00018908,-0.00017253,-0.00004914,-0.00016896,0.0000
 1007,0.00001083,0.00015565,0.00005823,-0.00001039,-0.00006850,-0.00039
 239,0.00293457,0.00775134,0.07727159,-0.25476492,-0.33116645,0.1960858
 9,0.21618970,0.58333734,-0.00033643,0.00003757,-0.00035868,-0.00028955
 ,-0.00133729,0.00110173,0.01295351,-0.00471900,0.00107653,-0.06618189,
 -0.04939215,0.07798588,0.00000262,0.00051240,0.00040634,0.00002298,-0.
 00001345,0.00001836,-0.00012288,-0.00014334,-0.00022372,-0.00003501,-0
 .00013336,0.00012737,0.01198481,0.01893569,-0.03118592,-0.00231079,-0.
 00068646,0.00013479,-0.00044552,0.00009323,-0.00027760,-0.00810226,0.0
 0107764,0.00197834,-0.00000068,0.00003306,0.00006502,-0.00005127,0.000
 36241,-0.00042429,0.05308311,-0.00003659,-0.00001601,0.00027522,-0.000
 15318,0.00080606,-0.00011270,-0.00413297,-0.00143055,-0.00032884,-0.03
 148345,-0.12848938,0.23283178,0.00029399,-0.00006816,0.00014569,-0.000
 02665,-0.00000437,0.00005132,0.00012990,0.00003018,-0.00013980,-0.0001
 5066,-0.00004756,0.00008790,-0.00189002,-0.00087109,-0.00094283,-0.000
 68537,-0.00025796,-0.00039853,-0.00011360,0.00030574,-0.00029727,0.002
 85229,0.00059777,-0.00094795,0.00008190,0.00004804,-0.00005918,-0.0000
 9800,-0.00039842,0.00016964,0.03530211,0.12971591,-0.00013659,0.000026
 68,0.00024225,0.00063755,-0.00022888,-0.00003814,0.00255126,0.00117779
 ,-0.00347580,0.04037690,0.21861737,-0.40567003,0.00051073,0.00059182,0
 .00017380,0.00003594,0.00001290,-0.00000684,-0.00023358,-0.00026430,-0
 .00013613,0.00000985,-0.00001808,0.00014108,0.00826861,0.01095558,-0.0
 1586069,0.00053931,-0.00044073,0.00053675,-0.00020357,0.00003677,-0.00
 011348,-0.00154079,-0.00032533,0.00081790,0.00007511,-0.00001409,-0.00
 001824,-0.00032160,0.00014584,-0.00012523,-0.05058685,-0.23029821,0.42
 338836,-0.00000889,0.00002332,0.00000011,-0.00200319,-0.00140553,-0.00
 065519,-0.00005187,0.00004041,-0.00021505,0.00021487,-0.00015358,0.000
 11135,-0.00007233,0.00051512,-0.00012381,0.00007431,-0.00000840,-0.000
 00383,-0.00020554,-0.00011380,0.00001049,0.00007951,0.00001515,-0.0000
 0380,-0.00017548,0.00003090,-0.00009909,0.00009255,-0.00003817,0.00005
 165,-0.00001783,0.00000938,-0.00001254,0.00062222,0.00043737,0.0001623
 1,0.00518755,0.00250297,0.01084158,-0.31251675,0.05983815,-0.26913790,
 -0.00017075,0.00011032,0.00001773,0.30895162,0.00000553,0.00001454,-0.
 00000008,-0.00178005,0.00774544,0.00388861,-0.00012182,-0.00034566,0.0
 0021912,0.00007063,-0.00004774,-0.00015158,0.00136591,0.00032405,0.000
 38759,0.00005266,-0.00007520,0.00005746,-0.00050794,-0.00004696,-0.000
 21068,0.00010222,-0.00017198,0.00003534,0.00001450,0.00002553,0.000004
 23,-0.00000911,-0.00003186,0.00000184,-0.00000267,0.00001840,-0.000005
 85,0.00237389,-0.00498152,-0.00098334,-0.02204249,0.00381547,-0.020019
 16,0.08221138,-0.04023943,0.03975515,0.00007095,0.00007979,0.00002489,
 -0.06180359,0.03391712,-0.00001207,0.00000516,0.00002194,-0.00277380,0
 .00560996,0.00024493,-0.00090319,-0.00008115,0.00074930,0.00035217,0.0
 0000868,-0.00041629,0.00040653,0.00055088,0.00029230,-0.00004228,0.000
 06762,0.00002783,-0.00010952,-0.00030839,-0.00027327,0.00001961,-0.000
 08025,0.00015958,-0.00003197,0.00002914,-0.00000486,0.00005540,-0.0000
 0637,-0.00004096,-0.00002752,-0.00000179,0.00002480,0.00185903,-0.0031
 3871,-0.00045718,-0.02942865,0.00793292,-0.02043310,-0.22858244,0.0124
 5205,-0.24156468,0.00016271,-0.00003621,0.00014443,0.25905599,-0.02300
 354,0.26152524\\0.00000900,-0.00000348,0.00000266,0.00000491,0.0000191
 1,-0.00000299,0.00001985,-0.00000761,-0.00002043,-0.00001109,0.0000133
 5,-0.00002059,0.00000185,-0.00002457,0.00000168,0.00000084,-0.00000017
 ,0.00000735,0.00000012,-0.00000071,-0.00000895,-0.00000228,-0.00000448
 ,-0.00000380,0.00003902,0.00000088,0.00003640,-0.00002219,-0.00001730,
 -0.00001765,-0.00000323,0.00001397,0.00000115,-0.00001834,0.00000779,0
 .00002692,0.00000090,0.00000128,0.00000647,-0.00000538,0.00000066,-0.0
 0000316,-0.00001072,-0.00000125,-0.00000166,-0.00000327,0.00000250,-0.
 00000341\\\@


 IT IS UNWORTHY OF EXCELLENT MEN TO LOSE HOURS LIKE SLAVES IN THE LABOR
 OF CALCULATION WHICH COULD BE SAFELY RELEGATED TO ANYONE ELSE
 IF A MACHINE WERE USED.
    -- G.W. VON LEIBNIZ
 Job cpu time:       0 days  0 hours 28 minutes  0.6 seconds.
 Elapsed time:       0 days  0 hours  1 minutes  0.9 seconds.
 File lengths (MBytes):  RWF=    380 Int=      0 D2E=      0 Chk=     12 Scr=      8
 Normal termination of Gaussian 16 at Wed Apr 26 17:23:52 2023.
