 Entering Gaussian System, Link 0=g16
 Input=h11o5B2.gjf
 Output=h11o5B2.log
 Initial command:
 /sw/contrib/gaussian/g16/A03/g16/l1.exe "/gscratch/scrubbed/gds001/Gau-11521.inp" -scrdir="/gscratch/scrubbed/gds001/"
 Entering Link 1 = /sw/contrib/gaussian/g16/A03/g16/l1.exe PID=     11522.
  
 Copyright (c) 1988,1990,1992,1993,1995,1998,2003,2009,2016,
            Gaussian, Inc.  All Rights Reserved.
  
 This is part of the Gaussian(R) 16 program.  It is based on
 the Gaussian(R) 09 system (copyright 2009, Gaussian, Inc.),
 the Gaussian(R) 03 system (copyright 2003, Gaussian, Inc.),
 the Gaussian(R) 98 system (copyright 1998, Gaussian, Inc.),
 the Gaussian(R) 94 system (copyright 1995, Gaussian, Inc.),
 the Gaussian 92(TM) system (copyright 1992, Gaussian, Inc.),
 the Gaussian 90(TM) system (copyright 1990, Gaussian, Inc.),
 the Gaussian 88(TM) system (copyright 1988, Gaussian, Inc.),
 the Gaussian 86(TM) system (copyright 1986, Carnegie Mellon
 University), and the Gaussian 82(TM) system (copyright 1983,
 Carnegie Mellon University). Gaussian is a federally registered
 trademark of Gaussian, Inc.
  
 This software contains proprietary and confidential information,
 including trade secrets, belonging to Gaussian, Inc.
  
 This software is provided under written license and may be
 used, copied, transmitted, or stored only in accord with that
 written license.
  
 The following legend is applicable only to US Government
 contracts under FAR:
  
                    RESTRICTED RIGHTS LEGEND
  
 Use, reproduction and disclosure by the US Government is
 subject to restrictions as set forth in subparagraphs (a)
 and (c) of the Commercial Computer Software - Restricted
 Rights clause in FAR 52.227-19.
  
 Gaussian, Inc.
 340 Quinnipiac St., Bldg. 40, Wallingford CT 06492
  
  
 ---------------------------------------------------------------
 Warning -- This program may not be used in any manner that
 competes with the business of Gaussian, Inc. or will provide
 assistance to any competitor of Gaussian, Inc.  The licensee
 of this program is prohibited from giving any competitor of
 Gaussian, Inc. access to this program.  By using this program,
 the user acknowledges that Gaussian, Inc. is engaged in the
 business of creating and licensing software in the field of
 computational chemistry and represents and warrants to the
 licensee that it is not a competitor of Gaussian, Inc. and that
 it will not use this program in any manner prohibited above.
 ---------------------------------------------------------------
  

 Cite this work as:
 Gaussian 16, Revision A.03,
 M. J. Frisch, G. W. Trucks, H. B. Schlegel, G. E. Scuseria, 
 M. A. Robb, J. R. Cheeseman, G. Scalmani, V. Barone, 
 G. A. Petersson, H. Nakatsuji, X. Li, M. Caricato, A. V. Marenich, 
 J. Bloino, B. G. Janesko, R. Gomperts, B. Mennucci, H. P. Hratchian, 
 J. V. Ortiz, A. F. Izmaylov, J. L. Sonnenberg, D. Williams-Young, 
 F. Ding, F. Lipparini, F. Egidi, J. Goings, B. Peng, A. Petrone, 
 T. Henderson, D. Ranasinghe, V. G. Zakrzewski, J. Gao, N. Rega, 
 G. Zheng, W. Liang, M. Hada, M. Ehara, K. Toyota, R. Fukuda, 
 J. Hasegawa, M. Ishida, T. Nakajima, Y. Honda, O. Kitao, H. Nakai, 
 T. Vreven, K. Throssell, J. A. Montgomery, Jr., J. E. Peralta, 
 F. Ogliaro, M. J. Bearpark, J. J. Heyd, E. N. Brothers, K. N. Kudin, 
 V. N. Staroverov, T. A. Keith, R. Kobayashi, J. Normand, 
 K. Raghavachari, A. P. Rendell, J. C. Burant, S. S. Iyengar, 
 J. Tomasi, M. Cossi, J. M. Millam, M. Klene, C. Adamo, R. Cammi, 
 J. W. Ochterski, R. L. Martin, K. Morokuma, O. Farkas, 
 J. B. Foresman, and D. J. Fox, Gaussian, Inc., Wallingford CT, 2016.
 
 ******************************************
 Gaussian 16:  ES64L-G16RevA.03 25-Dec-2016
                26-Apr-2023 
 ******************************************
 %nprocshared=28
 Will use up to   28 processors via shared memory.
 %mem=41GB
 -----------------------------
 # wB97XD/aug-cc-pVDZ opt freq
 -----------------------------
 1/18=20,19=15,26=3,38=1/1,3;
 2/9=110,12=2,17=6,18=5,40=1/2;
 3/5=16,7=10,11=2,25=1,30=1,71=1,74=-58/1,2,3;
 4//1;
 5/5=2,38=5/2;
 6/7=2,8=2,9=2,10=2,28=1/1;
 7//1,2,3,16;
 1/18=20,19=15,26=3/3(2);
 2/9=110/2;
 99//99;
 2/9=110/2;
 3/5=16,7=10,11=2,25=1,30=1,71=1,74=-58/1,2,3;
 4/5=5,16=3,69=1/1;
 5/5=2,38=5/2;
 7//1,2,3,16;
 1/18=20,19=15,26=3/3(-5);
 2/9=110/2;
 6/7=2,8=2,9=2,10=2,19=2,28=1/1;
 99/9=1/99;
 ----
 blah
 ----
 Symbolic Z-matrix:
 Charge =  1 Multiplicity = 1
 H                     3.8697   -0.64378  -1.23281 
 H                    -1.59362  -0.61205   0.13644 
 H                     0.00779  -0.35714   0.69856 
 O                     1.31613  -0.93415   0.81217 
 H                    -1.03986   0.95224   0.31348 
 H                    -1.46362   3.15393   0.50156 
 O                    -1.10136   2.49034  -0.09614 
 H                    -1.23576   2.81782  -0.99209 
 H                     2.09202  -0.60122   0.30041 
 O                     3.36612  -0.04375  -0.67213 
 H                     3.96719   0.66939  -0.43198 
 O                    -0.97559   0.00316   0.63603 
 H                    -3.4294   -1.8753   -0.16379 
 O                    -2.65122  -1.53149  -0.61667 
 H                     1.62643  -1.21708   1.67799 
 H                    -2.4335   -2.15972  -1.31382 
 
 Add virtual bond connecting atoms O4         and H3         Dist= 2.71D+00.
 Add virtual bond connecting atoms O14        and H2         Dist= 3.01D+00.
 Add virtual bond connecting atoms O7         and H5         Dist= 3.01D+00.
 Add virtual bond connecting atoms O10        and H9         Dist= 3.21D+00.

 GradGradGradGradGradGradGradGradGradGradGradGradGradGradGradGradGradGrad
 Berny optimization.
 Initialization pass.
                           ----------------------------
                           !    Initial Parameters    !
                           ! (Angstroms and Degrees)  !
 --------------------------                            --------------------------
 ! Name  Definition              Value          Derivative Info.                !
 --------------------------------------------------------------------------------
 ! R1    R(1,10)                 0.9633         estimate D2E/DX2                !
 ! R2    R(2,12)                 1.005          estimate D2E/DX2                !
 ! R3    R(2,14)                 1.5909         estimate D2E/DX2                !
 ! R4    R(3,4)                  1.4344         estimate D2E/DX2                !
 ! R5    R(3,12)                 1.0492         estimate D2E/DX2                !
 ! R6    R(4,9)                  0.9873         estimate D2E/DX2                !
 ! R7    R(4,15)                 0.9623         estimate D2E/DX2                !
 ! R8    R(5,7)                  1.5929         estimate D2E/DX2                !
 ! R9    R(5,12)                 1.0045         estimate D2E/DX2                !
 ! R10   R(6,7)                  0.9638         estimate D2E/DX2                !
 ! R11   R(7,8)                  0.9633         estimate D2E/DX2                !
 ! R12   R(9,10)                 1.697          estimate D2E/DX2                !
 ! R13   R(10,11)                0.9631         estimate D2E/DX2                !
 ! R14   R(13,14)                0.9638         estimate D2E/DX2                !
 ! R15   R(14,16)                0.9634         estimate D2E/DX2                !
 ! A1    A(3,4,9)              122.6901         estimate D2E/DX2                !
 ! A2    A(3,4,15)             118.9241         estimate D2E/DX2                !
 ! A3    A(9,4,15)             108.187          estimate D2E/DX2                !
 ! A4    A(5,7,6)              121.3249         estimate D2E/DX2                !
 ! A5    A(5,7,8)              124.945          estimate D2E/DX2                !
 ! A6    A(6,7,8)              106.8748         estimate D2E/DX2                !
 ! A7    A(1,10,9)             121.4267         estimate D2E/DX2                !
 ! A8    A(1,10,11)            106.2659         estimate D2E/DX2                !
 ! A9    A(9,10,11)            124.6744         estimate D2E/DX2                !
 ! A10   A(2,12,3)             113.3155         estimate D2E/DX2                !
 ! A11   A(2,12,5)             112.2986         estimate D2E/DX2                !
 ! A12   A(3,12,5)             113.803          estimate D2E/DX2                !
 ! A13   A(2,14,13)            121.3641         estimate D2E/DX2                !
 ! A14   A(2,14,16)            124.6944         estimate D2E/DX2                !
 ! A15   A(13,14,16)           106.8513         estimate D2E/DX2                !
 ! A16   L(12,2,14,8,-1)       178.694          estimate D2E/DX2                !
 ! A17   L(4,3,12,16,-1)       177.7104         estimate D2E/DX2                !
 ! A18   L(7,5,12,1,-1)        180.0811         estimate D2E/DX2                !
 ! A19   L(4,9,10,6,-1)        179.0571         estimate D2E/DX2                !
 ! A20   L(12,2,14,8,-2)       183.959          estimate D2E/DX2                !
 ! A21   L(4,3,12,16,-2)       176.5045         estimate D2E/DX2                !
 ! A22   L(7,5,12,1,-2)        175.7509         estimate D2E/DX2                !
 ! A23   L(4,9,10,6,-2)        183.8247         estimate D2E/DX2                !
 ! D1    D(3,4,10,1)          -124.3964         estimate D2E/DX2                !
 ! D2    D(3,4,10,11)           88.9552         estimate D2E/DX2                !
 ! D3    D(15,4,10,1)           89.4551         estimate D2E/DX2                !
 ! D4    D(15,4,10,11)         -57.1933         estimate D2E/DX2                !
 ! D5    D(9,4,12,2)           106.895          estimate D2E/DX2                !
 ! D6    D(9,4,12,5)           -23.6753         estimate D2E/DX2                !
 ! D7    D(15,4,12,2)         -110.7504         estimate D2E/DX2                !
 ! D8    D(15,4,12,5)          118.6794         estimate D2E/DX2                !
 ! D9    D(6,7,12,2)           111.5882         estimate D2E/DX2                !
 ! D10   D(6,7,12,3)          -116.508          estimate D2E/DX2                !
 ! D11   D(8,7,12,2)           -36.4577         estimate D2E/DX2                !
 ! D12   D(8,7,12,3)            95.4461         estimate D2E/DX2                !
 ! D13   D(3,12,14,13)         119.9254         estimate D2E/DX2                !
 ! D14   D(3,12,14,16)         -27.5378         estimate D2E/DX2                !
 ! D15   D(5,12,14,13)        -108.3408         estimate D2E/DX2                !
 ! D16   D(5,12,14,16)         104.196          estimate D2E/DX2                !
 --------------------------------------------------------------------------------
 Trust Radius=3.00D-01 FncErr=1.00D-07 GrdErr=1.00D-06 EigMax=2.50D+02 EigMin=1.00D-04
 Number of steps in this run=     64 maximum allowed number of steps=    100.
 GradGradGradGradGradGradGradGradGradGradGradGradGradGradGradGradGradGrad

                          Input orientation:                          
 ---------------------------------------------------------------------
 Center     Atomic      Atomic             Coordinates (Angstroms)
 Number     Number       Type             X           Y           Z
 ---------------------------------------------------------------------
      1          1           0        3.869698   -0.643780   -1.232805
      2          1           0       -1.593618   -0.612053    0.136440
      3          1           0        0.007788   -0.357144    0.698561
      4          8           0        1.316129   -0.934148    0.812168
      5          1           0       -1.039860    0.952244    0.313479
      6          1           0       -1.463622    3.153926    0.501555
      7          8           0       -1.101355    2.490341   -0.096137
      8          1           0       -1.235760    2.817815   -0.992087
      9          1           0        2.092020   -0.601217    0.300405
     10          8           0        3.366115   -0.043749   -0.672132
     11          1           0        3.967187    0.669386   -0.431981
     12          8           0       -0.975593    0.003158    0.636026
     13          1           0       -3.429401   -1.875298   -0.163786
     14          8           0       -2.651216   -1.531487   -0.616668
     15          1           0        1.626433   -1.217080    1.677994
     16          1           0       -2.433497   -2.159723   -1.313820
 ---------------------------------------------------------------------
                    Distance matrix (angstroms):
                    1          2          3          4          5
     1  H    0.000000
     2  H    5.632376   0.000000
     3  H    4.327434   1.716234   0.000000
     4  O    3.284348   3.004493   1.434432   0.000000
     5  H    5.389067   1.668837   1.720567   3.059060   0.000000
     6  H    6.773100   3.785869   3.812017   4.953367   2.249967
     7  O    5.985490   3.149804   3.157517   4.289099   1.592893
     8  H    6.173029   3.628447   3.805925   4.883104   2.285440
     9  H    2.347910   3.689299   2.135913   0.987295   3.496010
    10  O    0.963321   5.057243   3.640793   2.682983   4.623424
    11  H    1.541178   5.734783   4.243669   3.338763   5.070132
    12  O    5.233345   1.005000   1.049174   2.482249   1.004456
    13  H    7.479056   2.248560   3.855218   4.935413   3.732651
    14  O    6.609839   1.590926   3.190488   4.258898   3.103315
    15  H    3.719363   3.620936   2.078170   0.962286   3.698241
    16  H    6.483434   2.281213   3.641269   4.481245   3.778183
                    6          7          8          9         10
     6  H    0.000000
     7  O    0.963752   0.000000
     8  H    1.547856   0.963343   0.000000
     9  H    5.175341   4.462356   4.943120   0.000000
    10  O    5.910078   5.168333   5.428460   1.697032   0.000000
    11  H    6.044677   5.396183   5.656865   2.380561   0.963079
    12  O    3.191174   2.595758   3.262014   3.144545   4.534744
    13  H    5.440594   4.948048   5.246280   5.685494   7.056346
    14  O    4.961239   4.341442   4.589214   4.919829   6.198767
    15  H    5.480706   4.932883   5.621553   1.579180   3.150602
    16  H    5.698343   4.988031   5.129714   5.051234   6.206820
                   11         12         13         14         15
    11  H    0.000000
    12  O    5.100546   0.000000
    13  H    7.826676   3.192095   0.000000
    14  O    6.977192   2.594627   0.963784   0.000000
    15  H    3.672857   3.056995   5.420965   4.864423   0.000000
    16  H    7.053386   3.256599   1.547676   0.963381   5.130551
                   16
    16  H    0.000000
 Stoichiometry    H11O5(1+)
 Framework group  C1[X(H11O5)]
 Deg. of freedom    42
 Full point group                 C1      NOp   1
 Largest Abelian subgroup         C1      NOp   1
 Largest concise Abelian subgroup C1      NOp   1
                         Standard orientation:                         
 ---------------------------------------------------------------------
 Center     Atomic      Atomic             Coordinates (Angstroms)
 Number     Number       Type             X           Y           Z
 ---------------------------------------------------------------------
      1          1           0        3.869698   -0.643780   -1.232805
      2          1           0       -1.593618   -0.612053    0.136440
      3          1           0        0.007788   -0.357144    0.698561
      4          8           0        1.316129   -0.934148    0.812168
      5          1           0       -1.039860    0.952244    0.313479
      6          1           0       -1.463622    3.153926    0.501555
      7          8           0       -1.101355    2.490341   -0.096137
      8          1           0       -1.235760    2.817815   -0.992087
      9          1           0        2.092020   -0.601217    0.300405
     10          8           0        3.366115   -0.043749   -0.672132
     11          1           0        3.967187    0.669386   -0.431981
     12          8           0       -0.975593    0.003158    0.636026
     13          1           0       -3.429401   -1.875298   -0.163786
     14          8           0       -2.651216   -1.531487   -0.616668
     15          1           0        1.626433   -1.217080    1.677994
     16          1           0       -2.433497   -2.159723   -1.313820
 ---------------------------------------------------------------------
 Rotational constants (GHZ):           2.2986156           1.1036029           0.8418620
 Standard basis: Aug-CC-pVDZ (5D, 7F)
 There are   224 symmetry adapted cartesian basis functions of A   symmetry.
 There are   214 symmetry adapted basis functions of A   symmetry.
   214 basis functions,   336 primitive gaussians,   224 cartesian basis functions
    25 alpha electrons       25 beta electrons
       nuclear repulsion energy       203.0895678563 Hartrees.
 NAtoms=   16 NActive=   16 NUniq=   16 SFac= 1.00D+00 NAtFMM=   60 NAOKFM=F Big=F
 Integral buffers will be    131072 words long.
 Raffenetti 2 integral format.
 Two-electron integral symmetry is turned on.
 Nuclear repulsion after empirical dispersion term =      203.0853370572 Hartrees.
 One-electron integrals computed using PRISM.
 NBasis=   214 RedAO= T EigKep=  9.28D-04  NBF=   214
 NBsUse=   214 1.00D-06 EigRej= -1.00D+00 NBFU=   214
 ExpMin= 2.97D-02 ExpMax= 1.17D+04 ExpMxC= 4.01D+02 IAcc=3 IRadAn=         5 AccDes= 0.00D+00
 Harris functional with IExCor= 4639 and IRadAn=       5 diagonalized for initial guess.
 HarFok:  IExCor= 4639 AccDes= 0.00D+00 IRadAn=         5 IDoV= 1 UseB2=F ITyADJ=14
 ICtDFT=  3500011 ScaDFX=  1.000000  1.000000  1.000000  1.000000
 FoFCou: FMM=F IPFlag=           0 FMFlag=      100000 FMFlg1=           0
         NFxFlg=           0 DoJE=T BraDBF=F KetDBF=T FulRan=T
         wScrn=  0.000000 ICntrl=       500 IOpCl=  0 I1Cent=   200000004 NGrid=           0
         NMat0=    1 NMatS0=      1 NMatT0=    0 NMatD0=    1 NMtDS0=    0 NMtDT0=    0
 Petite list used in FoFCou.
 Requested convergence on RMS density matrix=1.00D-08 within 128 cycles.
 Requested convergence on MAX density matrix=1.00D-06.
 Requested convergence on             energy=1.00D-06.
 No special actions if energy rises.
 SCF Done:  E(RwB97XD) =  -382.521280818     A.U. after   11 cycles
            NFock= 11  Conv=0.46D-08     -V/T= 2.0060

 **********************************************************************

            Population analysis using the SCF density.

 **********************************************************************

 Orbital symmetries:
       Occupied  (A) (A) (A) (A) (A) (A) (A) (A) (A) (A) (A) (A)
                 (A) (A) (A) (A) (A) (A) (A) (A) (A) (A) (A) (A)
                 (A)
       Virtual   (A) (A) (A) (A) (A) (A) (A) (A) (A) (A) (A) (A)
                 (A) (A) (A) (A) (A) (A) (A) (A) (A) (A) (A) (A)
                 (A) (A) (A) (A) (A) (A) (A) (A) (A) (A) (A) (A)
                 (A) (A) (A) (A) (A) (A) (A) (A) (A) (A) (A) (A)
                 (A) (A) (A) (A) (A) (A) (A) (A) (A) (A) (A) (A)
                 (A) (A) (A) (A) (A) (A) (A) (A) (A) (A) (A) (A)
                 (A) (A) (A) (A) (A) (A) (A) (A) (A) (A) (A) (A)
                 (A) (A) (A) (A) (A) (A) (A) (A) (A) (A) (A) (A)
                 (A) (A) (A) (A) (A) (A) (A) (A) (A) (A) (A) (A)
                 (A) (A) (A) (A) (A) (A) (A) (A) (A) (A) (A) (A)
                 (A) (A) (A) (A) (A) (A) (A) (A) (A) (A) (A) (A)
                 (A) (A) (A) (A) (A) (A) (A) (A) (A) (A) (A) (A)
                 (A) (A) (A) (A) (A) (A) (A) (A) (A) (A) (A) (A)
                 (A) (A) (A) (A) (A) (A) (A) (A) (A) (A) (A) (A)
                 (A) (A) (A) (A) (A) (A) (A) (A) (A) (A) (A) (A)
                 (A) (A) (A) (A) (A) (A) (A) (A) (A)
 The electronic state is 1-A.
 Alpha  occ. eigenvalues --  -19.48108 -19.45185 -19.45131 -19.43439 -19.43089
 Alpha  occ. eigenvalues --   -1.34068  -1.29427  -1.29152  -1.28102  -1.26724
 Alpha  occ. eigenvalues --   -0.83902  -0.83657  -0.79897  -0.79831  -0.79074
 Alpha  occ. eigenvalues --   -0.77713  -0.69401  -0.65864  -0.65474  -0.63096
 Alpha  occ. eigenvalues --   -0.61993  -0.58300  -0.58232  -0.57271  -0.56031
 Alpha virt. eigenvalues --   -0.09055  -0.07109  -0.06957  -0.05145  -0.04066
 Alpha virt. eigenvalues --   -0.03079  -0.02824  -0.01631  -0.00542  -0.00168
 Alpha virt. eigenvalues --    0.00163   0.03912   0.05046   0.05098   0.05493
 Alpha virt. eigenvalues --    0.07036   0.08138   0.08568   0.09119   0.09463
 Alpha virt. eigenvalues --    0.09675   0.10015   0.10412   0.10712   0.11334
 Alpha virt. eigenvalues --    0.12408   0.13152   0.13847   0.14438   0.15588
 Alpha virt. eigenvalues --    0.16227   0.16496   0.16872   0.17309   0.18848
 Alpha virt. eigenvalues --    0.19226   0.21045   0.21620   0.22255   0.22863
 Alpha virt. eigenvalues --    0.24141   0.24350   0.25144   0.26188   0.26579
 Alpha virt. eigenvalues --    0.29501   0.30987   0.33241   0.34400   0.35044
 Alpha virt. eigenvalues --    0.36338   0.36757   0.38124   0.38888   0.39315
 Alpha virt. eigenvalues --    0.40131   0.40711   0.41336   0.41940   0.42633
 Alpha virt. eigenvalues --    0.43586   0.44033   0.45343   0.45970   0.47581
 Alpha virt. eigenvalues --    0.48086   0.48724   0.49320   0.49804   0.50223
 Alpha virt. eigenvalues --    0.52316   0.60926   0.61668   0.63203   0.64229
 Alpha virt. eigenvalues --    0.65121   0.66824   0.67037   0.69603   0.71084
 Alpha virt. eigenvalues --    0.71712   0.72314   0.74096   0.76183   0.76478
 Alpha virt. eigenvalues --    0.78376   0.88135   0.88329   0.89780   0.92711
 Alpha virt. eigenvalues --    0.93146   0.95585   0.98367   1.00299   1.00729
 Alpha virt. eigenvalues --    1.01506   1.02299   1.03579   1.04663   1.09436
 Alpha virt. eigenvalues --    1.11067   1.13546   1.14391   1.15816   1.17915
 Alpha virt. eigenvalues --    1.18252   1.19967   1.21416   1.24570   1.26788
 Alpha virt. eigenvalues --    1.29391   1.30861   1.33362   1.35288   1.36827
 Alpha virt. eigenvalues --    1.43972   1.62404   1.63292   1.64206   1.65090
 Alpha virt. eigenvalues --    1.66965   1.68038   1.68575   1.70266   1.70382
 Alpha virt. eigenvalues --    1.71380   1.72259   1.77858   1.81787   1.82226
 Alpha virt. eigenvalues --    1.83294   1.83392   1.89033   1.92773   1.97159
 Alpha virt. eigenvalues --    2.05880   2.08949   2.10658   2.11618   2.15366
 Alpha virt. eigenvalues --    2.16561   2.19449   2.20310   2.23227   2.24283
 Alpha virt. eigenvalues --    2.26772   2.30247   2.35486   2.38975   2.43937
 Alpha virt. eigenvalues --    2.44604   2.48120   2.51610   2.52926   2.55537
 Alpha virt. eigenvalues --    2.58946   2.61801   2.63711   2.63992   2.72064
 Alpha virt. eigenvalues --    2.73755   2.75649   2.78290   2.81479   3.24012
 Alpha virt. eigenvalues --    3.24114   3.25916   3.26899   3.27305   3.28407
 Alpha virt. eigenvalues --    3.29350   3.30542   3.31496   3.32583   3.33582
 Alpha virt. eigenvalues --    3.34972   3.36687   3.38981   3.62218   3.62375
 Alpha virt. eigenvalues --    3.63355   3.73398   3.84174   3.84995   3.86214
 Alpha virt. eigenvalues --    3.86534   3.96420   3.99405   4.04599
          Condensed to atoms (all electrons):
               1          2          3          4          5          6
     1  H    0.563188  -0.000100   0.000341   0.002256   0.000081   0.000012
     2  H   -0.000100   0.485543  -0.050862   0.004038  -0.068222  -0.001007
     3  H    0.000341  -0.050862   0.400357   0.013272  -0.042752   0.001333
     4  O    0.002256   0.004038   0.013272   7.809024  -0.009580   0.000193
     5  H    0.000081  -0.068222  -0.042752  -0.009580   0.478726  -0.009010
     6  H    0.000012  -0.001007   0.001333   0.000193  -0.009010   0.554881
     7  O   -0.000072  -0.009551   0.002598   0.002035   0.003858   0.365871
     8  H   -0.000007  -0.000820   0.000715  -0.000032  -0.002914  -0.071744
     9  H   -0.005087   0.000597  -0.007108   0.320105  -0.000125   0.000013
    10  O    0.360448   0.000236  -0.002173  -0.040140   0.000549  -0.000031
    11  H   -0.073662  -0.000055   0.001062   0.000306  -0.000352  -0.000002
    12  O    0.000099   0.283319   0.226312  -0.075544   0.280044   0.001921
    13  H   -0.000001  -0.008762  -0.000373  -0.000129   0.001262  -0.000082
    14  O    0.000021   0.004625  -0.008654   0.001436   0.002457   0.000079
    15  H   -0.001038   0.002084  -0.015310   0.368030  -0.001276  -0.000082
    16  H    0.000002  -0.003008  -0.001101   0.000067   0.000380  -0.000074
               7          8          9         10         11         12
     1  H   -0.000072  -0.000007  -0.005087   0.360448  -0.073662   0.000099
     2  H   -0.009551  -0.000820   0.000597   0.000236  -0.000055   0.283319
     3  H    0.002598   0.000715  -0.007108  -0.002173   0.001062   0.226312
     4  O    0.002035  -0.000032   0.320105  -0.040140   0.000306  -0.075544
     5  H    0.003858  -0.002914  -0.000125   0.000549  -0.000352   0.280044
     6  H    0.365871  -0.071744   0.000013  -0.000031  -0.000002   0.001921
     7  O    7.684372   0.356697  -0.000110  -0.000651   0.000029  -0.056437
     8  H    0.356697   0.548024  -0.000014  -0.000096   0.000040   0.000966
     9  H   -0.000110  -0.000014   0.506869   0.009218  -0.003158  -0.004216
    10  O   -0.000651  -0.000096   0.009218   7.647688   0.354924   0.001285
    11  H    0.000029   0.000040  -0.003158   0.354924   0.558996   0.000318
    12  O   -0.056437   0.000966  -0.004216   0.001285   0.000318   7.576439
    13  H    0.000281   0.000000  -0.000028  -0.000027  -0.000002   0.000917
    14  O    0.001397  -0.000217  -0.000613   0.000124   0.000006  -0.059167
    15  H   -0.000071  -0.000110  -0.093930  -0.001674  -0.000340   0.002807
    16  H   -0.000104   0.000056   0.000063   0.000103  -0.000000   0.001725
              13         14         15         16
     1  H   -0.000001   0.000021  -0.001038   0.000002
     2  H   -0.008762   0.004625   0.002084  -0.003008
     3  H   -0.000373  -0.008654  -0.015310  -0.001101
     4  O   -0.000129   0.001436   0.368030   0.000067
     5  H    0.001262   0.002457  -0.001276   0.000380
     6  H   -0.000082   0.000079  -0.000082  -0.000074
     7  O    0.000281   0.001397  -0.000071  -0.000104
     8  H    0.000000  -0.000217  -0.000110   0.000056
     9  H   -0.000028  -0.000613  -0.093930   0.000063
    10  O   -0.000027   0.000124  -0.001674   0.000103
    11  H   -0.000002   0.000006  -0.000340  -0.000000
    12  O    0.000917  -0.059167   0.002807   0.001725
    13  H    0.554858   0.364696  -0.000108  -0.071179
    14  O    0.364696   7.679966   0.000492   0.358967
    15  H   -0.000108   0.000492   0.595872   0.000027
    16  H   -0.071179   0.358967   0.000027   0.546996
 Mulliken charges:
               1
     1  H    0.153519
     2  H    0.361944
     3  H    0.482343
     4  O   -0.395337
     5  H    0.366876
     6  H    0.157728
     7  O   -0.350141
     8  H    0.169456
     9  H    0.277525
    10  O   -0.329786
    11  H    0.161890
    12  O   -0.180788
    13  H    0.158676
    14  O   -0.345616
    15  H    0.144629
    16  H    0.167080
 Sum of Mulliken charges =   1.00000
 Mulliken charges with hydrogens summed into heavy atoms:
               1
     4  O    0.026817
     7  O   -0.022957
    10  O   -0.014376
    12  O    1.030375
    14  O   -0.019859
 Electronic spatial extent (au):  <R**2>=           1335.6577
 Charge=              1.0000 electrons
 Dipole moment (field-independent basis, Debye):
    X=             -0.3466    Y=              0.3825    Z=             -0.8136  Tot=              0.9635
 Quadrupole moment (field-independent basis, Debye-Ang):
   XX=             10.6070   YY=             -7.1948   ZZ=            -23.8483
   XY=              1.4702   XZ=              0.6161   YZ=              1.0017
 Traceless Quadrupole moment (field-independent basis, Debye-Ang):
   XX=             17.4190   YY=             -0.3828   ZZ=            -17.0363
   XY=              1.4702   XZ=              0.6161   YZ=              1.0017
 Octapole moment (field-independent basis, Debye-Ang**2):
  XXX=             56.7332  YYY=             34.8078  ZZZ=             -0.5615  XYY=            -44.1410
  XXY=            -24.2860  XXZ=            -20.0171  XZZ=              6.1380  YZZ=             -5.6993
  YYZ=             -9.6521  XYZ=             -5.9482
 Hexadecapole moment (field-independent basis, Debye-Ang**3):
 XXXX=           -291.8497 YYYY=           -200.4579 ZZZZ=            -86.6609 XXXY=            113.2647
 XXXZ=            -91.9184 YYYX=            -33.1686 YYYZ=             15.4512 ZZZX=             16.2895
 ZZZY=             -3.8294 XXYY=            -78.5579 XXZZ=           -125.7504 YYZZ=            -43.0269
 XXYZ=             27.0535 YYXZ=             20.8381 ZZXY=            -15.0388
 N-N= 2.030853370572D+02 E-N=-1.301150568542D+03  KE= 3.802353479612D+02
 Calling FoFJK, ICntrl=      2127 FMM=F ISym2X=0 I1Cent= 0 IOpClX= 0 NMat=1 NMatS=1 NMatT=0.
 ***** Axes restored to original set *****
 -------------------------------------------------------------------
 Center     Atomic                   Forces (Hartrees/Bohr)
 Number     Number              X              Y              Z
 -------------------------------------------------------------------
      1        1          -0.000561557    0.001437386    0.001071246
      2        1           0.001359959    0.001534939    0.000949729
      3        1          -0.002978639    0.001020308   -0.000415061
      4        8           0.000951552    0.000968958    0.000068538
      5        1           0.000086357   -0.002126588    0.000531836
      6        1           0.000611395   -0.000911413   -0.001481389
      7        8          -0.000724095    0.000427744   -0.000099732
      8        1           0.000110221   -0.000210745    0.001798702
      9        1          -0.001231301   -0.000879003    0.001318152
     10        8           0.000966408   -0.000117876   -0.000029535
     11        1          -0.000779726   -0.001513418   -0.000720885
     12        8           0.001535542   -0.000416344   -0.001782786
     13        1           0.001381511    0.000280537   -0.001188660
     14        8          -0.000151892   -0.000804625    0.000217478
     15        1           0.000202410    0.000393212   -0.001586682
     16        1          -0.000778145    0.000916929    0.001349049
 -------------------------------------------------------------------
 Cartesian Forces:  Max     0.002978639 RMS     0.001089647

 GradGradGradGradGradGradGradGradGradGradGradGradGradGradGradGradGradGrad
 Berny optimization.
 FormGI is forming the generalized inverse of G from B-inverse, IUseBI=4.
 Internal  Forces:  Max     0.003683281 RMS     0.001073677
 Search for a local minimum.
 Step number   1 out of a maximum of   64
 All quantities printed in internal units (Hartrees-Bohrs-Radians)
 Mixed Optimization -- RFO/linear search
 Second derivative matrix not updated -- first step.
 ITU=  0
     Eigenvalues ---    0.00230   0.00230   0.00230   0.00230   0.00230
     Eigenvalues ---    0.00230   0.00230   0.00230   0.00340   0.00364
     Eigenvalues ---    0.00708   0.00821   0.01259   0.01363   0.01424
     Eigenvalues ---    0.01555   0.01865   0.07452   0.09232   0.09271
     Eigenvalues ---    0.13214   0.13270   0.13458   0.14878   0.16000
     Eigenvalues ---    0.16000   0.16000   0.16000   0.16000   0.16000
     Eigenvalues ---    0.16000   0.39991   0.46819   0.46913   0.49993
     Eigenvalues ---    0.54667   0.54674   0.54752   0.54760   0.54765
     Eigenvalues ---    0.54816   0.54985
 RFO step:  Lambda=-1.60591243D-04 EMin= 2.30000000D-03
 Linear search not attempted -- first point.
 Iteration  1 RMS(Cart)=  0.01797287 RMS(Int)=  0.00011515
 Iteration  2 RMS(Cart)=  0.00019274 RMS(Int)=  0.00001258
 Iteration  3 RMS(Cart)=  0.00000002 RMS(Int)=  0.00001258
 Variable       Old X    -DE/DX   Delta X   Delta X   Delta X     New X
                                 (Linear)    (Quad)   (Total)
    R1        1.82041  -0.00181   0.00000  -0.00331  -0.00331   1.81711
    R2        1.89918  -0.00296   0.00000  -0.00631  -0.00631   1.89287
    R3        3.00641  -0.00071   0.00000  -0.00761  -0.00761   2.99881
    R4        2.71068  -0.00052   0.00000  -0.00393  -0.00393   2.70676
    R5        1.98265  -0.00368   0.00000  -0.00921  -0.00921   1.97345
    R6        1.86572  -0.00247   0.00000  -0.00495  -0.00495   1.86077
    R7        1.81846  -0.00148   0.00000  -0.00269  -0.00269   1.81577
    R8        3.01013  -0.00073   0.00000  -0.00785  -0.00785   3.00228
    R9        1.89815  -0.00291   0.00000  -0.00620  -0.00620   1.89194
   R10        1.82123  -0.00178   0.00000  -0.00325  -0.00325   1.81798
   R11        1.82046  -0.00176   0.00000  -0.00321  -0.00321   1.81724
   R12        3.20693  -0.00053   0.00000  -0.00708  -0.00708   3.19984
   R13        1.81996  -0.00179   0.00000  -0.00326  -0.00326   1.81670
   R14        1.82129  -0.00177   0.00000  -0.00324  -0.00324   1.81804
   R15        1.82053  -0.00175   0.00000  -0.00320  -0.00320   1.81733
    A1        2.14135   0.00033   0.00000   0.00285   0.00284   2.14419
    A2        2.07562   0.00052   0.00000   0.00456   0.00456   2.08018
    A3        1.88822  -0.00076   0.00000  -0.00407  -0.00409   1.88413
    A4        2.11752   0.00036   0.00000   0.00196   0.00196   2.11948
    A5        2.18070   0.00026   0.00000   0.00134   0.00134   2.18204
    A6        1.86532  -0.00056   0.00000  -0.00382  -0.00382   1.86150
    A7        2.11930   0.00032   0.00000   0.00119   0.00119   2.12049
    A8        1.85469  -0.00056   0.00000  -0.00446  -0.00446   1.85023
    A9        2.17598   0.00028   0.00000   0.00096   0.00096   2.17694
   A10        1.97773   0.00009   0.00000  -0.00059  -0.00060   1.97713
   A11        1.95998  -0.00019   0.00000  -0.00276  -0.00276   1.95722
   A12        1.98624   0.00002   0.00000  -0.00110  -0.00107   1.98517
   A13        2.11820   0.00036   0.00000   0.00172   0.00171   2.11991
   A14        2.17633   0.00027   0.00000   0.00114   0.00113   2.17745
   A15        1.86491  -0.00057   0.00000  -0.00417  -0.00418   1.86073
   A16        3.11880  -0.00005   0.00000  -0.01973  -0.01972   3.09908
   A17        3.10163  -0.00001   0.00000   0.00105   0.00106   3.10269
   A18        3.14301  -0.00006   0.00000  -0.00595  -0.00596   3.13705
   A19        3.12514  -0.00008   0.00000   0.00419   0.00419   3.12933
   A20        3.21069   0.00006   0.00000   0.01770   0.01772   3.22841
   A21        3.08059  -0.00007   0.00000  -0.00487  -0.00487   3.07572
   A22        3.06743  -0.00005   0.00000  -0.00450  -0.00448   3.06295
   A23        3.20835  -0.00011   0.00000  -0.01075  -0.01074   3.19761
    D1       -2.17113   0.00006   0.00000  -0.00442  -0.00443  -2.17556
    D2        1.55256   0.00015   0.00000   0.00627   0.00626   1.55882
    D3        1.56129  -0.00016   0.00000  -0.00726  -0.00725   1.55404
    D4       -0.99821  -0.00007   0.00000   0.00344   0.00345  -0.99476
    D5        1.86567  -0.00002   0.00000  -0.00289  -0.00289   1.86278
    D6       -0.41321   0.00012   0.00000   0.00106   0.00104  -0.41217
    D7       -1.93296  -0.00012   0.00000   0.00129   0.00130  -1.93165
    D8        2.07135   0.00002   0.00000   0.00523   0.00524   2.07658
    D9        1.94758   0.00000   0.00000   0.00219   0.00217   1.94975
   D10       -2.03345  -0.00002   0.00000  -0.00272  -0.00270  -2.03615
   D11       -0.63631   0.00002   0.00000   0.00097   0.00095  -0.63536
   D12        1.66585  -0.00000   0.00000  -0.00394  -0.00392   1.66193
   D13        2.09309   0.00001   0.00000   0.00450   0.00453   2.09762
   D14       -0.48063   0.00004   0.00000  -0.00207  -0.00205  -0.48267
   D15       -1.89090  -0.00004   0.00000   0.00079   0.00076  -1.89014
   D16        1.81856  -0.00002   0.00000  -0.00579  -0.00582   1.81275
         Item               Value     Threshold  Converged?
 Maximum Force            0.003683     0.000450     NO 
 RMS     Force            0.001074     0.000300     NO 
 Maximum Displacement     0.051548     0.001800     NO 
 RMS     Displacement     0.017973     0.001200     NO 
 Predicted change in Energy=-8.042757D-05
 GradGradGradGradGradGradGradGradGradGradGradGradGradGradGradGradGradGrad

                          Input orientation:                          
 ---------------------------------------------------------------------
 Center     Atomic      Atomic             Coordinates (Angstroms)
 Number     Number       Type             X           Y           Z
 ---------------------------------------------------------------------
      1          1           0        3.881179   -0.636450   -1.221176
      2          1           0       -1.584437   -0.623205    0.139855
      3          1           0        0.010552   -0.358070    0.693467
      4          8           0        1.320197   -0.927235    0.805367
      5          1           0       -1.042198    0.938256    0.311281
      6          1           0       -1.465910    3.136189    0.494287
      7          8           0       -1.103969    2.471656   -0.099769
      8          1           0       -1.239462    2.798264   -0.994044
      9          1           0        2.092573   -0.595061    0.292837
     10          8           0        3.372438   -0.038472   -0.665998
     11          1           0        3.973300    0.670394   -0.419671
     12          8           0       -0.970972   -0.006107    0.636016
     13          1           0       -3.436756   -1.855728   -0.155617
     14          8           0       -2.660586   -1.515559   -0.611050
     15          1           0        1.636272   -1.209572    1.667714
     16          1           0       -2.460775   -2.138108   -1.316285
 ---------------------------------------------------------------------
                    Distance matrix (angstroms):
                    1          2          3          4          5
     1  H    0.000000
     2  H    5.632542   0.000000
     3  H    4.327251   1.709026   0.000000
     4  O    3.278728   2.995370   1.432355   0.000000
     5  H    5.391453   1.661798   1.713129   3.050424   0.000000
     6  H    6.765129   3.777925   3.798612   4.936656   2.245870
     7  O    5.980767   3.141088   3.143044   4.271804   1.588739
     8  H    6.170074   3.620937   3.791130   4.865087   2.280880
     9  H    2.343728   3.680299   2.133420   0.984678   3.489727
    10  O    0.961571   5.055880   3.640408   2.677034   4.625806
    11  H    1.535818   5.733664   4.242663   3.330479   5.075555
    12  O    5.233532   1.001661   1.044302   2.475199   1.001173
    13  H    7.494947   2.244438   3.853292   4.941072   3.709212
    14  O    6.628709   1.586900   3.190067   4.266029   3.080761
    15  H    3.703210   3.612636   2.077782   0.960864   3.691514
    16  H    6.518006   2.276673   3.648985   4.501486   3.758371
                    6          7          8          9         10
     6  H    0.000000
     7  O    0.962033   0.000000
     8  H    1.542920   0.961644   0.000000
     9  H    5.160001   4.447109   4.926782   0.000000
    10  O    5.902063   5.163291   5.424418   1.693284   0.000000
    11  H    6.041562   5.396809   5.659561   2.376169   0.961354
    12  O    3.184191   2.588122   3.254792   3.138462   4.534479
    13  H    5.406093   4.916428   5.214470   5.688926   7.065978
    14  O    4.928264   4.310725   4.557998   4.925125   6.211457
    15  H    5.466818   4.917759   5.605136   1.573569   3.135596
    16  H    5.664462   4.956890   5.095410   5.069837   6.233596
                   11         12         13         14         15
    11  H    0.000000
    12  O    5.100779   0.000000
    13  H    7.833259   3.182432   0.000000
    14  O    6.987379   2.586198   0.962068   0.000000
    15  H    3.654196   3.051302   5.429334   4.873334   0.000000
    16  H    7.077353   3.252141   1.542540   0.961690   5.152885
                   16
    16  H    0.000000
 Stoichiometry    H11O5(1+)
 Framework group  C1[X(H11O5)]
 Deg. of freedom    42
 Full point group                 C1      NOp   1
 Largest Abelian subgroup         C1      NOp   1
 Largest concise Abelian subgroup C1      NOp   1
                         Standard orientation:                         
 ---------------------------------------------------------------------
 Center     Atomic      Atomic             Coordinates (Angstroms)
 Number     Number       Type             X           Y           Z
 ---------------------------------------------------------------------
      1          1           0        3.878964   -0.638401   -1.226055
      2          1           0       -1.585622   -0.621406    0.139061
      3          1           0        0.010145   -0.360096    0.692248
      4          8           0        1.319072   -0.931415    0.801544
      5          1           0       -1.041066    0.938796    0.314566
      6          1           0       -1.461558    3.136786    0.504195
      7          8           0       -1.100989    2.473455   -0.092035
      8          1           0       -1.236683    2.802819   -0.985268
      9          1           0        2.091536   -0.598853    0.289397
     10          8           0        3.371473   -0.041307   -0.668785
     11          1           0        3.973511    0.666006   -0.420870
     12          8           0       -0.970926   -0.006594    0.636535
     13          1           0       -3.439887   -1.850478   -0.158575
     14          8           0       -2.663576   -1.510091   -0.613605
     15          1           0        1.635386   -1.216669    1.662842
     16          1           0       -2.465159   -2.130891   -1.320772
 ---------------------------------------------------------------------
 Rotational constants (GHZ):           2.3347046           1.1001129           0.8432076
 Standard basis: Aug-CC-pVDZ (5D, 7F)
 There are   224 symmetry adapted cartesian basis functions of A   symmetry.
 There are   214 symmetry adapted basis functions of A   symmetry.
   214 basis functions,   336 primitive gaussians,   224 cartesian basis functions
    25 alpha electrons       25 beta electrons
       nuclear repulsion energy       203.5408636025 Hartrees.
 NAtoms=   16 NActive=   16 NUniq=   16 SFac= 1.00D+00 NAtFMM=   60 NAOKFM=F Big=F
 Integral buffers will be    131072 words long.
 Raffenetti 2 integral format.
 Two-electron integral symmetry is turned on.
 Nuclear repulsion after empirical dispersion term =      203.5366184765 Hartrees.
 One-electron integrals computed using PRISM.
 NBasis=   214 RedAO= T EigKep=  9.13D-04  NBF=   214
 NBsUse=   214 1.00D-06 EigRej= -1.00D+00 NBFU=   214
 Initial guess from the checkpoint file:  "/gscratch/scrubbed/gds001/Gau-11522.chk"
 B after Tr=     0.000000    0.000000   -0.000000
         Rot=    0.999999   -0.001444   -0.000465    0.000595 Ang=  -0.19 deg.
 ExpMin= 2.97D-02 ExpMax= 1.17D+04 ExpMxC= 4.01D+02 IAcc=3 IRadAn=         5 AccDes= 0.00D+00
 Harris functional with IExCor= 4639 and IRadAn=       5 diagonalized for initial guess.
 HarFok:  IExCor= 4639 AccDes= 0.00D+00 IRadAn=         5 IDoV= 1 UseB2=F ITyADJ=14
 ICtDFT=  3500011 ScaDFX=  1.000000  1.000000  1.000000  1.000000
 FoFCou: FMM=F IPFlag=           0 FMFlag=      100000 FMFlg1=           0
         NFxFlg=           0 DoJE=T BraDBF=F KetDBF=T FulRan=T
         wScrn=  0.000000 ICntrl=       500 IOpCl=  0 I1Cent=   200000004 NGrid=           0
         NMat0=    1 NMatS0=      1 NMatT0=    0 NMatD0=    1 NMtDS0=    0 NMtDT0=    0
 Petite list used in FoFCou.
 Requested convergence on RMS density matrix=1.00D-08 within 128 cycles.
 Requested convergence on MAX density matrix=1.00D-06.
 Requested convergence on             energy=1.00D-06.
 No special actions if energy rises.
 SCF Done:  E(RwB97XD) =  -382.521357803     A.U. after    9 cycles
            NFock=  9  Conv=0.29D-08     -V/T= 2.0059
 Calling FoFJK, ICntrl=      2127 FMM=F ISym2X=0 I1Cent= 0 IOpClX= 0 NMat=1 NMatS=1 NMatT=0.
 ***** Axes restored to original set *****
 -------------------------------------------------------------------
 Center     Atomic                   Forces (Hartrees/Bohr)
 Number     Number              X              Y              Z
 -------------------------------------------------------------------
      1        1           0.000070102   -0.000010605   -0.000115049
      2        1          -0.000499150    0.000450400   -0.000088541
      3        1          -0.001092520    0.000322553    0.000020062
      4        8          -0.000093980    0.000287931    0.000063753
      5        1           0.000079056    0.000177268   -0.000069555
      6        1           0.000022463    0.000154913   -0.000016423
      7        8          -0.000133502   -0.000412517    0.000120068
      8        1           0.000027369    0.000112043   -0.000061977
      9        1           0.000353397   -0.000134949    0.000132868
     10        8          -0.000228828   -0.000176416    0.000191942
     11        1           0.000056462    0.000107065   -0.000025502
     12        8           0.000905139   -0.000604387   -0.000058115
     13        1          -0.000120892   -0.000064631   -0.000032567
     14        8           0.000380343    0.000008651    0.000201748
     15        1           0.000347650   -0.000134945   -0.000149454
     16        1          -0.000073108   -0.000082373   -0.000113257
 -------------------------------------------------------------------
 Cartesian Forces:  Max     0.001092520 RMS     0.000289927

 GradGradGradGradGradGradGradGradGradGradGradGradGradGradGradGradGradGrad
 Berny optimization.
 Using GEDIIS/GDIIS optimizer.
 FormGI is forming the generalized inverse of G from B-inverse, IUseBI=4.
 Internal  Forces:  Max     0.000633627 RMS     0.000170155
 Search for a local minimum.
 Step number   2 out of a maximum of   64
 All quantities printed in internal units (Hartrees-Bohrs-Radians)
 Mixed Optimization -- En-DIIS/RFO-DIIS
 Update second derivatives using D2CorX and points    1    2
 DE= -7.70D-05 DEPred=-8.04D-05 R= 9.57D-01
 TightC=F SS=  1.41D+00  RLast= 4.16D-02 DXNew= 5.0454D-01 1.2468D-01
 Trust test= 9.57D-01 RLast= 4.16D-02 DXMaxT set to 3.00D-01
 ITU=  1  0
 Use linear search instead of GDIIS.
     Eigenvalues ---    0.00229   0.00230   0.00230   0.00230   0.00230
     Eigenvalues ---    0.00230   0.00230   0.00274   0.00339   0.00367
     Eigenvalues ---    0.00709   0.00822   0.01221   0.01384   0.01451
     Eigenvalues ---    0.01583   0.01881   0.07322   0.08963   0.09262
     Eigenvalues ---    0.13200   0.13286   0.13493   0.14241   0.15684
     Eigenvalues ---    0.16000   0.16000   0.16000   0.16000   0.16000
     Eigenvalues ---    0.16055   0.36841   0.46834   0.47061   0.50031
     Eigenvalues ---    0.54670   0.54698   0.54754   0.54762   0.54803
     Eigenvalues ---    0.54955   0.55961
 RFO step:  Lambda=-1.17435862D-04 EMin= 2.29275723D-03
 Quartic linear search produced a step of -0.04341.
 Iteration  1 RMS(Cart)=  0.10894469 RMS(Int)=  0.00439782
 Iteration  2 RMS(Cart)=  0.00806059 RMS(Int)=  0.00009628
 Iteration  3 RMS(Cart)=  0.00004658 RMS(Int)=  0.00009494
 Iteration  4 RMS(Cart)=  0.00000001 RMS(Int)=  0.00009494
 Variable       Old X    -DE/DX   Delta X   Delta X   Delta X     New X
                                 (Linear)    (Quad)   (Total)
    R1        1.81711   0.00011   0.00014  -0.00240  -0.00225   1.81485
    R2        1.89287   0.00002   0.00027  -0.00490  -0.00463   1.88824
    R3        2.99881  -0.00008   0.00033  -0.00674  -0.00641   2.99240
    R4        2.70676   0.00049   0.00017   0.00052   0.00069   2.70744
    R5        1.97345  -0.00063   0.00040  -0.00872  -0.00832   1.96512
    R6        1.86077   0.00003   0.00021  -0.00382  -0.00360   1.85717
    R7        1.81577   0.00002   0.00012  -0.00207  -0.00195   1.81382
    R8        3.00228  -0.00015   0.00034  -0.00767  -0.00733   2.99495
    R9        1.89194   0.00004   0.00027  -0.00477  -0.00450   1.88744
   R10        1.81798   0.00009   0.00014  -0.00239  -0.00225   1.81573
   R11        1.81724   0.00009   0.00014  -0.00235  -0.00221   1.81503
   R12        3.19984  -0.00013   0.00031  -0.00724  -0.00694   3.19291
   R13        1.81670   0.00011   0.00014  -0.00236  -0.00222   1.81448
   R14        1.81804   0.00011   0.00014  -0.00235  -0.00221   1.81583
   R15        1.81733   0.00012   0.00014  -0.00229  -0.00215   1.81518
    A1        2.14419   0.00022  -0.00012   0.00511   0.00492   2.14911
    A2        2.08018   0.00027  -0.00020   0.00714   0.00686   2.08704
    A3        1.88413  -0.00039   0.00018  -0.00387  -0.00375   1.88038
    A4        2.11948   0.00013  -0.00009   0.00343   0.00334   2.12281
    A5        2.18204   0.00006  -0.00006   0.00252   0.00245   2.18449
    A6        1.86150  -0.00011   0.00017  -0.00239  -0.00223   1.85927
    A7        2.12049   0.00007  -0.00005   0.00178   0.00171   2.12220
    A8        1.85023  -0.00006   0.00019  -0.00335  -0.00316   1.84706
    A9        2.17694   0.00002  -0.00004   0.00128   0.00123   2.17816
   A10        1.97713   0.00014   0.00003   0.00105   0.00105   1.97818
   A11        1.95722  -0.00010   0.00012  -0.00237  -0.00211   1.95511
   A12        1.98517  -0.00001   0.00005  -0.00037  -0.00002   1.98516
   A13        2.11991   0.00010  -0.00007   0.00457   0.00445   2.12436
   A14        2.17745   0.00011  -0.00005   0.00414   0.00404   2.18149
   A15        1.86073  -0.00007   0.00018  -0.00077  -0.00065   1.86008
   A16        3.09908   0.00044   0.00086   0.12273   0.12370   3.22278
   A17        3.10269  -0.00002  -0.00005  -0.00734  -0.00739   3.09529
   A18        3.13705   0.00008   0.00026   0.00216   0.00230   3.13934
   A19        3.12933  -0.00009  -0.00018  -0.01802  -0.01823   3.11110
   A20        3.22841  -0.00034  -0.00077  -0.11194  -0.11257   3.11584
   A21        3.07572   0.00013   0.00021   0.03064   0.03083   3.10655
   A22        3.06295   0.00011   0.00019   0.00263   0.00294   3.06589
   A23        3.19761   0.00002   0.00047   0.03432   0.03475   3.23236
    D1       -2.17556   0.00015   0.00019   0.01880   0.01904  -2.15652
    D2        1.55882   0.00006  -0.00027   0.00460   0.00437   1.56319
    D3        1.55404  -0.00006   0.00031  -0.00702  -0.00674   1.54730
    D4       -0.99476  -0.00015  -0.00015  -0.02122  -0.02141  -1.01618
    D5        1.86278  -0.00005   0.00013  -0.01416  -0.01404   1.84873
    D6       -0.41217   0.00000  -0.00005  -0.00091  -0.00092  -0.41309
    D7       -1.93165  -0.00001  -0.00006   0.00099   0.00089  -1.93076
    D8        2.07658   0.00005  -0.00023   0.01424   0.01402   2.09060
    D9        1.94975   0.00001  -0.00009   0.00396   0.00371   1.95346
   D10       -2.03615   0.00009   0.00012   0.00201   0.00229  -2.03386
   D11       -0.63536  -0.00009  -0.00004  -0.00285  -0.00306  -0.63842
   D12        1.66193  -0.00000   0.00017  -0.00480  -0.00448   1.65745
   D13        2.09762   0.00002  -0.00020  -0.02245  -0.02243   2.07519
   D14       -0.48267  -0.00004   0.00009   0.02636   0.02665  -0.45603
   D15       -1.89014   0.00004  -0.00003  -0.03135  -0.03158  -1.92172
   D16        1.81275  -0.00003   0.00025   0.01747   0.01750   1.83025
         Item               Value     Threshold  Converged?
 Maximum Force            0.000634     0.000450     NO 
 RMS     Force            0.000170     0.000300     YES
 Maximum Displacement     0.395365     0.001800     NO 
 RMS     Displacement     0.111161     0.001200     NO 
 Predicted change in Energy=-6.131090D-05
 GradGradGradGradGradGradGradGradGradGradGradGradGradGradGradGradGradGrad

                          Input orientation:                          
 ---------------------------------------------------------------------
 Center     Atomic      Atomic             Coordinates (Angstroms)
 Number     Number       Type             X           Y           Z
 ---------------------------------------------------------------------
      1          1           0        3.764397   -0.660733   -1.268545
      2          1           0       -1.627740   -0.545003    0.128194
      3          1           0       -0.042564   -0.331908    0.715557
      4          8           0        1.256588   -0.927842    0.814274
      5          1           0       -1.046250    0.993461    0.326579
      6          1           0       -1.409916    3.198847    0.516715
      7          8           0       -1.058159    2.526999   -0.073294
      8          1           0       -1.163717    2.865013   -0.966104
      9          1           0        2.034812   -0.606794    0.307185
     10          8           0        3.283856   -0.061869   -0.691683
     11          1           0        3.903239    0.635492   -0.463656
     12          8           0       -1.008323    0.046736    0.642580
     13          1           0       -3.329228   -1.968672   -0.201637
     14          8           0       -2.554969   -1.586008   -0.622842
     15          1           0        1.570980   -1.240499    1.665556
     16          1           0       -2.251557   -2.226028   -1.271668
 ---------------------------------------------------------------------
                    Distance matrix (angstroms):
                    1          2          3          4          5
     1  H    0.000000
     2  H    5.571302   0.000000
     3  H    4.305547   1.703875   0.000000
     4  O    3.270869   2.989419   1.432718   0.000000
     5  H    5.331332   1.656611   1.707423   3.038473   0.000000
     6  H    6.697539   3.770254   3.791493   4.922231   2.243242
     7  O    5.903160   3.130850   3.134815   4.252265   1.584860
     8  H    6.067014   3.611235   3.782230   4.838737   2.277616
     9  H    2.340363   3.667443   2.134905   0.982773   3.471906
    10  O    0.960380   5.002938   3.621921   2.669762   4.571695
    11  H    1.532098   5.686439   4.230339   3.328946   5.024944
    12  O    5.189582   0.999213   1.039897   2.471660   0.998791
    13  H    7.291674   2.242919   3.784496   4.810937   3.776934
    14  O    6.419303   1.583509   3.110669   4.126313   3.135489
    15  H    3.708929   3.616491   2.081240   0.959831   3.692334
    16  H    6.216257   2.274776   3.523692   4.282934   3.791077
                    6          7          8          9         10
     6  H    0.000000
     7  O    0.960845   0.000000
     8  H    1.539744   0.960472   0.000000
     9  H    5.137408   4.419490   4.889304   0.000000
    10  O    5.841574   5.092910   5.331308   1.689613   0.000000
    11  H    5.980095   5.324064   5.558531   2.372445   0.960179
    12  O    3.180083   2.581989   3.248800   3.130537   4.496093
    13  H    5.559051   5.038382   5.351482   5.557566   6.899922
    14  O    5.050206   4.411266   4.676002   4.784339   6.034867
    15  H    5.469312   4.912231   5.591013   1.569042   3.143197
    16  H    5.773729   5.044955   5.214927   4.846406   5.971663
                   11         12         13         14         15
    11  H    0.000000
    12  O    5.068909   0.000000
    13  H    7.691483   3.187660   0.000000
    14  O    6.831461   2.580554   0.960897   0.000000
    15  H    3.673189   3.058800   5.294212   4.730708   0.000000
    16  H    6.835400   3.221092   1.540316   0.960552   4.920400
                   16
    16  H    0.000000
 Stoichiometry    H11O5(1+)
 Framework group  C1[X(H11O5)]
 Deg. of freedom    42
 Full point group                 C1      NOp   1
 Largest Abelian subgroup         C1      NOp   1
 Largest concise Abelian subgroup C1      NOp   1
                         Standard orientation:                         
 ---------------------------------------------------------------------
 Center     Atomic      Atomic             Coordinates (Angstroms)
 Number     Number       Type             X           Y           Z
 ---------------------------------------------------------------------
      1          1           0        3.779905   -0.684935   -1.224932
      2          1           0       -1.624354   -0.543949    0.121739
      3          1           0       -0.044320   -0.322251    0.719677
      4          8           0        1.253510   -0.917193    0.839522
      5          1           0       -1.043633    0.997206    0.300514
      6          1           0       -1.407516    3.205555    0.451905
      7          8           0       -1.050973    2.524118   -0.124066
      8          1           0       -1.148369    2.847775   -1.023102
      9          1           0        2.036421   -0.604749    0.334278
     10          8           0        3.294653   -0.076616   -0.662075
     11          1           0        3.912446    0.624003   -0.439795
     12          8           0       -1.009141    0.055669    0.632030
     13          1           0       -3.323785   -1.971860   -0.200272
     14          8           0       -2.545560   -1.596424   -0.620674
     15          1           0        1.560117   -1.216273    1.698486
     16          1           0       -2.236817   -2.246959   -1.256395
 ---------------------------------------------------------------------
 Rotational constants (GHZ):           2.2237889           1.1607276           0.8653635
 Standard basis: Aug-CC-pVDZ (5D, 7F)
 There are   224 symmetry adapted cartesian basis functions of A   symmetry.
 There are   214 symmetry adapted basis functions of A   symmetry.
   214 basis functions,   336 primitive gaussians,   224 cartesian basis functions
    25 alpha electrons       25 beta electrons
       nuclear repulsion energy       204.4884130364 Hartrees.
 NAtoms=   16 NActive=   16 NUniq=   16 SFac= 1.00D+00 NAtFMM=   60 NAOKFM=F Big=F
 Integral buffers will be    131072 words long.
 Raffenetti 2 integral format.
 Two-electron integral symmetry is turned on.
 Nuclear repulsion after empirical dispersion term =      204.4841333951 Hartrees.
 One-electron integrals computed using PRISM.
 NBasis=   214 RedAO= T EigKep=  8.59D-04  NBF=   214
 NBsUse=   214 1.00D-06 EigRej= -1.00D+00 NBFU=   214
 Initial guess from the checkpoint file:  "/gscratch/scrubbed/gds001/Gau-11522.chk"
 B after Tr=    -0.000000   -0.000000    0.000000
         Rot=    0.999941    0.009744    0.004884   -0.000188 Ang=   1.25 deg.
 ExpMin= 2.97D-02 ExpMax= 1.17D+04 ExpMxC= 4.01D+02 IAcc=3 IRadAn=         5 AccDes= 0.00D+00
 Harris functional with IExCor= 4639 and IRadAn=       5 diagonalized for initial guess.
 HarFok:  IExCor= 4639 AccDes= 0.00D+00 IRadAn=         5 IDoV= 1 UseB2=F ITyADJ=14
 ICtDFT=  3500011 ScaDFX=  1.000000  1.000000  1.000000  1.000000
 FoFCou: FMM=F IPFlag=           0 FMFlag=      100000 FMFlg1=           0
         NFxFlg=           0 DoJE=T BraDBF=F KetDBF=T FulRan=T
         wScrn=  0.000000 ICntrl=       500 IOpCl=  0 I1Cent=   200000004 NGrid=           0
         NMat0=    1 NMatS0=      1 NMatT0=    0 NMatD0=    1 NMtDS0=    0 NMtDT0=    0
 Petite list used in FoFCou.
 Requested convergence on RMS density matrix=1.00D-08 within 128 cycles.
 Requested convergence on MAX density matrix=1.00D-06.
 Requested convergence on             energy=1.00D-06.
 No special actions if energy rises.
 SCF Done:  E(RwB97XD) =  -382.521088288     A.U. after   10 cycles
            NFock= 10  Conv=0.50D-08     -V/T= 2.0058
 Calling FoFJK, ICntrl=      2127 FMM=F ISym2X=0 I1Cent= 0 IOpClX= 0 NMat=1 NMatS=1 NMatT=0.
 ***** Axes restored to original set *****
 -------------------------------------------------------------------
 Center     Atomic                   Forces (Hartrees/Bohr)
 Number     Number              X              Y              Z
 -------------------------------------------------------------------
      1        1           0.000501870   -0.001029338   -0.000890828
      2        1           0.001265787   -0.003867993   -0.000338897
      3        1           0.000473397   -0.000288321   -0.001014787
      4        8          -0.000510193   -0.000554872    0.001032115
      5        1           0.000545317    0.001971776   -0.000050869
      6        1          -0.000403088    0.000900142    0.001001294
      7        8           0.000261044   -0.000924534    0.000208994
      8        1           0.000005791    0.000376452   -0.001342935
      9        1           0.000911576    0.000610827   -0.001550560
     10        8          -0.000934744   -0.000104718    0.000431134
     11        1           0.000724533    0.001188360    0.000497243
     12        8          -0.002017776    0.001892899    0.001241680
     13        1          -0.001201153   -0.000341414    0.000407184
     14        8          -0.000391754    0.001322538    0.000337091
     15        1           0.000291008   -0.000594689    0.001013270
     16        1           0.000478385   -0.000557113   -0.000981130
 -------------------------------------------------------------------
 Cartesian Forces:  Max     0.003867993 RMS     0.001056692

 GradGradGradGradGradGradGradGradGradGradGradGradGradGradGradGradGradGrad
 Berny optimization.
 Using GEDIIS/GDIIS optimizer.
 FormGI is forming the generalized inverse of G from B-inverse, IUseBI=4.
 Internal  Forces:  Max     0.002436763 RMS     0.000893330
 Search for a local minimum.
 Step number   3 out of a maximum of   64
 All quantities printed in internal units (Hartrees-Bohrs-Radians)
 Mixed Optimization -- En-DIIS/RFO-DIIS
 Swapping is turned off.
 Update second derivatives using D2CorX and points    1    2    3
 DE=  2.70D-04 DEPred=-6.13D-05 R=-4.40D+00
 Trust test=-4.40D+00 RLast= 1.87D-01 DXMaxT set to 1.50D-01
 ITU= -1  1  0
     Eigenvalues ---    0.00228   0.00230   0.00230   0.00230   0.00230
     Eigenvalues ---    0.00230   0.00231   0.00335   0.00358   0.00703
     Eigenvalues ---    0.00821   0.01099   0.01128   0.01439   0.01546
     Eigenvalues ---    0.01881   0.02125   0.06833   0.08434   0.09261
     Eigenvalues ---    0.12511   0.13216   0.13701   0.13834   0.15582
     Eigenvalues ---    0.16000   0.16000   0.16000   0.16000   0.16033
     Eigenvalues ---    0.16042   0.32126   0.46458   0.46884   0.49824
     Eigenvalues ---    0.54522   0.54673   0.54718   0.54761   0.54775
     Eigenvalues ---    0.54842   0.54974
 En-DIIS/RFO-DIIS/Sim-DIIS IScMMF=       -3 using points:     3    2
 RFO step:  Lambda=-5.53388918D-04.
 DidBck=T Rises=T En-DIIS coefs:    0.32522    0.67478
 Iteration  1 RMS(Cart)=  0.09419816 RMS(Int)=  0.00331019
 Iteration  2 RMS(Cart)=  0.00641262 RMS(Int)=  0.00002686
 Iteration  3 RMS(Cart)=  0.00003646 RMS(Int)=  0.00002361
 Iteration  4 RMS(Cart)=  0.00000000 RMS(Int)=  0.00002361
 Variable       Old X    -DE/DX   Delta X   Delta X   Delta X     New X
                                 (Linear)    (Quad)   (Total)
    R1        1.81485   0.00143   0.00152   0.00046   0.00198   1.81683
    R2        1.88824   0.00225   0.00312   0.00060   0.00372   1.89196
    R3        2.99240   0.00048   0.00432   0.00005   0.00437   2.99677
    R4        2.70744   0.00113  -0.00046   0.00381   0.00335   2.71079
    R5        1.96512   0.00160   0.00562  -0.00072   0.00490   1.97002
    R6        1.85717   0.00195   0.00243   0.00051   0.00294   1.86012
    R7        1.81382   0.00119   0.00132   0.00029   0.00161   1.81542
    R8        2.99495   0.00037   0.00495  -0.00069   0.00426   2.99921
    R9        1.88744   0.00224   0.00304   0.00064   0.00367   1.89112
   R10        1.81573   0.00139   0.00152   0.00042   0.00194   1.81767
   R11        1.81503   0.00138   0.00149   0.00042   0.00192   1.81695
   R12        3.19291   0.00021   0.00468  -0.00098   0.00370   3.19661
   R13        1.81448   0.00145   0.00150   0.00046   0.00196   1.81644
   R14        1.81583   0.00128   0.00149   0.00042   0.00191   1.81774
   R15        1.81518   0.00118   0.00145   0.00041   0.00186   1.81704
    A1        2.14911  -0.00018  -0.00332   0.00256  -0.00074   2.14837
    A2        2.08704   0.00012  -0.00463   0.00341  -0.00118   2.08586
    A3        1.88038   0.00020   0.00253   0.00020   0.00276   1.88314
    A4        2.12281  -0.00006  -0.00225   0.00171  -0.00054   2.12227
    A5        2.18449  -0.00004  -0.00165   0.00140  -0.00026   2.18423
    A6        1.85927   0.00021   0.00151   0.00090   0.00241   1.86168
    A7        2.12220  -0.00009  -0.00116   0.00102  -0.00013   2.12207
    A8        1.84706   0.00035   0.00214   0.00084   0.00298   1.85004
    A9        2.17816  -0.00015  -0.00083   0.00072  -0.00011   2.17806
   A10        1.97818  -0.00063  -0.00071   0.00042  -0.00025   1.97792
   A11        1.95511   0.00076   0.00143   0.00069   0.00207   1.95717
   A12        1.98516  -0.00014   0.00001   0.00011   0.00012   1.98528
   A13        2.12436   0.00007  -0.00300   0.00129  -0.00175   2.12261
   A14        2.18149  -0.00034  -0.00272   0.00094  -0.00182   2.17967
   A15        1.86008  -0.00009   0.00044   0.00037   0.00076   1.86084
   A16        3.22278  -0.00244  -0.08347  -0.02711  -0.11057   3.11221
   A17        3.09529   0.00036   0.00499   0.00714   0.01212   3.10741
   A18        3.13934   0.00026  -0.00155   0.00650   0.00498   3.14432
   A19        3.11110   0.00027   0.01230  -0.00159   0.01072   3.12182
   A20        3.11584   0.00187   0.07596   0.01557   0.09153   3.20737
   A21        3.10655  -0.00050  -0.02080   0.00052  -0.02025   3.08630
   A22        3.06589   0.00011  -0.00198   0.00658   0.00458   3.07046
   A23        3.23236  -0.00065  -0.02345  -0.00028  -0.02371   3.20865
    D1       -2.15652   0.00005  -0.01285   0.00740  -0.00547  -2.16199
    D2        1.56319  -0.00003  -0.00295   0.00118  -0.00179   1.56140
    D3        1.54730   0.00002   0.00455  -0.00298   0.00160   1.54889
    D4       -1.01618  -0.00006   0.01445  -0.00919   0.00528  -1.01090
    D5        1.84873   0.00023   0.00948  -0.00173   0.00778   1.85651
    D6       -0.41309  -0.00037   0.00062  -0.00435  -0.00379  -0.41688
    D7       -1.93076   0.00042  -0.00060   0.00608   0.00553  -1.92523
    D8        2.09060  -0.00018  -0.00946   0.00346  -0.00604   2.08456
    D9        1.95346   0.00021  -0.00250   0.00133  -0.00114   1.95232
   D10       -2.03386  -0.00006  -0.00155   0.00279   0.00121  -2.03265
   D11       -0.63842   0.00004   0.00206  -0.00367  -0.00157  -0.63998
   D12        1.65745  -0.00023   0.00302  -0.00220   0.00079   1.65823
   D13        2.07519   0.00026   0.01514   0.00949   0.02464   2.09983
   D14       -0.45603  -0.00019  -0.01798  -0.01007  -0.02805  -0.48408
   D15       -1.92172   0.00020   0.02131   0.00941   0.03072  -1.89100
   D16        1.83025  -0.00024  -0.01181  -0.01015  -0.02198   1.80827
         Item               Value     Threshold  Converged?
 Maximum Force            0.002437     0.000450     NO 
 RMS     Force            0.000893     0.000300     NO 
 Maximum Displacement     0.333605     0.001800     NO 
 RMS     Displacement     0.096481     0.001200     NO 
 Predicted change in Energy=-2.835573D-04
 GradGradGradGradGradGradGradGradGradGradGradGradGradGradGradGradGradGrad

                          Input orientation:                          
 ---------------------------------------------------------------------
 Center     Atomic      Atomic             Coordinates (Angstroms)
 Number     Number       Type             X           Y           Z
 ---------------------------------------------------------------------
      1          1           0        3.856079   -0.640223   -1.233775
      2          1           0       -1.589758   -0.612167    0.144749
      3          1           0        0.003039   -0.358005    0.705216
      4          8           0        1.315835   -0.925289    0.817099
      5          1           0       -1.037260    0.944597    0.318512
      6          1           0       -1.459530    3.143518    0.492451
      7          8           0       -1.100617    2.474678   -0.098336
      8          1           0       -1.230595    2.799444   -0.993930
      9          1           0        2.088824   -0.596698    0.303853
     10          8           0        3.354791   -0.042613   -0.671714
     11          1           0        3.957583    0.668288   -0.436771
     12          8           0       -0.974048    0.000094    0.643153
     13          1           0       -3.425376   -1.864367   -0.174512
     14          8           0       -2.643218   -1.520719   -0.616553
     15          1           0        1.633793   -1.216817    1.675483
     16          1           0       -2.428093   -2.142530   -1.317712
 ---------------------------------------------------------------------
                    Distance matrix (angstroms):
                    1          2          3          4          5
     1  H    0.000000
     2  H    5.617674   0.000000
     3  H    4.322645   1.707549   0.000000
     4  O    3.277223   2.998762   1.434491   0.000000
     5  H    5.372710   1.661012   1.711296   3.046657   0.000000
     6  H    6.749241   3.773993   3.800663   4.935913   2.245845
     7  O    5.963277   3.134798   3.144494   4.270484   1.587112
     8  H    6.145168   3.614509   3.791890   4.861869   2.280425
     9  H    2.342944   3.682054   2.137421   0.984331   3.485428
    10  O    0.961426   5.043766   3.637259   2.674514   4.609257
    11  H    1.535487   5.722825   4.242149   3.330242   5.059175
    12  O    5.221398   1.001184   1.042490   2.475915   1.000736
    13  H    7.459233   2.244867   3.846697   4.933989   3.719738
    14  O    6.587648   1.585821   3.178311   4.252529   3.087269
    15  H    3.706049   3.619396   2.082867   0.960681   3.694267
    16  H    6.461795   2.276755   3.631415   4.478403   3.760585
                    6          7          8          9         10
     6  H    0.000000
     7  O    0.961870   0.000000
     8  H    1.542766   0.961486   0.000000
     9  H    5.159031   4.446082   4.923064   0.000000
    10  O    5.889347   5.149387   5.404339   1.691571   0.000000
    11  H    6.027880   5.381725   5.636439   2.375073   0.961216
    12  O    3.184260   2.586385   3.253031   3.138865   4.524329
    13  H    5.421097   4.923172   5.219160   5.678224   7.038229
    14  O    4.938230   4.314090   4.560891   4.908481   6.177699
    15  H    5.475466   4.924486   5.608996   1.572568   3.138459
    16  H    5.670724   4.956580   5.095287   5.041985   6.186172
                   11         12         13         14         15
    11  H    0.000000
    12  O    5.092514   0.000000
    13  H    7.809687   3.186503   0.000000
    14  O    6.956627   2.585704   0.961907   0.000000
    15  H    3.662682   3.057354   5.425587   4.861956   0.000000
    16  H    7.032327   3.248089   1.542353   0.961536   5.129823
                   16
    16  H    0.000000
 Stoichiometry    H11O5(1+)
 Framework group  C1[X(H11O5)]
 Deg. of freedom    42
 Full point group                 C1      NOp   1
 Largest Abelian subgroup         C1      NOp   1
 Largest concise Abelian subgroup C1      NOp   1
                         Standard orientation:                         
 ---------------------------------------------------------------------
 Center     Atomic      Atomic             Coordinates (Angstroms)
 Number     Number       Type             X           Y           Z
 ---------------------------------------------------------------------
      1          1           0        3.855853   -0.637971   -1.237788
      2          1           0       -1.589385   -0.612976    0.143161
      3          1           0        0.003605   -0.359269    0.703285
      4          8           0        1.316567   -0.926438    0.813798
      5          1           0       -1.037133    0.943657    0.318863
      6          1           0       -1.459782    3.142244    0.496069
      7          8           0       -1.100989    2.474308   -0.095811
      8          1           0       -1.231427    2.800301   -0.990892
      9          1           0        2.089263   -0.596967    0.300674
     10          8           0        3.354688   -0.041253   -0.674670
     11          1           0        3.957436    0.669443   -0.438995
     12          8           0       -0.973583   -0.001286    0.642152
     13          1           0       -3.424884   -1.865108   -0.177052
     14          8           0       -2.642991   -1.520679   -0.618954
     15          1           0        1.634962   -1.219103    1.671633
     16          1           0       -2.428045   -2.141462   -1.321078
 ---------------------------------------------------------------------
 Rotational constants (GHZ):           2.3202992           1.1083449           0.8483577
 Standard basis: Aug-CC-pVDZ (5D, 7F)
 There are   224 symmetry adapted cartesian basis functions of A   symmetry.
 There are   214 symmetry adapted basis functions of A   symmetry.
   214 basis functions,   336 primitive gaussians,   224 cartesian basis functions
    25 alpha electrons       25 beta electrons
       nuclear repulsion energy       203.7122372576 Hartrees.
 NAtoms=   16 NActive=   16 NUniq=   16 SFac= 1.00D+00 NAtFMM=   60 NAOKFM=F Big=F
 Integral buffers will be    131072 words long.
 Raffenetti 2 integral format.
 Two-electron integral symmetry is turned on.
 Nuclear repulsion after empirical dispersion term =      203.7079873456 Hartrees.
 One-electron integrals computed using PRISM.
 NBasis=   214 RedAO= T EigKep=  9.09D-04  NBF=   214
 NBsUse=   214 1.00D-06 EigRej= -1.00D+00 NBFU=   214
 Initial guess from the checkpoint file:  "/gscratch/scrubbed/gds001/Gau-11522.chk"
 B after Tr=     0.000000   -0.000000    0.000000
         Rot=    0.999951   -0.008757   -0.004666   -0.000682 Ang=  -1.14 deg.
 ExpMin= 2.97D-02 ExpMax= 1.17D+04 ExpMxC= 4.01D+02 IAcc=3 IRadAn=         5 AccDes= 0.00D+00
 Harris functional with IExCor= 4639 and IRadAn=       5 diagonalized for initial guess.
 HarFok:  IExCor= 4639 AccDes= 0.00D+00 IRadAn=         5 IDoV= 1 UseB2=F ITyADJ=14
 ICtDFT=  3500011 ScaDFX=  1.000000  1.000000  1.000000  1.000000
 FoFCou: FMM=F IPFlag=           0 FMFlag=      100000 FMFlg1=           0
         NFxFlg=           0 DoJE=T BraDBF=F KetDBF=T FulRan=T
         wScrn=  0.000000 ICntrl=       500 IOpCl=  0 I1Cent=   200000004 NGrid=           0
         NMat0=    1 NMatS0=      1 NMatT0=    0 NMatD0=    1 NMtDS0=    0 NMtDT0=    0
 Petite list used in FoFCou.
 Requested convergence on RMS density matrix=1.00D-08 within 128 cycles.
 Requested convergence on MAX density matrix=1.00D-06.
 Requested convergence on             energy=1.00D-06.
 No special actions if energy rises.
 SCF Done:  E(RwB97XD) =  -382.521375756     A.U. after   10 cycles
            NFock= 10  Conv=0.30D-08     -V/T= 2.0059
 Calling FoFJK, ICntrl=      2127 FMM=F ISym2X=0 I1Cent= 0 IOpClX= 0 NMat=1 NMatS=1 NMatT=0.
 ***** Axes restored to original set *****
 -------------------------------------------------------------------
 Center     Atomic                   Forces (Hartrees/Bohr)
 Number     Number              X              Y              Z
 -------------------------------------------------------------------
      1        1           0.000132597   -0.000131389   -0.000181341
      2        1          -0.000267702   -0.000182955   -0.000368481
      3        1          -0.000494005    0.000369716   -0.000131147
      4        8          -0.000074384    0.000012429    0.000330786
      5        1          -0.000045769    0.000499520   -0.000198635
      6        1          -0.000030761    0.000233766    0.000106102
      7        8          -0.000018500   -0.000400902    0.000135647
      8        1           0.000021664    0.000134042   -0.000203640
      9        1           0.000274939    0.000031951   -0.000275013
     10        8          -0.000235286   -0.000122744    0.000170806
     11        1           0.000139749    0.000214140    0.000049675
     12        8           0.000384220   -0.000424161    0.000404972
     13        1          -0.000251191   -0.000096668    0.000038563
     14        8           0.000230648    0.000200489    0.000272440
     15        1           0.000220098   -0.000195861    0.000058644
     16        1           0.000013683   -0.000141373   -0.000209377
 -------------------------------------------------------------------
 Cartesian Forces:  Max     0.000499520 RMS     0.000233899

 GradGradGradGradGradGradGradGradGradGradGradGradGradGradGradGradGradGrad
 Berny optimization.
 Using GEDIIS/GDIIS optimizer.
 FormGI is forming the generalized inverse of G from B-inverse, IUseBI=4.
 Internal  Forces:  Max     0.000507097 RMS     0.000166749
 Search for a local minimum.
 Step number   4 out of a maximum of   64
 All quantities printed in internal units (Hartrees-Bohrs-Radians)
 Mixed Optimization -- En-DIIS/RFO-DIIS
 Swapping is turned off.
 Update second derivatives using D2CorX and points    1    2    3    4
 DE= -2.87D-04 DEPred=-2.84D-04 R= 1.01D+00
 TightC=F SS=  1.41D+00  RLast= 1.58D-01 DXNew= 2.5227D-01 4.7527D-01
 Trust test= 1.01D+00 RLast= 1.58D-01 DXMaxT set to 2.52D-01
 ITU=  1 -1  1  0
     Eigenvalues ---    0.00221   0.00230   0.00230   0.00230   0.00230
     Eigenvalues ---    0.00230   0.00271   0.00316   0.00381   0.00680
     Eigenvalues ---    0.00806   0.00997   0.01116   0.01396   0.01556
     Eigenvalues ---    0.01878   0.02391   0.07137   0.08605   0.09267
     Eigenvalues ---    0.11380   0.13251   0.13620   0.14247   0.15705
     Eigenvalues ---    0.16000   0.16000   0.16000   0.16004   0.16023
     Eigenvalues ---    0.16052   0.36868   0.46860   0.48095   0.50667
     Eigenvalues ---    0.54672   0.54701   0.54761   0.54762   0.54804
     Eigenvalues ---    0.54961   0.58968
 En-DIIS/RFO-DIIS/Sim-DIIS IScMMF=       -3 using points:     4    3    2
 RFO step:  Lambda=-5.06275833D-05.
 DidBck=T Rises=F RFO-DIIS coefs:   -0.41040    0.16297    1.24743
 Iteration  1 RMS(Cart)=  0.01504278 RMS(Int)=  0.00005077
 Iteration  2 RMS(Cart)=  0.00009069 RMS(Int)=  0.00002089
 Iteration  3 RMS(Cart)=  0.00000000 RMS(Int)=  0.00002089
 Variable       Old X    -DE/DX   Delta X   Delta X   Delta X     New X
                                 (Linear)    (Quad)   (Total)
    R1        1.81683   0.00026   0.00002   0.00005   0.00007   1.81690
    R2        1.89196   0.00044   0.00052  -0.00056  -0.00004   1.89192
    R3        2.99677  -0.00002   0.00183  -0.00269  -0.00085   2.99591
    R4        2.71079   0.00051  -0.00558   0.00857   0.00299   2.71379
    R5        1.97002  -0.00010   0.00347  -0.00495  -0.00147   1.96855
    R6        1.86012   0.00037   0.00034  -0.00035  -0.00001   1.86011
    R7        1.81542   0.00018   0.00017  -0.00018  -0.00001   1.81541
    R8        2.99921  -0.00004   0.00314  -0.00452  -0.00138   2.99783
    R9        1.89112   0.00050   0.00043  -0.00041   0.00003   1.89114
   R10        1.81767   0.00024   0.00007  -0.00003   0.00004   1.81771
   R11        1.81695   0.00023   0.00006  -0.00002   0.00004   1.81699
   R12        3.19661  -0.00001   0.00343  -0.00483  -0.00139   3.19521
   R13        1.81644   0.00026   0.00001   0.00007   0.00007   1.81651
   R14        1.81774   0.00026   0.00007  -0.00002   0.00005   1.81779
   R15        1.81704   0.00025   0.00006  -0.00001   0.00005   1.81709
    A1        2.14837   0.00009  -0.00510   0.00760   0.00254   2.15091
    A2        2.08586   0.00017  -0.00689   0.01028   0.00344   2.08930
    A3        1.88314  -0.00019   0.00080  -0.00095  -0.00013   1.88301
    A4        2.12227   0.00009  -0.00340   0.00511   0.00173   2.12400
    A5        2.18423   0.00004  -0.00269   0.00406   0.00137   2.18561
    A6        1.86168  -0.00008  -0.00062   0.00100   0.00039   1.86207
    A7        2.12207   0.00006  -0.00195   0.00307   0.00113   2.12319
    A8        1.85004   0.00000  -0.00026   0.00063   0.00038   1.85042
    A9        2.17806  -0.00000  -0.00138   0.00220   0.00082   2.17888
   A10        1.97792   0.00004  -0.00095   0.00138   0.00044   1.97836
   A11        1.95717  -0.00001  -0.00028   0.00039   0.00009   1.95726
[...]
   zz         0.400640D+02      0.593688D+01      0.660567D+01

 ----------------------------------------------------------------------

 Dipole orientation:
     1          7.57999608          1.61302522         -0.94655359
     1         -2.96528206          1.18083568          0.43077801
     1         -0.50698705          0.12836101         -1.37157206
     8          1.69676352          0.86588817         -2.80193477
     1         -1.98213814         -1.78781134          0.77113341
     1         -2.65892120         -5.75956870          2.12355090
     8         -1.71588890         -4.24227261          2.46003463
     1         -1.27183396         -4.28082191          4.22164092
     1          3.45130543          0.60209791         -2.24428081
     8          6.42912349          0.22017239         -1.13975990
     1          7.46100565         -1.24807122         -1.42304142
     8         -2.15620098         -0.31397591         -0.40369298
     1         -6.11477107          3.88775745          1.31493627
     8         -4.41327485          3.43100442          1.76383257
     1          1.67513513          0.82787851         -4.61664957
     1         -3.63767911          4.92146609          2.45627703

 Electric dipole moment (dipole orientation):
 (Debye = 10**-18 statcoulomb cm , SI units = C m)
                  (au)            (Debye)         (10**-30 SI)
   Tot        0.438888D+00      0.111554D+01      0.372104D+01
   x          0.000000D+00      0.000000D+00      0.000000D+00
   y          0.000000D+00      0.000000D+00      0.000000D+00
   z          0.438888D+00      0.111554D+01      0.372104D+01

 Dipole polarizability, Alpha (dipole orientation).
 (esu units = cm**3 , SI units = C**2 m**2 J**-1)
 Alpha(0;0):
               (au)            (10**-24 esu)      (10**-40 SI)
   iso        0.442762D+02      0.656105D+01      0.730015D+01
   aniso      0.684495D+01      0.101432D+01      0.112858D+01
   xx         0.469855D+02      0.696253D+01      0.774686D+01
   yx        -0.122558D+01     -0.181612D+00     -0.202071D+00
   yy         0.444316D+02      0.658408D+01      0.732578D+01
   zx        -0.215564D+01     -0.319433D+00     -0.355417D+00
   zy        -0.129738D+01     -0.192251D+00     -0.213909D+00
   zz         0.414114D+02      0.613653D+01      0.682782D+01

 ----------------------------------------------------------------------
 1\1\GINC-N2131\Freq\RwB97XD\Aug-CC-pVDZ\H11O5(1+)\GDS001\26-Apr-2023\0
 \\#N Geom=AllCheck Guess=TCheck SCRF=Check GenChk RwB97XD/Aug-CC-pVDZ 
 Freq\\blah\\1,1\H,3.8772540569,-0.723141522,-1.2299874225\H,-1.5869277
 68,-0.6075640105,0.1312148904\H,-0.0053296381,-0.3240631307,0.70593086
 52\O,1.3238421821,-0.8731161174,0.8364971866\H,-1.0648157658,0.9615697
 84,0.3214213292\H,-1.5173538166,3.15528518,0.5231046942\O,-1.160792782
 7,2.491142323,-0.0745523704\H,-1.2607262672,2.8377739524,-0.9658961311
 \H,2.1004282791,-0.5855852916,0.3046576792\O,3.3874780185,-0.102222950
 8,-0.6829967089\H,3.998536301,0.611414168,-0.4789399615\O,-0.984908730
 5,0.0140932652,0.6363227645\H,-3.3976508424,-1.8996564599,-0.185419109
 8\O,-2.6212257269,-1.5371999777,-0.6228495241\H,1.645348173,-1.1773194
 685,1.689032731\H,-2.4117076723,-2.1302187435,-1.3503289119\\Version=E
 S64L-G16RevA.03\State=1-A\HF=-382.5214036\RMSD=2.491e-09\RMSF=7.026e-0
 6\ZeroPoint=0.1338336\Thermal=0.148143\Dipole=-0.1512704,0.1473477,-0.
 3847443\DipoleDeriv=0.2460824,-0.010742,0.0397926,-0.0186747,0.3094949
 ,-0.0003443,0.0331447,-0.0054612,0.3298286,0.713982,0.466225,0.2551618
 ,0.4889486,0.6540608,0.263269,0.3064544,0.3008314,0.447449,1.5135604,-
 0.4327517,0.1879196,-0.4778884,0.3564441,-0.0662849,0.1719112,-0.05450
 57,0.2816429,-1.174898,0.0835201,0.1341821,0.0998895,-0.6265936,0.0609
 985,0.1506482,0.0405411,-0.5793113,0.2362492,-0.1174767,-0.0032094,-0.
 163692,1.2534115,-0.1956089,0.0111357,-0.2430671,0.3077687,0.3384011,0
 .0284449,-0.0007552,0.0307895,0.271691,0.0332945,-0.0040312,0.051779,0
 .318681,-0.5475844,-0.026972,-0.002036,0.0015593,-0.8308258,0.0558082,
 -0.0107865,0.072043,-0.4972979,0.3430533,0.0371851,-0.0104862,0.035003
 9,0.2533013,0.0100331,-0.0075288,-0.0077514,0.3222859,0.7263491,0.1497
 551,-0.3547482,0.2056173,0.3108428,-0.0985728,-0.4273723,-0.0799001,0.
 4883988,-0.6373099,-0.0310773,0.0820055,-0.0569703,-0.52951,0.0824348,
 0.1185765,0.0760695,-0.6425003,0.2465615,-0.0209225,0.032872,-0.012989
 4,0.3240319,-0.0170007,0.0389623,-0.0112764,0.3108188,-1.1718586,0.058
 9645,-0.2001067,0.0637716,-1.05257,-0.0064509,-0.2253025,0.0053349,-0.
 4804228,0.338534,-0.0351888,-0.0060413,-0.0447114,0.2812948,-0.0318145
 ,-0.0206894,-0.0398452,0.3113046,-0.6906526,-0.1171042,-0.1268975,-0.1
 150757,-0.6096037,-0.055921,-0.1511945,-0.0781333,-0.5831184,0.2267658
 ,0.0160454,-0.023463,0.0046857,0.3517759,-0.0078045,0.0050448,-0.00936
 97,0.3210483,0.2927646,-0.0479048,-0.00419,-0.0402636,0.282754,-0.0260
 358,0.0110275,-0.0172889,0.343424\Polar=47.7919171,0.5551631,44.972515
 7,-0.0839498,-0.093886,40.0640359\Quadrupole=12.8915234,-0.1923558,-12
 .6991675,0.6982279,0.390613,0.938722\PG=C01 [X(H11O5)]\NImag=0\\0.1641
 8575,-0.15433111,0.25825945,-0.15342078,0.20801047,0.18220266,-0.00003
 365,0.00015518,0.00012362,0.16309966,0.00005036,0.00020033,0.00013392,
 0.10214919,0.17638735,0.00008963,0.00010482,0.00013744,0.09690975,0.09
 196650,0.11650410,0.00012817,0.00045563,0.00068608,-0.01495130,-0.0107
 2174,-0.00513413,0.20211892,-0.00002439,-0.00017040,-0.00013708,-0.014
 03183,0.02158267,0.00755926,-0.04217651,0.09123033,0.00013683,0.000084
 58,0.00012453,-0.01274580,0.00719551,-0.00196967,0.00958781,-0.0041254
 9,0.05202731,-0.00116384,-0.00307687,0.00002290,0.00297630,0.00815459,
 0.00438752,0.01147084,-0.00616030,0.01213919,0.47551116,-0.00147718,-0
 .00214453,0.00096903,-0.00050071,-0.00479676,-0.00213626,-0.00516549,-
 0.01510343,0.00511207,0.02117396,0.12188402,0.00092724,0.00159897,-0.0
 0012120,0.00042147,-0.00011932,-0.00008808,0.00427539,0.00822931,-0.02
 697651,-0.02160780,-0.24161720,0.60625055,-0.00001205,0.00004303,0.000
 04191,0.00893480,-0.01530000,0.01467456,0.01191818,0.02473283,-0.00843
 852,-0.00411247,-0.00088319,0.00090666,0.06321725,0.00007143,0.0000290
 2,-0.00011623,-0.00767185,-0.01584657,-0.00067981,0.02029029,-0.003994
 91,0.00301598,-0.01002530,0.00169390,-0.00016016,-0.01751452,0.3200028
 6,0.00003272,-0.00002600,0.00006309,0.01083397,-0.01559482,0.01057427,
 -0.00307322,-0.00117695,-0.00331187,0.00257858,-0.00074354,-0.00004595
 ,0.01875737,-0.08813111,0.07326928,-0.00000407,0.00003087,0.00002060,0
 .00042164,0.00028455,-0.00007886,0.00025882,-0.00008116,0.00029878,-0.
 00010746,-0.00017643,-0.00008310,-0.00085233,0.00098978,-0.00120941,0.
 07583759,0.00001394,-0.00000575,-0.00000240,0.00013032,-0.00018040,0.0
 0008208,0.00020061,-0.00023333,0.00013408,-0.00019773,0.00010360,0.000
 02125,0.00241902,0.00155013,-0.00593581,-0.14075438,0.27299903,0.00001
 814,-0.00001623,0.00001282,-0.00035923,-0.00030142,-0.00024515,0.00096
 522,-0.00022661,0.00029904,-0.00040451,0.00009935,-0.00020235,-0.00066
 959,-0.00676631,0.00526093,-0.12091166,0.21482337,0.25483871,0.0000169
 0,-0.00009441,-0.00005039,-0.00157528,0.00016484,-0.00106790,-0.001148
 89,-0.00055846,0.00015703,0.00043200,0.00042849,-0.00011572,-0.0062730
 1,-0.00188751,0.00304346,-0.07693718,0.14407681,0.10414019,0.09284176,
 -0.00005177,-0.00000255,0.00004480,0.00467327,0.00238360,0.00388218,-0
 .00924717,0.00044787,-0.00045274,0.00424940,-0.00075328,0.00002033,-0.
 00424580,0.00032369,-0.00581590,0.14284537,-0.28211338,-0.17954087,-0.
 18222837,0.43195580,-0.00004551,0.00002793,-0.00007082,-0.00230248,0.0
 0030899,-0.00228517,0.00232166,0.00010913,-0.00012889,-0.00126163,0.00
 038123,0.00041493,0.00364787,-0.00768442,-0.01810554,0.12778008,-0.227
 14515,-0.23454505,-0.07104278,0.03082159,0.71514157,-0.00002393,0.0000
 6867,0.00000433,0.00027430,0.00004790,0.00007474,0.00062189,-0.0002857
 5,-0.00017830,-0.00035364,-0.00007083,0.00017458,-0.00135032,-0.001080
 52,0.00016918,0.00136933,-0.00554992,0.01749257,-0.01360158,0.03936246
 ,-0.05863091,0.01277189,0.00003624,-0.00000411,0.00001663,0.00075279,-
 0.00036405,0.00106661,-0.00047325,-0.00021965,0.00015631,0.00017859,-0
 .00002273,-0.00012659,0.00004704,0.00816773,0.00394366,-0.00216054,0.0
 1057918,-0.03304732,0.03449945,-0.11443013,0.19000001,-0.03282715,0.10
 189687,0.00002858,-0.00000606,0.00005974,0.00054621,0.00051953,0.00057
 050,-0.00091708,0.00028697,-0.00001371,0.00052595,-0.00023091,-0.00012
 098,-0.00103294,0.00608867,-0.00083721,-0.00641068,0.01620397,-0.02337
 025,-0.03399349,0.14247557,-0.46648922,0.04094841,-0.16133824,0.489926
 23,0.00124781,0.00420166,0.00046324,-0.00128333,-0.00096044,-0.0007760
 9,-0.00721302,-0.00131760,0.00133671,-0.29620832,-0.09336276,0.1746103
 4,-0.00086283,0.00204893,-0.00042209,0.00001130,0.00012300,0.00005674,
 0.00005557,-0.00099773,0.00033203,0.00012470,0.00007275,-0.00019909,0.
 28300769,0.00430369,0.00420743,-0.00218977,-0.00026974,-0.00074534,-0.
 00021009,-0.00833158,0.00585099,-0.00646490,-0.07732385,-0.05358586,0.
 07892799,0.00085872,0.00177134,-0.00043256,0.00009699,0.00001597,0.000
 00006,-0.00041789,-0.00070027,0.00026024,0.00022233,-0.00004663,-0.000
 03741,0.08512007,0.06322678,-0.00085419,-0.00188548,-0.00103758,0.0012
 2252,0.00129947,0.00127107,0.01277799,-0.00884959,0.00445001,0.1294690
 2,0.07445145,-0.15223830,-0.00046277,-0.00237903,0.00090553,0.00003010
 ,-0.00007260,0.00001265,0.00011180,0.00103769,-0.00062473,-0.00023310,
 0.00011446,0.00025215,-0.15636994,-0.07513030,0.17077263,-0.17621076,0
 .13065104,0.14367162,0.00079537,0.00071097,0.00043827,0.00437851,-0.00
 200688,0.00088973,-0.01504603,-0.00552137,0.01337994,0.00015886,-0.001
 15793,0.00016733,0.00002329,-0.00008664,-0.00008597,-0.00015668,0.0006
 1240,-0.00007122,0.00006612,-0.00008870,0.00007232,0.00087285,0.000056
 78,-0.00208990,0.43827168,0.17552157,-0.24019091,-0.20259433,0.0001033
 2,0.00001351,0.00004923,0.00252064,-0.00146016,0.00074600,-0.00663920,
 0.00440873,0.00531468,-0.00019254,-0.00104143,0.00027059,-0.00011166,-
 0.00001022,0.00002432,0.00036067,0.00043984,-0.00019273,-0.00026384,-0
 .00000182,0.00003131,0.00122006,-0.01215517,-0.00459229,0.09304293,0.5
 5287709,0.17209986,-0.18762926,-0.17607568,-0.00057572,-0.00062444,-0.
 00058817,-0.00445721,0.00210283,-0.00122837,0.01357408,0.00432444,-0.0
 0368502,0.00000066,0.00099902,-0.00042604,-0.00004775,0.00002486,-0.00
 004843,0.00001211,-0.00041343,0.00038495,0.00014123,-0.00007184,-0.000
 21155,-0.00239602,-0.00369494,-0.00794537,-0.11750528,0.28812461,0.229
 70735,0.01221330,0.02249847,0.00859322,-0.00011364,-0.00011586,-0.0000
 5396,0.00008606,-0.00024384,0.00009047,-0.00060788,0.00016919,0.001555
 75,-0.00012324,-0.00017564,0.00005726,-0.00006003,0.00002583,0.0000312
 4,0.00021937,0.00003569,-0.00005092,-0.00012686,0.00002357,-0.00001448
 ,0.00048168,-0.00105439,-0.00369131,-0.24753673,-0.26378261,-0.0637818
 3,0.23591592,-0.02391354,-0.02039796,-0.00395280,-0.00005338,-0.000001
 81,-0.00000645,-0.00084093,0.00043331,-0.00006781,0.00166680,0.0002107
 8,-0.00102546,0.00001508,0.00046759,-0.00008404,0.00007808,0.00002208,
 -0.00000098,-0.00017206,-0.00024820,0.00004509,0.00011208,0.00004042,0
 .00000649,-0.00258833,-0.00107926,0.00195227,-0.21714634,-0.30379091,-
 0.10178415,0.24255150,0.32477899,-0.01901382,-0.02020464,-0.00493036,-
 0.00000545,-0.00000088,0.00003332,-0.00023024,0.00019118,-0.00006741,0
 .00282129,-0.00012799,-0.00299814,0.00002415,0.00004560,0.00007782,0.0
 0003627,0.00000854,0.00005520,-0.00000163,-0.00003780,-0.00012876,-0.0
 0006562,0.00002025,0.00006601,-0.00346848,0.00148991,0.00509832,-0.037
 89163,-0.08640819,-0.04190272,0.05705196,0.10473819,0.04468313,-0.0000
 4306,-0.00033877,-0.00040744,-0.15415101,-0.09381502,-0.11931229,-0.22
 131900,0.04723133,0.00544840,-0.05699850,0.02143845,-0.00851723,-0.067
 96217,0.01232843,-0.02803419,0.00018353,-0.00039140,-0.00037360,0.0056
 3753,0.00664025,-0.00147854,0.00027723,0.00018955,0.00069527,0.0025750
 5,0.00688275,-0.00812228,-0.00279197,-0.00147714,0.00265010,-0.0000053
 5,0.00046923,0.00017835,0.51733339,-0.00003104,-0.00001419,0.00007914,
 -0.09488975,-0.17906375,-0.10732738,0.04934471,-0.09209368,-0.00752501
 ,0.02510312,0.00316212,0.00050459,0.01128885,-0.31679395,0.11511659,-0
 .00103983,-0.00270211,0.00472116,0.00575374,-0.03577089,0.01268896,0.0
 0020207,-0.00548551,-0.00379385,-0.00007239,-0.00337097,0.00455028,0.0
 0116533,0.00112850,-0.00116743,0.00021688,-0.00040602,-0.00011325,0.02
 274110,0.64540642,-0.00010235,-0.00006889,-0.00015538,-0.10391639,-0.0
 9035050,-0.11578608,-0.01285661,-0.00188383,-0.02366386,-0.01313072,0.
 00267170,0.00967576,-0.02513765,0.09241676,-0.06510505,0.00062151,0.00
 184527,-0.00229176,-0.00155742,0.00958428,0.00580900,0.00018577,-0.000
 45825,0.00040595,0.00042509,0.00241651,-0.00258183,-0.00062324,-0.0004
 2119,0.00094153,-0.00003368,0.00008184,-0.00003271,0.16939356,-0.00163
 904,0.19676188,-0.00002944,-0.00000759,0.00000715,-0.00264112,-0.00124
 158,0.00204246,-0.00032427,-0.00002609,-0.00002917,0.00033773,0.000120
 51,-0.00002873,0.00013326,-0.00069751,-0.00007558,0.00006753,-0.000007
 52,-0.00003639,-0.00010525,0.00030684,-0.00001367,0.00003697,-0.000043
 96,0.00000972,-0.00018388,-0.00008991,0.00013139,0.00011703,0.00006328
 ,-0.00005557,-0.00001342,-0.00002594,-0.00000634,0.00017574,0.00009380
 ,-0.00053052,0.36051908,-0.00000512,0.00001515,-0.00000695,0.00056898,
 0.00091689,0.00483767,-0.00013222,-0.00002631,-0.00025350,0.00002484,-
 0.00008730,0.00005614,-0.00033450,0.00046918,0.00004045,-0.00011969,-0
 .00010666,-0.00000299,0.00027784,-0.00003980,0.00000456,-0.00010038,-0
 .00004803,0.00003397,0.00001290,0.00002095,-0.00002116,0.00000679,-0.0
 0003020,0.00001715,-0.00000855,0.00001355,-0.00000254,-0.00115331,-0.0
 0139333,-0.00185440,0.16105824,0.09845784,0.00001964,-0.00000404,0.000
 01683,0.00184192,0.00474622,0.00760343,0.00063657,-0.00031317,0.000206
 86,-0.00023892,0.00016795,-0.00017804,-0.00018468,0.00036880,-0.000195
 90,-0.00003895,-0.00002076,0.00009524,0.00001568,-0.00021909,-0.000079
 26,0.00004798,0.00004517,0.00003679,0.00001553,0.00001944,0.00001747,-
 0.00003901,-0.00000104,-0.00003137,0.00001009,0.00000172,0.00001657,-0
 .00272494,-0.00362131,-0.00355412,-0.20562308,-0.06772259,0.14467086,0
 .00008554,-0.00003122,-0.00004842,-0.01121579,0.00623092,0.00721814,0.
 00418104,-0.00155328,0.00041951,-0.00227127,0.00044436,-0.00014830,-0.
 00236127,0.00431542,-0.00263704,-0.00024172,-0.00005711,0.00017132,0.0
 0069685,-0.00179555,0.00064994,-0.00020562,-0.00016417,-0.00019343,0.0
 0077292,0.00037808,-0.00062334,-0.00049743,-0.00018070,0.00028057,0.00
 005742,0.00007379,0.00001907,-0.01080644,-0.01865785,-0.01205958,-0.35
 126002,-0.18532280,0.17725001,0.43418356,-0.00001509,-0.00011622,-0.00
 003712,0.00510946,0.00009253,0.00090147,0.00520302,-0.00442954,-0.0003
 2399,-0.00250404,0.00155622,-0.00004673,-0.00096366,0.00291008,-0.0013
 4688,0.00000702,0.00015040,0.00021882,-0.00012055,-0.00153763,0.000333
 36,0.00019717,0.00010167,-0.00020539,0.00034647,0.00014834,-0.00045081
 ,-0.00027497,0.00007347,0.00019231,0.00006076,-0.00002716,0.00000668,-
 0.02053362,-0.01256307,-0.01176860,-0.15130861,-0.10729514,0.05009365,
 0.13413419,0.34517097,-0.00006350,-0.00005158,-0.00010915,0.00921266,0
 .00336084,-0.01311309,0.00355455,-0.00287861,-0.00056082,-0.00217958,0
 .00065834,0.00039766,-0.00183797,0.00298239,-0.00236680,0.00001694,0.0
 0005237,0.00001637,0.00021253,-0.00134282,0.00092098,-0.00007755,-0.00
 039134,-0.00039899,0.00050459,0.00024760,-0.00074356,-0.00024961,-0.00
 006482,0.00039420,0.00001715,0.00001487,-0.00003564,-0.01497306,-0.012
 19033,-0.00094040,0.20393207,0.08104367,-0.13490551,-0.27758566,0.1919
 0328,0.46043271,-0.00025769,-0.00017208,0.00032403,0.00014866,0.000521
 07,0.00004228,0.00852917,-0.00214601,-0.00867048,-0.11336031,0.0628263
 4,-0.16604155,-0.00022028,-0.00014548,0.00013514,-0.00000625,0.0000369
 8,-0.00005168,0.00000260,0.00004259,0.00004677,0.00001791,0.00000879,-
 0.00001289,0.01671899,-0.01034664,0.02885034,-0.00253886,-0.00030175,-
 0.00001853,-0.00038163,-0.00017856,0.00057083,-0.00662841,0.00205660,0
 .00109172,-0.00008540,0.00001987,-0.00009944,0.00000411,-0.00019341,0.
 00011226,0.09808199,-0.00013385,0.00028905,-0.00020364,0.00062675,0.00
 047835,-0.00008934,-0.00069925,-0.00162578,0.00313740,0.04534295,-0.05
 637538,0.14834172,-0.00004053,0.00013050,0.00020682,0.00011078,-0.0000
 3861,0.00006232,-0.00013419,-0.00000948,-0.00015510,0.00002335,0.00000
 770,0.00005438,0.00618519,-0.00361525,0.01002669,-0.00000880,-0.000203
 15,-0.00044056,-0.00018312,-0.00002956,0.00040720,0.00112823,-0.000019
 50,-0.00037255,-0.00005725,0.00005886,-0.00005963,-0.00008852,-0.00028
 673,0.00002641,-0.05203911,0.06115360,0.00012333,0.00005789,-0.0001815
 8,-0.00031358,-0.00046331,-0.00025493,-0.00754927,0.00128498,0.0009145
 4,-0.12719965,0.15587311,-0.42996626,-0.00015215,0.00069543,-0.0000194
 7,-0.00000257,0.00001251,0.00010852,0.00008580,-0.00033188,-0.00002614
 ,-0.00003618,0.00001982,-0.00001262,-0.01385545,0.00490803,-0.01789278
 ,-0.00016532,-0.00033835,0.00089654,0.00021879,0.00009411,0.00004559,0
 .00486138,-0.00108021,0.00002772,-0.00005324,-0.00000169,0.00008326,0.
 00030045,0.00014985,0.00008328,0.14380710,-0.16088658,0.44622973,-0.00
 009897,-0.00005251,-0.00003167,0.00931438,0.00384026,0.00054589,0.0012
 6488,-0.00135205,-0.00044219,-0.00049829,0.00055667,0.00029106,-0.0002
 3239,0.00031200,-0.00032347,0.00003600,0.00001817,0.00001720,-0.000104
 71,-0.00020190,0.00011929,0.00010160,-0.00005100,-0.00005239,-0.000117
 18,-0.00008541,-0.00014631,0.00009473,0.00011697,0.00007927,-0.0000049
 9,-0.00004747,-0.00001870,-0.00547657,-0.00327536,-0.00176948,-0.00674
 454,0.02520712,0.02911160,-0.06112189,0.03085588,0.07940419,-0.0000246
 0,-0.00003262,-0.00006946,0.06361255,-0.00001414,0.00004617,-0.0000136
 7,0.00314800,-0.00105656,-0.00000051,-0.00022675,-0.00018799,-0.000368
 50,0.00003304,-0.00015011,0.00008046,0.00007017,0.00016083,-0.00029049
 ,0.00000025,-0.00002994,-0.00004666,0.00005161,0.00005482,0.00019632,-
 0.00005764,-0.00017092,-0.00008899,-0.00003180,0.00005693,-0.00005105,
 0.00004540,-0.00005716,0.00004083,-0.00001787,0.00001417,-0.00001225,-
 0.00134007,-0.00002008,-0.00019913,-0.00813668,0.00907435,0.01651870,0
 .06227443,-0.22394822,-0.26337028,0.00001081,0.00008539,0.00000629,-0.
 05580876,0.21612833,0.00002419,0.00000754,0.00006466,-0.00089348,-0.00
 207628,-0.00236379,-0.00058750,-0.00017232,-0.00010118,0.00050428,0.00
 014722,-0.00011808,-0.00013692,-0.00069559,0.00026291,-0.00002129,-0.0
 0003158,0.00000351,0.00005072,0.00028809,-0.00018786,-0.00001711,0.000
 05066,0.00013716,-0.00025712,-0.00010981,0.00028432,0.00010198,0.00005
 219,-0.00018184,0.00000025,-0.00001290,0.00001980,0.00071648,0.0007970
 9,0.00048938,0.00032950,-0.01616779,-0.01380311,0.10698678,-0.22961990
 ,-0.30907123,-0.00008592,-0.00005555,-0.00003538,-0.10671483,0.2475989
 3,0.32460073\\-0.00000045,-0.00000463,-0.00000179,-0.00001423,0.000005
 31,-0.00000451,-0.00001720,0.00000976,0.00001026,-0.00000174,-0.000004
 58,-0.00000990,-0.00000537,0.00000263,0.00000539,-0.00000151,0.0000040
 7,0.00000104,0.00000016,-0.00000429,-0.00000320,-0.00000013,0.00000406
 ,-0.00000399,0.00001049,-0.00000243,-0.00000132,-0.00000053,0.00000456
 ,0.00000271,0.00000271,0.00000237,-0.00000115,0.00002757,-0.00001605,-
 0.00000148,-0.00000433,-0.00000218,0.00000304,-0.00000095,0.00000335,0
 .00000136,0.00000264,0.00000109,0.00000770,0.00000287,-0.00000305,-0.0
 0000416\\\@


 JUST WHEN YOU THINK YOU'VE GOT THE WORLD ON A STRING,
 YOU FIND OUT IT'S YOUR LEASH.
 Job cpu time:       0 days  0 hours 28 minutes 47.8 seconds.
 Elapsed time:       0 days  0 hours  1 minutes  2.6 seconds.
 File lengths (MBytes):  RWF=    380 Int=      0 D2E=      0 Chk=     12 Scr=      8
 Normal termination of Gaussian 16 at Wed Apr 26 17:25:09 2023.
