 Entering Gaussian System, Link 0=g16
 Input=h5o2p.gjf
 Output=h5o2p.log
 Initial command:
 /sw/contrib/gaussian/g16/A03/g16/l1.exe "/gscratch/scrubbed/gds001/Gau-19014.inp" -scrdir="/gscratch/scrubbed/gds001/"
 Entering Link 1 = /sw/contrib/gaussian/g16/A03/g16/l1.exe PID=     19015.
  
 Copyright (c) 1988,1990,1992,1993,1995,1998,2003,2009,2016,
            Gaussian, Inc.  All Rights Reserved.
  
 This is part of the Gaussian(R) 16 program.  It is based on
 the Gaussian(R) 09 system (copyright 2009, Gaussian, Inc.),
 the Gaussian(R) 03 system (copyright 2003, Gaussian, Inc.),
 the Gaussian(R) 98 system (copyright 1998, Gaussian, Inc.),
 the Gaussian(R) 94 system (copyright 1995, Gaussian, Inc.),
 the Gaussian 92(TM) system (copyright 1992, Gaussian, Inc.),
 the Gaussian 90(TM) system (copyright 1990, Gaussian, Inc.),
 the Gaussian 88(TM) system (copyright 1988, Gaussian, Inc.),
 the Gaussian 86(TM) system (copyright 1986, Carnegie Mellon
 University), and the Gaussian 82(TM) system (copyright 1983,
 Carnegie Mellon University). Gaussian is a federally registered
 trademark of Gaussian, Inc.
  
 This software contains proprietary and confidential information,
 including trade secrets, belonging to Gaussian, Inc.
  
 This software is provided under written license and may be
 used, copied, transmitted, or stored only in accord with that
 written license.
  
 The following legend is applicable only to US Government
 contracts under FAR:
  
                    RESTRICTED RIGHTS LEGEND
  
 Use, reproduction and disclosure by the US Government is
 subject to restrictions as set forth in subparagraphs (a)
 and (c) of the Commercial Computer Software - Restricted
 Rights clause in FAR 52.227-19.
  
 Gaussian, Inc.
 340 Quinnipiac St., Bldg. 40, Wallingford CT 06492
  
  
 ---------------------------------------------------------------
 Warning -- This program may not be used in any manner that
 competes with the business of Gaussian, Inc. or will provide
 assistance to any competitor of Gaussian, Inc.  The licensee
 of this program is prohibited from giving any competitor of
 Gaussian, Inc. access to this program.  By using this program,
 the user acknowledges that Gaussian, Inc. is engaged in the
 business of creating and licensing software in the field of
 computational chemistry and represents and warrants to the
 licensee that it is not a competitor of Gaussian, Inc. and that
 it will not use this program in any manner prohibited above.
 ---------------------------------------------------------------
  

 Cite this work as:
 Gaussian 16, Revision A.03,
 M. J. Frisch, G. W. Trucks, H. B. Schlegel, G. E. Scuseria, 
 M. A. Robb, J. R. Cheeseman, G. Scalmani, V. Barone, 
 G. A. Petersson, H. Nakatsuji, X. Li, M. Caricato, A. V. Marenich, 
 J. Bloino, B. G. Janesko, R. Gomperts, B. Mennucci, H. P. Hratchian, 
 J. V. Ortiz, A. F. Izmaylov, J. L. Sonnenberg, D. Williams-Young, 
 F. Ding, F. Lipparini, F. Egidi, J. Goings, B. Peng, A. Petrone, 
 T. Henderson, D. Ranasinghe, V. G. Zakrzewski, J. Gao, N. Rega, 
 G. Zheng, W. Liang, M. Hada, M. Ehara, K. Toyota, R. Fukuda, 
 J. Hasegawa, M. Ishida, T. Nakajima, Y. Honda, O. Kitao, H. Nakai, 
 T. Vreven, K. Throssell, J. A. Montgomery, Jr., J. E. Peralta, 
 F. Ogliaro, M. J. Bearpark, J. J. Heyd, E. N. Brothers, K. N. Kudin, 
 V. N. Staroverov, T. A. Keith, R. Kobayashi, J. Normand, 
 K. Raghavachari, A. P. Rendell, J. C. Burant, S. S. Iyengar, 
 J. Tomasi, M. Cossi, J. M. Millam, M. Klene, C. Adamo, R. Cammi, 
 J. W. Ochterski, R. L. Martin, K. Morokuma, O. Farkas, 
 J. B. Foresman, and D. J. Fox, Gaussian, Inc., Wallingford CT, 2016.
 
 ******************************************
 Gaussian 16:  ES64L-G16RevA.03 25-Dec-2016
                13-Feb-2023 
 ******************************************
 %nprocshared=28
 Will use up to   28 processors via shared memory.
 %mem=41GB
 -----------------------------
 # wB97XD/aug-cc-pVDZ opt freq
 -----------------------------
 1/18=20,19=15,26=3,38=1/1,3;
 2/9=110,12=2,17=6,18=5,40=1/2;
 3/5=16,7=10,11=2,25=1,30=1,71=1,74=-58/1,2,3;
 4//1;
 5/5=2,38=5/2;
 6/7=2,8=2,9=2,10=2,28=1/1;
 7//1,2,3,16;
 1/18=20,19=15,26=3/3(2);
 2/9=110/2;
 99//99;
 2/9=110/2;
 3/5=16,7=10,11=2,25=1,30=1,71=1,74=-58/1,2,3;
 4/5=5,16=3,69=1/1;
 5/5=2,38=5/2;
 7//1,2,3,16;
 1/18=20,19=15,26=3/3(-5);
 2/9=110/2;
 6/7=2,8=2,9=2,10=2,19=2,28=1/1;
 99/9=1/99;
 ----
 blah
 ----
 Symbolic Z-matrix:
 Charge =  1 Multiplicity = 1
 O                    -2.81344   1.38798   0.06354 
 H                    -1.80277   1.42176  -0.02902 
 H                    -3.0137    1.18115   1.00798 
 O                    -0.33353   1.61312   0.02933 
 H                     0.32826   0.92238  -0.21271 
 H                     0.29488   2.35439   0.19395 
 H                    -3.16452   2.27615  -0.18733 
 
 Add virtual bond connecting atoms O4         and H2         Dist= 2.80D+00.

 GradGradGradGradGradGradGradGradGradGradGradGradGradGradGradGradGradGrad
 Berny optimization.
 Initialization pass.
                           ----------------------------
                           !    Initial Parameters    !
                           ! (Angstroms and Degrees)  !
 --------------------------                            --------------------------
 ! Name  Definition              Value          Derivative Info.                !
 --------------------------------------------------------------------------------
 ! R1    R(1,2)                  1.0155         estimate D2E/DX2                !
 ! R2    R(1,3)                  0.9873         estimate D2E/DX2                !
 ! R3    R(1,7)                  0.9874         estimate D2E/DX2                !
 ! R4    R(2,4)                  1.4828         estimate D2E/DX2                !
 ! R5    R(4,5)                  0.9867         estimate D2E/DX2                !
 ! R6    R(4,6)                  0.9856         estimate D2E/DX2                !
 ! A1    A(2,1,3)              107.2195         estimate D2E/DX2                !
 ! A2    A(2,1,7)              107.5052         estimate D2E/DX2                !
 ! A3    A(3,1,7)              111.0587         estimate D2E/DX2                !
 ! A4    A(2,4,5)              124.3708         estimate D2E/DX2                !
 ! A5    A(2,4,6)              137.3379         estimate D2E/DX2                !
 ! A6    A(5,4,6)               98.0388         estimate D2E/DX2                !
 ! A7    L(1,2,4,3,-1)         173.369          estimate D2E/DX2                !
 ! A8    L(1,2,4,3,-2)         190.3529         estimate D2E/DX2                !
 ! D1    D(3,1,4,5)             96.0776         estimate D2E/DX2                !
 ! D2    D(3,1,4,6)            -86.9531         estimate D2E/DX2                !
 ! D3    D(7,1,4,5)           -147.1101         estimate D2E/DX2                !
 ! D4    D(7,1,4,6)             29.8592         estimate D2E/DX2                !
 --------------------------------------------------------------------------------
 Trust Radius=3.00D-01 FncErr=1.00D-07 GrdErr=1.00D-06 EigMax=2.50D+02 EigMin=1.00D-04
 Number of steps in this run=     28 maximum allowed number of steps=    100.
 GradGradGradGradGradGradGradGradGradGradGradGradGradGradGradGradGradGrad

                          Input orientation:                          
 ---------------------------------------------------------------------
 Center     Atomic      Atomic             Coordinates (Angstroms)
 Number     Number       Type             X           Y           Z
 ---------------------------------------------------------------------
      1          8           0       -2.813441    1.387981    0.063539
      2          1           0       -1.802775    1.421758   -0.029025
      3          1           0       -3.013703    1.181150    1.007983
      4          8           0       -0.333525    1.613118    0.029333
      5          1           0        0.328255    0.922376   -0.212705
      6          1           0        0.294880    2.354395    0.193952
      7          1           0       -3.164525    2.276155   -0.187329
 ---------------------------------------------------------------------
                    Distance matrix (angstroms):
                    1          2          3          4          5
     1  O    0.000000
     2  H    1.015458   0.000000
     3  H    0.987349   1.612335   0.000000
     4  O    2.490349   1.482808   2.885776   0.000000
     5  H    3.188002   2.196454   3.567314   0.986742   0.000000
     6  H    3.257702   2.306445   3.603591   0.985639   1.489014
     7  H    0.987445   1.615369   1.628052   2.915667   3.746047
                    6          7
     6  H    0.000000
     7  H    3.481232   0.000000
 Stoichiometry    H5O2(1+)
 Framework group  C1[X(H5O2)]
 Deg. of freedom    15
 Full point group                 C1      NOp   1
 Largest Abelian subgroup         C1      NOp   1
 Largest concise Abelian subgroup C1      NOp   1
                         Standard orientation:                         
 ---------------------------------------------------------------------
 Center     Atomic      Atomic             Coordinates (Angstroms)
 Number     Number       Type             X           Y           Z
 ---------------------------------------------------------------------
      1          8           0       -1.268706   -0.058370   -0.077137
      2          1           0       -0.254640   -0.072926   -0.128258
      3          1           0       -1.522145   -0.422200    0.805050
      4          8           0        1.219060    0.009947    0.013374
      5          1           0        1.850648   -0.665398   -0.331105
      6          1           0        1.880608    0.666487    0.333986
      7          1           0       -1.557300    0.881427   -0.169565
 ---------------------------------------------------------------------
 Rotational constants (GHZ):         173.9349436           8.1000250           7.9838498
 Standard basis: Aug-CC-pVDZ (5D, 7F)
 There are    95 symmetry adapted cartesian basis functions of A   symmetry.
 There are    91 symmetry adapted basis functions of A   symmetry.
    91 basis functions,   141 primitive gaussians,    95 cartesian basis functions
    10 alpha electrons       10 beta electrons
       nuclear repulsion energy        45.7251313825 Hartrees.
 NAtoms=    7 NActive=    7 NUniq=    7 SFac= 1.00D+00 NAtFMM=   60 NAOKFM=F Big=F
 Integral buffers will be    131072 words long.
 Raffenetti 2 integral format.
 Two-electron integral symmetry is turned on.
 Nuclear repulsion after empirical dispersion term =       45.7240222997 Hartrees.
 One-electron integrals computed using PRISM.
 NBasis=    91 RedAO= T EigKep=  1.30D-03  NBF=    91
 NBsUse=    91 1.00D-06 EigRej= -1.00D+00 NBFU=    91
 ExpMin= 2.97D-02 ExpMax= 1.17D+04 ExpMxC= 4.01D+02 IAcc=3 IRadAn=         5 AccDes= 0.00D+00
 Harris functional with IExCor= 4639 and IRadAn=       5 diagonalized for initial guess.
 HarFok:  IExCor= 4639 AccDes= 0.00D+00 IRadAn=         5 IDoV= 1 UseB2=F ITyADJ=14
 ICtDFT=  3500011 ScaDFX=  1.000000  1.000000  1.000000  1.000000
 FoFCou: FMM=F IPFlag=           0 FMFlag=      100000 FMFlg1=           0
         NFxFlg=           0 DoJE=T BraDBF=F KetDBF=T FulRan=T
         wScrn=  0.000000 ICntrl=       500 IOpCl=  0 I1Cent=   200000004 NGrid=           0
         NMat0=    1 NMatS0=      1 NMatT0=    0 NMatD0=    1 NMtDS0=    0 NMtDT0=    0
 Petite list used in FoFCou.
 Keep R1 ints in memory in canonical form, NReq=43209221.
 Requested convergence on RMS density matrix=1.00D-08 within 128 cycles.
 Requested convergence on MAX density matrix=1.00D-06.
 Requested convergence on             energy=1.00D-06.
 No special actions if energy rises.
 SCF Done:  E(RwB97XD) =  -153.160983063     A.U. after   10 cycles
            NFock= 10  Conv=0.47D-08     -V/T= 2.0064

 **********************************************************************

            Population analysis using the SCF density.

 **********************************************************************

 Orbital symmetries:
       Occupied  (A) (A) (A) (A) (A) (A) (A) (A) (A) (A)
       Virtual   (A) (A) (A) (A) (A) (A) (A) (A) (A) (A) (A) (A)
                 (A) (A) (A) (A) (A) (A) (A) (A) (A) (A) (A) (A)
                 (A) (A) (A) (A) (A) (A) (A) (A) (A) (A) (A) (A)
                 (A) (A) (A) (A) (A) (A) (A) (A) (A) (A) (A) (A)
                 (A) (A) (A) (A) (A) (A) (A) (A) (A) (A) (A) (A)
                 (A) (A) (A) (A) (A) (A) (A) (A) (A) (A) (A) (A)
                 (A) (A) (A) (A) (A) (A) (A) (A) (A)
 The electronic state is 1-A.
 Alpha  occ. eigenvalues --  -19.63187 -19.51832  -1.48506  -1.35229  -0.95993
 Alpha  occ. eigenvalues --   -0.95165  -0.83451  -0.78767  -0.73917  -0.64495
 Alpha virt. eigenvalues --   -0.15406  -0.10486  -0.08989  -0.06552  -0.04474
 Alpha virt. eigenvalues --   -0.02099  -0.00375   0.00271   0.01317   0.02930
 Alpha virt. eigenvalues --    0.05002   0.05265   0.05810   0.07395   0.09394
 Alpha virt. eigenvalues --    0.11506   0.12586   0.14314   0.16377   0.19437
 Alpha virt. eigenvalues --    0.23656   0.25913   0.29649   0.30996   0.31806
 Alpha virt. eigenvalues --    0.33116   0.34849   0.37037   0.37844   0.39286
 Alpha virt. eigenvalues --    0.42955   0.43614   0.48195   0.52137   0.58890
 Alpha virt. eigenvalues --    0.61327   0.64225   0.66361   0.77832   0.80940
 Alpha virt. eigenvalues --    0.83750   0.86081   0.94210   0.97736   1.00398
 Alpha virt. eigenvalues --    1.06312   1.08025   1.17063   1.20988   1.24910
 Alpha virt. eigenvalues --    1.50335   1.51974   1.54541   1.61126   1.66257
 Alpha virt. eigenvalues --    1.67068   1.79185   1.86890   1.91033   1.96952
 Alpha virt. eigenvalues --    2.00588   2.02558   2.08431   2.13840   2.15555
 Alpha virt. eigenvalues --    2.34118   2.40619   2.49669   2.51480   2.60243
 Alpha virt. eigenvalues --    2.85859   3.08912   3.11355   3.16050   3.19014
 Alpha virt. eigenvalues --    3.23811   3.38428   3.47461   3.60890   3.76789
 Alpha virt. eigenvalues --    3.89333
          Condensed to atoms (all electrons):
               1          2          3          4          5          6
     1  O    7.243381   0.216055   0.328504  -0.066780   0.000374  -0.000950
     2  H    0.216055   0.359829  -0.022208   0.047967  -0.009921  -0.007132
     3  H    0.328504  -0.022208   0.426953  -0.002251  -0.000968   0.000261
     4  O   -0.066780   0.047967  -0.002251   7.731557   0.346027   0.345299
     5  H    0.000374  -0.009921  -0.000968   0.346027   0.520462  -0.058919
     6  H   -0.000950  -0.007132   0.000261   0.345299  -0.058919   0.497621
     7  H    0.339623  -0.019321  -0.033120  -0.002223  -0.000539   0.000740
               7
     1  O    0.339623
     2  H   -0.019321
     3  H   -0.033120
     4  O   -0.002223
     5  H   -0.000539
     6  H    0.000740
     7  H    0.419160
 Mulliken charges:
               1
     1  O   -0.060206
     2  H    0.434731
     3  H    0.302829
     4  O   -0.399597
     5  H    0.203484
     6  H    0.223079
     7  H    0.295680
 Sum of Mulliken charges =   1.00000
 Mulliken charges with hydrogens summed into heavy atoms:
               1
     1  O    0.973034
     4  O    0.026966
 Electronic spatial extent (au):  <R**2>=            152.7706
 Charge=              1.0000 electrons
 Dipole moment (field-independent basis, Debye):
    X=             -0.9543    Y=              0.8989    Z=              1.1767  Tot=              1.7616
 Quadrupole moment (field-independent basis, Debye-Ang):
   XX=              3.5424   YY=             -8.5685   ZZ=            -11.3375
   XY=             -1.7729   XZ=             -2.3554   YZ=             -0.1136
 Traceless Quadrupole moment (field-independent basis, Debye-Ang):
   XX=              8.9970   YY=             -3.1140   ZZ=             -5.8830
   XY=             -1.7729   XZ=             -2.3554   YZ=             -0.1136
 Octapole moment (field-independent basis, Debye-Ang**2):
  XXX=              7.2021  YYY=              1.9034  ZZZ=              1.7312  XYY=             -0.6814
  XXY=              3.3629  XXZ=              4.0570  XZZ=             -2.8207  YZZ=             -0.5574
  YYZ=              0.1651  XYZ=              4.4936
 Hexadecapole moment (field-independent basis, Debye-Ang**3):
 XXXX=            -73.2336 YYYY=            -10.1840 ZZZZ=            -11.1676 XXXY=             -5.1882
 XXXZ=             -6.6563 YYYX=             -3.2723 YYYZ=              0.0177 ZZZX=             -3.0846
 ZZZY=             -0.5773 XXYY=            -11.9727 XXZZ=            -20.1740 YYZZ=             -3.5854
 XXYZ=              0.8000 YYXZ=             -0.3189 ZZXY=              0.8080
 N-N= 4.572402229970D+01 E-N=-4.473161656080D+02  KE= 1.521933064856D+02
 Calling FoFJK, ICntrl=      2127 FMM=F ISym2X=0 I1Cent= 0 IOpClX= 0 NMat=1 NMatS=1 NMatT=0.
 ***** Axes restored to original set *****
 -------------------------------------------------------------------
 Center     Atomic                   Forces (Hartrees/Bohr)
 Number     Number              X              Y              Z
 -------------------------------------------------------------------
      1        8          -0.015020716    0.008421912    0.009532858
      2        1           0.020050232    0.003731394   -0.000564122
      3        1          -0.002596972    0.004159149   -0.012341581
      4        8           0.042653654   -0.003635884   -0.003654053
      5        1          -0.021556514    0.003825471    0.001964795
      6        1          -0.023070242   -0.003925662    0.000017297
      7        1          -0.000459442   -0.012576379    0.005044805
 -------------------------------------------------------------------
 Cartesian Forces:  Max     0.042653654 RMS     0.013871166

 GradGradGradGradGradGradGradGradGradGradGradGradGradGradGradGradGradGrad
 Berny optimization.
 FormGI is forming the generalized inverse of G from B-inverse, IUseBI=4.
 Internal  Forces:  Max     0.018321276 RMS     0.010353653
 Search for a local minimum.
 Step number   1 out of a maximum of   28
 All quantities printed in internal units (Hartrees-Bohrs-Radians)
 Mixed Optimization -- RFO/linear search
 Second derivative matrix not updated -- first step.
 The second derivative matrix:
                          R1        R2        R3        R4        R5
           R1           0.45071
           R2           0.00000   0.49984
           R3           0.00000   0.00000   0.49966
           R4           0.00000   0.00000   0.00000   0.11790
           R5           0.00000   0.00000   0.00000   0.00000   0.50097
           R6           0.00000   0.00000   0.00000   0.00000   0.00000
           A1           0.00000   0.00000   0.00000   0.00000   0.00000
           A2           0.00000   0.00000   0.00000   0.00000   0.00000
           A3           0.00000   0.00000   0.00000   0.00000   0.00000
           A4           0.00000   0.00000   0.00000   0.00000   0.00000
           A5           0.00000   0.00000   0.00000   0.00000   0.00000
           A6           0.00000   0.00000   0.00000   0.00000   0.00000
           A7           0.00000   0.00000   0.00000   0.00000   0.00000
           A8           0.00000   0.00000   0.00000   0.00000   0.00000
           D1           0.00000   0.00000   0.00000   0.00000   0.00000
           D2           0.00000   0.00000   0.00000   0.00000   0.00000
           D3           0.00000   0.00000   0.00000   0.00000   0.00000
           D4           0.00000   0.00000   0.00000   0.00000   0.00000
                          R6        A1        A2        A3        A4
           R6           0.50305
           A1           0.00000   0.16000
           A2           0.00000   0.00000   0.16000
           A3           0.00000   0.00000   0.00000   0.16000
           A4           0.00000   0.00000   0.00000   0.00000   0.16000
           A5           0.00000   0.00000   0.00000   0.00000   0.00000
           A6           0.00000   0.00000   0.00000   0.00000   0.00000
           A7           0.00000   0.00000   0.00000   0.00000   0.00000
           A8           0.00000   0.00000   0.00000   0.00000   0.00000
           D1           0.00000   0.00000   0.00000   0.00000   0.00000
           D2           0.00000   0.00000   0.00000   0.00000   0.00000
           D3           0.00000   0.00000   0.00000   0.00000   0.00000
           D4           0.00000   0.00000   0.00000   0.00000   0.00000
                          A5        A6        A7        A8        D1
           A5           0.16000
           A6           0.00000   0.16000
           A7           0.00000   0.00000   0.00230
           A8           0.00000   0.00000   0.00000   0.00230
           D1           0.00000   0.00000   0.00000   0.00000   0.00230
           D2           0.00000   0.00000   0.00000   0.00000   0.00000
           D3           0.00000   0.00000   0.00000   0.00000   0.00000
           D4           0.00000   0.00000   0.00000   0.00000   0.00000
                          D2        D3        D4
           D2           0.00230
           D3           0.00000   0.00230
           D4           0.00000   0.00000   0.00230
 ITU=  0
     Eigenvalues ---    0.00230   0.00230   0.00230   0.00269   0.06139
     Eigenvalues ---    0.11790   0.16000   0.16000   0.16000   0.16000
     Eigenvalues ---    0.45068   0.49966   0.49983   0.50097   0.50305
 RFO step:  Lambda=-8.99288291D-03 EMin= 2.30000000D-03
 Linear search not attempted -- first point.
 Maximum step size (   0.300) exceeded in Quadratic search.
    -- Step size scaled by   0.604
 Iteration  1 RMS(Cart)=  0.08773114 RMS(Int)=  0.01264961
 Iteration  2 RMS(Cart)=  0.01929620 RMS(Int)=  0.00126230
 Iteration  3 RMS(Cart)=  0.00038623 RMS(Int)=  0.00121939
 Iteration  4 RMS(Cart)=  0.00000032 RMS(Int)=  0.00121939
 Variable       Old X    -DE/DX   Delta X   Delta X   Delta X     New X
                                 (Linear)    (Quad)   (Total)
    R1        1.91894   0.01832   0.00000   0.02409   0.02410   1.94304
    R2        1.86582  -0.01230   0.00000  -0.01460  -0.01461   1.85121
    R3        1.86600  -0.01243   0.00000  -0.01476  -0.01476   1.85124
    R4        2.80210  -0.00249   0.00000  -0.01188  -0.01189   2.79021
    R5        1.86467  -0.01762   0.00000  -0.02086  -0.02086   1.84381
    R6        1.86259  -0.01766   0.00000  -0.02082  -0.02082   1.84176
    A1        1.87133   0.00775   0.00000   0.02945   0.02788   1.89921
    A2        1.87632   0.00782   0.00000   0.02955   0.02786   1.90418
    A3        1.93834  -0.00522   0.00000  -0.01432  -0.01750   1.92085
    A4        2.17068  -0.00677   0.00000  -0.02170  -0.02286   2.14782
    A5        2.39700  -0.01088   0.00000  -0.03637  -0.03753   2.35946
    A6        1.71110   0.01776   0.00000   0.06596   0.06480   1.77590
    A7        3.02586   0.00363   0.00000   0.20199   0.20157   3.22743
    A8        3.32228  -0.00355   0.00000  -0.19757  -0.19713   3.12515
    D1        1.67687  -0.00096   0.00000  -0.02231  -0.02363   1.65324
    D2       -1.51762  -0.00112   0.00000  -0.03327  -0.03459  -1.55221
    D3       -2.56756   0.00142   0.00000   0.04952   0.05084  -2.51671
    D4        0.52114   0.00127   0.00000   0.03856   0.03988   0.56102
         Item               Value     Threshold  Converged?
 Maximum Force            0.018321     0.000450     NO 
 RMS     Force            0.010354     0.000300     NO 
 Maximum Displacement     0.245526     0.001800     NO 
 RMS     Displacement     0.092000     0.001200     NO 
 Predicted change in Energy=-4.222511D-03
 GradGradGradGradGradGradGradGradGradGradGradGradGradGradGradGradGradGrad

                          Input orientation:                          
 ---------------------------------------------------------------------
 Center     Atomic      Atomic             Coordinates (Angstroms)
 Number     Number       Type             X           Y           Z
 ---------------------------------------------------------------------
      1          8           0       -2.787545    1.389556    0.072334
      2          1           0       -1.763873    1.481741    0.100902
      3          1           0       -3.108565    1.152837    0.967077
      4          8           0       -0.297338    1.630432    0.015662
      5          1           0        0.297160    0.902386   -0.246100
      6          1           0        0.333776    2.357734    0.166024
      7          1           0       -3.178449    2.242247   -0.210152
 ---------------------------------------------------------------------
                    Distance matrix (angstroms):
                    1          2          3          4          5
     1  O    0.000000
     2  H    1.028211   0.000000
     3  H    0.979620   1.632983   0.000000
     4  O    2.502471   1.476516   3.006042   0.000000
     5  H    3.139130   2.168852   3.624015   0.975703   0.000000
     6  H    3.269372   2.274145   3.734056   0.974619   1.513018
     7  H    0.979636   1.635894   1.605481   2.953999   3.725101
                    6          7
     6  H    0.000000
     7  H    3.534200   0.000000
 Stoichiometry    H5O2(1+)
 Framework group  C1[X(H5O2)]
 Deg. of freedom    15
 Full point group                 C1      NOp   1
 Largest Abelian subgroup         C1      NOp   1
 Largest concise Abelian subgroup C1      NOp   1
                         Standard orientation:                         
 ---------------------------------------------------------------------
 Center     Atomic      Atomic             Coordinates (Angstroms)
 Number     Number       Type             X           Y           Z
 ---------------------------------------------------------------------
      1          8           0       -1.264204   -0.053872   -0.077717
      2          1           0       -0.239737   -0.043671    0.009354
      3          1           0       -1.647074   -0.433218    0.740307
      4          8           0        1.235748    0.011332    0.013669
      5          1           0        1.795803   -0.694597   -0.360496
      6          1           0        1.902968    0.648540    0.327779
      7          1           0       -1.584306    0.863261   -0.204559
 ---------------------------------------------------------------------
 Rotational constants (GHZ):         180.2591820           8.0038756           7.8817303
 Standard basis: Aug-CC-pVDZ (5D, 7F)
 There are    95 symmetry adapted cartesian basis functions of A   symmetry.
 There are    91 symmetry adapted basis functions of A   symmetry.
    91 basis functions,   141 primitive gaussians,    95 cartesian basis functions
    10 alpha electrons       10 beta electrons
       nuclear repulsion energy        45.7113821061 Hartrees.
 NAtoms=    7 NActive=    7 NUniq=    7 SFac= 1.00D+00 NAtFMM=   60 NAOKFM=F Big=F
 Integral buffers will be    131072 words long.
 Raffenetti 2 integral format.
 Two-electron integral symmetry is turned on.
 Nuclear repulsion after empirical dispersion term =       45.7102942247 Hartrees.
 One-electron integrals computed using PRISM.
 NBasis=    91 RedAO= T EigKep=  1.50D-03  NBF=    91
 NBsUse=    91 1.00D-06 EigRej= -1.00D+00 NBFU=    91
 Initial guess from the checkpoint file:  "/gscratch/scrubbed/gds001/Gau-19015.chk"
 B after Tr=    -0.000000   -0.000000   -0.000000
         Rot=    0.999994   -0.001927    0.001775    0.002078 Ang=  -0.38 deg.
 ExpMin= 2.97D-02 ExpMax= 1.17D+04 ExpMxC= 4.01D+02 IAcc=3 IRadAn=         5 AccDes= 0.00D+00
 Harris functional with IExCor= 4639 and IRadAn=       5 diagonalized for initial guess.
 HarFok:  IExCor= 4639 AccDes= 0.00D+00 IRadAn=         5 IDoV= 1 UseB2=F ITyADJ=14
 ICtDFT=  3500011 ScaDFX=  1.000000  1.000000  1.000000  1.000000
 FoFCou: FMM=F IPFlag=           0 FMFlag=      100000 FMFlg1=           0
         NFxFlg=           0 DoJE=T BraDBF=F KetDBF=T FulRan=T
         wScrn=  0.000000 ICntrl=       500 IOpCl=  0 I1Cent=   200000004 NGrid=           0
         NMat0=    1 NMatS0=      1 NMatT0=    0 NMatD0=    1 NMtDS0=    0 NMtDT0=    0
 Petite list used in FoFCou.
 Keep R1 ints in memory in canonical form, NReq=43209221.
 Requested convergence on RMS density matrix=1.00D-08 within 128 cycles.
 Requested convergence on MAX density matrix=1.00D-06.
 Requested convergence on             energy=1.00D-06.
 No special actions if energy rises.
 SCF Done:  E(RwB97XD) =  -153.164674160     A.U. after   10 cycles
            NFock= 10  Conv=0.38D-08     -V/T= 2.0061
 Calling FoFJK, ICntrl=      2127 FMM=F ISym2X=0 I1Cent= 0 IOpClX= 0 NMat=1 NMatS=1 NMatT=0.
 ***** Axes restored to original set *****
 -------------------------------------------------------------------
 Center     Atomic                   Forces (Hartrees/Bohr)
 Number     Number              X              Y              Z
 -------------------------------------------------------------------
      1        8          -0.008883235    0.004877424    0.008387938
      2        1           0.016792713    0.002790776   -0.004188851
      3        1          -0.001926861    0.001399809   -0.006307357
      4        8           0.020737576   -0.004114400   -0.002179332
      5        1          -0.012255057    0.002005481    0.001296802
      6        1          -0.013876372   -0.000579310    0.001481782
      7        1          -0.000588764   -0.006379781    0.001509018
 -------------------------------------------------------------------
 Cartesian Forces:  Max     0.020737576 RMS     0.008082518

 GradGradGradGradGradGradGradGradGradGradGradGradGradGradGradGradGradGrad
 Berny optimization.
 Using GEDIIS/GDIIS optimizer.
 FormGI is forming the generalized inverse of G from B-inverse, IUseBI=4.
 Internal  Forces:  Max     0.011554806 RMS     0.006137041
 Search for a local minimum.
 Step number   2 out of a maximum of   28
 All quantities printed in internal units (Hartrees-Bohrs-Radians)
 Mixed Optimization -- RFO/linear search
 Update second derivatives using D2CorX and points    1    2
 DE= -3.69D-03 DEPred=-4.22D-03 R= 8.74D-01
 TightC=F SS=  1.41D+00  RLast= 3.09D-01 DXNew= 5.0454D-01 9.2678D-01
 Trust test= 8.74D-01 RLast= 3.09D-01 DXMaxT set to 5.05D-01
 The second derivative matrix:
                          R1        R2        R3        R4        R5
           R1           0.41639
           R2           0.01869   0.49151
           R3           0.01935  -0.00886   0.49026
           R4           0.01298  -0.01070  -0.01059   0.12008
           R5           0.02985  -0.01491  -0.01561  -0.01392   0.47600
           R6           0.02962  -0.01466  -0.01536  -0.01409  -0.02468
           A1          -0.01628   0.00980   0.01002   0.00434   0.01483
           A2          -0.01288   0.00650   0.00680   0.00587   0.01083
           A3           0.00759  -0.00360  -0.00380  -0.00391  -0.00621
           A4           0.01031  -0.00509  -0.00534  -0.00493  -0.00858
           A5           0.02063  -0.01194  -0.01226  -0.00643  -0.01845
           A6          -0.03385   0.01890   0.01951   0.01189   0.02978
           A7           0.01149  -0.01176  -0.01144   0.00640  -0.01398
           A8          -0.00449   0.00495   0.00480  -0.00321   0.00572
           D1           0.00024  -0.00016  -0.00016  -0.00004  -0.00023
           D2           0.00008   0.00003   0.00002  -0.00017  -0.00002
           D3          -0.00073   0.00055   0.00055  -0.00002   0.00075
           D4          -0.00089   0.00074   0.00073  -0.00016   0.00096
                          R6        A1        A2        A3        A4
           R6           0.47867
           A1           0.01479   0.15274
           A2           0.01070  -0.00636   0.15531
           A3          -0.00613   0.00387   0.00270   0.15847
           A4          -0.00848   0.00516   0.00372  -0.00213   0.15705
           A5          -0.01836   0.00943   0.00793  -0.00476  -0.00640
           A6           0.02959  -0.01583  -0.01283   0.00762   0.01030
           A7          -0.01429   0.00270   0.00583  -0.00412  -0.00502
           A8           0.00587  -0.00087  -0.00238   0.00171   0.00206
           D1          -0.00023   0.00010   0.00010  -0.00006  -0.00008
           D2          -0.00001   0.00007   0.00001   0.00000  -0.00000
           D3           0.00076  -0.00027  -0.00032   0.00021   0.00026
           D4           0.00097  -0.00029  -0.00040   0.00027   0.00034
                          A5        A6        A7        A8        D1
           A5           0.14787
           A6           0.02017   0.12672
           A7          -0.00483   0.00996   0.01473
           A8           0.00175  -0.00380  -0.00593   0.00511
           D1          -0.00013   0.00023   0.00000  -0.00001   0.00230
           D2          -0.00008   0.00010  -0.00024   0.00011  -0.00000
           D3           0.00038  -0.00068  -0.00021   0.00011   0.00000
           D4           0.00044  -0.00081  -0.00045   0.00023   0.00000
                          D2        D3        D4
           D2           0.00230
           D3           0.00001   0.00230
           D4           0.00001   0.00000   0.00231
 ITU=  1  0
 Use linear search instead of GDIIS.
     Eigenvalues ---    0.00217   0.00230   0.00230   0.00853   0.04839
     Eigenvalues ---    0.07522   0.12991   0.16000   0.16000   0.16124
     Eigenvalues ---    0.39793   0.47802   0.49974   0.50088   0.50224
 RFO step:  Lambda=-8.82891167D-03 EMin= 2.16929936D-03
 Quartic linear search produced a step of  0.70235.
 Maximum step size (   0.505) exceeded in Quadratic search.
    -- Step size scaled by   0.769
 Iteration  1 RMS(Cart)=  0.10458260 RMS(Int)=  0.02379579
 Iteration  2 RMS(Cart)=  0.03713010 RMS(Int)=  0.00332707
 Iteration  3 RMS(Cart)=  0.00154472 RMS(Int)=  0.00315013
 Iteration  4 RMS(Cart)=  0.00000164 RMS(Int)=  0.00315013
 Iteration  5 RMS(Cart)=  0.00000001 RMS(Int)=  0.00315013
 Variable       Old X    -DE/DX   Delta X   Delta X   Delta X     New X
                                 (Linear)    (Quad)   (Total)
    R1        1.94304   0.01127   0.01693   0.05990   0.07682   2.01985
    R2        1.85121  -0.00547  -0.01026  -0.03032  -0.04062   1.81060
    R3        1.85124  -0.00575  -0.01036  -0.03130  -0.04166   1.80958
    R4        2.79021  -0.00567  -0.00835  -0.07623  -0.08456   2.70566
    R5        1.84381  -0.00931  -0.01465  -0.04757  -0.06223   1.78159
    R6        1.84176  -0.00919  -0.01463  -0.04708  -0.06171   1.78005
    A1        1.89921   0.00590   0.01958   0.08617   0.10141   2.00062
    A2        1.90418   0.00435   0.01957   0.07302   0.08879   1.99297
    A3        1.92085  -0.00280  -0.01229  -0.02150  -0.04044   1.88041
    A4        2.14782  -0.00380  -0.01606  -0.05593  -0.07711   2.07071
    A5        2.35946  -0.00777  -0.02636  -0.10402  -0.13550   2.22396
    A6        1.77590   0.01155   0.04551   0.15890   0.19930   1.97520
    A7        3.22743  -0.00287   0.14158  -0.43162  -0.29071   2.93673
    A8        3.12515  -0.00042  -0.13846  -0.00558  -0.14281   2.98235
    D1        1.65324  -0.00096  -0.01660   0.02978   0.01056   1.66380
    D2       -1.55221  -0.00098  -0.02429   0.02864   0.00245  -1.54975
    D3       -2.51671   0.00152   0.03571   0.03399   0.07158  -2.44514
    D4        0.56102   0.00149   0.02801   0.03286   0.06347   0.62449
         Item               Value     Threshold  Converged?
 Maximum Force            0.011555     0.000450     NO 
 RMS     Force            0.006137     0.000300     NO 
 Maximum Displacement     0.255196     0.001800     NO 
 RMS     Displacement     0.132832     0.001200     NO 
 Predicted change in Energy=-6.147141D-03
 GradGradGradGradGradGradGradGradGradGradGradGradGradGradGradGradGradGrad

                          Input orientation:                          
 ---------------------------------------------------------------------
 Center     Atomic      Atomic             Coordinates (Angstroms)
 Number     Number       Type             X           Y           Z
 ---------------------------------------------------------------------
      1          8           0       -2.743230    1.423572    0.084758
      2          1           0       -1.694671    1.593422   -0.034142
      3          1           0       -3.009923    1.178364    0.971750
      4          8           0       -0.265305    1.608817    0.047378
      5          1           0        0.212041    0.848913   -0.241606
      6          1           0        0.289673    2.347485    0.230862
      7          1           0       -3.293420    2.156359   -0.193254
 ---------------------------------------------------------------------
                    Distance matrix (angstroms):
                    1          2          3          4          5
     1  O    0.000000
     2  H    1.068860   0.000000
     3  H    0.958127   1.707038   0.000000
     4  O    2.485121   1.431772   2.927915   0.000000
     5  H    3.028262   2.057397   3.458586   0.942775   0.000000
     6  H    3.173871   2.139265   3.578141   0.941964   1.573204
     7  H    0.957589   1.702414   1.547281   3.086614   3.741659
                    6          7
     6  H    0.000000
     7  H    3.613165   0.000000
 Stoichiometry    H5O2(1+)
 Framework group  C1[X(H5O2)]
 Deg. of freedom    15
 Full point group                 C1      NOp   1
 Largest Abelian subgroup         C1      NOp   1
 Largest concise Abelian subgroup C1      NOp   1
                         Standard orientation:                         
 ---------------------------------------------------------------------
 Center     Atomic      Atomic             Coordinates (Angstroms)
 Number     Number       Type             X           Y           Z
 ---------------------------------------------------------------------
      1          8           0       -1.243069   -0.055340   -0.061196
      2          1           0       -0.183926    0.076872   -0.117755
      3          1           0       -1.557518   -0.407444    0.772562
      4          8           0        1.240009    0.009574    0.015843
      5          1           0        1.694902   -0.725815   -0.359792
      6          1           0        1.819006    0.687122    0.320783
      7          1           0       -1.747986    0.735392   -0.252977
 ---------------------------------------------------------------------
 Rotational constants (GHZ):         185.1169959           8.1408895           8.0372219
 Standard basis: Aug-CC-pVDZ (5D, 7F)
 There are    95 symmetry adapted cartesian basis functions of A   symmetry.
 There are    91 symmetry adapted basis functions of A   symmetry.
    91 basis functions,   141 primitive gaussians,    95 cartesian basis functions
    10 alpha electrons       10 beta electrons
       nuclear repulsion energy        46.3112571328 Hartrees.
 NAtoms=    7 NActive=    7 NUniq=    7 SFac= 1.00D+00 NAtFMM=   60 NAOKFM=F Big=F
 Integral buffers will be    131072 words long.
 Raffenetti 2 integral format.
 Two-electron integral symmetry is turned on.
 Nuclear repulsion after empirical dispersion term =       46.3101628952 Hartrees.
 One-electron integrals computed using PRISM.
 NBasis=    91 RedAO= T EigKep=  1.55D-03  NBF=    91
 NBsUse=    91 1.00D-06 EigRej= -1.00D+00 NBFU=    91
 Initial guess from the checkpoint file:  "/gscratch/scrubbed/gds001/Gau-19015.chk"
 B after Tr=     0.000000    0.000000    0.000000
         Rot=    0.999679    0.024833   -0.002669   -0.004179 Ang=   2.90 deg.
 ExpMin= 2.97D-02 ExpMax= 1.17D+04 ExpMxC= 4.01D+02 IAcc=3 IRadAn=         5 AccDes= 0.00D+00
 Harris functional with IExCor= 4639 and IRadAn=       5 diagonalized for initial guess.
 HarFok:  IExCor= 4639 AccDes= 0.00D+00 IRadAn=         5 IDoV= 1 UseB2=F ITyADJ=14
 ICtDFT=  3500011 ScaDFX=  1.000000  1.000000  1.000000  1.000000
 FoFCou: FMM=F IPFlag=           0 FMFlag=      100000 FMFlg1=           0
         NFxFlg=           0 DoJE=T BraDBF=F KetDBF=T FulRan=T
         wScrn=  0.000000 ICntrl=       500 IOpCl=  0 I1Cent=   200000004 NGrid=           0
         NMat0=    1 NMatS0=      1 NMatT0=    0 NMatD0=    1 NMtDS0=    0 NMtDT0=    0
 Petite list used in FoFCou.
 Keep R1 ints in memory in canonical form, NReq=43209221.
 Requested convergence on RMS density matrix=1.00D-08 within 128 cycles.
 Requested convergence on MAX density matrix=1.00D-06.
 Requested convergence on             energy=1.00D-06.
 No special actions if energy rises.
 SCF Done:  E(RwB97XD) =  -153.165301652     A.U. after   10 cycles
            NFock= 10  Conv=0.60D-08     -V/T= 2.0052
 Calling FoFJK, ICntrl=      2127 FMM=F ISym2X=0 I1Cent= 0 IOpClX= 0 NMat=1 NMatS=1 NMatT=0.
 ***** Axes restored to original set *****
 -------------------------------------------------------------------
 Center     Atomic                   Forces (Hartrees/Bohr)
 Number     Number              X              Y              Z
 -------------------------------------------------------------------
      1        8           0.007144774   -0.001636477   -0.010359812
      2        1           0.007913695   -0.001901686    0.008538965
      3        1           0.000743401   -0.006243982    0.013299954
      4        8          -0.042504931   -0.001793785    0.000920453
      5        1           0.017048030   -0.013881071   -0.006716463
      6        1           0.016727851    0.014948382    0.002564579
      7        1          -0.007072821    0.010508619   -0.008247676
 -------------------------------------------------------------------
 Cartesian Forces:  Max     0.042504931 RMS     0.013082402

 GradGradGradGradGradGradGradGradGradGradGradGradGradGradGradGradGradGrad
 Berny optimization.
 Using GEDIIS/GDIIS optimizer.
 FormGI is forming the generalized inverse of G from B-inverse, IUseBI=4.
 Internal  Forces:  Max     0.022077531 RMS     0.009490200
 Search for a local minimum.
 Step number   3 out of a maximum of   28
 All quantities printed in internal units (Hartrees-Bohrs-Radians)
 Mixed Optimization -- RFO/linear search
 Update second derivatives using D2CorX and points    1    2    3
 DE= -6.27D-04 DEPred=-6.15D-03 R= 1.02D-01
 Trust test= 1.02D-01 RLast= 4.71D-01 DXMaxT set to 5.05D-01
 The second derivative matrix:
                          R1        R2        R3        R4        R5
           R1           0.40843
           R2           0.01480   0.50900
           R3           0.01473   0.00984   0.51025
           R4           0.01898  -0.01908  -0.01934   0.12216
           R5           0.02169   0.01394   0.01516  -0.02694   0.52324
           R6           0.02139   0.01437   0.01559  -0.02717   0.02285
           A1          -0.01597   0.00218   0.00180   0.00864   0.00200
           A2          -0.01790   0.00664   0.00669   0.00815   0.01007
           A3           0.00376   0.00493   0.00523  -0.00710   0.00748
           A4           0.01104   0.00111   0.00140  -0.00889   0.00206
           A5           0.02586  -0.00964  -0.00950  -0.01023  -0.01352
           A6          -0.03373   0.00533   0.00483   0.01976   0.00681
           A7          -0.00504   0.00486   0.00566   0.00445   0.01090
           A8          -0.00107   0.00406   0.00401  -0.00429   0.00489
           D1          -0.00044   0.00071   0.00074  -0.00022   0.00111
           D2           0.00069  -0.00095  -0.00101   0.00012  -0.00155
           D3          -0.00088   0.00115   0.00119  -0.00030   0.00173
           D4           0.00025  -0.00051  -0.00056   0.00003  -0.00093
                          R6        A1        A2        A3        A4
           R6           0.52649
           A1           0.00188   0.15584
           A2           0.00994  -0.00721   0.15248
           A3           0.00765  -0.00015   0.00168   0.16221
           A4           0.00223   0.00279   0.00497   0.00136   0.15874
           A5          -0.01339   0.00934   0.01121  -0.00238  -0.00696
           A6           0.00647  -0.01037  -0.01458   0.00036   0.00619
           A7           0.01071  -0.00655  -0.00131   0.00118   0.00394
           A8           0.00504   0.00002  -0.00056   0.00198   0.00098
           D1           0.00111  -0.00035  -0.00017   0.00026   0.00034
           D2          -0.00156   0.00056   0.00022  -0.00039  -0.00044
           D3           0.00174  -0.00053  -0.00032   0.00049   0.00048
           D4          -0.00093   0.00038   0.00007  -0.00015  -0.00031
                          A5        A6        A7        A8        D1
           A5           0.14443
           A6           0.02028   0.13631
           A7           0.00571  -0.00716   0.01184
           A8          -0.00047  -0.00204  -0.00210   0.00398
           D1           0.00030  -0.00060   0.00012   0.00013   0.00231
           D2          -0.00046   0.00098  -0.00060   0.00002  -0.00003
           D3           0.00047  -0.00115   0.00034   0.00009   0.00003
           D4          -0.00029   0.00044  -0.00039  -0.00002  -0.00001
                          D2        D3        D4
           D2           0.00234
           D3          -0.00002   0.00232
           D4           0.00004  -0.00004   0.00232
 ITU=  0  1  0
 Use linear search instead of GDIIS.
     Eigenvalues ---    0.00229   0.00266   0.00328   0.00851   0.03853
     Eigenvalues ---    0.07858   0.14040   0.16000   0.16090   0.16425
     Eigenvalues ---    0.41122   0.49974   0.50071   0.50219   0.58001
 RFO step:  Lambda=-2.39739350D-03 EMin= 2.28891080D-03
 Quartic linear search produced a step of -0.45982.
 Iteration  1 RMS(Cart)=  0.09932193 RMS(Int)=  0.05140018
 Iteration  2 RMS(Cart)=  0.07801560 RMS(Int)=  0.00673615
 Iteration  3 RMS(Cart)=  0.00943534 RMS(Int)=  0.00357872
 Iteration  4 RMS(Cart)=  0.00004660 RMS(Int)=  0.00357860
 Iteration  5 RMS(Cart)=  0.00000017 RMS(Int)=  0.00357860
 Variable       Old X    -DE/DX   Delta X   Delta X   Delta X     New X
                                 (Linear)    (Quad)   (Total)
    R1        2.01985  -0.00175  -0.03532   0.03323  -0.00222   2.01764
    R2        1.81060   0.01367   0.01868  -0.00123   0.01750   1.82810
    R3        1.80958   0.01450   0.01916  -0.00103   0.01813   1.82771
    R4        2.70566  -0.00893   0.03888  -0.09872  -0.05978   2.64587
    R5        1.78159   0.02188   0.02861  -0.00272   0.02589   1.80748
    R6        1.78005   0.02208   0.02838  -0.00222   0.02616   1.80621
    A1        2.00062  -0.00524  -0.04663   0.04335   0.00304   2.00366
    A2        1.99297  -0.00017  -0.04083   0.04860   0.01488   2.00785
    A3        1.88041   0.00440   0.01859   0.01398   0.04205   1.92245
    A4        2.07071   0.00563   0.03545  -0.01384   0.02286   2.09357
    A5        2.22396   0.00146   0.06231  -0.05992   0.00363   2.22759
    A6        1.97520  -0.00684  -0.09164   0.07195  -0.01843   1.95677
    A7        2.93673   0.00614   0.13367   0.28533   0.41975   3.35647
    A8        2.98235   0.00074   0.06567  -0.00292   0.06166   3.04401
    D1        1.66380  -0.00047  -0.00486   0.06194   0.06046   1.72426
    D2       -1.54975  -0.00186  -0.00113  -0.11289  -0.11076  -1.66051
    D3       -2.44514   0.00225  -0.03291   0.23541   0.19924  -2.24590
    D4        0.62449   0.00086  -0.02918   0.06058   0.02802   0.65251
         Item               Value     Threshold  Converged?
 Maximum Force            0.022078     0.000450     NO 
 RMS     Force            0.009490     0.000300     NO 
 Maximum Displacement     0.474552     0.001800     NO 
 RMS     Displacement     0.176342     0.001200     NO 
 Predicted change in Energy=-3.133363D-03
 GradGradGradGradGradGradGradGradGradGradGradGradGradGradGradGradGradGrad

                          Input orientation:                          
 ---------------------------------------------------------------------
 Center     Atomic      Atomic             Coordinates (Angstroms)
 Number     Number       Type             X           Y           Z
 ---------------------------------------------------------------------
      1          8           0       -2.721240    1.422112    0.124371
      2          1           0       -1.659609    1.487842    0.216981
      3          1           0       -3.183628    1.159953    0.932646
      4          8           0       -0.276796    1.611563    0.035601
      5          1           0        0.223546    0.884201   -0.332430
      6          1           0        0.259793    2.393493    0.154865
      7          1           0       -3.146901    2.197768   -0.266287
 ---------------------------------------------------------------------
                    Distance matrix (angstroms):
                    1          2          3          4          5
     1  O    0.000000
     2  H    1.067687   0.000000
     3  H    0.967387   1.715320   0.000000
     4  O    2.453381   1.400135   3.075437   0.000000
     5  H    3.028165   2.052440   3.644899   0.956475   0.000000
     6  H    3.135453   2.123244   3.739480   0.955806   1.586421
     7  H    0.967183   1.717434   1.586143   2.944873   3.617975
                    6          7
     6  H    0.000000
     7  H    3.438202   0.000000
 Stoichiometry    H5O2(1+)
 Framework group  C1[X(H5O2)]
 Deg. of freedom    15
 Full point group                 C1      NOp   1
 Largest Abelian subgroup         C1      NOp   1
 Largest concise Abelian subgroup C1      NOp   1
                         Standard orientation:                         
 ---------------------------------------------------------------------
 Center     Atomic      Atomic             Coordinates (Angstroms)
 Number     Number       Type             X           Y           Z
 ---------------------------------------------------------------------
      1          8           0       -1.225563   -0.044691   -0.062016
      2          1           0       -0.170602   -0.065382    0.101036
      3          1           0       -1.754670   -0.417777    0.656796
      4          8           0        1.225910   -0.000524    0.024057
      5          1           0        1.710564   -0.680434   -0.442502
      6          1           0        1.794029    0.710835    0.315217
      7          1           0       -1.582095    0.814482   -0.326873
 ---------------------------------------------------------------------
 Rotational constants (GHZ):         183.3343350           8.3078435           8.1809398
 Standard basis: Aug-CC-pVDZ (5D, 7F)
 There are    95 symmetry adapted cartesian basis functions of A   symmetry.
 There are    91 symmetry adapted basis functions of A   symmetry.
    91 basis functions,   141 primitive gaussians,    95 cartesian basis functions
    10 alpha electrons       10 beta electrons
       nuclear repulsion energy        46.3413980515 Hartrees.
 NAtoms=    7 NActive=    7 NUniq=    7 SFac= 1.00D+00 NAtFMM=   60 NAOKFM=F Big=F
 Integral buffers will be    131072 words long.
 Raffenetti 2 integral format.
 Two-electron integral symmetry is turned on.
 Nuclear repulsion after empirical dispersion term =       46.3402998542 Hartrees.
 One-electron integrals computed using PRISM.
 NBasis=    91 RedAO= T EigKep=  1.82D-03  NBF=    91
 NBsUse=    91 1.00D-06 EigRej= -1.00D+00 NBFU=    91
 Initial guess from the checkpoint file:  "/gscratch/scrubbed/gds001/Gau-19015.chk"
 B after Tr=     0.000000   -0.000000    0.000000
         Rot=    0.999816   -0.017687    0.005808    0.004607 Ang=  -2.20 deg.
 ExpMin= 2.97D-02 ExpMax= 1.17D+04 ExpMxC= 4.01D+02 IAcc=3 IRadAn=         5 AccDes= 0.00D+00
 Harris functional with IExCor= 4639 and IRadAn=       5 diagonalized for initial guess.
 HarFok:  IExCor= 4639 AccDes= 0.00D+00 IRadAn=         5 IDoV= 1 UseB2=F ITyADJ=14
 ICtDFT=  3500011 ScaDFX=  1.000000  1.000000  1.000000  1.000000
 FoFCou: FMM=F IPFlag=           0 FMFlag=      100000 FMFlg1=           0
         NFxFlg=           0 DoJE=T BraDBF=F KetDBF=T FulRan=T
         wScrn=  0.000000 ICntrl=       500 IOpCl=  0 I1Cent=   200000004 NGrid=           0
         NMat0=    1 NMatS0=      1 NMatT0=    0 NMatD0=    1 NMtDS0=    0 NMtDT0=    0
 Petite list used in FoFCou.
 Keep R1 ints in memory in canonical form, NReq=43209221.
 Requested convergence on RMS density matrix=1.00D-08 within 128 cycles.
 Requested convergence on MAX density matrix=1.00D-06.
 Requested convergence on             energy=1.00D-06.
 No special actions if energy rises.
 SCF Done:  E(RwB97XD) =  -153.167090093     A.U. after   11 cycles
            NFock= 11  Conv=0.34D-08     -V/T= 2.0056
 Calling FoFJK, ICntrl=      2127 FMM=F ISym2X=0 I1Cent= 0 IOpClX= 0 NMat=1 NMatS=1 NMatT=0.
 ***** Axes restored to original set *****
 -------------------------------------------------------------------
 Center     Atomic                   Forces (Hartrees/Bohr)
 Number     Number              X              Y              Z
 -------------------------------------------------------------------
      1        8          -0.001850557   -0.004684710    0.004097781
      2        1           0.008454491    0.006069967   -0.007467180
      3        1          -0.001662010   -0.001310052    0.002649140
      4        8          -0.019738571   -0.004209736    0.004952830
      5        1           0.007916487   -0.002277028   -0.002566316
      6        1           0.006765038    0.003618368    0.000478544
      7        1           0.000115123    0.002793191   -0.002144799
 -------------------------------------------------------------------
 Cartesian Forces:  Max     0.019738571 RMS     0.006154940

 GradGradGradGradGradGradGradGradGradGradGradGradGradGradGradGradGradGrad
 Berny optimization.
 Using GEDIIS/GDIIS optimizer.
 FormGI is forming the generalized inverse of G from B-inverse, IUseBI=4.
 Internal  Forces:  Max     0.008424160 RMS     0.003958861
 Search for a local minimum.
 Step number   4 out of a maximum of   28
 All quantities printed in internal units (Hartrees-Bohrs-Radians)
 Mixed Optimization -- RFO/linear search
 Update second derivatives using D2CorX and points    2    3    4
 DE= -1.79D-03 DEPred=-3.13D-03 R= 5.71D-01
 TightC=F SS=  1.41D+00  RLast= 4.95D-01 DXNew= 8.4853D-01 1.4844D+00
 Trust test= 5.71D-01 RLast= 4.95D-01 DXMaxT set to 8.49D-01
 The second derivative matrix:
                          R1        R2        R3        R4        R5
           R1           0.40050
           R2           0.00527   0.50051
           R3           0.00480   0.00090   0.50089
           R4           0.03308  -0.00444  -0.00399   0.09889
           R5           0.00670   0.00107   0.00139  -0.00437   0.50437
           R6           0.00612   0.00118   0.00150  -0.00411   0.00341
           A1          -0.02156  -0.00426  -0.00512   0.01827  -0.00748
           A2          -0.02606  -0.00304  -0.00309   0.02268  -0.00599
           A3          -0.00700  -0.00545  -0.00588   0.00996  -0.00783
           A4           0.00679  -0.00180  -0.00209  -0.00320  -0.00109
           A5           0.02933  -0.00435  -0.00443  -0.01744  -0.00393
           A6          -0.03602  -0.00027  -0.00012   0.02637  -0.00461
           A7          -0.00559   0.00264   0.00456   0.00713   0.00390
           A8          -0.00019   0.00493   0.00499  -0.00567   0.00600
           D1          -0.00085   0.00052   0.00044   0.00023   0.00113
           D2           0.00071  -0.00049  -0.00079  -0.00036  -0.00007
           D3          -0.00135   0.00026   0.00049   0.00088  -0.00032
           D4           0.00020  -0.00075  -0.00074   0.00029  -0.00153
                          R6        A1        A2        A3        A4
           R6           0.50648
           A1          -0.00786   0.15262
           A2          -0.00633  -0.01393   0.14552
           A3          -0.00809  -0.00681  -0.01026   0.15049
           A4          -0.00117   0.00123  -0.00108  -0.00131   0.16030
           A5          -0.00378   0.01315   0.01302   0.00453  -0.00202
           A6          -0.00482  -0.01472  -0.01350  -0.00762  -0.00158
           A7           0.00401  -0.01081   0.00341  -0.00458  -0.00419
           A8           0.00620   0.00037   0.00069   0.00276   0.00086
           D1           0.00109  -0.00030  -0.00103   0.00027   0.00091
           D2          -0.00014   0.00141  -0.00087   0.00079   0.00130
           D3          -0.00027  -0.00159   0.00017  -0.00111  -0.00125
           D4          -0.00151   0.00012   0.00033  -0.00059  -0.00086
                          A5        A6        A7        A8        D1
           A5           0.14562
           A6           0.01569   0.14728
           A7          -0.00144   0.00758   0.03280
           A8          -0.00138  -0.00071  -0.00058   0.00399
           D1           0.00116  -0.00214  -0.00176   0.00004   0.00247
           D2           0.00114  -0.00227  -0.00511  -0.00030   0.00038
           D3          -0.00071   0.00151   0.00422   0.00041  -0.00034
           D4          -0.00073   0.00138   0.00088   0.00007  -0.00013
                          D2        D3        D4
           D2           0.00331
           D3          -0.00087   0.00302
           D4          -0.00023   0.00020   0.00240
 ITU=  1  0  1  0
 Use linear search instead of GDIIS.
     Eigenvalues ---    0.00211   0.00257   0.00323   0.02271   0.03255
     Eigenvalues ---    0.07165   0.14606   0.16026   0.16196   0.16744
     Eigenvalues ---    0.41077   0.49979   0.50094   0.50200   0.51162
 RFO step:  Lambda=-2.18994467D-03 EMin= 2.11252038D-03
 Quartic linear search produced a step of -0.28525.
 Iteration  1 RMS(Cart)=  0.08905662 RMS(Int)=  0.02863861
 Iteration  2 RMS(Cart)=  0.02674930 RMS(Int)=  0.00324481
 Iteration  3 RMS(Cart)=  0.00138425 RMS(Int)=  0.00297895
 Iteration  4 RMS(Cart)=  0.00000919 RMS(Int)=  0.00297895
 Iteration  5 RMS(Cart)=  0.00000003 RMS(Int)=  0.00297895
 Variable       Old X    -DE/DX   Delta X   Delta X   Delta X     New X
                                 (Linear)    (Quad)   (Total)
    R1        2.01764   0.00318   0.00063   0.01051   0.01134   2.02898
    R2        1.82810   0.00339  -0.00499   0.01509   0.00998   1.83808
    R3        1.82771   0.00306  -0.00517   0.01557   0.01039   1.83810
    R4        2.64587  -0.00564   0.01705  -0.08028  -0.06330   2.58257
    R5        1.80748   0.00686  -0.00739   0.02565   0.01826   1.82574
    R6        1.80621   0.00682  -0.00746   0.02578   0.01832   1.82453
    A1        2.00366   0.00105  -0.00087   0.01362   0.00740   2.01106
    A2        2.00785  -0.00196  -0.00424   0.02196   0.01220   2.02004
    A3        1.92245   0.00137  -0.01199   0.03835   0.01904   1.94149
    A4        2.09357   0.00403  -0.00652   0.01952   0.01020   2.10377
    A5        2.22759   0.00113  -0.00103  -0.01288  -0.01669   2.21090
    A6        1.95677  -0.00543   0.00526  -0.01898  -0.01660   1.94017
    A7        3.35647  -0.00842  -0.11974  -0.11279  -0.23260   3.12388
    A8        3.04401  -0.00037  -0.01759  -0.23098  -0.24730   2.79671
    D1        1.72426   0.00011  -0.01725   0.06070   0.04084   1.76511
    D2       -1.66051   0.00073   0.03159  -0.01906   0.01050  -1.65002
    D3       -2.24590  -0.00007  -0.05683   0.17510   0.12027  -2.12562
    D4        0.65251   0.00055  -0.00799   0.09534   0.08993   0.74244
         Item               Value     Threshold  Converged?
 Maximum Force            0.008424     0.000450     NO 
 RMS     Force            0.003959     0.000300     NO 
 Maximum Displacement     0.233883     0.001800     NO 
 RMS     Displacement     0.108375     0.001200     NO 
 Predicted change in Energy=-1.639659D-03
 GradGradGradGradGradGradGradGradGradGradGradGradGradGradGradGradGradGrad

                          Input orientation:                          
 ---------------------------------------------------------------------
 Center     Atomic      Atomic             Coordinates (Angstroms)
 Number     Number       Type             X           Y           Z
 ---------------------------------------------------------------------
      1          8           0       -2.710749    1.437572    0.119413
      2          1           0       -1.651312    1.611608    0.130110
      3          1           0       -3.092899    1.154339    0.967839
      4          8           0       -0.285954    1.601136    0.071920
      5          1           0        0.181981    0.865999   -0.345253
      6          1           0        0.303171    2.352322    0.216273
      7          1           0       -3.249073    2.133956   -0.294554
 ---------------------------------------------------------------------
                    Distance matrix (angstroms):
                    1          2          3          4          5
     1  O    0.000000
     2  H    1.073689   0.000000
     3  H    0.972670   1.728889   0.000000
     4  O    2.430769   1.366638   2.980140   0.000000
     5  H    2.985046   2.035404   3.540084   0.966138   0.000000
     6  H    3.151168   2.091910   3.678764   0.965499   1.593473
     7  H    0.972683   1.733790   1.605515   3.032866   3.658199
                    6          7
     6  H    0.000000
     7  H    3.595423   0.000000
 Stoichiometry    H5O2(1+)
 Framework group  C1[X(H5O2)]
 Deg. of freedom    15
 Full point group                 C1      NOp   1
 Largest Abelian subgroup         C1      NOp   1
 Largest concise Abelian subgroup C1      NOp   1
                         Standard orientation:                         
 ---------------------------------------------------------------------
 Center     Atomic      Atomic             Coordinates (Angstroms)
 Number     Number       Type             X           Y           Z
 ---------------------------------------------------------------------
      1          8           0       -1.214365   -0.042981   -0.055328
      2          1           0       -0.150108    0.069312    0.031600
      3          1           0       -1.650379   -0.463387    0.705749
      4          8           0        1.214652   -0.002175    0.027429
      5          1           0        1.669760   -0.667147   -0.505593
      6          1           0        1.828534    0.674917    0.338689
      7          1           0       -1.700102    0.747556   -0.347257
 ---------------------------------------------------------------------
 Rotational constants (GHZ):         182.9734219           8.4080897           8.3154730
 Standard basis: Aug-CC-pVDZ (5D, 7F)
 There are    95 symmetry adapted cartesian basis functions of A   symmetry.
 There are    91 symmetry adapted basis functions of A   symmetry.
    91 basis functions,   141 primitive gaussians,    95 cartesian basis functions
    10 alpha electrons       10 beta electrons
       nuclear repulsion energy        46.3936332390 Hartrees.
 NAtoms=    7 NActive=    7 NUniq=    7 SFac= 1.00D+00 NAtFMM=   60 NAOKFM=F Big=F
 Integral buffers will be    131072 words long.
 Raffenetti 2 integral format.
 Two-electron integral symmetry is turned on.
 Nuclear repulsion after empirical dispersion term =       46.3925385740 Hartrees.
 One-electron integrals computed using PRISM.
 NBasis=    91 RedAO= T EigKep=  1.78D-03  NBF=    91
 NBsUse=    91 1.00D-06 EigRej= -1.00D+00 NBFU=    91
 Initial guess from the checkpoint file:  "/gscratch/scrubbed/gds001/Gau-19015.chk"
 B after Tr=    -0.000000   -0.000000   -0.000000
         Rot=    0.999966   -0.006965   -0.003704   -0.002424 Ang=  -0.95 deg.
 ExpMin= 2.97D-02 ExpMax= 1.17D+04 ExpMxC= 4.01D+02 IAcc=3 IRadAn=         5 AccDes= 0.00D+00
 Harris functional with IExCor= 4639 and IRadAn=       5 diagonalized for initial guess.
 HarFok:  IExCor= 4639 AccDes= 0.00D+00 IRadAn=         5 IDoV= 1 UseB2=F ITyADJ=14
 ICtDFT=  3500011 ScaDFX=  1.000000  1.000000  1.000000  1.000000
 FoFCou: FMM=F IPFlag=           0 FMFlag=      100000 FMFlg1=           0
         NFxFlg=           0 DoJE=T BraDBF=F KetDBF=T FulRan=T
         wScrn=  0.000000 ICntrl=       500 IOpCl=  0 I1Cent=   200000004 NGrid=           0
         NMat0=    1 NMatS0=      1 NMatT0=    0 NMatD0=    1 NMtDS0=    0 NMtDT0=    0
 Petite list used in FoFCou.
 Keep R1 ints in memory in canonical form, NReq=43209221.
 Requested convergence on RMS density matrix=1.00D-08 within 128 cycles.
 Requested convergence on MAX density matrix=1.00D-06.
 Requested convergence on             energy=1.00D-06.
 No special actions if energy rises.
 SCF Done:  E(RwB97XD) =  -153.168473103     A.U. after   10 cycles
            NFock= 10  Conv=0.46D-08     -V/T= 2.0059
 Calling FoFJK, ICntrl=      2127 FMM=F ISym2X=0 I1Cent= 0 IOpClX= 0 NMat=1 NMatS=1 NMatT=0.
 ***** Axes restored to original set *****
 -------------------------------------------------------------------
 Center     Atomic                   Forces (Hartrees/Bohr)
 Number     Number              X              Y              Z
 -------------------------------------------------------------------
      1        8          -0.008055507    0.001553640    0.001233052
      2        1           0.009599450   -0.002252115   -0.001520279
      3        1           0.000823491    0.001679047   -0.002208834
      4        8          -0.005773305    0.000545596    0.001122321
      5        1           0.001709494    0.003945665    0.000891763
      6        1           0.000456040   -0.003338622   -0.001256878
      7        1           0.001240338   -0.002133212    0.001738854
 -------------------------------------------------------------------
 Cartesian Forces:  Max     0.009599450 RMS     0.003470662

 GradGradGradGradGradGradGradGradGradGradGradGradGradGradGradGradGradGrad
 Berny optimization.
 Using GEDIIS/GDIIS optimizer.
 FormGI is forming the generalized inverse of G from B-inverse, IUseBI=4.
 Internal  Forces:  Max     0.005915314 RMS     0.002448968
 Search for a local minimum.
 Step number   5 out of a maximum of   28
 All quantities printed in internal units (Hartrees-Bohrs-Radians)
 Mixed Optimization -- RFO/linear search
 Update second derivatives using D2CorX and points    3    4    5
 DE= -1.38D-03 DEPred=-1.64D-03 R= 8.43D-01
 TightC=F SS=  1.41D+00  RLast= 3.82D-01 DXNew= 1.4270D+00 1.1456D+00
 Trust test= 8.43D-01 RLast= 3.82D-01 DXMaxT set to 1.15D+00
 The second derivative matrix:
                          R1        R2        R3        R4        R5
           R1           0.40918
           R2          -0.02137   0.51445
           R3          -0.02216   0.01470   0.51454
           R4           0.04469   0.01065   0.01151   0.07650
           R5          -0.03383   0.01387   0.01382   0.02489   0.50997
           R6          -0.03444   0.01376   0.01371   0.02534   0.00864
           A1          -0.01683  -0.00861  -0.00951   0.01700  -0.01283
           A2          -0.02191  -0.00646  -0.00648   0.02126  -0.01003
           A3          -0.01560  -0.00430  -0.00483   0.01733  -0.00922
           A4           0.00053  -0.00587  -0.00632   0.00583  -0.01017
           A5           0.02918  -0.00155  -0.00158  -0.01938   0.00062
           A6          -0.02635   0.02023   0.02086   0.00178   0.03282
           A7           0.00232   0.00005   0.00215   0.00146   0.00264
           A8           0.00445  -0.00631  -0.00634  -0.00173  -0.01072
           D1           0.00108  -0.00483  -0.00497   0.00238  -0.00694
           D2           0.00201  -0.00480  -0.00516   0.00161  -0.00667
           D3          -0.00299   0.00364   0.00391  -0.00008   0.00461
           D4          -0.00206   0.00367   0.00372  -0.00085   0.00489
                          R6        A1        A2        A3        A4
           R6           0.51134
           A1          -0.01319   0.15378
           A2          -0.01034  -0.01316   0.14629
           A3          -0.00956  -0.00771  -0.01090   0.14961
           A4          -0.01033   0.00132  -0.00088  -0.00377   0.15683
           A5           0.00078   0.01271   0.01263   0.00554  -0.00111
           A6           0.03280  -0.01699  -0.01576   0.00147   0.00866
           A7           0.00285  -0.01019   0.00457  -0.00435  -0.00248
           A8          -0.01052   0.00236   0.00257  -0.00072  -0.00146
           D1          -0.00698   0.00065  -0.00018  -0.00143  -0.00029
           D2          -0.00674   0.00221  -0.00025  -0.00062   0.00026
           D3           0.00467  -0.00227  -0.00035  -0.00010  -0.00064
           D4           0.00490  -0.00072  -0.00042   0.00072  -0.00009
                          A5        A6        A7        A8        D1
           A5           0.14555
           A6           0.01380   0.12094
           A7          -0.00232   0.00040   0.03488
           A8          -0.00156   0.00224   0.00305   0.00641
           D1           0.00111  -0.00041  -0.00014   0.00105   0.00289
           D2           0.00113  -0.00059  -0.00401   0.00037   0.00066
           D3          -0.00062   0.00091   0.00341  -0.00036  -0.00069
           D4          -0.00060   0.00073  -0.00046  -0.00104  -0.00062
                          D2        D3        D4
           D2           0.00352
           D3          -0.00114   0.00330
           D4          -0.00057   0.00056   0.00290
 ITU=  1  1  0  1  0
 Use linear search instead of GDIIS.
     Eigenvalues ---    0.00210   0.00444   0.00570   0.01963   0.03503
     Eigenvalues ---    0.06284   0.10424   0.15631   0.16234   0.16458
     Eigenvalues ---    0.39969   0.49874   0.49979   0.50211   0.58103
 RFO step:  Lambda=-1.40354387D-03 EMin= 2.09865377D-03
 Quartic linear search produced a step of -0.10036.
 Iteration  1 RMS(Cart)=  0.06250432 RMS(Int)=  0.03013423
 Iteration  2 RMS(Cart)=  0.02691582 RMS(Int)=  0.00096230
 Iteration  3 RMS(Cart)=  0.00137623 RMS(Int)=  0.00038960
 Iteration  4 RMS(Cart)=  0.00000132 RMS(Int)=  0.00038960
 Iteration  5 RMS(Cart)=  0.00000000 RMS(Int)=  0.00038960
 Variable       Old X    -DE/DX   Delta X   Delta X   Delta X     New X
                                 (Linear)    (Quad)   (Total)
    R1        2.02898   0.00592  -0.00114   0.02184   0.02070   2.04968
    R2        1.83808  -0.00296  -0.00100   0.00435   0.00335   1.84143
    R3        1.83810  -0.00295  -0.00104   0.00484   0.00380   1.84190
    R4        2.58257  -0.00363   0.00635  -0.08176  -0.07541   2.50716
    R5        1.82574  -0.00256  -0.00183   0.01404   0.01221   1.83795
    R6        1.82453  -0.00251  -0.00184   0.01413   0.01229   1.83682
    A1        2.01106   0.00057  -0.00074   0.00572   0.00435   2.01541
    A2        2.02004   0.00041  -0.00122   0.01056   0.00872   2.02877
    A3        1.94149  -0.00060  -0.00191   0.01214   0.00936   1.95085
    A4        2.10377   0.00265  -0.00102   0.02431   0.02381   2.12758
    A5        2.21090   0.00104   0.00167  -0.00859  -0.00639   2.20451
    A6        1.94017  -0.00370   0.00167  -0.04411  -0.04190   1.89827
    A7        3.12388   0.00016   0.02334  -0.04359  -0.02044   3.10344
    A8        2.79671   0.00236   0.02482   0.29085   0.31580   3.11250
    D1        1.76511   0.00088  -0.00410   0.17675   0.17245   1.93756
    D2       -1.65002   0.00044  -0.00105   0.08861   0.08721  -1.56281
    D3       -2.12562   0.00004  -0.01207   0.12748   0.11575  -2.00987
    D4        0.74244  -0.00039  -0.00903   0.03934   0.03051   0.77295
         Item               Value     Threshold  Converged?
 Maximum Force            0.005915     0.000450     NO 
 RMS     Force            0.002449     0.000300     NO 
 Maximum Displacement     0.191670     0.001800     NO 
 RMS     Displacement     0.081942     0.001200     NO 
 Predicted change in Energy=-8.444696D-04
 GradGradGradGradGradGradGradGradGradGradGradGradGradGradGradGradGradGrad

                          Input orientation:                          
 ---------------------------------------------------------------------
 Center     Atomic      Atomic             Coordinates (Angstroms)
 Number     Number       Type             X           Y           Z
 ---------------------------------------------------------------------
      1          8           0       -2.717174    1.436766    0.131095
      2          1           0       -1.635819    1.510181    0.089405
      3          1           0       -3.089150    1.220057    1.005286
      4          8           0       -0.310401    1.568915    0.083059
      5          1           0        0.230994    0.911036   -0.386021
      6          1           0        0.231539    2.358473    0.249453
      7          1           0       -3.214823    2.151506   -0.306530
 ---------------------------------------------------------------------
                    Distance matrix (angstroms):
                    1          2          3          4          5
     1  O    0.000000
     2  H    1.084645   0.000000
     3  H    0.974443   1.742177   0.000000
     4  O    2.410877   1.326734   2.948500   0.000000
     5  H    3.038996   2.017423   3.613113   0.972599   0.000000
     6  H    3.091676   2.057242   3.590857   0.972002   1.580791
     7  H    0.974692   1.749662   1.613770   2.987785   3.663160
                    6          7
     6  H    0.000000
     7  H    3.497051   0.000000
 Stoichiometry    H5O2(1+)
 Framework group  C1[X(H5O2)]
 Deg. of freedom    15
 Full point group                 C1      NOp   1
 Largest Abelian subgroup         C1      NOp   1
 Largest concise Abelian subgroup C1      NOp   1
                         Standard orientation:                         
 ---------------------------------------------------------------------
 Center     Atomic      Atomic             Coordinates (Angstroms)
 Number     Number       Type             X           Y           Z
 ---------------------------------------------------------------------
      1          8           0       -1.209517   -0.048345   -0.055079
      2          1           0       -0.125663   -0.013459   -0.032731
      3          1           0       -1.634349   -0.396045    0.750005
      4          8           0        1.199421   -0.009123    0.033281
      5          1           0        1.743366   -0.598685   -0.516709
      6          1           0        1.757093    0.717290    0.359033
      7          1           0       -1.659683    0.750648   -0.385206
 ---------------------------------------------------------------------
 Rotational constants (GHZ):         180.1120060           8.5292294           8.4624469
 Standard basis: Aug-CC-pVDZ (5D, 7F)
 There are    95 symmetry adapted cartesian basis functions of A   symmetry.
 There are    91 symmetry adapted basis functions of A   symmetry.
    91 basis functions,   141 primitive gaussians,    95 cartesian basis functions
    10 alpha electrons       10 beta electrons
       nuclear repulsion energy        46.5304804743 Hartrees.
 NAtoms=    7 NActive=    7 NUniq=    7 SFac= 1.00D+00 NAtFMM=   60 NAOKFM=F Big=F
 Integral buffers will be    131072 words long.
 Raffenetti 2 integral format.
 Two-electron integral symmetry is turned on.
 Nuclear repulsion after empirical dispersion term =       46.5293812327 Hartrees.
 One-electron integrals computed using PRISM.
 NBasis=    91 RedAO= T EigKep=  1.86D-03  NBF=    91
 NBsUse=    91 1.00D-06 EigRej= -1.00D+00 NBFU=    91
 Initial guess from the checkpoint file:  "/gscratch/scrubbed/gds001/Gau-19015.chk"
 B after Tr=     0.000000   -0.000000   -0.000000
         Rot=    0.999942    0.010433    0.001979   -0.001997 Ang=   1.24 deg.
 ExpMin= 2.97D-02 ExpMax= 1.17D+04 ExpMxC= 4.01D+02 IAcc=3 IRadAn=         5 AccDes= 0.00D+00
 Harris functional with IExCor= 4639 and IRadAn=       5 diagonalized for initial guess.
 HarFok:  IExCor= 4639 AccDes= 0.00D+00 IRadAn=         5 IDoV= 1 UseB2=F ITyADJ=14
 ICtDFT=  3500011 ScaDFX=  1.000000  1.000000  1.000000  1.000000
 FoFCou: FMM=F IPFlag=           0 FMFlag=      100000 FMFlg1=           0
         NFxFlg=           0 DoJE=T BraDBF=F KetDBF=T FulRan=T
         wScrn=  0.000000 ICntrl=       500 IOpCl=  0 I1Cent=   200000004 NGrid=           0
         NMat0=    1 NMatS0=      1 NMatT0=    0 NMatD0=    1 NMtDS0=    0 NMtDT0=    0
 Petite list used in FoFCou.
 Keep R1 ints in memory in canonical form, NReq=43209221.
 Requested convergence on RMS density matrix=1.00D-08 within 128 cycles.
 Requested convergence on MAX density matrix=1.00D-06.
 Requested convergence on             energy=1.00D-06.
 No special actions if energy rises.
 SCF Done:  E(RwB97XD) =  -153.168931188     A.U. after   10 cycles
            NFock= 10  Conv=0.41D-08     -V/T= 2.0060
 Calling FoFJK, ICntrl=      2127 FMM=F ISym2X=0 I1Cent= 0 IOpClX= 0 NMat=1 NMatS=1 NMatT=0.
 ***** Axes restored to original set *****
 -------------------------------------------------------------------
 Center     Atomic                   Forces (Hartrees/Bohr)
 Number     Number              X              Y              Z
 -------------------------------------------------------------------
      1        8          -0.010448222    0.000083497    0.000892049
      2        1           0.007099829    0.003807231    0.001232899
      3        1           0.001113208    0.002193230   -0.004804605
      4        8           0.009255137   -0.001294279   -0.003376138
      5        1          -0.004188231    0.005241213    0.003637922
      6        1          -0.005043541   -0.005800104   -0.001068236
      7        1           0.002211820   -0.004230787    0.003486108
 -------------------------------------------------------------------
 Cartesian Forces:  Max     0.010448222 RMS     0.004668363

 GradGradGradGradGradGradGradGradGradGradGradGradGradGradGradGradGradGrad
 Berny optimization.
 Using GEDIIS/GDIIS optimizer.
 FormGI is forming the generalized inverse of G from B-inverse, IUseBI=4.
 Internal  Forces:  Max     0.007706480 RMS     0.003646632
 Search for a local minimum.
 Step number   6 out of a maximum of   28
 All quantities printed in internal units (Hartrees-Bohrs-Radians)
 Mixed Optimization -- RFO/linear search
 Update second derivatives using D2CorX and points    4    5    6
 DE= -4.58D-04 DEPred=-8.44D-04 R= 5.42D-01
 TightC=F SS=  1.41D+00  RLast= 4.01D-01 DXNew= 1.9267D+00 1.2030D+00
 Trust test= 5.42D-01 RLast= 4.01D-01 DXMaxT set to 1.20D+00
 The second derivative matrix:
                          R1        R2        R3        R4        R5
           R1           0.40247
           R2          -0.03161   0.52937
           R3          -0.03315   0.03107   0.53252
           R4           0.06604   0.00000  -0.00044   0.06976
           R5          -0.05772   0.04014   0.04277   0.01210   0.55377
           R6          -0.05857   0.04029   0.04296   0.01242   0.05288
           A1          -0.01807  -0.00815  -0.00899   0.01763  -0.01243
           A2          -0.01674  -0.00921  -0.00956   0.01986  -0.01348
           A3          -0.01835   0.00104   0.00101   0.01260   0.00056
           A4          -0.01215   0.00029   0.00060   0.01007  -0.00292
           A5           0.02266   0.00488   0.00551  -0.02183   0.01105
           A6          -0.00258   0.00822   0.00739  -0.00549   0.01825
           A7           0.02029  -0.01047  -0.00959  -0.00204  -0.01130
           A8          -0.00474   0.00254   0.00344  -0.00490   0.00356
           D1           0.00038  -0.00435  -0.00443   0.00240  -0.00623
           D2           0.00051  -0.00414  -0.00442   0.00222  -0.00595
           D3          -0.00319   0.00401   0.00432  -0.00040   0.00529
           D4          -0.00307   0.00421   0.00433  -0.00058   0.00557
                          R6        A1        A2        A3        A4
           R6           0.55602
           A1          -0.01278   0.15373
           A2          -0.01382  -0.01302   0.14602
           A3           0.00031  -0.00749  -0.01210   0.15146
           A4          -0.00301   0.00093   0.00000  -0.00101   0.15416
           A5           0.01132   0.01276   0.01195   0.00798   0.00025
           A6           0.01809  -0.01630  -0.01726  -0.00385   0.01325
           A7          -0.01123  -0.00978   0.00395  -0.00882  -0.00019
           A8           0.00391   0.00241   0.00169   0.00265   0.00030
           D1          -0.00627   0.00064  -0.00018  -0.00123  -0.00031
           D2          -0.00603   0.00216  -0.00012  -0.00031  -0.00011
[...]
                           1         2         3
     Eigenvalues --     9.95216 208.46635 209.21525
           X            0.99985  -0.00007  -0.01746
           Y            0.00006   1.00000  -0.00037
           Z            0.01746   0.00037   0.99985
 This molecule is an asymmetric top.
 Rotational symmetry number  1.
 Rotational temperatures (Kelvin)      8.70303     0.41548     0.41399
 Rotational constants (GHZ):         181.34171     8.65723     8.62624
 Zero-point vibrational energy     149523.2 (Joules/Mol)
                                   35.73691 (Kcal/Mol)
 Warning -- explicit consideration of   6 degrees of freedom as
           vibrations may cause significant error
 Vibrational temperatures:    257.50   357.07   548.85   700.92   722.75
          (Kelvin)            877.80  1209.69  2082.64  2165.71  2410.30
                             2511.01  5454.03  5466.37  5600.85  5601.52
 
 Zero-point correction=                           0.056950 (Hartree/Particle)
 Thermal correction to Energy=                    0.061887
 Thermal correction to Enthalpy=                  0.062832
 Thermal correction to Gibbs Free Energy=         0.032156
 Sum of electronic and zero-point Energies=           -153.112901
 Sum of electronic and thermal Energies=              -153.107964
 Sum of electronic and thermal Enthalpies=            -153.107020
 Sum of electronic and thermal Free Energies=         -153.137695
 
                     E (Thermal)             CV                S
                      KCal/Mol        Cal/Mol-Kelvin    Cal/Mol-Kelvin
 Total                   38.835             15.459             64.562
 Electronic               0.000              0.000              0.000
 Translational            0.889              2.981             36.757
 Rotational               0.889              2.981             20.701
 Vibrational             37.057              9.498              7.104
 Vibration     1          0.629              1.868              2.339
 Vibration     2          0.662              1.766              1.743
 Vibration     3          0.751              1.510              1.033
 Vibration     4          0.843              1.279              0.691
 Vibration     5          0.858              1.245              0.652
 Vibration     6          0.969              1.010              0.433
                       Q            Log10(Q)             Ln(Q)
 Total Bot       0.161889D-14        -14.790782        -34.057034
 Total V=0       0.253836D+12         11.404554         26.259955
 Vib (Bot)       0.245094D-25        -25.610667        -58.970740
 Vib (Bot)    1  0.112263D+01          0.050238          0.115678
 Vib (Bot)    2  0.787096D+00         -0.103972         -0.239405
 Vib (Bot)    3  0.473484D+00         -0.324695         -0.747638
 Vib (Bot)    4  0.341189D+00         -0.467006         -1.075320
 Vib (Bot)    5  0.326499D+00         -0.486118         -1.119328
 Vib (Bot)    6  0.242199D+00         -0.615827         -1.417994
 Vib (V=0)       0.384299D+01          0.584669          1.346250
 Vib (V=0)    1  0.172895D+01          0.237781          0.547512
 Vib (V=0)    2  0.143248D+01          0.156089          0.359408
 Vib (V=0)    3  0.118861D+01          0.075040          0.172786
 Vib (V=0)    4  0.110532D+01          0.043487          0.100133
 Vib (V=0)    5  0.109716D+01          0.040271          0.092726
 Vib (V=0)    6  0.105557D+01          0.023488          0.054083
 Electronic      0.100000D+01          0.000000          0.000000
 Translational   0.885658D+07          6.947266         15.996671
 Rotational      0.745794D+04          3.872619          8.917034
 ***** Axes restored to original set *****
 -------------------------------------------------------------------
 Center     Atomic                   Forces (Hartrees/Bohr)
 Number     Number              X              Y              Z
 -------------------------------------------------------------------
      1        8           0.000022736   -0.000002487   -0.000001165
      2        1          -0.000031039    0.000008532   -0.000009392
      3        1           0.000000348    0.000000302    0.000005775
      4        8           0.000029611   -0.000023060    0.000023703
      5        1          -0.000008565   -0.000000621   -0.000011441
      6        1          -0.000013432    0.000013740   -0.000003985
      7        1           0.000000342    0.000003594   -0.000003496
 -------------------------------------------------------------------
 Cartesian Forces:  Max     0.000031039 RMS     0.000014256
 FormGI is forming the generalized inverse of G from B-inverse, IUseBI=4.

 GradGradGradGradGradGradGradGradGradGradGradGradGradGradGradGradGradGrad
 Berny optimization.
 Internal  Forces:  Max     0.000023231 RMS     0.000010115
 Search for a local minimum.
 Step number   1 out of a maximum of    2
 All quantities printed in internal units (Hartrees-Bohrs-Radians)
 Second derivative matrix not updated -- analytic derivatives used.
 The second derivative matrix:
                          R1        R2        R3        R4        R5
           R1           0.13441
           R2           0.00472   0.52989
           R3           0.00447  -0.00224   0.53204
           R4           0.11734  -0.00345  -0.00342   0.13466
           R5          -0.00335   0.00039   0.00040   0.00474   0.53008
           R6          -0.00339   0.00037   0.00051   0.00437  -0.00213
           A1          -0.00156  -0.00180  -0.00497   0.00841  -0.00017
           A2          -0.00152  -0.00610  -0.00136   0.01024   0.00019
           A3           0.00460   0.00721   0.00897  -0.01193  -0.00004
           A4           0.00811  -0.00023  -0.00020  -0.00165  -0.00065
           A5           0.01046  -0.00020   0.00008  -0.00138  -0.00469
           A6          -0.01179  -0.00035  -0.00004   0.00472   0.00907
           A7           0.00266  -0.00184  -0.00057   0.00259   0.00458
           A8           0.00228   0.00174   0.00234   0.00174  -0.00012
           D1          -0.00359  -0.00396  -0.00328  -0.00360  -0.00368
           D2           0.00118  -0.00329  -0.00335  -0.00124   0.00283
           D3          -0.00114   0.00331   0.00336   0.00125  -0.00297
           D4           0.00363   0.00398   0.00329   0.00362   0.00353
                          R6        A1        A2        A3        A4
           R6           0.53205
           A1          -0.00018   0.05172
           A2           0.00003  -0.00986   0.05113
           A3          -0.00011  -0.03577  -0.03566   0.06338
           A4          -0.00484  -0.00111   0.00086  -0.00033   0.05136
           A5          -0.00094   0.00015   0.00319  -0.00172  -0.01008
           A6           0.00950  -0.00104  -0.00104   0.00087  -0.03559
           A7           0.00454  -0.00724   0.00667  -0.00172   0.00355
           A8           0.00046   0.00004  -0.00065   0.00194  -0.00359
           D1          -0.00338   0.00198   0.00165  -0.00490   0.00162
           D2           0.00312   0.00222   0.00233  -0.00546  -0.00236
           D3          -0.00326  -0.00243  -0.00217   0.00539   0.00184
           D4           0.00324  -0.00219  -0.00149   0.00483  -0.00214
                          A5        A6        A7        A8        D1
           A5           0.05120
           A6          -0.03482   0.06539
           A7           0.00081   0.00918   0.04913
           A8           0.00348   0.00038   0.00063   0.01286
           D1           0.00185  -0.00499  -0.00023   0.00058   0.00438
           D2          -0.00231   0.00489  -0.00258   0.00042   0.00047
           D3           0.00272  -0.00520   0.00185   0.00009   0.00036
           D4          -0.00144   0.00468  -0.00050  -0.00008  -0.00355
                          D2        D3        D4
           D2           0.00399
           D3          -0.00353   0.00391
           D4          -0.00001   0.00002   0.00356
 ITU=  0
     Eigenvalues ---    0.00074   0.00263   0.00660   0.01240   0.01515
     Eigenvalues ---    0.04421   0.06198   0.06724   0.10676   0.10832
     Eigenvalues ---    0.25329   0.52875   0.53001   0.53338   0.53367
 Angle between quadratic step and forces=  49.54 degrees.
 Linear search not attempted -- first point.
 Iteration  1 RMS(Cart)=  0.00052481 RMS(Int)=  0.00000067
 Iteration  2 RMS(Cart)=  0.00000051 RMS(Int)=  0.00000048
 Variable       Old X    -DE/DX   Delta X   Delta X   Delta X     New X
                                 (Linear)    (Quad)   (Total)
    R1        2.26275  -0.00002   0.00000  -0.00059  -0.00059   2.26216
    R2        1.82753   0.00000   0.00000   0.00003   0.00003   1.82756
    R3        1.82661   0.00000   0.00000   0.00002   0.00002   1.82664
    R4        2.26150   0.00001   0.00000   0.00067   0.00067   2.26217
    R5        1.82753   0.00000   0.00000   0.00003   0.00003   1.82756
    R6        1.82661   0.00000   0.00000   0.00003   0.00003   1.82664
    A1        2.06481  -0.00000   0.00000  -0.00026  -0.00026   2.06455
    A2        2.09386  -0.00000   0.00000  -0.00019  -0.00019   2.09367
    A3        1.91864   0.00000   0.00000   0.00002   0.00002   1.91866
    A4        2.06513  -0.00001   0.00000  -0.00057  -0.00057   2.06457
    A5        2.09445  -0.00002   0.00000  -0.00078  -0.00078   2.09367
    A6        1.91894   0.00001   0.00000  -0.00027  -0.00028   1.91866
    A7        3.08936  -0.00001   0.00000  -0.00017  -0.00017   3.08919
    A8        2.96942   0.00000   0.00000   0.00000   0.00000   2.96942
    D1        2.11892   0.00001   0.00000   0.00208   0.00208   2.12101
    D2       -1.69877  -0.00001   0.00000  -0.00040  -0.00040  -1.69918
    D3       -1.70062   0.00001   0.00000   0.00142   0.00142  -1.69921
    D4        0.76487  -0.00001   0.00000  -0.00107  -0.00107   0.76380
         Item               Value     Threshold  Converged?
 Maximum Force            0.000023     0.000450     YES
 RMS     Force            0.000010     0.000300     YES
 Maximum Displacement     0.001004     0.001800     YES
 RMS     Displacement     0.000525     0.001200     YES
 Predicted change in Energy=-4.312664D-08
 Optimization completed.
    -- Stationary point found.
                           ----------------------------
                           !   Optimized Parameters   !
                           ! (Angstroms and Degrees)  !
 --------------------------                            --------------------------
 ! Name  Definition              Value          Derivative Info.                !
 --------------------------------------------------------------------------------
 ! R1    R(1,2)                  1.1974         -DE/DX =    0.0                 !
 ! R2    R(1,3)                  0.9671         -DE/DX =    0.0                 !
 ! R3    R(1,7)                  0.9666         -DE/DX =    0.0                 !
 ! R4    R(2,4)                  1.1967         -DE/DX =    0.0                 !
 ! R5    R(4,5)                  0.9671         -DE/DX =    0.0                 !
 ! R6    R(4,6)                  0.9666         -DE/DX =    0.0                 !
 ! A1    A(2,1,3)              118.3051         -DE/DX =    0.0                 !
 ! A2    A(2,1,7)              119.9693         -DE/DX =    0.0                 !
 ! A3    A(3,1,7)              109.9298         -DE/DX =    0.0                 !
 ! A4    A(2,4,5)              118.3234         -DE/DX =    0.0                 !
 ! A5    A(2,4,6)              120.0032         -DE/DX =    0.0                 !
 ! A6    A(5,4,6)              109.9471         -DE/DX =    0.0                 !
 ! A7    L(1,2,4,3,-1)         177.0073         -DE/DX =    0.0                 !
 ! A8    L(1,2,4,3,-2)         170.1354         -DE/DX =    0.0                 !
 ! D1    D(3,1,4,5)            121.4054         -DE/DX =    0.0                 !
 ! D2    D(3,1,4,6)            -97.3324         -DE/DX =    0.0                 !
 ! D3    D(7,1,4,5)            -97.4386         -DE/DX =    0.0                 !
 ! D4    D(7,1,4,6)             43.8236         -DE/DX =    0.0                 !
 --------------------------------------------------------------------------------
 GradGradGradGradGradGradGradGradGradGradGradGradGradGradGradGradGradGrad


 ----------------------------------------------------------------------

 Electric dipole moment (input orientation):
 (Debye = 10**-18 statcoulomb cm , SI units = C m)
                  (au)            (Debye)         (10**-30 SI)
   Tot        0.484534D+00      0.123156D+01      0.410805D+01
   x         -0.114509D-01     -0.291054D-01     -0.970852D-01
   y          0.467676D+00      0.118871D+01      0.396512D+01
   z         -0.126179D+00     -0.320715D+00     -0.106979D+01

 Dipole polarizability, Alpha (input orientation).
 (esu units = cm**3 , SI units = C**2 m**2 J**-1)
 Alpha(0;0):
               (au)            (10**-24 esu)      (10**-40 SI)
   iso        0.157610D+02      0.233554D+01      0.259864D+01
   aniso      0.621806D+01      0.921421D+00      0.102522D+01
   xx         0.198310D+02      0.293866D+01      0.326970D+01
   yx        -0.156830D-01     -0.232398D-02     -0.258578D-02
   yy         0.138046D+02      0.204564D+01      0.227608D+01
   zx        -0.673429D+00     -0.997919D-01     -0.111033D+00
   zy        -0.659068D-01     -0.976638D-02     -0.108666D-01
   zz         0.136474D+02      0.202233D+01      0.225015D+01

 ----------------------------------------------------------------------

 Dipole orientation:
     8         -5.04392165         -0.90140983          2.70982721
     1         -2.78500315         -0.95997882          2.82770139
     1         -5.90664590         -2.30143367          1.91263994
     8         -0.52660738         -1.01843085          2.72474071
     1          0.34147844          0.37848227          1.92792040
     1          0.43780998         -1.61655616          4.15604532
     1         -6.01667165         -0.30029025          4.13423320

 Electric dipole moment (dipole orientation):
 (Debye = 10**-18 statcoulomb cm , SI units = C m)
                  (au)            (Debye)         (10**-30 SI)
   Tot        0.484534D+00      0.123156D+01      0.410805D+01
   x          0.000000D+00      0.000000D+00      0.000000D+00
   y          0.000000D+00      0.000000D+00      0.000000D+00
   z          0.484534D+00      0.123156D+01      0.410805D+01

 Dipole polarizability, Alpha (dipole orientation).
 (esu units = cm**3 , SI units = C**2 m**2 J**-1)
 Alpha(0;0):
               (au)            (10**-24 esu)      (10**-40 SI)
   iso        0.157610D+02      0.233554D+01      0.259864D+01
   aniso      0.621806D+01      0.921421D+00      0.102522D+01
   xx         0.198569D+02      0.294249D+01      0.327396D+01
   yx         0.541659D+00      0.802655D-01      0.893074D-01
   yy         0.136032D+02      0.201579D+01      0.224287D+01
   zx         0.182800D-01      0.270882D-02      0.301397D-02
   zy         0.161076D-02      0.238690D-03      0.265578D-03
   zz         0.138229D+02      0.204834D+01      0.227909D+01

 ----------------------------------------------------------------------
 1\1\GINC-N2184\Freq\RwB97XD\Aug-CC-pVDZ\H5O2(1+)\GDS001\13-Feb-2023\0\
 \#N Geom=AllCheck Guess=TCheck SCRF=Check GenChk RwB97XD/Aug-CC-pVDZ F
 req\\blah\\1,1\O,-2.6932020056,1.4602124108,0.1500617784\H,-1.49927673
 21,1.5501368677,0.135483168\H,-3.1261561619,1.2380321809,0.9857918681\
 O,-0.3028673072,1.5272452231,0.1512834521\H,0.1528872636,0.935741223,-
 0.4632630161\H,0.1950825416,2.3501079673,0.2474839839\H,-3.2313015458,
 2.0954565957,-0.3410944019\\Version=ES64L-G16RevA.03\State=1-A\HF=-153
 .1698514\RMSD=2.035e-09\RMSF=1.426e-05\ZeroPoint=0.0569504\Thermal=0.0
 618873\Dipole=-0.0114509,0.4676759,-0.126179\DipoleDeriv=-1.1325748,-0
 .0306443,0.0223275,-0.0568307,-0.4270893,0.0010448,0.0098314,0.0007156
 ,-0.4266846,1.9612056,0.0206612,-0.0991945,0.0322055,0.2532958,0.00128
 16,-0.0567408,0.0024651,0.267329,0.3163465,0.0484094,-0.0425985,0.0614
 882,0.3945668,-0.020052,-0.0689241,-0.0224769,0.4137369,-1.1357535,0.0
 009239,0.0138581,0.017184,-0.4248287,-0.0003439,-0.0100859,-0.0010297,
 -0.4260346,0.3238681,-0.0679725,-0.0123235,-0.092576,0.4101095,0.01819
 48,-0.028498,0.0194271,0.3911081,0.33066,0.0519145,0.0484501,0.0831412
 ,0.4057683,0.009888,0.0595949,0.0097194,0.3845089,0.3362481,-0.0232922
 ,0.0694808,-0.0446122,0.3881775,-0.0100133,0.0948224,-0.0088206,0.3960
 364\Polar=19.8310392,-0.015683,13.8046499,-0.6734289,-0.0659068,13.647
 3718\Quadrupole=6.5817621,-3.1487051,-3.4330569,-0.3397593,-2.2378199,
 -0.1521209\PG=C01 [X(H5O2)]\NImag=0\\0.49467934,-0.14092655,0.28965164
 ,-0.06479927,-0.30417005,0.58510129,-0.03083452,-0.00665825,-0.0029259
 3,0.03375719,-0.01556106,-0.03275745,0.01983498,0.00010243,0.07624439,
 -0.01025234,0.01873268,-0.04811202,0.00488953,-0.00141189,0.07075788,-
 0.15577551,-0.03990597,0.19413241,0.00832115,-0.00305427,0.01791552,0.
 14038112,-0.01855280,-0.04002829,0.09457145,-0.00597242,-0.00230994,-0
 .00045656,0.03726438,0.04654363,0.17085376,0.12173427,-0.39305306,0.01
 201903,-0.00362677,0.00480821,-0.18714433,-0.11739025,0.40224780,-0.09
 141019,0.00026100,0.00577331,-0.03228035,0.00914223,-0.01579990,-0.006
 29105,0.00218402,-0.00701430,0.48273753,-0.00276437,0.01353283,-0.0006
 8133,0.00519162,-0.05285797,-0.01654212,-0.00018763,0.00024226,0.00077
 338,0.08501924,0.63949328,0.00656172,0.00028899,0.01224958,-0.00494072
 ,-0.01713933,-0.02704285,-0.00176797,0.00012530,-0.00080281,-0.1444131
 3,0.26976989,0.24776676,-0.00604579,-0.00103914,-0.00151300,0.00741999
 ,0.01210323,0.01367486,-0.00029410,-0.00014927,-0.00004356,-0.16398495
 ,0.13267437,0.15638958,0.14959027,-0.00572798,-0.00075434,-0.00035445,
 0.01158398,0.00250771,0.00308183,0.00005334,0.00065566,-0.00033179,0.1
 0287737,-0.21260820,-0.18690086,-0.12851836,0.22680319,-0.00480065,-0.
 00123978,-0.00005356,0.00695231,0.00589882,0.00091045,-0.00010194,-0.0
 0017149,-0.00019368,0.14851443,-0.21485864,-0.21231557,-0.15249539,0.2
 0668338,0.21278390,-0.00551527,0.00238282,-0.00009379,0.00755183,-0.01
 698111,-0.00114037,-0.00068805,-0.00000424,0.00000135,-0.18376057,-0.2
 1757456,-0.01296073,0.01398453,0.01974738,0.00191382,0.16990453,0.0075
 5221,-0.00088314,-0.00077937,-0.01303087,0.00613681,0.00342667,0.00029
 505,-0.00007355,0.00040415,-0.19355859,-0.38741467,-0.06729061,-0.0147
 9274,-0.01635787,0.00364515,0.21302517,0.39783568,0.00166583,-0.000555
 44,0.00041992,-0.00513590,0.00109877,-0.00294713,-0.00000203,0.0003084
 4,0.00052353,0.00767439,-0.03954713,-0.01927071,-0.01617115,-0.0223198
 3,-0.00181098,0.01204774,0.06098228,0.02294296,-0.20509806,0.18588609,
 -0.13057373,0.00606472,0.01424854,-0.00928731,0.01434643,-0.01476966,0
 .01132805,-0.00501042,-0.00235867,0.00113124,-0.00066995,-0.00001574,0
 .00001743,-0.00147699,0.00050976,-0.00007888,0.19184427,0.17598054,-0.
 22876125,0.19157878,0.00878350,0.00303645,-0.00683060,0.00553509,-0.00
 502978,-0.00156299,-0.00592527,-0.00038754,0.00114661,-0.00027809,-0.0
 0024613,0.00004256,-0.00059545,0.00075672,0.00003291,-0.18350032,0.230
 63152,-0.09922904,0.16520933,-0.15655216,-0.01085832,-0.00465458,0.001
 62547,-0.02303166,0.02301311,-0.01352999,0.00526520,0.00108594,-0.0005
 8439,0.00015865,0.00014173,0.00067944,0.00023197,-0.00038828,0.0001424
 1,0.12746320,-0.18440726,0.16821922\\-0.00002274,0.00000249,0.00000117
 ,0.00003104,-0.00000853,0.00000939,-0.00000035,-0.00000030,-0.00000578
 ,-0.00002961,0.00002306,-0.00002370,0.00000856,0.00000062,0.00001144,0
 .00001343,-0.00001374,0.00000398,-0.00000034,-0.00000359,0.00000350\\\
 @


 WHEN HAVING A MEETING OF THE MINDS,
 MAKE SURE YOU HAVE THE EQUIPMENT FOR IT.
 Job cpu time:       0 days  0 hours  3 minutes 44.0 seconds.
 Elapsed time:       0 days  0 hours  0 minutes  8.5 seconds.
 File lengths (MBytes):  RWF=     72 Int=      0 D2E=      0 Chk=      8 Scr=      8
 Normal termination of Gaussian 16 at Mon Feb 13 17:10:18 2023.
