 Entering Gaussian System, Link 0=g16
 Input=h7o3p.gjf
 Output=h7o3p.log
 Initial command:
 /sw/contrib/gaussian/g16/A03/g16/l1.exe "/gscratch/scrubbed/gds001/Gau-25330.inp" -scrdir="/gscratch/scrubbed/gds001/"
 Entering Link 1 = /sw/contrib/gaussian/g16/A03/g16/l1.exe PID=     25331.
  
 Copyright (c) 1988,1990,1992,1993,1995,1998,2003,2009,2016,
            Gaussian, Inc.  All Rights Reserved.
  
 This is part of the Gaussian(R) 16 program.  It is based on
 the Gaussian(R) 09 system (copyright 2009, Gaussian, Inc.),
 the Gaussian(R) 03 system (copyright 2003, Gaussian, Inc.),
 the Gaussian(R) 98 system (copyright 1998, Gaussian, Inc.),
 the Gaussian(R) 94 system (copyright 1995, Gaussian, Inc.),
 the Gaussian 92(TM) system (copyright 1992, Gaussian, Inc.),
 the Gaussian 90(TM) system (copyright 1990, Gaussian, Inc.),
 the Gaussian 88(TM) system (copyright 1988, Gaussian, Inc.),
 the Gaussian 86(TM) system (copyright 1986, Carnegie Mellon
 University), and the Gaussian 82(TM) system (copyright 1983,
 Carnegie Mellon University). Gaussian is a federally registered
 trademark of Gaussian, Inc.
  
 This software contains proprietary and confidential information,
 including trade secrets, belonging to Gaussian, Inc.
  
 This software is provided under written license and may be
 used, copied, transmitted, or stored only in accord with that
 written license.
  
 The following legend is applicable only to US Government
 contracts under FAR:
  
                    RESTRICTED RIGHTS LEGEND
  
 Use, reproduction and disclosure by the US Government is
 subject to restrictions as set forth in subparagraphs (a)
 and (c) of the Commercial Computer Software - Restricted
 Rights clause in FAR 52.227-19.
  
 Gaussian, Inc.
 340 Quinnipiac St., Bldg. 40, Wallingford CT 06492
  
  
 ---------------------------------------------------------------
 Warning -- This program may not be used in any manner that
 competes with the business of Gaussian, Inc. or will provide
 assistance to any competitor of Gaussian, Inc.  The licensee
 of this program is prohibited from giving any competitor of
 Gaussian, Inc. access to this program.  By using this program,
 the user acknowledges that Gaussian, Inc. is engaged in the
 business of creating and licensing software in the field of
 computational chemistry and represents and warrants to the
 licensee that it is not a competitor of Gaussian, Inc. and that
 it will not use this program in any manner prohibited above.
 ---------------------------------------------------------------
  

 Cite this work as:
 Gaussian 16, Revision A.03,
 M. J. Frisch, G. W. Trucks, H. B. Schlegel, G. E. Scuseria, 
 M. A. Robb, J. R. Cheeseman, G. Scalmani, V. Barone, 
 G. A. Petersson, H. Nakatsuji, X. Li, M. Caricato, A. V. Marenich, 
 J. Bloino, B. G. Janesko, R. Gomperts, B. Mennucci, H. P. Hratchian, 
 J. V. Ortiz, A. F. Izmaylov, J. L. Sonnenberg, D. Williams-Young, 
 F. Ding, F. Lipparini, F. Egidi, J. Goings, B. Peng, A. Petrone, 
 T. Henderson, D. Ranasinghe, V. G. Zakrzewski, J. Gao, N. Rega, 
 G. Zheng, W. Liang, M. Hada, M. Ehara, K. Toyota, R. Fukuda, 
 J. Hasegawa, M. Ishida, T. Nakajima, Y. Honda, O. Kitao, H. Nakai, 
 T. Vreven, K. Throssell, J. A. Montgomery, Jr., J. E. Peralta, 
 F. Ogliaro, M. J. Bearpark, J. J. Heyd, E. N. Brothers, K. N. Kudin, 
 V. N. Staroverov, T. A. Keith, R. Kobayashi, J. Normand, 
 K. Raghavachari, A. P. Rendell, J. C. Burant, S. S. Iyengar, 
 J. Tomasi, M. Cossi, J. M. Millam, M. Klene, C. Adamo, R. Cammi, 
 J. W. Ochterski, R. L. Martin, K. Morokuma, O. Farkas, 
 J. B. Foresman, and D. J. Fox, Gaussian, Inc., Wallingford CT, 2016.
 
 ******************************************
 Gaussian 16:  ES64L-G16RevA.03 25-Dec-2016
                13-Feb-2023 
 ******************************************
 %nprocshared=28
 Will use up to   28 processors via shared memory.
 %mem=41GB
 -----------------------------
 # wB97XD/aug-cc-pVDZ opt freq
 -----------------------------
 1/18=20,19=15,26=3,38=1/1,3;
 2/9=110,12=2,17=6,18=5,40=1/2;
 3/5=16,7=10,11=2,25=1,30=1,71=1,74=-58/1,2,3;
 4//1;
 5/5=2,38=5/2;
 6/7=2,8=2,9=2,10=2,28=1/1;
 7//1,2,3,16;
 1/18=20,19=15,26=3/3(2);
 2/9=110/2;
 99//99;
 2/9=110/2;
 3/5=16,7=10,11=2,25=1,30=1,71=1,74=-58/1,2,3;
 4/5=5,16=3,69=1/1;
 5/5=2,38=5/2;
 7//1,2,3,16;
 1/18=20,19=15,26=3/3(-5);
 2/9=110/2;
 6/7=2,8=2,9=2,10=2,19=2,28=1/1;
 99/9=1/99;
 ----
 blah
 ----
 Symbolic Z-matrix:
 Charge =  1 Multiplicity = 1
 O                    -7.40506   1.35003  -0.37652 
 H                    -8.18914   1.53148  -0.94535 
 H                    -7.50319   0.37374  -0.3009 
 O                    -5.78707   3.05492   0.4822 
 H                    -4.87179   2.69061   0.25316 
 H                    -5.89152   2.9822    1.45806 
 O                    -3.52903   2.04615   0.10465 
 H                    -3.15834   1.13462   0.11945 
 H                    -2.71073   2.532    -0.15125 
 H                    -6.44243   2.4084    0.06349 
 
 Add virtual bond connecting atoms O7         and H5         Dist= 2.83D+00.
 Add virtual bond connecting atoms H10        and O1         Dist= 2.83D+00.

 GradGradGradGradGradGradGradGradGradGradGradGradGradGradGradGradGradGrad
 Berny optimization.
 Initialization pass.
                           ----------------------------
                           !    Initial Parameters    !
                           ! (Angstroms and Degrees)  !
 --------------------------                            --------------------------
 ! Name  Definition              Value          Derivative Info.                !
 --------------------------------------------------------------------------------
 ! R1    R(1,2)                  0.9855         estimate D2E/DX2                !
 ! R2    R(1,3)                  0.9841         estimate D2E/DX2                !
 ! R3    R(1,10)                 1.4968         estimate D2E/DX2                !
 ! R4    R(4,5)                  1.0114         estimate D2E/DX2                !
 ! R5    R(4,6)                  0.9841         estimate D2E/DX2                !
 ! R6    R(4,10)                 1.0113         estimate D2E/DX2                !
 ! R7    R(5,7)                  1.4968         estimate D2E/DX2                !
 ! R8    R(7,8)                  0.9841         estimate D2E/DX2                !
 ! R9    R(7,9)                  0.9855         estimate D2E/DX2                !
 ! A1    A(2,1,3)               98.492          estimate D2E/DX2                !
 ! A2    A(2,1,10)             123.446          estimate D2E/DX2                !
 ! A3    A(3,1,10)             137.9877         estimate D2E/DX2                !
 ! A4    A(5,4,6)              107.0966         estimate D2E/DX2                !
 ! A5    A(5,4,10)             105.2133         estimate D2E/DX2                !
 ! A6    A(6,4,10)             107.1288         estimate D2E/DX2                !
 ! A7    A(5,7,8)              137.3256         estimate D2E/DX2                !
 ! A8    A(5,7,9)              123.9454         estimate D2E/DX2                !
 ! A9    A(8,7,9)               98.4977         estimate D2E/DX2                !
 ! A10   L(4,5,7,3,-1)         178.0195         estimate D2E/DX2                !
 ! A11   L(1,10,4,8,-1)        178.0937         estimate D2E/DX2                !
 ! A12   L(4,5,7,3,-2)         188.7891         estimate D2E/DX2                !
 ! A13   L(1,10,4,8,-2)        188.2453         estimate D2E/DX2                !
 ! D1    D(2,1,4,5)           -129.9606         estimate D2E/DX2                !
 ! D2    D(2,1,4,6)            118.0778         estimate D2E/DX2                !
 ! D3    D(3,1,4,5)             49.7284         estimate D2E/DX2                !
 ! D4    D(3,1,4,6)            -62.2332         estimate D2E/DX2                !
 ! D5    D(6,4,7,8)             73.346          estimate D2E/DX2                !
 ! D6    D(6,4,7,9)           -108.8575         estimate D2E/DX2                !
 ! D7    D(10,4,7,8)           -38.5776         estimate D2E/DX2                !
 ! D8    D(10,4,7,9)           139.2189         estimate D2E/DX2                !
 --------------------------------------------------------------------------------
 Trust Radius=3.00D-01 FncErr=1.00D-07 GrdErr=1.00D-06 EigMax=2.50D+02 EigMin=1.00D-04
 Number of steps in this run=     40 maximum allowed number of steps=    100.
 GradGradGradGradGradGradGradGradGradGradGradGradGradGradGradGradGradGrad

                          Input orientation:                          
 ---------------------------------------------------------------------
 Center     Atomic      Atomic             Coordinates (Angstroms)
 Number     Number       Type             X           Y           Z
 ---------------------------------------------------------------------
      1          8           0       -7.405064    1.350028   -0.376519
      2          1           0       -8.189136    1.531477   -0.945351
      3          1           0       -7.503192    0.373745   -0.300897
      4          8           0       -5.787071    3.054917    0.482197
      5          1           0       -4.871786    2.690608    0.253165
      6          1           0       -5.891522    2.982195    1.458059
      7          8           0       -3.529034    2.046148    0.104652
      8          1           0       -3.158335    1.134621    0.119451
      9          1           0       -2.710729    2.532004   -0.151252
     10          1           0       -6.442433    2.408398    0.063490
 ---------------------------------------------------------------------
                    Distance matrix (angstroms):
                    1          2          3          4          5
     1  O    0.000000
     2  H    0.985526   0.000000
     3  H    0.984112   1.492040   0.000000
     4  O    2.502387   3.182559   3.278261   0.000000
     5  H    2.934477   3.712794   3.549527   1.011397   0.000000
     6  H    2.884520   3.627671   3.534886   0.984127   1.605197
     7  O    3.967331   4.804575   4.330743   2.501776   1.496785
     8  H    4.281015   5.157543   4.430960   3.275572   2.318380
     9  H    4.846091   5.625353   5.258154   3.184113   2.204286
    10  H    1.496801   2.199483   2.323317   1.011337   1.607032
                    6          7          8          9         10
     6  H    0.000000
     7  O    2.879105   0.000000
     8  H    3.560297   0.984133   0.000000
     9  H    3.593049   0.985478   1.492083   0.000000
    10  H    1.605481   2.936121   3.522916   3.739921   0.000000
 Stoichiometry    H7O3(1+)
 Framework group  C1[X(H7O3)]
 Deg. of freedom    24
 Full point group                 C1      NOp   1
 Largest Abelian subgroup         C1      NOp   1
 Largest concise Abelian subgroup C1      NOp   1
                         Standard orientation:                         
 ---------------------------------------------------------------------
 Center     Atomic      Atomic             Coordinates (Angstroms)
 Number     Number       Type             X           Y           Z
 ---------------------------------------------------------------------
      1          8           0       -1.984308   -0.464458   -0.006877
      2          1           0       -2.787377   -0.382450   -0.572223
      3          1           0       -2.243298   -1.268705    0.497690
      4          8           0        0.001600    1.057568   -0.046261
      5          1           0        0.803376    0.445266   -0.118118
      6          1           0        0.005587    1.433972    0.863029
      7          8           0        1.983020   -0.469291   -0.006796
      8          1           0        2.185972   -1.342196    0.399856
      9          1           0        2.836892   -0.325831   -0.477422
     10          1           0       -0.803643    0.449385   -0.113343
 ---------------------------------------------------------------------
 Rotational constants (GHZ):          15.4113320           3.2650624           2.7462603
 Standard basis: Aug-CC-pVDZ (5D, 7F)
 There are   138 symmetry adapted cartesian basis functions of A   symmetry.
 There are   132 symmetry adapted basis functions of A   symmetry.
   132 basis functions,   206 primitive gaussians,   138 cartesian basis functions
    15 alpha electrons       15 beta electrons
       nuclear repulsion energy        90.1459855591 Hartrees.
 NAtoms=   10 NActive=   10 NUniq=   10 SFac= 1.00D+00 NAtFMM=   60 NAOKFM=F Big=F
 Integral buffers will be    131072 words long.
 Raffenetti 2 integral format.
 Two-electron integral symmetry is turned on.
 Nuclear repulsion after empirical dispersion term =       90.1437570932 Hartrees.
 One-electron integrals computed using PRISM.
 NBasis=   132 RedAO= T EigKep=  8.18D-04  NBF=   132
 NBsUse=   132 1.00D-06 EigRej= -1.00D+00 NBFU=   132
 ExpMin= 2.97D-02 ExpMax= 1.17D+04 ExpMxC= 4.01D+02 IAcc=3 IRadAn=         5 AccDes= 0.00D+00
 Harris functional with IExCor= 4639 and IRadAn=       5 diagonalized for initial guess.
 HarFok:  IExCor= 4639 AccDes= 0.00D+00 IRadAn=         5 IDoV= 1 UseB2=F ITyADJ=14
 ICtDFT=  3500011 ScaDFX=  1.000000  1.000000  1.000000  1.000000
 FoFCou: FMM=F IPFlag=           0 FMFlag=      100000 FMFlg1=           0
         NFxFlg=           0 DoJE=T BraDBF=F KetDBF=T FulRan=T
         wScrn=  0.000000 ICntrl=       500 IOpCl=  0 I1Cent=   200000004 NGrid=           0
         NMat0=    1 NMatS0=      1 NMatT0=    0 NMatD0=    1 NMtDS0=    0 NMtDT0=    0
 Petite list used in FoFCou.
 Keep R1 ints in memory in canonical form, NReq=104022794.
 Requested convergence on RMS density matrix=1.00D-08 within 128 cycles.
 Requested convergence on MAX density matrix=1.00D-06.
 Requested convergence on             energy=1.00D-06.
 No special actions if energy rises.
 SCF Done:  E(RwB97XD) =  -229.618346293     A.U. after   10 cycles
            NFock= 10  Conv=0.41D-08     -V/T= 2.0062

 **********************************************************************

            Population analysis using the SCF density.

 **********************************************************************

 Orbital symmetries:
       Occupied  (A) (A) (A) (A) (A) (A) (A) (A) (A) (A) (A) (A)
                 (A) (A) (A)
       Virtual   (A) (A) (A) (A) (A) (A) (A) (A) (A) (A) (A) (A)
                 (A) (A) (A) (A) (A) (A) (A) (A) (A) (A) (A) (A)
                 (A) (A) (A) (A) (A) (A) (A) (A) (A) (A) (A) (A)
                 (A) (A) (A) (A) (A) (A) (A) (A) (A) (A) (A) (A)
                 (A) (A) (A) (A) (A) (A) (A) (A) (A) (A) (A) (A)
                 (A) (A) (A) (A) (A) (A) (A) (A) (A) (A) (A) (A)
                 (A) (A) (A) (A) (A) (A) (A) (A) (A) (A) (A) (A)
                 (A) (A) (A) (A) (A) (A) (A) (A) (A) (A) (A) (A)
                 (A) (A) (A) (A) (A) (A) (A) (A) (A) (A) (A) (A)
                 (A) (A) (A) (A) (A) (A) (A) (A) (A)
 The electronic state is 1-A.
 Alpha  occ. eigenvalues --  -19.56390 -19.49453 -19.49432  -1.42580  -1.33032
 Alpha  occ. eigenvalues --   -1.32741  -0.90142  -0.90082  -0.81389  -0.81236
 Alpha  occ. eigenvalues --   -0.75937  -0.70835  -0.69681  -0.62208  -0.62083
 Alpha virt. eigenvalues --   -0.12247  -0.09255  -0.08194  -0.06196  -0.04329
 Alpha virt. eigenvalues --   -0.03548  -0.02270   0.00428   0.02182   0.02480
 Alpha virt. eigenvalues --    0.02955   0.04336   0.05524   0.06142   0.07025
 Alpha virt. eigenvalues --    0.07236   0.09312   0.10209   0.11062   0.11875
 Alpha virt. eigenvalues --    0.12513   0.13677   0.15022   0.16163   0.19101
 Alpha virt. eigenvalues --    0.19490   0.21566   0.21843   0.25068   0.27054
 Alpha virt. eigenvalues --    0.29402   0.31577   0.33255   0.33800   0.34803
 Alpha virt. eigenvalues --    0.35518   0.38095   0.39123   0.40777   0.41444
 Alpha virt. eigenvalues --    0.42770   0.44138   0.45193   0.45550   0.46858
 Alpha virt. eigenvalues --    0.53724   0.54580   0.60002   0.60628   0.66305
 Alpha virt. eigenvalues --    0.68034   0.69921   0.70315   0.73814   0.83216
 Alpha virt. eigenvalues --    0.83294   0.87058   0.87754   0.89817   0.92690
 Alpha virt. eigenvalues --    0.98334   1.01568   1.03132   1.03834   1.06769
 Alpha virt. eigenvalues --    1.10449   1.15559   1.20564   1.24469   1.27228
 Alpha virt. eigenvalues --    1.28277   1.31988   1.55673   1.55766   1.58768
 Alpha virt. eigenvalues --    1.64061   1.65574   1.66900   1.68623   1.73844
 Alpha virt. eigenvalues --    1.80627   1.81177   1.84428   1.97710   2.01957
 Alpha virt. eigenvalues --    2.02089   2.05625   2.06420   2.13525   2.15917
 Alpha virt. eigenvalues --    2.16944   2.18567   2.20985   2.44961   2.50432
 Alpha virt. eigenvalues --    2.54489   2.54545   2.56188   2.58885   2.73370
 Alpha virt. eigenvalues --    2.87580   2.92420   3.16696   3.18459   3.19074
 Alpha virt. eigenvalues --    3.19169   3.23101   3.23842   3.26072   3.27758
 Alpha virt. eigenvalues --    3.48715   3.50345   3.53182   3.79266   3.80743
 Alpha virt. eigenvalues --    3.88749   4.02518
          Condensed to atoms (all electrons):
               1          2          3          4          5          6
     1  O    7.746505   0.353012   0.342369  -0.071866  -0.005465  -0.002834
     2  H    0.353012   0.534390  -0.060749   0.000714  -0.000140  -0.001255
     3  H    0.342369  -0.060749   0.511372   0.000174   0.000411   0.000419
     4  O   -0.071866   0.000714   0.000174   7.412725   0.252257   0.337108
     5  H   -0.005465  -0.000140   0.000411   0.252257   0.387747  -0.026810
     6  H   -0.002834  -0.001255   0.000419   0.337108  -0.026810   0.441983
     7  O    0.000461   0.000260  -0.000211  -0.073411   0.026660  -0.002076
     8  H   -0.000277  -0.000082   0.000196   0.000018  -0.004669   0.000275
     9  H    0.000180   0.000057  -0.000071   0.000778  -0.011824  -0.001133
    10  H    0.025467  -0.011774  -0.004636   0.254357  -0.023446  -0.028631
               7          8          9         10
     1  O    0.000461  -0.000277   0.000180   0.025467
     2  H    0.000260  -0.000082   0.000057  -0.011774
     3  H   -0.000211   0.000196  -0.000071  -0.004636
     4  O   -0.073411   0.000018   0.000778   0.254357
     5  H    0.026660  -0.004669  -0.011824  -0.023446
     6  H   -0.002076   0.000275  -0.001133  -0.028631
     7  O    7.750532   0.343706   0.351368  -0.005923
     8  H    0.343706   0.511465  -0.061088   0.000241
     9  H    0.351368  -0.061088   0.531576  -0.000010
    10  H   -0.005923   0.000241  -0.000010   0.387491
 Mulliken charges:
               1
     1  O   -0.387552
     2  H    0.185567
     3  H    0.210725
     4  O   -0.112854
     5  H    0.405278
     6  H    0.282955
     7  O   -0.391367
     8  H    0.210217
     9  H    0.190167
    10  H    0.406864
 Sum of Mulliken charges =   1.00000
 Mulliken charges with hydrogens summed into heavy atoms:
               1
     1  O    0.008740
     4  O    0.982243
     7  O    0.009017
 Electronic spatial extent (au):  <R**2>=            408.7569
 Charge=              1.0000 electrons
 Dipole moment (field-independent basis, Debye):
    X=             -0.0041    Y=             -1.1778    Z=              1.1158  Tot=              1.6225
 Quadrupole moment (field-independent basis, Debye-Ang):
   XX=              7.4735   YY=            -11.4621   ZZ=            -16.5572
   XY=              0.2261   XZ=              0.0008   YZ=              0.3452
 Traceless Quadrupole moment (field-independent basis, Debye-Ang):
   XX=             14.3221   YY=             -4.6135   ZZ=             -9.7086
   XY=              0.2261   XZ=              0.0008   YZ=              0.3452
 Octapole moment (field-independent basis, Debye-Ang**2):
  XXX=              1.0764  YYY=             -4.4159  ZZZ=              1.7500  XYY=              0.5921
  XXY=            -23.5871  XXZ=            -10.2823  XZZ=             -1.3224  YZZ=              1.4404
  YYZ=              8.4770  XYZ=              0.2221
 Hexadecapole moment (field-independent basis, Debye-Ang**3):
 XXXX=           -106.1872 YYYY=            -61.9570 ZZZZ=            -17.8048 XXXY=              3.5317
 XXXZ=              0.1528 YYYX=             -1.5005 YYYZ=              1.5319 ZZZX=              0.2200
 ZZZY=              1.8989 XXYY=            -39.0462 XXZZ=            -50.3020 YYZZ=            -11.3170
 XXYZ=             -8.5353 YYXZ=             -0.3313 ZZXY=              1.0586
 N-N= 9.014375709324D+01 E-N=-7.155367924133D+02  KE= 2.281956082406D+02
 Calling FoFJK, ICntrl=      2127 FMM=F ISym2X=0 I1Cent= 0 IOpClX= 0 NMat=1 NMatS=1 NMatT=0.
 ***** Axes restored to original set *****
 -------------------------------------------------------------------
 Center     Atomic                   Forces (Hartrees/Bohr)
 Number     Number              X              Y              Z
 -------------------------------------------------------------------
      1        8          -0.032894499   -0.024806758   -0.019289934
      2        1           0.016571124    0.008488779    0.010096872
      3        1           0.013177687    0.016871928    0.006344345
      4        8          -0.001957716    0.000645745    0.015261031
      5        1           0.008884105   -0.002080070    0.001668826
      6        1           0.000711452    0.004300418   -0.012802049
      7        8           0.042985646   -0.011424026   -0.008924585
      8        1          -0.018995931    0.011296730    0.002812797
      9        1          -0.020662775    0.001793717    0.004540986
     10        1          -0.007819092   -0.005086462    0.000291711
 -------------------------------------------------------------------
 Cartesian Forces:  Max     0.042985646 RMS     0.014849194

 GradGradGradGradGradGradGradGradGradGradGradGradGradGradGradGradGradGrad
 Berny optimization.
 FormGI is forming the generalized inverse of G from B-inverse, IUseBI=4.
 Internal  Forces:  Max     0.017586626 RMS     0.009430794
 Search for a local minimum.
 Step number   1 out of a maximum of   40
 All quantities printed in internal units (Hartrees-Bohrs-Radians)
 Mixed Optimization -- RFO/linear search
 Second derivative matrix not updated -- first step.
 ITU=  0
     Eigenvalues ---    0.00230   0.00230   0.00230   0.00230   0.00238
     Eigenvalues ---    0.00265   0.00841   0.00882   0.04893   0.10851
     Eigenvalues ---    0.11416   0.11417   0.16000   0.16000   0.16000
     Eigenvalues ---    0.16000   0.16000   0.45738   0.45748   0.50326
     Eigenvalues ---    0.50335   0.50590   0.50592   0.50594
 RFO step:  Lambda=-1.32355439D-02 EMin= 2.30000000D-03
 Linear search not attempted -- first point.
 Maximum step size (   0.300) exceeded in Quadratic search.
    -- Step size scaled by   0.597
 Iteration  1 RMS(Cart)=  0.17696525 RMS(Int)=  0.01311227
 Iteration  2 RMS(Cart)=  0.02383339 RMS(Int)=  0.00156235
 Iteration  3 RMS(Cart)=  0.00032710 RMS(Int)=  0.00155291
 Iteration  4 RMS(Cart)=  0.00000009 RMS(Int)=  0.00155291
 Variable       Old X    -DE/DX   Delta X   Delta X   Delta X     New X
                                 (Linear)    (Quad)   (Total)
    R1        1.86237  -0.01745   0.00000  -0.02016  -0.02016   1.84221
    R2        1.85970  -0.01757   0.00000  -0.02019  -0.02020   1.83950
    R3        2.82854   0.00248   0.00000   0.01155   0.01155   2.84010
    R4        1.91126   0.01117   0.00000   0.01419   0.01421   1.92548
    R5        1.85973  -0.01309   0.00000  -0.01505  -0.01505   1.84468
    R6        1.91115   0.01105   0.00000   0.01403   0.01404   1.92519
    R7        2.82851   0.00244   0.00000   0.01136   0.01134   2.83986
    R8        1.85974  -0.01759   0.00000  -0.02022  -0.02022   1.83952
    R9        1.86228  -0.01745   0.00000  -0.02017  -0.02017   1.84212
    A1        1.71901   0.01604   0.00000   0.05576   0.05544   1.77445
    A2        2.15454  -0.00632   0.00000  -0.02130  -0.02162   2.13292
    A3        2.40834  -0.00964   0.00000  -0.03276  -0.03305   2.37529
    A4        1.86919  -0.00077   0.00000   0.01031   0.00664   1.87582
    A5        1.83632   0.01163   0.00000   0.04614   0.04345   1.87977
    A6        1.86975  -0.00081   0.00000   0.00905   0.00364   1.87339
    A7        2.39678  -0.00944   0.00000  -0.03121  -0.03193   2.36485
    A8        2.16326  -0.00647   0.00000  -0.02097  -0.02170   2.14156
    A9        1.71911   0.01606   0.00000   0.05666   0.05594   1.77504
   A10        3.10703   0.00358   0.00000   0.15299   0.15210   3.25913
   A11        3.10832   0.00336   0.00000   0.10364   0.10345   3.21177
   A12        3.29499  -0.00391   0.00000  -0.16191  -0.16097   3.13403
   A13        3.28550  -0.00418   0.00000  -0.12420  -0.12403   3.16147
    D1       -2.26824   0.00217   0.00000   0.03285   0.03340  -2.23484
    D2        2.06085  -0.00226   0.00000  -0.03626  -0.03682   2.02403
    D3        0.86793   0.00230   0.00000   0.03783   0.03838   0.90630
    D4       -1.08617  -0.00213   0.00000  -0.03128  -0.03184  -1.11802
    D5        1.28013   0.00212   0.00000   0.03993   0.04200   1.32213
    D6       -1.89992   0.00216   0.00000   0.04065   0.04275  -1.85717
    D7       -0.67331  -0.00220   0.00000  -0.04251  -0.04461  -0.71792
    D8        2.42983  -0.00216   0.00000  -0.04179  -0.04385   2.38597
         Item               Value     Threshold  Converged?
 Maximum Force            0.017587     0.000450     NO 
 RMS     Force            0.009431     0.000300     NO 
 Maximum Displacement     0.512016     0.001800     NO 
 RMS     Displacement     0.190844     0.001200     NO 
 Predicted change in Energy=-6.234825D-03
 GradGradGradGradGradGradGradGradGradGradGradGradGradGradGradGradGradGrad

                          Input orientation:                          
 ---------------------------------------------------------------------
 Center     Atomic      Atomic             Coordinates (Angstroms)
 Number     Number       Type             X           Y           Z
 ---------------------------------------------------------------------
      1          8           0       -7.536138    1.346096   -0.386029
      2          1           0       -8.227096    1.641280   -1.007147
      3          1           0       -7.774140    0.411134   -0.256608
      4          8           0       -5.754096    2.925064    0.439846
      5          1           0       -4.830912    2.518424    0.296427
      6          1           0       -5.892035    3.006870    1.402746
      7          8           0       -3.404496    2.079093    0.121228
      8          1           0       -2.921070    1.238784    0.209273
      9          1           0       -2.705447    2.676371   -0.202559
     10          1           0       -6.442874    2.261025    0.089821
 ---------------------------------------------------------------------
                    Distance matrix (angstroms):
                    1          2          3          4          5
     1  O    0.000000
     2  H    0.974856   0.000000
     3  H    0.973421   1.510542   0.000000
     4  O    2.520097   3.139685   3.299314   0.000000
     5  H    3.026277   3.742025   3.661845   1.018918   0.000000
     6  H    2.942951   3.622834   3.610210   0.976163   1.608882
     7  O    4.226708   4.972161   4.692402   2.517500   1.502787
     8  H    4.654541   5.458533   4.945132   3.304957   2.300558
     9  H    5.013868   5.675155   5.552105   3.125507   2.188957
    10  H    1.502915   2.184232   2.305293   1.018765   1.645406
                    6          7          8          9         10
     6  H    0.000000
     7  O    2.948035   0.000000
     8  H    3.657476   0.973433   0.000000
     9  H    3.583375   0.974807   1.510879   0.000000
    10  H    1.607321   3.043982   3.669107   3.771785   0.000000
 Stoichiometry    H7O3(1+)
 Framework group  C1[X(H7O3)]
 Deg. of freedom    24
 Full point group                 C1      NOp   1
 Largest Abelian subgroup         C1      NOp   1
 Largest concise Abelian subgroup C1      NOp   1
                         Standard orientation:                         
 ---------------------------------------------------------------------
 Center     Atomic      Atomic             Coordinates (Angstroms)
 Number     Number       Type             X           Y           Z
 ---------------------------------------------------------------------
      1          8           0       -2.113985   -0.424823   -0.007372
      2          1           0       -2.812342   -0.296547   -0.675344
      3          1           0       -2.494314   -1.133028    0.541576
      4          8           0        0.002594    0.942521   -0.044101
      5          1           0        0.816527    0.330449   -0.011308
      6          1           0       -0.002172    1.468275    0.778368
      7          8           0        2.112720   -0.429959   -0.005754
      8          1           0        2.448974   -1.225546    0.443185
      9          1           0        2.861271   -0.199049   -0.585927
     10          1           0       -0.828578    0.353535   -0.032735
 ---------------------------------------------------------------------
 Rotational constants (GHZ):          18.4928586           2.8926394           2.5502615
 Standard basis: Aug-CC-pVDZ (5D, 7F)
 There are   138 symmetry adapted cartesian basis functions of A   symmetry.
 There are   132 symmetry adapted basis functions of A   symmetry.
   132 basis functions,   206 primitive gaussians,   138 cartesian basis functions
    15 alpha electrons       15 beta electrons
       nuclear repulsion energy        89.1790499446 Hartrees.
 NAtoms=   10 NActive=   10 NUniq=   10 SFac= 1.00D+00 NAtFMM=   60 NAOKFM=F Big=F
 Integral buffers will be    131072 words long.
 Raffenetti 2 integral format.
 Two-electron integral symmetry is turned on.
 Nuclear repulsion after empirical dispersion term =       89.1769038747 Hartrees.
 One-electron integrals computed using PRISM.
 NBasis=   132 RedAO= T EigKep=  9.02D-04  NBF=   132
 NBsUse=   132 1.00D-06 EigRej= -1.00D+00 NBFU=   132
 Initial guess from the checkpoint file:  "/gscratch/scrubbed/gds001/Gau-25331.chk"
 B after Tr=    -0.000000    0.000000   -0.000000
         Rot=    0.999991    0.004216    0.000225   -0.000425 Ang=   0.49 deg.
 ExpMin= 2.97D-02 ExpMax= 1.17D+04 ExpMxC= 4.01D+02 IAcc=3 IRadAn=         5 AccDes= 0.00D+00
 Harris functional with IExCor= 4639 and IRadAn=       5 diagonalized for initial guess.
 HarFok:  IExCor= 4639 AccDes= 0.00D+00 IRadAn=         5 IDoV= 1 UseB2=F ITyADJ=14
 ICtDFT=  3500011 ScaDFX=  1.000000  1.000000  1.000000  1.000000
 FoFCou: FMM=F IPFlag=           0 FMFlag=      100000 FMFlg1=           0
         NFxFlg=           0 DoJE=T BraDBF=F KetDBF=T FulRan=T
         wScrn=  0.000000 ICntrl=       500 IOpCl=  0 I1Cent=   200000004 NGrid=           0
         NMat0=    1 NMatS0=      1 NMatT0=    0 NMatD0=    1 NMtDS0=    0 NMtDT0=    0
 Petite list used in FoFCou.
 Keep R1 ints in memory in canonical form, NReq=104022794.
 Requested convergence on RMS density matrix=1.00D-08 within 128 cycles.
 Requested convergence on MAX density matrix=1.00D-06.
 Requested convergence on             energy=1.00D-06.
 No special actions if energy rises.
 SCF Done:  E(RwB97XD) =  -229.623879569     A.U. after   12 cycles
            NFock= 12  Conv=0.24D-08     -V/T= 2.0061
 Calling FoFJK, ICntrl=      2127 FMM=F ISym2X=0 I1Cent= 0 IOpClX= 0 NMat=1 NMatS=1 NMatT=0.
 ***** Axes restored to original set *****
 -------------------------------------------------------------------
 Center     Atomic                   Forces (Hartrees/Bohr)
 Number     Number              X              Y              Z
 -------------------------------------------------------------------
      1        8          -0.019521934   -0.010406358   -0.011543156
      2        1           0.009725175    0.004328946    0.005808920
      3        1           0.009776274    0.007562289    0.004716842
      4        8          -0.000878893   -0.005651875    0.010156007
      5        1           0.007696609    0.002053808   -0.000990999
      6        1           0.000327044    0.002929775   -0.006051992
      7        8           0.023948982   -0.002970548   -0.005064645
      8        1          -0.012475439    0.003517350    0.002042236
      9        1          -0.011966771    0.000224792    0.002638773
     10        1          -0.006631046   -0.001588180   -0.001711986
 -------------------------------------------------------------------
 Cartesian Forces:  Max     0.023948982 RMS     0.008505257

 GradGradGradGradGradGradGradGradGradGradGradGradGradGradGradGradGradGrad
 Berny optimization.
 Using GEDIIS/GDIIS optimizer.
 FormGI is forming the generalized inverse of G from B-inverse, IUseBI=4.
 Internal  Forces:  Max     0.010726794 RMS     0.005367136
 Search for a local minimum.
 Step number   2 out of a maximum of   40
 All quantities printed in internal units (Hartrees-Bohrs-Radians)
 Mixed Optimization -- RFO/linear search
 Update second derivatives using D2CorX and points    1    2
 DE= -5.53D-03 DEPred=-6.23D-03 R= 8.87D-01
 TightC=F SS=  1.41D+00  RLast= 3.18D-01 DXNew= 5.0454D-01 9.5486D-01
 Trust test= 8.87D-01 RLast= 3.18D-01 DXMaxT set to 5.05D-01
 ITU=  1  0
 Use linear search instead of GDIIS.
     Eigenvalues ---    0.00228   0.00230   0.00230   0.00233   0.00244
     Eigenvalues ---    0.00374   0.00874   0.01531   0.03593   0.09226
     Eigenvalues ---    0.11416   0.11795   0.12162   0.16000   0.16000
     Eigenvalues ---    0.16000   0.16100   0.42653   0.45744   0.47102
     Eigenvalues ---    0.50331   0.50471   0.50592   0.50632
 RFO step:  Lambda=-8.30845103D-03 EMin= 2.28340238D-03
 Quartic linear search produced a step of  0.80674.
 Maximum step size (   0.505) exceeded in Quadratic search.
    -- Step size scaled by   0.798
 Iteration  1 RMS(Cart)=  0.08668343 RMS(Int)=  0.01780959
 Iteration  2 RMS(Cart)=  0.05799942 RMS(Int)=  0.00393330
 Iteration  3 RMS(Cart)=  0.00181019 RMS(Int)=  0.00375726
 Iteration  4 RMS(Cart)=  0.00000131 RMS(Int)=  0.00375726
 Iteration  5 RMS(Cart)=  0.00000001 RMS(Int)=  0.00375726
 Variable       Old X    -DE/DX   Delta X   Delta X   Delta X     New X
                                 (Linear)    (Quad)   (Total)
    R1        1.84221  -0.00928  -0.01627  -0.03459  -0.05086   1.79135
    R2        1.83950  -0.00903  -0.01630  -0.03369  -0.04999   1.78951
    R3        2.84010  -0.00057   0.00932  -0.00488   0.00436   2.84446
    R4        1.92548   0.00561   0.01147   0.02320   0.03467   1.96015
    R5        1.84468  -0.00577  -0.01214  -0.02220  -0.03434   1.81034
    R6        1.92519   0.00551   0.01132   0.02281   0.03428   1.95947
    R7        2.83986  -0.00066   0.00915  -0.00603   0.00311   2.84296
    R8        1.83952  -0.00905  -0.01631  -0.03375  -0.05008   1.78944
    R9        1.84212  -0.00932  -0.01627  -0.03470  -0.05097   1.79115
    A1        1.77445   0.01073   0.04473   0.11340   0.15768   1.93213
    A2        2.13292  -0.00365  -0.01744  -0.03883  -0.05672   2.07620
    A3        2.37529  -0.00706  -0.02666  -0.07334  -0.10045   2.27484
    A4        1.87582  -0.00000   0.00535   0.03508   0.02719   1.90302
    A5        1.87977   0.00685   0.03505   0.09215   0.11959   1.99936
    A6        1.87339   0.00035   0.00294   0.03709   0.03207   1.90546
    A7        2.36485  -0.00677  -0.02576  -0.07018  -0.09669   2.26816
    A8        2.14156  -0.00394  -0.01751  -0.04136  -0.05964   2.08191
    A9        1.77504   0.01073   0.04513   0.11370   0.15805   1.93309
   A10        3.25913  -0.00207   0.12271  -0.40285  -0.27993   2.97920
   A11        3.21177  -0.00069   0.08345  -0.08629  -0.00548   3.20629
   A12        3.13403   0.00035  -0.12986   0.16418   0.03420   3.16823
   A13        3.16147  -0.00077  -0.10006  -0.03257  -0.12919   3.03229
    D1       -2.23484   0.00184   0.02694   0.05620   0.08828  -2.14656
    D2        2.02403  -0.00178  -0.02970  -0.04340  -0.07824   1.94579
    D3        0.90630   0.00181   0.03096   0.04614   0.08223   0.98853
    D4       -1.11802  -0.00181  -0.02569  -0.05347  -0.08429  -1.20231
    D5        1.32213   0.00167   0.03388  -0.00917   0.02445   1.34658
    D6       -1.85717   0.00156   0.03449  -0.02613   0.00811  -1.84906
    D7       -0.71792  -0.00173  -0.03599   0.00319  -0.03257  -0.75048
    D8        2.38597  -0.00183  -0.03538  -0.01378  -0.04891   2.33707
         Item               Value     Threshold  Converged?
 Maximum Force            0.010727     0.000450     NO 
 RMS     Force            0.005367     0.000300     NO 
 Maximum Displacement     0.350309     0.001800     NO 
 RMS     Displacement     0.126841     0.001200     NO 
 Predicted change in Energy=-6.582594D-03
 GradGradGradGradGradGradGradGradGradGradGradGradGradGradGradGradGradGrad

                          Input orientation:                          
 ---------------------------------------------------------------------
 Center     Atomic      Atomic             Coordinates (Angstroms)
 Number     Number       Type             X           Y           Z
 ---------------------------------------------------------------------
      1          8           0       -7.500456    1.307047   -0.423120
      2          1           0       -8.131229    1.670476   -1.030274
      3          1           0       -7.656217    0.382196   -0.292219
      4          8           0       -5.773120    2.919767    0.502498
      5          1           0       -4.780024    2.665565    0.344186
      6          1           0       -5.910033    3.077540    1.437434
      7          8           0       -3.425201    2.068888    0.076326
      8          1           0       -3.106446    1.190515    0.229737
      9          1           0       -2.748956    2.608933   -0.310241
     10          1           0       -6.456619    2.213214    0.172671
 ---------------------------------------------------------------------
                    Distance matrix (angstroms):
                    1          2          3          4          5
     1  O    0.000000
     2  H    0.947941   0.000000
     3  H    0.946967   1.558855   0.000000
     4  O    2.537976   3.077466   3.258357   0.000000
     5  H    3.136093   3.756317   3.727099   1.037266   0.000000
     6  H    3.020886   3.605985   3.647703   0.957989   1.625373
     7  O    4.175829   4.850773   4.569710   2.533444   1.504432
     8  H    4.443773   5.202542   4.650401   3.189963   2.233771
     9  H    4.927920   5.510718   5.388867   3.146861   2.134647
    10  H    1.505224   2.132126   2.237808   1.036906   1.744996
                    6          7          8          9         10
     6  H    0.000000
     7  O    3.007388   0.000000
     8  H    3.588802   0.946932   0.000000
     9  H    3.642303   0.947835   1.559258   0.000000
    10  H    1.626482   3.036381   3.503260   3.759862   0.000000
 Stoichiometry    H7O3(1+)
 Framework group  C1[X(H7O3)]
 Deg. of freedom    24
 Full point group                 C1      NOp   1
 Largest Abelian subgroup         C1      NOp   1
 Largest concise Abelian subgroup C1      NOp   1
                         Standard orientation:                         
 ---------------------------------------------------------------------
 Center     Atomic      Atomic             Coordinates (Angstroms)
 Number     Number       Type             X           Y           Z
 ---------------------------------------------------------------------
      1          8           0       -2.090342   -0.454963   -0.010718
      2          1           0       -2.712057   -0.303874   -0.710172
      3          1           0       -2.396175   -1.140312    0.566784
      4          8           0        0.001859    0.981467   -0.036855
      5          1           0        0.905182    0.472141   -0.059557
      6          1           0        0.009488    1.598644    0.695797
      7          8           0        2.085484   -0.459420   -0.010599
      8          1           0        2.253855   -1.198335    0.557148
      9          1           0        2.797881   -0.337783   -0.623857
     10          1           0       -0.834183    0.372847    0.039227
 ---------------------------------------------------------------------
 Rotational constants (GHZ):          16.8195751           2.9861369           2.5891815
 Standard basis: Aug-CC-pVDZ (5D, 7F)
 There are   138 symmetry adapted cartesian basis functions of A   symmetry.
 There are   132 symmetry adapted basis functions of A   symmetry.
   132 basis functions,   206 primitive gaussians,   138 cartesian basis functions
    15 alpha electrons       15 beta electrons
       nuclear repulsion energy        89.5884704245 Hartrees.
 NAtoms=   10 NActive=   10 NUniq=   10 SFac= 1.00D+00 NAtFMM=   60 NAOKFM=F Big=F
 Integral buffers will be    131072 words long.
 Raffenetti 2 integral format.
 Two-electron integral symmetry is turned on.
 Nuclear repulsion after empirical dispersion term =       89.5863020200 Hartrees.
 One-electron integrals computed using PRISM.
 NBasis=   132 RedAO= T EigKep=  1.15D-03  NBF=   132
 NBsUse=   132 1.00D-06 EigRej= -1.00D+00 NBFU=   132
 Initial guess from the checkpoint file:  "/gscratch/scrubbed/gds001/Gau-25331.chk"
 B after Tr=    -0.000000   -0.000000   -0.000000
         Rot=    0.999948    0.010047    0.000678    0.001487 Ang=   1.17 deg.
 ExpMin= 2.97D-02 ExpMax= 1.17D+04 ExpMxC= 4.01D+02 IAcc=3 IRadAn=         5 AccDes= 0.00D+00
 Harris functional with IExCor= 4639 and IRadAn=       5 diagonalized for initial guess.
 HarFok:  IExCor= 4639 AccDes= 0.00D+00 IRadAn=         5 IDoV= 1 UseB2=F ITyADJ=14
 ICtDFT=  3500011 ScaDFX=  1.000000  1.000000  1.000000  1.000000
 FoFCou: FMM=F IPFlag=           0 FMFlag=      100000 FMFlg1=           0
         NFxFlg=           0 DoJE=T BraDBF=F KetDBF=T FulRan=T
         wScrn=  0.000000 ICntrl=       500 IOpCl=  0 I1Cent=   200000004 NGrid=           0
         NMat0=    1 NMatS0=      1 NMatT0=    0 NMatD0=    1 NMtDS0=    0 NMtDT0=    0
 Petite list used in FoFCou.
 Keep R1 ints in memory in canonical form, NReq=104022794.
 Requested convergence on RMS density matrix=1.00D-08 within 128 cycles.
 Requested convergence on MAX density matrix=1.00D-06.
 Requested convergence on             energy=1.00D-06.
 No special actions if energy rises.
 SCF Done:  E(RwB97XD) =  -229.624719097     A.U. after   10 cycles
            NFock= 10  Conv=0.83D-08     -V/T= 2.0055
 Calling FoFJK, ICntrl=      2127 FMM=F ISym2X=0 I1Cent= 0 IOpClX= 0 NMat=1 NMatS=1 NMatT=0.
 ***** Axes restored to original set *****
 -------------------------------------------------------------------
 Center     Atomic                   Forces (Hartrees/Bohr)
 Number     Number              X              Y              Z
 -------------------------------------------------------------------
      1        8           0.019122215    0.016226145    0.011137541
      2        1          -0.011956847    0.001797623   -0.010087109
      3        1          -0.004784053   -0.014628206    0.000572291
      4        8           0.004017708   -0.005315165   -0.006171957
      5        1          -0.006224094   -0.008582339   -0.001956756
      6        1          -0.002297183    0.004309907    0.009937341
      7        8          -0.022832748    0.013853754    0.004214336
      8        1           0.007660309   -0.013273023    0.001771914
      9        1           0.014186787    0.004741104   -0.006169672
     10        1           0.003107905    0.000870200   -0.003247929
 -------------------------------------------------------------------
 Cartesian Forces:  Max     0.022832748 RMS     0.009680289

 GradGradGradGradGradGradGradGradGradGradGradGradGradGradGradGradGradGrad
 Berny optimization.
 Using GEDIIS/GDIIS optimizer.
 FormGI is forming the generalized inverse of G from B-inverse, IUseBI=4.
 Internal  Forces:  Max     0.015338950 RMS     0.006586323
 Search for a local minimum.
 Step number   3 out of a maximum of   40
 All quantities printed in internal units (Hartrees-Bohrs-Radians)
 Mixed Optimization -- RFO/linear search
 Update second derivatives using D2CorX and points    2    3
 DE= -8.40D-04 DEPred=-6.58D-03 R= 1.28D-01
 Trust test= 1.28D-01 RLast= 4.84D-01 DXMaxT set to 5.05D-01
 ITU=  0  1  0
 Use linear search instead of GDIIS.
     Eigenvalues ---    0.00230   0.00230   0.00230   0.00230   0.00241
     Eigenvalues ---    0.00568   0.00898   0.01439   0.03375   0.09902
     Eigenvalues ---    0.11429   0.12044   0.12571   0.16000   0.16000
     Eigenvalues ---    0.16035   0.16269   0.45308   0.45744   0.50330
     Eigenvalues ---    0.50446   0.50592   0.50614   0.53492
 RFO step:  Lambda=-3.16924386D-03 EMin= 2.29755071D-03
 Quartic linear search produced a step of -0.45470.
 Iteration  1 RMS(Cart)=  0.11366758 RMS(Int)=  0.06035764
 Iteration  2 RMS(Cart)=  0.11423166 RMS(Int)=  0.02364353
 Iteration  3 RMS(Cart)=  0.06814223 RMS(Int)=  0.00313358
 Iteration  4 RMS(Cart)=  0.00400591 RMS(Int)=  0.00222286
 Iteration  5 RMS(Cart)=  0.00000917 RMS(Int)=  0.00222285
 Iteration  6 RMS(Cart)=  0.00000002 RMS(Int)=  0.00222285
 Variable       Old X    -DE/DX   Delta X   Delta X   Delta X     New X
                                 (Linear)    (Quad)   (Total)
    R1        1.79135   0.01511   0.02313  -0.00591   0.01722   1.80857
    R2        1.78951   0.01514   0.02273  -0.00502   0.01761   1.80711
    R3        2.84446  -0.00434  -0.00198  -0.03279  -0.03474   2.80973
    R4        1.96015  -0.00579  -0.01577   0.00772  -0.00792   1.95223
    R5        1.81034   0.01074   0.01562  -0.00135   0.01427   1.82461
    R6        1.95947  -0.00598  -0.01559   0.00720  -0.00834   1.95112
    R7        2.84296  -0.00295  -0.00141  -0.02741  -0.02891   2.81405
    R8        1.78944   0.01516   0.02277  -0.00504   0.01773   1.80717
    R9        1.79115   0.01534   0.02318  -0.00577   0.01741   1.80856
    A1        1.93213  -0.00430  -0.07170   0.06644  -0.00525   1.92688
    A2        2.07620   0.00366   0.02579  -0.01403   0.01177   2.08797
    A3        2.27484   0.00064   0.04567  -0.05246  -0.00654   2.26831
    A4        1.90302   0.00234  -0.01237   0.04144   0.03100   1.93401
    A5        1.99936  -0.00283  -0.05438   0.06153   0.00655   2.00591
    A6        1.90546   0.00089  -0.01458   0.04453   0.02648   1.93194
    A7        2.26816   0.00023   0.04397  -0.05159  -0.01031   2.25785
    A8        2.08191   0.00449   0.02712  -0.01390   0.01052   2.09244
    A9        1.93309  -0.00473  -0.07186   0.06481  -0.00974   1.92335
   A10        2.97920   0.00785   0.12728   0.40339   0.52886   3.50806
   A11        3.20629   0.00052   0.00249  -0.08179  -0.07765   3.12863
   A12        3.16823  -0.00170  -0.01555  -0.02673  -0.04025   3.12798
   A13        3.03229   0.00162   0.05874   0.05585   0.11208   3.14436
    D1       -2.14656   0.00060  -0.04014   0.05245   0.00894  -2.13762
    D2        1.94579  -0.00063   0.03558  -0.04272  -0.00378   1.94201
    D3        0.98853   0.00079  -0.03739   0.06044   0.01961   1.00814
    D4       -1.20231  -0.00044   0.03833  -0.03472   0.00689  -1.19542
    D5        1.34658   0.00120  -0.01112   0.08344   0.07567   1.42225
    D6       -1.84906   0.00144  -0.00369   0.09036   0.09032  -1.75873
    D7       -0.75048  -0.00172   0.01481  -0.14088  -0.12970  -0.88018
    D8        2.33707  -0.00148   0.02224  -0.13396  -0.11504   2.22202
         Item               Value     Threshold  Converged?
 Maximum Force            0.015339     0.000450     NO 
 RMS     Force            0.006586     0.000300     NO 
 Maximum Displacement     0.735333     0.001800     NO 
 RMS     Displacement     0.284348     0.001200     NO 
 Predicted change in Energy=-3.839586D-03
 GradGradGradGradGradGradGradGradGradGradGradGradGradGradGradGradGradGrad

                          Input orientation:                          
 ---------------------------------------------------------------------
 Center     Atomic      Atomic             Coordinates (Angstroms)
 Number     Number       Type             X           Y           Z
 ---------------------------------------------------------------------
      1          8           0       -7.663479    1.373790   -0.406906
      2          1           0       -8.263814    1.745105   -1.053181
      3          1           0       -7.939914    0.491290   -0.163483
      4          8           0       -5.697260    2.725827    0.401027
      5          1           0       -4.778768    2.276443    0.253796
      6          1           0       -5.811025    2.978915    1.325835
      7          8           0       -3.299124    2.133785    0.165366
      8          1           0       -2.751464    1.370833    0.345670
      9          1           0       -2.775764    2.829913   -0.231422
     10          1           0       -6.507691    2.178239    0.070293
 ---------------------------------------------------------------------
                    Distance matrix (angstroms):
                    1          2          3          4          5
     1  O    0.000000
     2  H    0.957052   0.000000
     3  H    0.956283   1.571155   0.000000
     4  O    2.519281   3.108656   3.215793   0.000000
     5  H    3.094005   3.759795   3.654277   1.033078   0.000000
     6  H    3.001733   3.632930   3.597015   0.965539   1.645688
     7  O    4.466843   5.126801   4.933850   2.481352   1.489134
     8  H    4.969333   5.699374   5.287045   3.242959   2.222281
     9  H    5.103023   5.654272   5.669411   2.990980   2.133961
    10  H    1.486843   2.129264   2.225244   1.032491   1.741406
                    6          7          8          9         10
     6  H    0.000000
     7  O    2.893196   0.000000
     8  H    3.592710   0.956314   0.000000
     9  H    3.414683   0.957047   1.569248   0.000000
    10  H    1.644023   3.210284   3.851880   3.800394   0.000000
 Stoichiometry    H7O3(1+)
 Framework group  C1[X(H7O3)]
 Deg. of freedom    24
 Full point group                 C1      NOp   1
 Largest Abelian subgroup         C1      NOp   1
 Largest concise Abelian subgroup C1      NOp   1
                         Standard orientation:                         
 ---------------------------------------------------------------------
 Center     Atomic      Atomic             Coordinates (Angstroms)
 Number     Number       Type             X           Y           Z
 ---------------------------------------------------------------------
      1          8           0       -2.239600   -0.353979   -0.016360
      2          1           0       -2.844497   -0.209076   -0.743720
      3          1           0       -2.630688   -0.939256    0.630925
      4          8           0        0.017235    0.765604   -0.019680
      5          1           0        0.817989    0.115768    0.041606
      6          1           0        0.067972    1.438592    0.670812
      7          8           0        2.227231   -0.362639   -0.010178
      8          1           0        2.653577   -1.049991    0.500031
      9          1           0        2.807741   -0.061440   -0.708910
     10          1           0       -0.911019    0.313520   -0.020998
 ---------------------------------------------------------------------
 Rotational constants (GHZ):          25.3843185           2.6125278           2.4182096
 Standard basis: Aug-CC-pVDZ (5D, 7F)
 There are   138 symmetry adapted cartesian basis functions of A   symmetry.
 There are   132 symmetry adapted basis functions of A   symmetry.
   132 basis functions,   206 primitive gaussians,   138 cartesian basis functions
    15 alpha electrons       15 beta electrons
       nuclear repulsion energy        89.1029497053 Hartrees.
 NAtoms=   10 NActive=   10 NUniq=   10 SFac= 1.00D+00 NAtFMM=   60 NAOKFM=F Big=F
 Integral buffers will be    131072 words long.
 Raffenetti 2 integral format.
 Two-electron integral symmetry is turned on.
 Nuclear repulsion after empirical dispersion term =       89.1008122761 Hartrees.
 One-electron integrals computed using PRISM.
 NBasis=   132 RedAO= T EigKep=  1.10D-03  NBF=   132
 NBsUse=   132 1.00D-06 EigRej= -1.00D+00 NBFU=   132
 Initial guess from the checkpoint file:  "/gscratch/scrubbed/gds001/Gau-25331.chk"
 B after Tr=     0.000000   -0.000000    0.000000
         Rot=    0.999963   -0.008407   -0.001901   -0.000107 Ang=  -0.99 deg.
 ExpMin= 2.97D-02 ExpMax= 1.17D+04 ExpMxC= 4.01D+02 IAcc=3 IRadAn=         5 AccDes= 0.00D+00
 Harris functional with IExCor= 4639 and IRadAn=       5 diagonalized for initial guess.
 HarFok:  IExCor= 4639 AccDes= 0.00D+00 IRadAn=         5 IDoV= 1 UseB2=F ITyADJ=14
 ICtDFT=  3500011 ScaDFX=  1.000000  1.000000  1.000000  1.000000
 FoFCou: FMM=F IPFlag=           0 FMFlag=      100000 FMFlg1=           0
         NFxFlg=           0 DoJE=T BraDBF=F KetDBF=T FulRan=T
         wScrn=  0.000000 ICntrl=       500 IOpCl=  0 I1Cent=   200000004 NGrid=           0
         NMat0=    1 NMatS0=      1 NMatT0=    0 NMatD0=    1 NMtDS0=    0 NMtDT0=    0
 Petite list used in FoFCou.
 Keep R1 ints in memory in canonical form, NReq=104022794.
 Requested convergence on RMS density matrix=1.00D-08 within 128 cycles.
 Requested convergence on MAX density matrix=1.00D-06.
 Requested convergence on             energy=1.00D-06.
 No special actions if energy rises.
 SCF Done:  E(RwB97XD) =  -229.625772260     A.U. after   11 cycles
            NFock= 11  Conv=0.43D-08     -V/T= 2.0057
 Calling FoFJK, ICntrl=      2127 FMM=F ISym2X=0 I1Cent= 0 IOpClX= 0 NMat=1 NMatS=1 NMatT=0.
 ***** Axes restored to original set *****
 -------------------------------------------------------------------
 Center     Atomic                   Forces (Hartrees/Bohr)
 Number     Number              X              Y              Z
 -------------------------------------------------------------------
      1        8           0.009982161    0.009311736    0.002909912
      2        1          -0.005752292   -0.001808616   -0.003472289
      3        1          -0.003490454   -0.004533146   -0.000184561
      4        8          -0.004068548   -0.006836482   -0.003804774
      5        1           0.002433123    0.008619218    0.002505589
      6        1           0.000625567    0.000828831    0.001600105
      7        8          -0.011720279   -0.001334951    0.002062614
      8        1           0.005331150   -0.002970487   -0.000491048
      9        1           0.005782071    0.001457120   -0.002447183
     10        1           0.000877500   -0.002733224    0.001321636
 -------------------------------------------------------------------
 Cartesian Forces:  Max     0.011720279 RMS     0.004748040

 GradGradGradGradGradGradGradGradGradGradGradGradGradGradGradGradGradGrad
 Berny optimization.
 Using GEDIIS/GDIIS optimizer.
 FormGI is forming the generalized inverse of G from B-inverse, IUseBI=4.
 Internal  Forces:  Max     0.009671695 RMS     0.003097936
 Search for a local minimum.
 Step number   4 out of a maximum of   40
 All quantities printed in internal units (Hartrees-Bohrs-Radians)
 Mixed Optimization -- RFO/linear search
 Update second derivatives using D2CorX and points    2    3    4
 DE= -1.05D-03 DEPred=-3.84D-03 R= 2.74D-01
 Trust test= 2.74D-01 RLast= 5.92D-01 DXMaxT set to 5.05D-01
 ITU=  0  0  1  0
 Use linear search instead of GDIIS.
     Eigenvalues ---    0.00226   0.00230   0.00230   0.00250   0.00315
     Eigenvalues ---    0.00885   0.00944   0.02164   0.03488   0.09411
     Eigenvalues ---    0.11446   0.12333   0.14247   0.16000   0.16011
     Eigenvalues ---    0.16195   0.16552   0.45342   0.45746   0.50331
     Eigenvalues ---    0.50455   0.50590   0.50678   0.53395
 RFO step:  Lambda=-2.02674567D-03 EMin= 2.26132247D-03
 Quartic linear search produced a step of -0.40542.
 Iteration  1 RMS(Cart)=  0.10008272 RMS(Int)=  0.02055799
 Iteration  2 RMS(Cart)=  0.06059640 RMS(Int)=  0.00170040
 Iteration  3 RMS(Cart)=  0.00267995 RMS(Int)=  0.00037328
 Iteration  4 RMS(Cart)=  0.00000302 RMS(Int)=  0.00037327
 Iteration  5 RMS(Cart)=  0.00000000 RMS(Int)=  0.00037327
 Variable       Old X    -DE/DX   Delta X   Delta X   Delta X     New X
                                 (Linear)    (Quad)   (Total)
    R1        1.80857   0.00525  -0.00698   0.01823   0.01125   1.81982
    R2        1.80711   0.00515  -0.00714   0.01829   0.01115   1.81826
    R3        2.80973  -0.00194   0.01408  -0.02733  -0.01324   2.79649
    R4        1.95223  -0.00110   0.00321  -0.00751  -0.00428   1.94796
    R5        1.82461   0.00168  -0.00578   0.01208   0.00629   1.83090
    R6        1.95112  -0.00158   0.00338  -0.00807  -0.00470   1.94643
    R7        2.81405  -0.00029   0.01172  -0.01681  -0.00510   2.80896
    R8        1.80717   0.00533  -0.00719   0.01840   0.01122   1.81839
    R9        1.80856   0.00524  -0.00706   0.01840   0.01135   1.81990
    A1        1.92688  -0.00426   0.00213  -0.01983  -0.01775   1.90913
    A2        2.08797   0.00400  -0.00477   0.01952   0.01471   2.10268
    A3        2.26831   0.00026   0.00265   0.00038   0.00299   2.27130
    A4        1.93401  -0.00119  -0.01257   0.02715   0.01532   1.94933
    A5        2.00591   0.00135  -0.00266   0.01121   0.00876   2.01467
    A6        1.93194   0.00147  -0.01074   0.02667   0.01585   1.94779
    A7        2.25785   0.00142   0.00418   0.00295   0.00776   2.26561
    A8        2.09244   0.00278  -0.00427   0.01929   0.01567   2.10810
    A9        1.92335  -0.00395   0.00395  -0.01981  -0.01522   1.90814
   A10        3.50806  -0.00967  -0.21441  -0.09158  -0.30620   3.20186
   A11        3.12863   0.00206   0.03148   0.08630   0.11802   3.24665
   A12        3.12798   0.00007   0.01632  -0.22845  -0.21180   2.91618
   A13        3.14436  -0.00118  -0.04544  -0.00391  -0.04975   3.09461
    D1       -2.13762   0.00076  -0.00362   0.04637   0.04218  -2.09544
    D2        1.94201  -0.00074   0.00153  -0.04373  -0.04163   1.90038
    D3        1.00814   0.00082  -0.00795   0.07246   0.06395   1.07208
    D4       -1.19542  -0.00067  -0.00279  -0.01765  -0.01986  -1.21528
    D5        1.42225   0.00005  -0.03068   0.06270   0.03246   1.45471
    D6       -1.75873  -0.00087  -0.03662  -0.00350  -0.03971  -1.79845
    D7       -0.88018   0.00062   0.05258  -0.05746  -0.00529  -0.88547
    D8        2.22202  -0.00030   0.04664  -0.12367  -0.07746   2.14456
         Item               Value     Threshold  Converged?
 Maximum Force            0.009672     0.000450     NO 
 RMS     Force            0.003098     0.000300     NO 
 Maximum Displacement     0.321301     0.001800     NO 
 RMS     Displacement     0.148431     0.001200     NO 
 Predicted change in Energy=-2.146774D-03
 GradGradGradGradGradGradGradGradGradGradGradGradGradGradGradGradGradGrad

                          Input orientation:                          
 ---------------------------------------------------------------------
 Center     Atomic      Atomic             Coordinates (Angstroms)
 Number     Number       Type             X           Y           Z
 ---------------------------------------------------------------------
      1          8           0       -7.585658    1.356610   -0.420918
      2          1           0       -8.137932    1.721759   -1.120232
      3          1           0       -7.896081    0.473858   -0.196906
      4          8           0       -5.731115    2.771877    0.494521
      5          1           0       -4.761403    2.429478    0.423821
      6          1           0       -5.942014    3.067024    1.392918
      7          8           0       -3.344886    2.108284    0.107904
      8          1           0       -2.847945    1.298562    0.260644
      9          1           0       -2.788643    2.740243   -0.359737
     10          1           0       -6.452625    2.136446    0.124982
 ---------------------------------------------------------------------
                    Distance matrix (angstroms):
                    1          2          3          4          5
     1  O    0.000000
     2  H    0.963005   0.000000
     3  H    0.962183   1.571076   0.000000
     4  O    2.506060   3.082684   3.232033   0.000000
     5  H    3.137044   3.779671   3.746459   1.030814   0.000000
     6  H    2.986148   3.598293   3.615304   0.968869   1.655130
     7  O    4.339218   4.962963   4.845372   2.506774   1.486435
     8  H    4.786838   5.483600   5.135481   3.246232   2.228658
     9  H    4.992948   5.498231   5.590074   3.064131   2.145302
    10  H    1.479836   2.136067   2.225168   1.030004   1.742241
                    6          7          8          9         10
     6  H    0.000000
     7  O    3.052133   0.000000
     8  H    3.739353   0.962252   0.000000
     9  H    3.622476   0.963051   1.570615   0.000000
    10  H    1.653590   3.107913   3.703264   3.744901   0.000000
 Stoichiometry    H7O3(1+)
 Framework group  C1[X(H7O3)]
 Deg. of freedom    24
 Full point group                 C1      NOp   1
 Largest Abelian subgroup         C1      NOp   1
 Largest concise Abelian subgroup C1      NOp   1
                         Standard orientation:                         
 ---------------------------------------------------------------------
 Center     Atomic      Atomic             Coordinates (Angstroms)
 Number     Number       Type             X           Y           Z
 ---------------------------------------------------------------------
      1          8           0       -2.167325   -0.403190   -0.010383
      2          1           0       -2.727663   -0.362818   -0.792541
      3          1           0       -2.597140   -0.939397    0.663068
      4          8           0        0.000984    0.853121   -0.031674
      5          1           0        0.880932    0.330724    0.092308
      6          1           0       -0.046145    1.620261    0.558225
      7          8           0        2.171885   -0.399980   -0.002566
      8          1           0        2.535380   -1.084996    0.567131
      9          1           0        2.769214   -0.251208   -0.743194
     10          1           0       -0.858928    0.287832    0.011989
 ---------------------------------------------------------------------
 Rotational constants (GHZ):          20.8796277           2.7630357           2.4954024
 Standard basis: Aug-CC-pVDZ (5D, 7F)
 There are   138 symmetry adapted cartesian basis functions of A   symmetry.
 There are   132 symmetry adapted basis functions of A   symmetry.
   132 basis functions,   206 primitive gaussians,   138 cartesian basis functions
    15 alpha electrons       15 beta electrons
       nuclear repulsion energy        89.1837785533 Hartrees.
 NAtoms=   10 NActive=   10 NUniq=   10 SFac= 1.00D+00 NAtFMM=   60 NAOKFM=F Big=F
 Integral buffers will be    131072 words long.
 Raffenetti 2 integral format.
 Two-electron integral symmetry is turned on.
 Nuclear repulsion after empirical dispersion term =       89.1816500144 Hartrees.
 One-electron integrals computed using PRISM.
 NBasis=   132 RedAO= T EigKep=  1.21D-03  NBF=   132
 NBsUse=   132 1.00D-06 EigRej= -1.00D+00 NBFU=   132
 Initial guess from the checkpoint file:  "/gscratch/scrubbed/gds001/Gau-25331.chk"
 B after Tr=    -0.000000    0.000000   -0.000000
         Rot=    0.999694    0.024621    0.001552   -0.001937 Ang=   2.84 deg.
 ExpMin= 2.97D-02 ExpMax= 1.17D+04 ExpMxC= 4.01D+02 IAcc=3 IRadAn=         5 AccDes= 0.00D+00
 Harris functional with IExCor= 4639 and IRadAn=       5 diagonalized for initial guess.
 HarFok:  IExCor= 4639 AccDes= 0.00D+00 IRadAn=         5 IDoV= 1 UseB2=F ITyADJ=14
 ICtDFT=  3500011 ScaDFX=  1.000000  1.000000  1.000000  1.000000
 FoFCou: FMM=F IPFlag=           0 FMFlag=      100000 FMFlg1=           0
         NFxFlg=           0 DoJE=T BraDBF=F KetDBF=T FulRan=T
         wScrn=  0.000000 ICntrl=       500 IOpCl=  0 I1Cent=   200000004 NGrid=           0
         NMat0=    1 NMatS0=      1 NMatT0=    0 NMatD0=    1 NMtDS0=    0 NMtDT0=    0
 Petite list used in FoFCou.
 Keep R1 ints in memory in canonical form, NReq=104022794.
 Requested convergence on RMS density matrix=1.00D-08 within 128 cycles.
 Requested convergence on MAX density matrix=1.00D-06.
 Requested convergence on             energy=1.00D-06.
 No special actions if energy rises.
 SCF Done:  E(RwB97XD) =  -229.627380185     A.U. after   10 cycles
            NFock= 10  Conv=0.52D-08     -V/T= 2.0059
 Calling FoFJK, ICntrl=      2127 FMM=F ISym2X=0 I1Cent= 0 IOpClX= 0 NMat=1 NMatS=1 NMatT=0.
 ***** Axes restored to original set *****
 -------------------------------------------------------------------
 Center     Atomic                   Forces (Hartrees/Bohr)
 Number     Number              X              Y              Z
 -------------------------------------------------------------------
      1        8           0.003032010    0.003261457    0.000334457
      2        1          -0.001126283   -0.002748913    0.000414014
      3        1          -0.000713099    0.000694856   -0.001147237
      4        8           0.001757380   -0.000869829    0.004612572
      5        1           0.001065287    0.000795992   -0.004178032
      6        1          -0.000149849   -0.000555972   -0.002066725
      7        8          -0.003927502    0.001178011    0.001472877
      8        1           0.000898763    0.001399895   -0.000489953
      9        1           0.001456758   -0.002254169    0.000445512
     10        1          -0.002293465   -0.000901327    0.000602515
 -------------------------------------------------------------------
 Cartesian Forces:  Max     0.004612572 RMS     0.001966564

 GradGradGradGradGradGradGradGradGradGradGradGradGradGradGradGradGradGrad
 Berny optimization.
 Using GEDIIS/GDIIS optimizer.
 FormGI is forming the generalized inverse of G from B-inverse, IUseBI=4.
 Internal  Forces:  Max     0.003319842 RMS     0.001322338
 Search for a local minimum.
 Step number   5 out of a maximum of   40
 All quantities printed in internal units (Hartrees-Bohrs-Radians)
 Mixed Optimization -- RFO/linear search
 Update second derivatives using D2CorX and points    2    3    4    5
 DE= -1.61D-03 DEPred=-2.15D-03 R= 7.49D-01
 TightC=F SS=  1.41D+00  RLast= 4.17D-01 DXNew= 8.4853D-01 1.2518D+00
 Trust test= 7.49D-01 RLast= 4.17D-01 DXMaxT set to 8.49D-01
 ITU=  1  0  0  1  0
 Use linear search instead of GDIIS.
     Eigenvalues ---    0.00221   0.00230   0.00231   0.00240   0.00480
     Eigenvalues ---    0.00813   0.01369   0.02282   0.03354   0.10055
     Eigenvalues ---    0.11491   0.12065   0.14190   0.15510   0.16000
     Eigenvalues ---    0.16015   0.16208   0.45264   0.45765   0.50218
     Eigenvalues ---    0.50337   0.50483   0.50592   0.52814
 RFO step:  Lambda=-1.24645366D-03 EMin= 2.20764957D-03
 Quartic linear search produced a step of -0.15639.
 Iteration  1 RMS(Cart)=  0.09383675 RMS(Int)=  0.01846745
 Iteration  2 RMS(Cart)=  0.02642998 RMS(Int)=  0.00113481
 Iteration  3 RMS(Cart)=  0.00089890 RMS(Int)=  0.00101900
 Iteration  4 RMS(Cart)=  0.00000044 RMS(Int)=  0.00101900
 Variable       Old X    -DE/DX   Delta X   Delta X   Delta X     New X
                                 (Linear)    (Quad)   (Total)
    R1        1.81982  -0.00070  -0.00176   0.00957   0.00781   1.82762
    R2        1.81826  -0.00074  -0.00174   0.00944   0.00770   1.82596
    R3        2.79649  -0.00141   0.00207  -0.02662  -0.02460   2.77188
    R4        1.94796  -0.00059   0.00067  -0.00310  -0.00243   1.94553
    R5        1.83090  -0.00205  -0.00098   0.00305   0.00207   1.83297
    R6        1.94643   0.00051   0.00073  -0.00216  -0.00134   1.94509
    R7        2.80896  -0.00187   0.00080  -0.01894  -0.01814   2.79082
    R8        1.81839  -0.00078  -0.00175   0.00951   0.00773   1.82612
    R9        1.81990  -0.00085  -0.00177   0.00952   0.00774   1.82765
    A1        1.90913  -0.00263   0.00278  -0.01504  -0.01224   1.89690
    A2        2.10268   0.00268  -0.00230   0.02331   0.02104   2.12372
    A3        2.27130  -0.00005  -0.00047  -0.00831  -0.00877   2.26253
    A4        1.94933   0.00045  -0.00240   0.03268   0.02739   1.97672
    A5        2.01467   0.00058  -0.00137   0.03128   0.02808   2.04275
    A6        1.94779  -0.00018  -0.00248   0.02926   0.02535   1.97315
    A7        2.26561   0.00027  -0.00121  -0.00634  -0.00866   2.25695
    A8        2.10810   0.00220  -0.00245   0.01824   0.01464   2.12274
    A9        1.90814  -0.00250   0.00238  -0.01652  -0.01530   1.89284
   A10        3.20186   0.00024   0.04789  -0.00808   0.04020   3.24206
   A11        3.24665  -0.00133  -0.01846   0.07685   0.05766   3.30431
   A12        2.91618   0.00332   0.03312   0.26934   0.30186   3.21804
   A13        3.09461  -0.00025   0.00778  -0.12492  -0.11602   2.97860
    D1       -2.09544   0.00053  -0.00660   0.10002   0.09491  -2.00053
    D2        1.90038  -0.00035   0.00651  -0.06865  -0.06362   1.83675
    D3        1.07208   0.00042  -0.01000   0.10146   0.09296   1.16504
    D4       -1.21528  -0.00046   0.00311  -0.06721  -0.06558  -1.28086
    D5        1.45471  -0.00040  -0.00508  -0.03775  -0.04365   1.41105
    D6       -1.79845  -0.00017   0.00621  -0.04668  -0.04115  -1.83960
    D7       -0.88547  -0.00009   0.00083  -0.04589  -0.04438  -0.92985
    D8        2.14456   0.00014   0.01211  -0.05482  -0.04187   2.10269
         Item               Value     Threshold  Converged?
 Maximum Force            0.003320     0.000450     NO 
 RMS     Force            0.001322     0.000300     NO 
 Maximum Displacement     0.269551     0.001800     NO 
 RMS     Displacement     0.107157     0.001200     NO 
 Predicted change in Energy=-7.719332D-04
 GradGradGradGradGradGradGradGradGradGradGradGradGradGradGradGradGradGrad

                          Input orientation:                          
 ---------------------------------------------------------------------
 Center     Atomic      Atomic             Coordinates (Angstroms)
 Number     Number       Type             X           Y           Z
 ---------------------------------------------------------------------
      1          8           0       -7.632971    1.363574   -0.411668
      2          1           0       -8.205950    1.789246   -1.064242
      3          1           0       -7.968596    0.474207   -0.238356
      4          8           0       -5.732428    2.699723    0.466557
      5          1           0       -4.755191    2.434063    0.281181
      6          1           0       -5.877106    3.021296    1.370156
      7          8           0       -3.310857    2.160511    0.139354
      8          1           0       -2.808779    1.374707    0.392829
      9          1           0       -2.733538    2.739015   -0.377764
     10          1           0       -6.462888    2.047798    0.148950
 ---------------------------------------------------------------------
                    Distance matrix (angstroms):
                    1          2          3          4          5
     1  O    0.000000
     2  H    0.967137   0.000000
     3  H    0.966258   1.570907   0.000000
     4  O    2.483674   3.048052   3.232687   0.000000
     5  H    3.147635   3.759480   3.799595   1.029530   0.000000
     6  H    3.001000   3.587165   3.667329   0.969965   1.670150
     7  O    4.429380   5.054544   4.967979   2.502363   1.476837
     8  H    4.890825   5.605743   5.275699   3.210737   2.218833
     9  H    5.088952   5.596481   5.705665   3.115729   2.148089
    10  H    1.466816   2.139380   2.212092   1.029297   1.755823
                    6          7          8          9         10
     6  H    0.000000
     7  O    2.973459   0.000000
     8  H    3.616774   0.966344   0.000000
     9  H    3.607898   0.967148   1.568698   0.000000
    10  H    1.667988   3.154060   3.723579   3.829264   0.000000
 Stoichiometry    H7O3(1+)
 Framework group  C1[X(H7O3)]
 Deg. of freedom    24
 Full point group                 C1      NOp   1
 Largest Abelian subgroup         C1      NOp   1
 Largest concise Abelian subgroup C1      NOp   1
                         Standard orientation:                         
 ---------------------------------------------------------------------
 Center     Atomic      Atomic             Coordinates (Angstroms)
 Number     Number       Type             X           Y           Z
 ---------------------------------------------------------------------
      1          8           0       -2.209852   -0.370771   -0.010147
      2          1           0       -2.773220   -0.251482   -0.787153
      3          1           0       -2.674875   -0.929368    0.626547
      4          8           0       -0.008665    0.779558   -0.022426
      5          1           0        0.875437    0.252146   -0.033933
      6          1           0        0.017917    1.559189    0.554030
      7          8           0        2.219511   -0.359213   -0.006486
      8          1           0        2.600648   -0.971366    0.636806
      9          1           0        2.823050   -0.291149   -0.759137
     10          1           0       -0.876905    0.235444    0.075306
 ---------------------------------------------------------------------
 Rotational constants (GHZ):          24.2328186           2.6515442           2.4439795
 Standard basis: Aug-CC-pVDZ (5D, 7F)
 There are   138 symmetry adapted cartesian basis functions of A   symmetry.
 There are   132 symmetry adapted basis functions of A   symmetry.
   132 basis functions,   206 primitive gaussians,   138 cartesian basis functions
    15 alpha electrons       15 beta electrons
       nuclear repulsion energy        89.0675477202 Hartrees.
 NAtoms=   10 NActive=   10 NUniq=   10 SFac= 1.00D+00 NAtFMM=   60 NAOKFM=F Big=F
 Integral buffers will be    131072 words long.
 Raffenetti 2 integral format.
 Two-electron integral symmetry is turned on.
 Nuclear repulsion after empirical dispersion term =       89.0654259172 Hartrees.
 One-electron integrals computed using PRISM.
 NBasis=   132 RedAO= T EigKep=  1.17D-03  NBF=   132
 NBsUse=   132 1.00D-06 EigRej= -1.00D+00 NBFU=   132
 Initial guess from the checkpoint file:  "/gscratch/scrubbed/gds001/Gau-25331.chk"
 B after Tr=     0.000000   -0.000000    0.000000
         Rot=    1.000000   -0.000668   -0.000212    0.000204 Ang=  -0.08 deg.
 ExpMin= 2.97D-02 ExpMax= 1.17D+04 ExpMxC= 4.01D+02 IAcc=3 IRadAn=         5 AccDes= 0.00D+00
 Harris functional with IExCor= 4639 and IRadAn=       5 diagonalized for initial guess.
 HarFok:  IExCor= 4639 AccDes= 0.00D+00 IRadAn=         5 IDoV= 1 UseB2=F ITyADJ=14
 ICtDFT=  3500011 ScaDFX=  1.000000  1.000000  1.000000  1.000000
 FoFCou: FMM=F IPFlag=           0 FMFlag=      100000 FMFlg1=           0
         NFxFlg=           0 DoJE=T BraDBF=F KetDBF=T FulRan=T
         wScrn=  0.000000 ICntrl=       500 IOpCl=  0 I1Cent=   200000004 NGrid=           0
         NMat0=    1 NMatS0=      1 NMatT0=    0 NMatD0=    1 NMtDS0=    0 NMtDT0=    0
 Petite list used in FoFCou.
 Keep R1 ints in memory in canonical form, NReq=104022794.
 Requested convergence on RMS density matrix=1.00D-08 within 128 cycles.
 Requested convergence on MAX density matrix=1.00D-06.
 Requested convergence on             energy=1.00D-06.
 No special actions if energy rises.
 SCF Done:  E(RwB97XD) =  -229.627341203     A.U. after   10 cycles
            NFock= 10  Conv=0.63D-08     -V/T= 2.0060
 Calling FoFJK, ICntrl=      2127 FMM=F ISym2X=0 I1Cent= 0 IOpClX= 0 NMat=1 NMatS=1 NMatT=0.
 ***** Axes restored to original set *****
 -------------------------------------------------------------------
 Center     Atomic                   Forces (Hartrees/Bohr)
 Number     Number              X              Y              Z
 -------------------------------------------------------------------
      1        8          -0.002609767   -0.002120502   -0.001418687
      2        1           0.002025317   -0.003314425    0.003051753
      3        1           0.001033323    0.004202259   -0.001343050
      4        8           0.000570444    0.001239714    0.001907377
      5        1           0.001840916   -0.000936769    0.004455923
      6        1           0.001578502   -0.002153501   -0.003715599
      7        8           0.002713973    0.001341694   -0.002436906
      8        1          -0.002123017    0.003644609   -0.001563192
      9        1          -0.001461224   -0.003899317    0.002516672
     10        1          -0.003568467    0.001996237   -0.001454291
 -------------------------------------------------------------------
 Cartesian Forces:  Max     0.004455923 RMS     0.002494352

 GradGradGradGradGradGradGradGradGradGradGradGradGradGradGradGradGradGrad
 Berny optimization.
 Using GEDIIS/GDIIS optimizer.
 FormGI is forming the generalized inverse of G from B-inverse, IUseBI=4.
 Internal  Forces:  Max     0.004718142 RMS     0.002180391
 Search for a local minimum.
 Step number   6 out of a maximum of   40
 All quantities printed in internal units (Hartrees-Bohrs-Radians)
 Mixed Optimization -- RFO/linear search
 Update second derivatives using D2CorX and points    2    3    4    6    5
 DE=  3.90D-05 DEPred=-7.72D-04 R=-5.05D-02
 Trust test=-5.05D-02 RLast= 3.84D-01 DXMaxT set to 4.24D-01
 ITU= -1  1  0  0  1  0
 Use linear search instead of GDIIS.
     Eigenvalues ---    0.00224   0.00230   0.00231   0.00313   0.00797
     Eigenvalues ---    0.01059   0.01582   0.02072   0.03320   0.10071
     Eigenvalues ---    0.10849   0.11555   0.14556   0.14957   0.16000
     Eigenvalues ---    0.16059   0.16256   0.45366   0.45730   0.50333
     Eigenvalues ---    0.50397   0.50484   0.50591   0.54083
 RFO step:  Lambda=-7.18226440D-04 EMin= 2.24112801D-03
 Quartic linear search produced a step of -0.52557.
 Iteration  1 RMS(Cart)=  0.12395275 RMS(Int)=  0.00642448
 Iteration  2 RMS(Cart)=  0.01348361 RMS(Int)=  0.00048794
 Iteration  3 RMS(Cart)=  0.00002389 RMS(Int)=  0.00048771
 Iteration  4 RMS(Cart)=  0.00000001 RMS(Int)=  0.00048771
 Variable       Old X    -DE/DX   Delta X   Delta X   Delta X     New X
                                 (Linear)    (Quad)   (Total)
    R1        1.82762  -0.00472  -0.00410  -0.00240  -0.00650   1.82112
    R2        1.82596  -0.00446  -0.00405  -0.00238  -0.00644   1.81953
    R3        2.77188   0.00012   0.01293  -0.00867   0.00427   2.77615
    R4        1.94553   0.00036   0.00127  -0.00137  -0.00009   1.94544
    R5        1.83297  -0.00441  -0.00109  -0.00624  -0.00732   1.82564
    R6        1.94509   0.00207   0.00070   0.00210   0.00279   1.94788
    R7        2.79082  -0.00092   0.00953  -0.01308  -0.00355   2.78727
    R8        1.82612  -0.00449  -0.00406  -0.00246  -0.00652   1.81960
    R9        1.82765  -0.00455  -0.00407  -0.00244  -0.00651   1.82114
    A1        1.89690  -0.00133   0.00643  -0.02356  -0.01748   1.87942
    A2        2.12372   0.00134  -0.01106   0.02142   0.01001   2.13373
    A3        2.26253  -0.00000   0.00461   0.00256   0.00682   2.26935
    A4        1.97672  -0.00104  -0.01440   0.00188  -0.01138   1.96534
    A5        2.04275   0.00159  -0.01476   0.01183  -0.00241   2.04034
    A6        1.97315  -0.00024  -0.01333   0.00365  -0.00962   1.96353
    A7        2.25695  -0.00061   0.00455   0.00098   0.00620   2.26315
    A8        2.12274   0.00190  -0.00769   0.01839   0.01136   2.13410
    A9        1.89284  -0.00122   0.00804  -0.02448  -0.01578   1.87707
   A10        3.24206  -0.00076  -0.02113   0.00424  -0.01713   3.22493
   A11        3.30431  -0.00338  -0.03030  -0.17265  -0.20255   3.10176
   A12        3.21804  -0.00200  -0.15865   0.06336  -0.09493   3.12311
   A13        2.97860   0.00171   0.06097   0.00002   0.06044   3.03904
    D1       -2.00053  -0.00074  -0.04988   0.01602  -0.03459  -2.03512
    D2        1.83675   0.00091   0.03344   0.03720   0.07138   1.90813
    D3        1.16504  -0.00084  -0.04885  -0.01344  -0.06304   1.10200
    D4       -1.28086   0.00080   0.03447   0.00773   0.04292  -1.23794
[...]
 Vib (V=0)    3  0.222054D+01          0.346460          0.797753
 Vib (V=0)    4  0.200856D+01          0.302885          0.697419
 Vib (V=0)    5  0.173490D+01          0.239275          0.550951
 Vib (V=0)    6  0.124238D+01          0.094255          0.217030
 Vib (V=0)    7  0.119449D+01          0.077183          0.177721
 Vib (V=0)    8  0.118862D+01          0.075044          0.172795
 Vib (V=0)    9  0.116945D+01          0.067981          0.156533
 Vib (V=0)   10  0.112870D+01          0.052580          0.121070
 Vib (V=0)   11  0.106346D+01          0.026722          0.061530
 Electronic      0.100000D+01          0.000000          0.000000
 Translational   0.160497D+08          7.205466         16.591198
 Rotational      0.717807D+05          4.856007         11.181370
 ***** Axes restored to original set *****
 -------------------------------------------------------------------
 Center     Atomic                   Forces (Hartrees/Bohr)
 Number     Number              X              Y              Z
 -------------------------------------------------------------------
      1        8           0.000003928   -0.000001988    0.000005026
      2        1          -0.000002926    0.000001000   -0.000002025
      3        1          -0.000003019   -0.000002723   -0.000001388
      4        8          -0.000014132    0.000008095   -0.000000678
      5        1           0.000027783   -0.000010618   -0.000009418
      6        1          -0.000004071    0.000001136    0.000003213
      7        8          -0.000009372    0.000001867    0.000004055
      8        1          -0.000001726   -0.000003659    0.000001932
      9        1          -0.000000285    0.000004181   -0.000001589
     10        1           0.000003820    0.000002711    0.000000873
 -------------------------------------------------------------------
 Cartesian Forces:  Max     0.000027783 RMS     0.000007106
 FormGI is forming the generalized inverse of G from B-inverse, IUseBI=4.

 GradGradGradGradGradGradGradGradGradGradGradGradGradGradGradGradGradGrad
 Berny optimization.
 Internal  Forces:  Max     0.000018591 RMS     0.000004674
 Search for a local minimum.
 Step number   1 out of a maximum of    2
 All quantities printed in internal units (Hartrees-Bohrs-Radians)
 Second derivative matrix not updated -- analytic derivatives used.
 ITU=  0
     Eigenvalues ---    0.00013   0.00042   0.00089   0.00116   0.00644
     Eigenvalues ---    0.01923   0.02080   0.02352   0.02709   0.02967
     Eigenvalues ---    0.03327   0.03605   0.04204   0.08358   0.09016
     Eigenvalues ---    0.10412   0.10422   0.34501   0.35459   0.53624
     Eigenvalues ---    0.54631   0.54661   0.55253   0.55265
 Angle between quadratic step and forces=  79.32 degrees.
 Linear search not attempted -- first point.
 Iteration  1 RMS(Cart)=  0.00071889 RMS(Int)=  0.00000081
 Iteration  2 RMS(Cart)=  0.00000078 RMS(Int)=  0.00000018
 Variable       Old X    -DE/DX   Delta X   Delta X   Delta X     New X
                                 (Linear)    (Quad)   (Total)
    R1        1.81933   0.00000   0.00000   0.00001   0.00001   1.81934
    R2        1.81841   0.00000   0.00000   0.00000   0.00000   1.81842
    R3        2.75712   0.00000   0.00000   0.00029   0.00029   2.75741
    R4        1.95382   0.00002   0.00000   0.00018   0.00018   1.95400
    R5        1.82451   0.00000   0.00000   0.00001   0.00001   1.82452
    R6        1.95409  -0.00000   0.00000  -0.00009  -0.00009   1.95400
    R7        2.75796  -0.00001   0.00000  -0.00054  -0.00054   2.75741
    R8        1.81842   0.00000   0.00000   0.00000   0.00000   1.81842
    R9        1.81933   0.00000   0.00000   0.00000   0.00000   1.81934
    A1        1.88555  -0.00000   0.00000  -0.00005  -0.00005   1.88551
    A2        2.15846  -0.00000   0.00000  -0.00008  -0.00008   2.15838
    A3        2.22334   0.00000   0.00000   0.00016   0.00016   2.22350
    A4        1.96997   0.00000   0.00000  -0.00001  -0.00001   1.96996
    A5        2.03332  -0.00000   0.00000   0.00000   0.00000   2.03332
    A6        1.97009  -0.00000   0.00000  -0.00013  -0.00013   1.96996
    A7        2.22336  -0.00000   0.00000   0.00012   0.00012   2.22348
    A8        2.15826  -0.00000   0.00000   0.00010   0.00010   2.15836
    A9        1.88539   0.00000   0.00000   0.00011   0.00011   1.88550
   A10        3.16932   0.00000   0.00000   0.00035   0.00035   3.16967
   A11        3.16959   0.00000   0.00000   0.00011   0.00011   3.16970
   A12        3.05879   0.00000   0.00000   0.00024   0.00024   3.05903
   A13        3.05891   0.00000   0.00000   0.00014   0.00014   3.05905
    D1       -2.05237  -0.00000   0.00000  -0.00036  -0.00036  -2.05273
    D2        1.87450  -0.00000   0.00000  -0.00020  -0.00020   1.87430
    D3        1.29619  -0.00000   0.00000  -0.00052  -0.00052   1.29567
    D4       -1.06013  -0.00000   0.00000  -0.00035  -0.00035  -1.06048
    D5        1.05735  -0.00000   0.00000   0.00285   0.00285   1.06020
    D6       -1.87510  -0.00000   0.00000   0.00078   0.00078  -1.87433
    D7       -1.29900   0.00000   0.00000   0.00305   0.00305  -1.29595
    D8        2.05173   0.00000   0.00000   0.00098   0.00098   2.05271
         Item               Value     Threshold  Converged?
 Maximum Force            0.000019     0.000450     YES
 RMS     Force            0.000005     0.000300     YES
 Maximum Displacement     0.001930     0.001800     NO 
 RMS     Displacement     0.000719     0.001200     YES
 Predicted change in Energy=-1.067683D-08
                           ----------------------------
                           ! Non-Optimized Parameters !
                           ! (Angstroms and Degrees)  !
 --------------------------                            --------------------------
 ! Name  Definition              Value          Derivative Info.                !
 --------------------------------------------------------------------------------
 ! R1    R(1,2)                  0.9628         -DE/DX =    0.0                 !
 ! R2    R(1,3)                  0.9623         -DE/DX =    0.0                 !
 ! R3    R(1,10)                 1.4592         -DE/DX =    0.0                 !
 ! R4    R(4,5)                  1.034          -DE/DX =    0.0                 !
 ! R5    R(4,6)                  0.9655         -DE/DX =    0.0                 !
 ! R6    R(4,10)                 1.034          -DE/DX =    0.0                 !
 ! R7    R(5,7)                  1.4592         -DE/DX =    0.0                 !
 ! R8    R(7,8)                  0.9623         -DE/DX =    0.0                 !
 ! R9    R(7,9)                  0.9628         -DE/DX =    0.0                 !
 ! A1    A(2,1,3)              108.0316         -DE/DX =    0.0                 !
 ! A2    A(2,1,10)             123.6661         -DE/DX =    0.0                 !
 ! A3    A(3,1,10)             127.3971         -DE/DX =    0.0                 !
 ! A4    A(5,4,6)              112.8706         -DE/DX =    0.0                 !
 ! A5    A(5,4,10)             116.5007         -DE/DX =    0.0                 !
 ! A6    A(6,4,10)             112.8704         -DE/DX =    0.0                 !
 ! A7    A(5,7,8)              127.3961         -DE/DX =    0.0                 !
 ! A8    A(5,7,9)              123.6651         -DE/DX =    0.0                 !
 ! A9    A(8,7,9)              108.0313         -DE/DX =    0.0                 !
 ! A10   L(4,5,7,3,-1)         181.6085         -DE/DX =    0.0                 !
 ! A11   L(1,10,4,8,-1)        181.6103         -DE/DX =    0.0                 !
 ! A12   L(4,5,7,3,-2)         175.2695         -DE/DX =    0.0                 !
 ! A13   L(1,10,4,8,-2)        175.2706         -DE/DX =    0.0                 !
 ! D1    D(2,1,4,5)           -117.6127         -DE/DX =    0.0                 !
 ! D2    D(2,1,4,6)            107.3897         -DE/DX =    0.0                 !
 ! D3    D(3,1,4,5)             74.2364         -DE/DX =    0.0                 !
 ! D4    D(3,1,4,6)            -60.7612         -DE/DX =    0.0                 !
 ! D5    D(6,4,7,8)             60.745          -DE/DX =    0.0                 !
 ! D6    D(6,4,7,9)           -107.3911         -DE/DX =    0.0                 !
 ! D7    D(10,4,7,8)           -74.2525         -DE/DX =    0.0                 !
 ! D8    D(10,4,7,9)           117.6114         -DE/DX =    0.0                 !
 --------------------------------------------------------------------------------
 GradGradGradGradGradGradGradGradGradGradGradGradGradGradGradGradGradGrad


 ----------------------------------------------------------------------

 Electric dipole moment (input orientation):
 (Debye = 10**-18 statcoulomb cm , SI units = C m)
                  (au)            (Debye)         (10**-30 SI)
   Tot        0.441551D+00      0.112231D+01      0.374363D+01
   x         -0.318143D-03     -0.808639D-03     -0.269733D-02
   y         -0.253427D+00     -0.644148D+00     -0.214865D+01
   z          0.361583D+00      0.919052D+00      0.306563D+01

 Dipole polarizability, Alpha (input orientation).
 (esu units = cm**3 , SI units = C**2 m**2 J**-1)
 Alpha(0;0):
               (au)            (10**-24 esu)      (10**-40 SI)
   iso        0.251344D+02      0.372453D+01      0.414410D+01
   aniso      0.745520D+01      0.110475D+01      0.122920D+01
   xx         0.297476D+02      0.440814D+01      0.490472D+01
   yx         0.113429D+01      0.168084D+00      0.187018D+00
   yy         0.230796D+02      0.342004D+01      0.380531D+01
   zx         0.791037D+00      0.117220D+00      0.130424D+00
   zy         0.767867D+00      0.113786D+00      0.126604D+00
   zz         0.225760D+02      0.334542D+01      0.372228D+01

 ----------------------------------------------------------------------

 Dipole orientation:
     8        -14.26222743          1.60888476         -2.20395770
     1        -15.41915774          1.45213523         -3.59927244
     1        -14.86594746          0.55463710         -0.85092156
     8        -10.84336484          4.84562294         -2.14402960
     1         -9.00292699          4.19182979         -2.09144162
     1        -11.13955143          6.22412334         -0.98607769
     8         -6.39482090          3.30280029         -2.20864350
     1         -5.40785772          2.59439129         -0.85561039
     1         -5.27800345          3.63517861         -3.60586294
     1        -12.25148252          3.49184572         -2.08957975

 Electric dipole moment (dipole orientation):
 (Debye = 10**-18 statcoulomb cm , SI units = C m)
                  (au)            (Debye)         (10**-30 SI)
   Tot        0.441551D+00      0.112231D+01      0.374363D+01
   x          0.000000D+00      0.000000D+00      0.000000D+00
   y          0.000000D+00      0.000000D+00      0.000000D+00
   z          0.441551D+00      0.112231D+01      0.374363D+01

 Dipole polarizability, Alpha (dipole orientation).
 (esu units = cm**3 , SI units = C**2 m**2 J**-1)
 Alpha(0;0):
               (au)            (10**-24 esu)      (10**-40 SI)
   iso        0.251344D+02      0.372453D+01      0.414410D+01
   aniso      0.745520D+01      0.110475D+01      0.122920D+01
   xx         0.297482D+02      0.440823D+01      0.490482D+01
   yx         0.138150D+01      0.204717D+00      0.227778D+00
   yy         0.236349D+02      0.350233D+01      0.389686D+01
   zx        -0.880883D-02     -0.130533D-02     -0.145238D-02
   zy         0.242808D-01      0.359804D-02      0.400336D-02
   zz         0.220201D+02      0.326304D+01      0.363062D+01

 ----------------------------------------------------------------------
 1\1\GINC-N2184\Freq\RwB97XD\Aug-CC-pVDZ\H7O3(1+)\GDS001\13-Feb-2023\0\
 \#N Geom=AllCheck Guess=TCheck SCRF=Check GenChk RwB97XD/Aug-CC-pVDZ F
 req\\blah\\1,1\O,-7.5465968219,1.3682941835,-0.4718485261\H,-8.1582669
 41,1.7242923651,-1.124541832\H,-7.8664606612,0.500576216,-0.2059512876
 \O,-5.7378254371,2.7522868037,0.5384856121\H,-4.7638493394,2.452779217
 2,0.3634058442\H,-5.895167938,2.9979876988,1.4588362235\O,-3.383547778
 2,2.1028106924,0.0435962688\H,-2.8617001556,1.3847676855,0.4151367311\
 H,-2.7920608623,2.671072043,-0.4604976807\H,-6.4828268944,2.149274081,
 0.1503750482\\Version=ES64L-G16RevA.03\State=1-A\HF=-229.6280979\RMSD=
 3.303e-09\RMSF=7.106e-06\ZeroPoint=0.0834052\Thermal=0.0916248\Dipole=
 -0.0003181,-0.2534272,0.3615829\DipoleDeriv=-0.766449,-0.1394381,-0.10
 14436,-0.1720265,-0.6163924,-0.1136591,-0.1247866,-0.1128491,-0.603096
 9,0.3152668,-0.0511389,-0.0154929,-0.0732613,0.305567,-0.0252706,-0.00
 51204,-0.0089794,0.3740335,0.289352,-0.0301303,-0.0508238,-0.0087922,0
 .3689783,-0.0015856,-0.0669292,-0.0210228,0.3281027,-1.281753,-0.11323
 9,-0.0766886,-0.1090791,-0.5739318,-0.1712295,-0.0827524,-0.1372027,-0
 .4487338,1.500055,-0.2204585,-0.2383923,-0.3097812,0.3139208,0.035156,
 -0.2839038,0.0228929,0.2914508,0.2858769,-0.0281772,-0.0252063,-0.0284
 454,0.4046708,0.0488009,-0.0247919,0.0465716,0.4115634,-0.9024369,0.06
 36515,0.064417,0.0965035,-0.5290745,-0.048212,0.0874731,-0.0473151,-0.
 5541191,0.261379,-0.002684,0.0317942,-0.0272934,0.3714003,0.0113494,0.
 0526627,0.0041192,0.3534907,0.2719143,0.0396489,0.0000926,0.0645155,0.
 3472783,-0.0044258,-0.0142553,0.001684,0.3754755,1.026795,0.4819656,0.
 4117436,0.5676601,0.6075832,0.2690764,0.4624037,0.2521014,0.4718334\Po
 lar=29.7476222,1.1342859,23.0796053,0.7910368,0.7678669,22.5759955\Qua
 drupole=11.1818106,-5.627619,-5.5541916,3.026468,2.0597751,0.6526839\P
 G=C01 [X(H7O3)]\NImag=0\\0.36271263,0.08244538,0.57707958,0.22998009,-
 0.26131078,0.32879420,-0.23682159,0.11466362,-0.24206445,0.22913708,0.
 07857098,-0.11287717,0.11902143,-0.10810087,0.11820499,-0.21969658,0.1
 4515205,-0.24582511,0.23110880,-0.14492629,0.25427430,-0.09573635,-0.1
 8023329,0.02992241,0.00950978,0.02849737,-0.00920036,0.08510153,-0.142
 21211,-0.43567872,0.14612227,-0.00981371,-0.01164770,-0.00005544,0.154
 01435,0.44978588,0.00909608,0.12000995,-0.06472338,0.01296549,0.027584
 58,-0.00635910,-0.02486117,-0.14532332,0.06747038,-0.03019640,-0.02802
 020,-0.02029361,-0.00138271,-0.00566459,0.00076850,-0.00355715,0.00157
 485,-0.00579679,0.57073715,-0.02476814,-0.00800671,-0.01424399,-0.0020
 4335,-0.00539070,0.00035880,-0.00191601,0.00103615,-0.00229126,0.03123
 604,0.22298531,-0.01963072,-0.01593630,-0.00225972,-0.00113644,-0.0021
 5491,0.00053430,-0.00334681,0.00079793,-0.00316776,-0.04822798,0.24176
 608,0.61473610,0.00603499,0.00521642,0.00462116,0.00003111,0.00071328,
 -0.00102233,0.00059432,-0.00115054,0.00052964,-0.23052726,0.06090755,0
 .02930342,0.21428267,-0.00315660,-0.00418483,-0.00280605,-0.00003244,-
 0.00040375,-0.00007124,-0.00085614,0.00029390,-0.00059596,0.06749578,-
 0.05952833,-0.03823677,-0.04945319,0.06929804,-0.00261182,-0.00337430,
 -0.00226406,-0.00023685,-0.00031422,0.00037582,-0.00034079,0.00010877,
 -0.00042358,0.00358842,-0.02997755,-0.06275593,-0.02382028,0.01844178,
 0.07291593,-0.00394318,-0.00239697,0.00009879,-0.00016917,-0.00039949,
 -0.00021513,-0.00055523,-0.00023884,-0.00063179,-0.08191065,0.01154144
 ,0.06974894,0.01085738,0.00367481,0.03026154,0.06374529,-0.00088691,-0
 .00094265,0.00057063,-0.00043376,0.00028025,0.00012181,-0.00047700,-0.
 00019413,-0.00054030,0.00811003,-0.03958592,-0.11056377,0.00115143,-0.
 00398927,-0.00804798,-0.01593746,0.04729874,0.00188690,0.00099002,0.00
 113689,-0.00004870,0.00017987,-0.00009431,-0.00007126,-0.00014585,0.00
 040312,0.07466834,-0.13831610,-0.47697130,0.00487220,0.00172863,-0.001
 54670,-0.07742251,0.13440837,0.48492358,-0.00297935,-0.00257099,-0.001
 92530,0.00010877,-0.00038369,0.00040433,-0.00016577,0.00047836,-0.0003
 9085,-0.05329699,0.01183175,0.01199678,0.00631023,-0.00377909,0.000114
 32,-0.00376853,-0.00044771,-0.00332923,0.49347614,0.00077724,0.0013558
 7,0.00070675,0.00003001,-0.00000899,-0.00002147,0.00040943,-0.00024457
 ,0.00014132,0.01541227,0.00683793,-0.00446012,-0.00614573,-0.02182048,
 0.01138658,0.00099272,-0.00027326,0.00048597,-0.04797978,0.52574725,0.
 00064357,0.00074542,0.00092268,0.00016857,0.00010622,-0.00022770,0.000
 10223,-0.00006044,-0.00007151,0.01218053,-0.00345883,0.00604959,0.0010
 1923,0.01045231,-0.01541847,-0.00144902,0.00034882,0.00029642,-0.08641
 746,-0.33674389,0.24923102,0.00004768,-0.00032923,-0.00005965,-0.00005
 255,0.00002726,-0.00003644,-0.00021368,0.00003369,-0.00004912,-0.00519
 684,0.00030111,0.00237994,0.00720627,0.00252275,-0.00660106,-0.0008876
 5,0.00034230,-0.00018266,-0.20247613,0.22350603,-0.10336960,0.18671364
 ,-0.00032840,-0.00052345,-0.00019337,0.00001505,0.00001470,0.00000855,
 -0.00016247,0.00016754,-0.00006097,-0.00370576,0.00054366,0.00118609,0
 .00637776,-0.00167497,-0.00288290,0.00004165,0.00001052,-0.00012322,0.
 18130708,-0.30294774,0.16542662,-0.20285528,0.31959103,0.00033311,0.00
 017333,-0.00000459,-0.00005828,0.00004342,0.00001275,-0.00002973,-0.00
 003330,0.00015504,0.00558829,0.00002379,-0.00103050,-0.00851391,-0.001
 90551,0.00270533,0.00046996,-0.00023684,0.00053093,-0.07648836,0.15772
 867,-0.09070670,0.09467429,-0.17112272,0.09606344,0.00009810,0.0000097
 1,-0.00011537,-0.00010580,-0.00002271,0.00002855,-0.00004452,-0.000037
 01,0.00002409,-0.00432060,0.00230406,0.00072818,0.00421181,-0.00805622
 ,0.00177888,-0.00040199,0.00014051,-0.00008586,-0.24219007,-0.18600789
 ,0.17876156,0.01497051,0.01837635,-0.01580021,0.22787437,0.00037082,0.
 00012062,0.00014950,-0.00004205,0.00010926,-0.00004943,-0.00005799,-0.
 00000968,0.00004722,0.00632822,-0.00241015,-0.00027180,-0.00920447,0.0
 0631062,-0.00113286,0.00009983,0.00047692,0.00023976,-0.14575825,-0.20
 524654,0.16577519,-0.02439709,-0.01616540,0.01582322,0.17312243,0.2173
 8511,-0.00027714,-0.00014435,-0.00034744,-0.00006776,-0.00006414,0.000
 12554,0.00001474,0.00001107,0.00002927,-0.00176089,0.00051497,0.000495
 61,0.00351277,-0.00132857,-0.00188462,0.00008885,0.00025096,-0.0000580
 8,0.15033149,0.17342617,-0.14808257,0.01285152,0.00725126,-0.00731542,
 -0.16554476,-0.18020587,0.15636982,0.00078348,0.01121555,-0.00016406,-
 0.00025492,0.00676246,-0.00213934,0.00506707,-0.00264903,0.00911443,-0
 .16034855,-0.08939445,-0.04181531,-0.01900152,-0.00835966,-0.00213235,
 0.01703374,0.00843857,-0.00028722,0.00498170,-0.00099429,-0.00163961,-
 0.00011127,0.00093402,-0.00017516,-0.00009180,-0.00046146,0.00085119,0
 .15194207,0.00918775,-0.01634255,0.01198361,0.00575750,0.01171910,-0.0
 0051736,0.00078175,-0.00350868,0.00102872,-0.09276663,-0.11648122,-0.0
 7212644,-0.00841252,0.01569907,0.01579268,0.00262230,-0.00308120,0.000
 55254,0.00730233,-0.00339947,-0.00259142,0.00084847,0.00098410,-0.0004
 9406,0.00017077,-0.00057075,0.00028850,0.07450829,0.11498161,0.0002765
 1,0.01369494,-0.01542945,-0.00063038,0.00052404,-0.00281649,0.00781074
 ,-0.00142168,0.00668753,-0.02071479,-0.05437592,-0.07563039,-0.0105019
 0,0.01432137,0.00829629,-0.02094961,-0.01631170,-0.00862055,0.00570427
 ,-0.00264997,-0.00199276,0.00039278,0.00051066,-0.00041027,0.00022494,
 -0.00037495,0.00066788,0.03838744,0.04608321,0.08924821\\-0.00000393,0
 .00000199,-0.00000503,0.00000293,-0.00000100,0.00000203,0.00000302,0.0
 0000272,0.00000139,0.00001413,-0.00000809,0.00000068,-0.00002778,0.000
 01062,0.00000942,0.00000407,-0.00000114,-0.00000321,0.00000937,-0.0000
 0187,-0.00000405,0.00000173,0.00000366,-0.00000193,0.00000029,-0.00000
 418,0.00000159,-0.00000382,-0.00000271,-0.00000087\\\@


 AND THIS OUR LIFE, EXEMPT FROM PUBLIC HAUNT,
 FINDS TONGUES IN TREES, BOOKS IN THE RUNNING BROOKS,
 SERMONS IN STONES, AND GOOD IN EVERYTHING.
 I WOULD NOT CHANGE IT. -- W. SHAKESPEARE
 AS YOU LIKE IT, ACT II, SCENE 1.
 Job cpu time:       0 days  0 hours  8 minutes 36.2 seconds.
 Elapsed time:       0 days  0 hours  0 minutes 19.1 seconds.
 File lengths (MBytes):  RWF=    332 Int=      0 D2E=      0 Chk=      8 Scr=      8
 Normal termination of Gaussian 16 at Mon Feb 13 17:15:28 2023.
