 Entering Gaussian System, Link 0=g16
 Input=h9o4p.gjf
 Output=h9o4p.log
 Initial command:
 /sw/contrib/gaussian/g16/A03/g16/l1.exe "/gscratch/scrubbed/gds001/Gau-13910.inp" -scrdir="/gscratch/scrubbed/gds001/"
 Entering Link 1 = /sw/contrib/gaussian/g16/A03/g16/l1.exe PID=     13911.
  
 Copyright (c) 1988,1990,1992,1993,1995,1998,2003,2009,2016,
            Gaussian, Inc.  All Rights Reserved.
  
 This is part of the Gaussian(R) 16 program.  It is based on
 the Gaussian(R) 09 system (copyright 2009, Gaussian, Inc.),
 the Gaussian(R) 03 system (copyright 2003, Gaussian, Inc.),
 the Gaussian(R) 98 system (copyright 1998, Gaussian, Inc.),
 the Gaussian(R) 94 system (copyright 1995, Gaussian, Inc.),
 the Gaussian 92(TM) system (copyright 1992, Gaussian, Inc.),
 the Gaussian 90(TM) system (copyright 1990, Gaussian, Inc.),
 the Gaussian 88(TM) system (copyright 1988, Gaussian, Inc.),
 the Gaussian 86(TM) system (copyright 1986, Carnegie Mellon
 University), and the Gaussian 82(TM) system (copyright 1983,
 Carnegie Mellon University). Gaussian is a federally registered
 trademark of Gaussian, Inc.
  
 This software contains proprietary and confidential information,
 including trade secrets, belonging to Gaussian, Inc.
  
 This software is provided under written license and may be
 used, copied, transmitted, or stored only in accord with that
 written license.
  
 The following legend is applicable only to US Government
 contracts under FAR:
  
                    RESTRICTED RIGHTS LEGEND
  
 Use, reproduction and disclosure by the US Government is
 subject to restrictions as set forth in subparagraphs (a)
 and (c) of the Commercial Computer Software - Restricted
 Rights clause in FAR 52.227-19.
  
 Gaussian, Inc.
 340 Quinnipiac St., Bldg. 40, Wallingford CT 06492
  
  
 ---------------------------------------------------------------
 Warning -- This program may not be used in any manner that
 competes with the business of Gaussian, Inc. or will provide
 assistance to any competitor of Gaussian, Inc.  The licensee
 of this program is prohibited from giving any competitor of
 Gaussian, Inc. access to this program.  By using this program,
 the user acknowledges that Gaussian, Inc. is engaged in the
 business of creating and licensing software in the field of
 computational chemistry and represents and warrants to the
 licensee that it is not a competitor of Gaussian, Inc. and that
 it will not use this program in any manner prohibited above.
 ---------------------------------------------------------------
  

 Cite this work as:
 Gaussian 16, Revision A.03,
 M. J. Frisch, G. W. Trucks, H. B. Schlegel, G. E. Scuseria, 
 M. A. Robb, J. R. Cheeseman, G. Scalmani, V. Barone, 
 G. A. Petersson, H. Nakatsuji, X. Li, M. Caricato, A. V. Marenich, 
 J. Bloino, B. G. Janesko, R. Gomperts, B. Mennucci, H. P. Hratchian, 
 J. V. Ortiz, A. F. Izmaylov, J. L. Sonnenberg, D. Williams-Young, 
 F. Ding, F. Lipparini, F. Egidi, J. Goings, B. Peng, A. Petrone, 
 T. Henderson, D. Ranasinghe, V. G. Zakrzewski, J. Gao, N. Rega, 
 G. Zheng, W. Liang, M. Hada, M. Ehara, K. Toyota, R. Fukuda, 
 J. Hasegawa, M. Ishida, T. Nakajima, Y. Honda, O. Kitao, H. Nakai, 
 T. Vreven, K. Throssell, J. A. Montgomery, Jr., J. E. Peralta, 
 F. Ogliaro, M. J. Bearpark, J. J. Heyd, E. N. Brothers, K. N. Kudin, 
 V. N. Staroverov, T. A. Keith, R. Kobayashi, J. Normand, 
 K. Raghavachari, A. P. Rendell, J. C. Burant, S. S. Iyengar, 
 J. Tomasi, M. Cossi, J. M. Millam, M. Klene, C. Adamo, R. Cammi, 
 J. W. Ochterski, R. L. Martin, K. Morokuma, O. Farkas, 
 J. B. Foresman, and D. J. Fox, Gaussian, Inc., Wallingford CT, 2016.
 
 ******************************************
 Gaussian 16:  ES64L-G16RevA.03 25-Dec-2016
                13-Feb-2023 
 ******************************************
 %nprocshared=28
 Will use up to   28 processors via shared memory.
 %mem=41GB
 -----------------------------
 # wB97XD/aug-cc-pVDZ opt freq
 -----------------------------
 1/18=20,19=15,26=3,38=1/1,3;
 2/9=110,12=2,17=6,18=5,40=1/2;
 3/5=16,7=10,11=2,25=1,30=1,71=1,74=-58/1,2,3;
 4//1;
 5/5=2,38=5/2;
 6/7=2,8=2,9=2,10=2,28=1/1;
 7//1,2,3,16;
 1/18=20,19=15,26=3/3(2);
 2/9=110/2;
 99//99;
 2/9=110/2;
 3/5=16,7=10,11=2,25=1,30=1,71=1,74=-58/1,2,3;
 4/5=5,16=3,69=1/1;
 5/5=2,38=5/2;
 7//1,2,3,16;
 1/18=20,19=15,26=3/3(-5);
 2/9=110/2;
 6/7=2,8=2,9=2,10=2,19=2,28=1/1;
 99/9=1/99;
 ----
 blah
 ----
 Symbolic Z-matrix:
 Charge =  1 Multiplicity = 1
 O                    -7.36666   1.30473  -0.35953 
 H                    -7.8148    1.24219  -1.23328 
 H                    -7.77635   0.52674   0.07956 
 O                    -5.81541   3.13736   0.39178 
 H                    -4.90476   2.74546   0.21102 
 H                    -5.90563   3.13164   1.39547 
 O                    -3.56604   2.06971   0.0314 
 H                    -3.25487   1.1459   -0.09375 
 H                    -2.7141    2.54019  -0.11357 
 H                    -6.46679   2.4395    0.06891 
 O                    -6.04398   2.9932    2.89305 
 H                    -5.5972    2.47113   3.59572 
 H                    -6.60468   3.56831   3.46141 
 
 Add virtual bond connecting atoms H10        and O1         Dist= 2.85D+00.
 Add virtual bond connecting atoms O11        and H6         Dist= 2.85D+00.
 Add virtual bond connecting atoms O7         and H5         Dist= 2.85D+00.

 GradGradGradGradGradGradGradGradGradGradGradGradGradGradGradGradGradGrad
 Berny optimization.
 Initialization pass.
                           ----------------------------
                           !    Initial Parameters    !
                           ! (Angstroms and Degrees)  !
 --------------------------                            --------------------------
 ! Name  Definition              Value          Derivative Info.                !
 --------------------------------------------------------------------------------
 ! R1    R(1,2)                  0.984          estimate D2E/DX2                !
 ! R2    R(1,3)                  0.9828         estimate D2E/DX2                !
 ! R3    R(1,10)                 1.5103         estimate D2E/DX2                !
 ! R4    R(4,5)                  1.0077         estimate D2E/DX2                !
 ! R5    R(4,6)                  1.0077         estimate D2E/DX2                !
 ! R6    R(4,10)                 1.0077         estimate D2E/DX2                !
 ! R7    R(5,7)                  1.5103         estimate D2E/DX2                !
 ! R8    R(6,11)                 1.5103         estimate D2E/DX2                !
 ! R9    R(7,8)                  0.9828         estimate D2E/DX2                !
 ! R10   R(7,9)                  0.984          estimate D2E/DX2                !
 ! R11   R(11,12)                0.9828         estimate D2E/DX2                !
 ! R12   R(11,13)                0.984          estimate D2E/DX2                !
 ! A1    A(2,1,3)               99.0072         estimate D2E/DX2                !
 ! A2    A(2,1,10)             124.8218         estimate D2E/DX2                !
 ! A3    A(3,1,10)             135.7577         estimate D2E/DX2                !
 ! A4    A(5,4,6)              104.912          estimate D2E/DX2                !
 ! A5    A(5,4,10)             104.9109         estimate D2E/DX2                !
 ! A6    A(6,4,10)             104.9102         estimate D2E/DX2                !
 ! A7    A(5,7,8)              135.7534         estimate D2E/DX2                !
 ! A8    A(5,7,9)              124.8232         estimate D2E/DX2                !
 ! A9    A(8,7,9)               99.0069         estimate D2E/DX2                !
 ! A10   A(6,11,12)            135.7229         estimate D2E/DX2                !
 ! A11   A(6,11,13)            124.8469         estimate D2E/DX2                !
 ! A12   A(12,11,13)            99.0069         estimate D2E/DX2                !
 ! A13   L(4,5,7,12,-1)        175.9795         estimate D2E/DX2                !
 ! A14   L(4,6,11,3,-1)        175.9607         estimate D2E/DX2                !
 ! A15   L(1,10,4,8,-1)        175.9808         estimate D2E/DX2                !
 ! A16   L(4,5,7,12,-2)        177.0302         estimate D2E/DX2                !
 ! A17   L(4,6,11,3,-2)        177.0326         estimate D2E/DX2                !
 ! A18   L(1,10,4,8,-2)        182.9659         estimate D2E/DX2                !
 ! D1    D(2,1,4,5)            -97.0948         estimate D2E/DX2                !
 ! D2    D(2,1,4,6)            153.818          estimate D2E/DX2                !
 ! D3    D(3,1,4,5)             89.5636         estimate D2E/DX2                !
 ! D4    D(3,1,4,6)            -19.5236         estimate D2E/DX2                !
 ! D5    D(6,4,7,8)             89.6358         estimate D2E/DX2                !
 ! D6    D(6,4,7,9)            -97.0508         estimate D2E/DX2                !
 ! D7    D(10,4,7,8)           -19.4495         estimate D2E/DX2                !
 ! D8    D(10,4,7,9)           153.8639         estimate D2E/DX2                !
 ! D9    D(5,4,11,12)          -19.004          estimate D2E/DX2                !
 ! D10   D(5,4,11,13)          154.2625         estimate D2E/DX2                !
 ! D11   D(10,4,11,12)          90.0788         estimate D2E/DX2                !
 ! D12   D(10,4,11,13)         -96.6547         estimate D2E/DX2                !
 --------------------------------------------------------------------------------
 Trust Radius=3.00D-01 FncErr=1.00D-07 GrdErr=1.00D-06 EigMax=2.50D+02 EigMin=1.00D-04
 Number of steps in this run=     52 maximum allowed number of steps=    100.
 GradGradGradGradGradGradGradGradGradGradGradGradGradGradGradGradGradGrad

                          Input orientation:                          
 ---------------------------------------------------------------------
 Center     Atomic      Atomic             Coordinates (Angstroms)
 Number     Number       Type             X           Y           Z
 ---------------------------------------------------------------------
      1          8           0       -7.366658    1.304731   -0.359534
      2          1           0       -7.814803    1.242194   -1.233275
      3          1           0       -7.776347    0.526744    0.079557
      4          8           0       -5.815412    3.137364    0.391783
      5          1           0       -4.904762    2.745460    0.211024
      6          1           0       -5.905627    3.131645    1.395465
      7          8           0       -3.566040    2.069712    0.031396
      8          1           0       -3.254871    1.145903   -0.093750
      9          1           0       -2.714099    2.540190   -0.113569
     10          1           0       -6.466787    2.439499    0.068910
     11          8           0       -6.043984    2.993203    2.893053
     12          1           0       -5.597200    2.471126    3.595716
     13          1           0       -6.604677    3.568311    3.461415
 ---------------------------------------------------------------------
                    Distance matrix (angstroms):
                    1          2          3          4          5
     1  O    0.000000
     2  H    0.983955   0.000000
     3  H    0.982807   1.495619   0.000000
     4  O    2.515827   3.198444   3.279953   0.000000
     5  H    2.908981   3.579686   3.631252   1.007743   0.000000
     6  H    2.924424   3.758358   3.466514   1.007745   1.598052
     7  O    3.896502   4.509564   4.484391   2.515837   1.510324
     8  H    4.123429   4.701146   4.566962   3.279944   2.318105
     9  H    4.820080   5.381052   5.451387   3.198459   2.224073
    10  H    1.510309   2.224045   2.318123   1.007745   1.598040
    11  O    3.896118   4.819587   4.123138   2.515826   2.924463
    12  H    4.487256   5.454099   4.570852   3.279738   3.465670
    13  H    4.506003   5.377299   4.696904   3.198640   3.759233
                    6          7          8          9         10
     6  H    0.000000
     7  O    2.908961   0.000000
     8  H    3.631451   0.982808   0.000000
     9  H    3.579504   0.983955   1.495615   0.000000
    10  H    1.598035   2.924463   3.466447   3.758471   0.000000
    11  O    1.510324   3.896425   4.484714   4.509227   2.908803
    12  H    2.317869   4.122029   4.566715   4.698493   3.632567
    13  H    2.224297   4.821218   5.452381   5.382763   3.578033
                   11         12         13
    11  O    0.000000
    12  H    0.982810   0.000000
    13  H    0.983952   1.495614   0.000000
 Stoichiometry    H9O4(1+)
 Framework group  C1[X(H9O4)]
 Deg. of freedom    33
 Full point group                 C1      NOp   1
 Largest Abelian subgroup         C1      NOp   1
 Largest concise Abelian subgroup C1      NOp   1
                         Standard orientation:                         
 ---------------------------------------------------------------------
 Center     Atomic      Atomic             Coordinates (Angstroms)
 Number     Number       Type             X           Y           Z
 ---------------------------------------------------------------------
      1          8           0        1.429219   -1.737135   -0.239071
      2          1           0        1.672554   -2.617826    0.126083
      3          1           0        1.963696   -1.759393   -1.063540
      4          8           0       -0.000071   -0.000072    0.887484
      5          1           0       -0.908222   -0.162835    0.482125
      6          1           0        0.313016    0.867866    0.482256
      7          8           0       -2.219196   -0.369001   -0.238931
      8          1           0       -2.505885   -0.821318   -1.063024
      9          1           0       -3.103483   -0.138878    0.126100
     10          1           0        0.595004   -0.705092    0.482042
     11          8           0        0.790044    2.106196   -0.238899
     12          1           0        0.537684    2.583321   -1.060228
     13          1           0        1.435673    2.754251    0.123521
 ---------------------------------------------------------------------
 Rotational constants (GHZ):           3.0215583           3.0207959           1.7096289
 Standard basis: Aug-CC-pVDZ (5D, 7F)
 There are   181 symmetry adapted cartesian basis functions of A   symmetry.
 There are   173 symmetry adapted basis functions of A   symmetry.
   173 basis functions,   271 primitive gaussians,   181 cartesian basis functions
    20 alpha electrons       20 beta electrons
       nuclear repulsion energy       147.7042036868 Hartrees.
 NAtoms=   13 NActive=   13 NUniq=   13 SFac= 1.00D+00 NAtFMM=   60 NAOKFM=F Big=F
 Integral buffers will be    131072 words long.
 Raffenetti 2 integral format.
 Two-electron integral symmetry is turned on.
 Nuclear repulsion after empirical dispersion term =      147.7006704003 Hartrees.
 One-electron integrals computed using PRISM.
 NBasis=   173 RedAO= T EigKep=  4.62D-04  NBF=   173
 NBsUse=   173 1.00D-06 EigRej= -1.00D+00 NBFU=   173
 ExpMin= 2.97D-02 ExpMax= 1.17D+04 ExpMxC= 4.01D+02 IAcc=3 IRadAn=         5 AccDes= 0.00D+00
 Harris functional with IExCor= 4639 and IRadAn=       5 diagonalized for initial guess.
 HarFok:  IExCor= 4639 AccDes= 0.00D+00 IRadAn=         5 IDoV= 1 UseB2=F ITyADJ=14
 ICtDFT=  3500011 ScaDFX=  1.000000  1.000000  1.000000  1.000000
 FoFCou: FMM=F IPFlag=           0 FMFlag=      100000 FMFlg1=           0
         NFxFlg=           0 DoJE=T BraDBF=F KetDBF=T FulRan=T
         wScrn=  0.000000 ICntrl=       500 IOpCl=  0 I1Cent=   200000004 NGrid=           0
         NMat0=    1 NMatS0=      1 NMatT0=    0 NMatD0=    1 NMtDS0=    0 NMtDT0=    0
 Petite list used in FoFCou.
 Requested convergence on RMS density matrix=1.00D-08 within 128 cycles.
 Requested convergence on MAX density matrix=1.00D-06.
 Requested convergence on             energy=1.00D-06.
 No special actions if energy rises.
 SCF Done:  E(RwB97XD) =  -306.068193974     A.U. after   10 cycles
            NFock= 10  Conv=0.46D-08     -V/T= 2.0062

 **********************************************************************

            Population analysis using the SCF density.

 **********************************************************************

 Orbital symmetries:
       Occupied  (A) (A) (A) (A) (A) (A) (A) (A) (A) (A) (A) (A)
                 (A) (A) (A) (A) (A) (A) (A) (A)
       Virtual   (A) (A) (A) (A) (A) (A) (A) (A) (A) (A) (A) (A)
                 (A) (A) (A) (A) (A) (A) (A) (A) (A) (A) (A) (A)
                 (A) (A) (A) (A) (A) (A) (A) (A) (A) (A) (A) (A)
                 (A) (A) (A) (A) (A) (A) (A) (A) (A) (A) (A) (A)
                 (A) (A) (A) (A) (A) (A) (A) (A) (A) (A) (A) (A)
                 (A) (A) (A) (A) (A) (A) (A) (A) (A) (A) (A) (A)
                 (A) (A) (A) (A) (A) (A) (A) (A) (A) (A) (A) (A)
                 (A) (A) (A) (A) (A) (A) (A) (A) (A) (A) (A) (A)
                 (A) (A) (A) (A) (A) (A) (A) (A) (A) (A) (A) (A)
                 (A) (A) (A) (A) (A) (A) (A) (A) (A) (A) (A) (A)
                 (A) (A) (A) (A) (A) (A) (A) (A) (A) (A) (A) (A)
                 (A) (A) (A) (A) (A) (A) (A) (A) (A) (A) (A) (A)
                 (A) (A) (A) (A) (A) (A) (A) (A) (A)
 The electronic state is 1-A.
 Alpha  occ. eigenvalues --  -19.50296 -19.47313 -19.47312 -19.47312  -1.37350
 Alpha  occ. eigenvalues --   -1.30960  -1.30960  -1.30399  -0.85652  -0.85651
 Alpha  occ. eigenvalues --   -0.79497  -0.79382  -0.79381  -0.74167  -0.68014
 Alpha  occ. eigenvalues --   -0.68014  -0.65294  -0.60100  -0.60099  -0.59894
 Alpha virt. eigenvalues --   -0.10595  -0.08154  -0.08153  -0.05406  -0.03927
 Alpha virt. eigenvalues --   -0.03919  -0.02443  -0.01214  -0.01206   0.02234
 Alpha virt. eigenvalues --    0.03645   0.03649   0.04373   0.06346   0.06357
 Alpha virt. eigenvalues --    0.07126   0.08039   0.08048   0.08868   0.10005
 Alpha virt. eigenvalues --    0.10742   0.10756   0.12352   0.12363   0.12943
 Alpha virt. eigenvalues --    0.15588   0.15612   0.15664   0.19464   0.19976
 Alpha virt. eigenvalues --    0.20002   0.22081   0.22089   0.22671   0.23052
 Alpha virt. eigenvalues --    0.23067   0.28956   0.29227   0.29254   0.33080
 Alpha virt. eigenvalues --    0.34248   0.34470   0.34480   0.36375   0.36380
 Alpha virt. eigenvalues --    0.37263   0.39762   0.39782   0.40682   0.44415
 Alpha virt. eigenvalues --    0.44426   0.46185   0.46202   0.47059   0.48013
 Alpha virt. eigenvalues --    0.48035   0.48190   0.50985   0.57803   0.57831
 Alpha virt. eigenvalues --    0.60301   0.62213   0.67518   0.67545   0.70747
 Alpha virt. eigenvalues --    0.70762   0.71406   0.72615   0.72640   0.79358
 Alpha virt. eigenvalues --    0.85039   0.85043   0.85509   0.92088   0.92860
 Alpha virt. eigenvalues --    0.92888   0.95908   0.95922   1.01467   1.06112
 Alpha virt. eigenvalues --    1.06123   1.07071   1.10659   1.10697   1.13360
 Alpha virt. eigenvalues --    1.18961   1.18980   1.23129   1.30282   1.30286
 Alpha virt. eigenvalues --    1.32078   1.35169   1.35234   1.35275   1.59290
 Alpha virt. eigenvalues --    1.59300   1.61993   1.66366   1.66416   1.68223
 Alpha virt. eigenvalues --    1.71226   1.72906   1.72917   1.77026   1.78751
 Alpha virt. eigenvalues --    1.78784   1.86230   1.87713   1.87724   2.04620
 Alpha virt. eigenvalues --    2.04636   2.04934   2.13450   2.13457   2.14028
 Alpha virt. eigenvalues --    2.16877   2.18983   2.18990   2.21858   2.21870
 Alpha virt. eigenvalues --    2.24807   2.49367   2.49404   2.55263   2.59914
 Alpha virt. eigenvalues --    2.59945   2.62031   2.69858   2.69922   2.83105
 Alpha virt. eigenvalues --    2.90421   2.90437   3.00477   3.20608   3.20612
 Alpha virt. eigenvalues --    3.20755   3.24361   3.24361   3.26030   3.26049
 Alpha virt. eigenvalues --    3.27293   3.30922   3.31707   3.31730   3.53757
 Alpha virt. eigenvalues --    3.54457   3.54467   3.73125   3.82838   3.83225
 Alpha virt. eigenvalues --    3.83239   4.09634   4.09650
          Condensed to atoms (all electrons):
               1          2          3          4          5          6
     1  O    7.796932   0.345933   0.341949  -0.094763  -0.000312  -0.007418
     2  H    0.345933   0.533343  -0.063696   0.001015   0.000271  -0.000007
     3  H    0.341949  -0.063696   0.524689   0.001906   0.000395   0.000137
     4  O   -0.094763   0.001015   0.001906   7.700485   0.266222   0.266122
     5  H   -0.000312   0.000271   0.000395   0.266222   0.408361  -0.029388
     6  H   -0.007418  -0.000007   0.000137   0.266122  -0.029388   0.408285
     7  O    0.000312   0.000339   0.000029  -0.094771   0.004803  -0.000301
     8  H   -0.000463  -0.000002   0.000066   0.001900  -0.003537   0.000394
     9  H    0.000074  -0.000068  -0.000021   0.001014  -0.012148   0.000275
    10  H    0.004806  -0.012150  -0.003535   0.266463  -0.029573  -0.029412
    11  O    0.000316   0.000074  -0.000464  -0.094857  -0.007400   0.004847
    12  H    0.000031  -0.000021   0.000066   0.001872   0.000130  -0.003584
    13  H    0.000339  -0.000068  -0.000002   0.001020  -0.000008  -0.012098
               7          8          9         10         11         12
     1  O    0.000312  -0.000463   0.000074   0.004806   0.000316   0.000031
     2  H    0.000339  -0.000002  -0.000068  -0.012150   0.000074  -0.000021
     3  H    0.000029   0.000066  -0.000021  -0.003535  -0.000464   0.000066
     4  O   -0.094771   0.001900   0.001014   0.266463  -0.094857   0.001872
     5  H    0.004803  -0.003537  -0.012148  -0.029573  -0.007400   0.000130
     6  H   -0.000301   0.000394   0.000275  -0.029412   0.004847  -0.003584
     7  O    7.797065   0.341944   0.345921  -0.007451   0.000336  -0.000464
     8  H    0.341944   0.524675  -0.063693   0.000139   0.000028   0.000066
     9  H    0.345921  -0.063693   0.533311  -0.000008   0.000343  -0.000000
    10  H   -0.007451   0.000139  -0.000008   0.408333  -0.000324   0.000397
    11  O    0.000336   0.000028   0.000343  -0.000324   7.797429   0.342078
    12  H   -0.000464   0.000066  -0.000000   0.000397   0.342078   0.524697
    13  H    0.000071  -0.000021  -0.000068   0.000278   0.345747  -0.063710
              13
     1  O    0.000339
     2  H   -0.000068
     3  H   -0.000002
     4  O    0.001020
     5  H   -0.000008
     6  H   -0.012098
     7  O    0.000071
     8  H   -0.000021
     9  H   -0.000068
    10  H    0.000278
    11  O    0.345747
    12  H   -0.063710
    13  H    0.533065
 Mulliken charges:
               1
     1  O   -0.387737
     2  H    0.195037
     3  H    0.198482
     4  O   -0.223629
     5  H    0.402183
     6  H    0.402148
     7  O   -0.387833
     8  H    0.198503
     9  H    0.195067
    10  H    0.402037
    11  O   -0.388155
    12  H    0.198444
    13  H    0.195455
 Sum of Mulliken charges =   1.00000
 Mulliken charges with hydrogens summed into heavy atoms:
               1
     1  O    0.005781
     4  O    0.982740
     7  O    0.005737
    11  O    0.005743
 Electronic spatial extent (au):  <R**2>=            680.8168
 Charge=              1.0000 electrons
 Dipole moment (field-independent basis, Debye):
    X=              0.0000    Y=              0.0001    Z=             -2.4331  Tot=              2.4331
 Quadrupole moment (field-independent basis, Debye-Ang):
   XX=             -1.4743   YY=             -1.5015   ZZ=            -21.1570
   XY=             -0.0041   XZ=              0.0075   YZ=             -0.0076
 Traceless Quadrupole moment (field-independent basis, Debye-Ang):
   XX=              6.5700   YY=              6.5427   ZZ=            -13.1127
   XY=             -0.0041   XZ=              0.0075   YZ=             -0.0076
 Octapole moment (field-independent basis, Debye-Ang**2):
  XXX=            -37.7326  YYY=             14.1531  ZZZ=             -9.7045  XYY=             37.7612
  XXY=            -14.1221  XXZ=            -10.2903  XZZ=             -0.0200  YZZ=             -0.0438
  YYZ=            -10.3508  XYZ=              0.0102
 Hexadecapole moment (field-independent basis, Debye-Ang**3):
 XXXX=           -135.5769 YYYY=           -135.8009 ZZZZ=            -56.7455 XXXY=              0.1499
 XXXZ=              1.6858 YYYX=             -0.1145 YYYZ=            -24.2067 ZZZX=              0.0224
 ZZZY=              0.0577 XXYY=            -45.1160 XXZZ=            -44.5936 YYZZ=            -44.6383
 XXYZ=             24.0161 YYXZ=             -1.6595 ZZXY=             -0.0626
 N-N= 1.477006704003D+02 E-N=-1.010352897459D+03  KE= 3.041968863079D+02
 Calling FoFJK, ICntrl=      2127 FMM=F ISym2X=0 I1Cent= 0 IOpClX= 0 NMat=1 NMatS=1 NMatT=0.
 ***** Axes restored to original set *****
 -------------------------------------------------------------------
 Center     Atomic                   Forces (Hartrees/Bohr)
 Number     Number              X              Y              Z
 -------------------------------------------------------------------
      1        8          -0.030077641   -0.030578018   -0.018403180
      2        1           0.012909711    0.010481084    0.011893814
      3        1           0.013104201    0.016381102    0.002791541
      4        8           0.000634145   -0.004143946    0.001891223
      5        1          -0.000379545    0.001950921   -0.002373391
      6        1           0.000760176    0.002960832   -0.000595769
      7        8           0.043586265   -0.014562742   -0.008199539
      8        1          -0.017024371    0.012079776    0.003534691
      9        1          -0.020043813    0.001648641    0.003681981
     10        1          -0.001537782    0.002638156   -0.000470630
     11        8          -0.006920545    0.002390009    0.046100734
     12        1          -0.001035867    0.003394808   -0.020871343
     13        1           0.006025066   -0.004640623   -0.018980133
 -------------------------------------------------------------------
 Cartesian Forces:  Max     0.046100734 RMS     0.015346164

 GradGradGradGradGradGradGradGradGradGradGradGradGradGradGradGradGradGrad
 Berny optimization.
 FormGI is forming the generalized inverse of G from B-inverse, IUseBI=4.
 Internal  Forces:  Max     0.017204181 RMS     0.008557182
 Search for a local minimum.
 Step number   1 out of a maximum of   52
 All quantities printed in internal units (Hartrees-Bohrs-Radians)
 Mixed Optimization -- RFO/linear search
 Second derivative matrix not updated -- first step.
 ITU=  0
     Eigenvalues ---    0.00230   0.00230   0.00230   0.00230   0.00230
     Eigenvalues ---    0.00230   0.00230   0.00273   0.00295   0.00296
     Eigenvalues ---    0.00894   0.00942   0.04205   0.10413   0.10421
     Eigenvalues ---    0.11070   0.11070   0.11070   0.16000   0.16000
     Eigenvalues ---    0.16000   0.16000   0.16000   0.16000   0.46352
     Eigenvalues ---    0.46352   0.46352   0.50624   0.50624   0.50625
     Eigenvalues ---    0.50843   0.50843   0.50843
 RFO step:  Lambda=-1.44996976D-02 EMin= 2.30000000D-03
 Linear search not attempted -- first point.
 Maximum step size (   0.300) exceeded in Quadratic search.
    -- Step size scaled by   0.674
 Iteration  1 RMS(Cart)=  0.19643257 RMS(Int)=  0.01343406
 Iteration  2 RMS(Cart)=  0.02150000 RMS(Int)=  0.00133411
 Iteration  3 RMS(Cart)=  0.00046688 RMS(Int)=  0.00132139
 Iteration  4 RMS(Cart)=  0.00000028 RMS(Int)=  0.00132139
 Variable       Old X    -DE/DX   Delta X   Delta X   Delta X     New X
                                 (Linear)    (Quad)   (Total)
    R1        1.85941  -0.01711   0.00000  -0.02213  -0.02213   1.83728
    R2        1.85724  -0.01719   0.00000  -0.02215  -0.02215   1.83509
    R3        2.85407   0.00628   0.00000   0.03374   0.03374   2.88781
    R4        1.90436   0.00571   0.00000   0.00806   0.00808   1.91243
    R5        1.90436   0.00570   0.00000   0.00805   0.00807   1.91243
    R6        1.90436   0.00570   0.00000   0.00805   0.00805   1.91241
    R7        2.85410   0.00628   0.00000   0.03374   0.03374   2.88784
    R8        2.85410   0.00628   0.00000   0.03375   0.03374   2.88783
    R9        1.85724  -0.01720   0.00000  -0.02216  -0.02216   1.83508
   R10        1.85941  -0.01711   0.00000  -0.02213  -0.02213   1.83727
   R11        1.85724  -0.01720   0.00000  -0.02216  -0.02217   1.83508
   R12        1.85940  -0.01711   0.00000  -0.02213  -0.02213   1.83727
    A1        1.72800   0.01461   0.00000   0.05699   0.05711   1.78512
    A2        2.17855  -0.00624   0.00000  -0.02352  -0.02340   2.15515
    A3        2.36942  -0.00837   0.00000  -0.03174  -0.03161   2.33781
    A4        1.83106   0.00237   0.00000   0.02923   0.02594   1.85700
    A5        1.83104   0.00236   0.00000   0.02853   0.02377   1.85481
    A6        1.83103   0.00237   0.00000   0.02851   0.02375   1.85478
    A7        2.36934  -0.00837   0.00000  -0.03133  -0.03121   2.33813
    A8        2.17858  -0.00624   0.00000  -0.02312  -0.02300   2.15557
    A9        1.72800   0.01461   0.00000   0.05740   0.05751   1.78551
   A10        2.36881  -0.00836   0.00000  -0.03125  -0.03120   2.33762
   A11        2.17899  -0.00625   0.00000  -0.02308  -0.02303   2.15596
   A12        1.72800   0.01461   0.00000   0.05745   0.05750   1.78550
   A13        3.07142   0.00196   0.00000   0.09616   0.09563   3.16706
   A14        3.07109   0.00196   0.00000   0.09630   0.09574   3.16683
   A15        3.07144   0.00196   0.00000   0.06943   0.06931   3.14075
   A16        3.08976   0.00282   0.00000   0.13114   0.13048   3.22024
   A17        3.08980   0.00280   0.00000   0.13046   0.12982   3.21962
   A18        3.19336  -0.00281   0.00000  -0.09360  -0.09349   3.09987
    D1       -1.69462   0.00235   0.00000   0.03321   0.03348  -1.66115
    D2        2.68463  -0.00262   0.00000  -0.04450  -0.04478   2.63985
    D3        1.56318   0.00261   0.00000   0.04400   0.04427   1.60745
    D4       -0.34075  -0.00236   0.00000  -0.03372  -0.03399  -0.37474
    D5        1.56444   0.00261   0.00000   0.04912   0.05051   1.61495
    D6       -1.69386   0.00235   0.00000   0.03786   0.03924  -1.65462
    D7       -0.33946  -0.00236   0.00000  -0.03834  -0.03971  -0.37917
    D8        2.68543  -0.00262   0.00000  -0.04960  -0.05098   2.63445
    D9       -0.33168  -0.00236   0.00000  -0.03826  -0.03965  -0.37133
   D10        2.69239  -0.00262   0.00000  -0.04966  -0.05106   2.64133
   D11        1.57217   0.00260   0.00000   0.04896   0.05035   1.62253
   D12       -1.68694   0.00234   0.00000   0.03756   0.03895  -1.64799
         Item               Value     Threshold  Converged?
 Maximum Force            0.017204     0.000450     NO 
 RMS     Force            0.008557     0.000300     NO 
 Maximum Displacement     0.361997     0.001800     NO 
 RMS     Displacement     0.200007     0.001200     NO 
 Predicted change in Energy=-7.333000D-03
 GradGradGradGradGradGradGradGradGradGradGradGradGradGradGradGradGradGrad

                          Input orientation:                          
 ---------------------------------------------------------------------
 Center     Atomic      Atomic             Coordinates (Angstroms)
 Number     Number       Type             X           Y           Z
 ---------------------------------------------------------------------
      1          8           0       -7.468884    1.284107   -0.426402
      2          1           0       -7.865562    1.371298   -1.309750
      3          1           0       -7.949330    0.524717   -0.058288
      4          8           0       -5.778792    2.946118    0.485461
      5          1           0       -4.865619    2.558260    0.285816
      6          1           0       -5.872016    2.953416    1.493148
      7          8           0       -3.452957    2.079400   -0.046453
      8          1           0       -3.063310    1.210968   -0.238806
      9          1           0       -2.704642    2.680809   -0.200043
     10          1           0       -6.453412    2.273906    0.143153
     11          8           0       -6.065187    3.067418    3.004773
     12          1           0       -5.661322    2.627814    3.770697
     13          1           0       -6.630232    3.737850    3.424886
 ---------------------------------------------------------------------
                    Distance matrix (angstroms):
                    1          2          3          4          5
     1  O    0.000000
     2  H    0.972244   0.000000
     3  H    0.971087   1.513233   0.000000
     4  O    2.539721   3.171348   3.296980   0.000000
     5  H    2.984579   3.599218   3.709849   1.012016   0.000000
     6  H    3.003539   3.785969   3.552571   1.012015   1.620689
     7  O    4.111511   4.644180   4.757578   2.538433   1.528177
     8  H    4.410173   4.922830   4.937278   3.302900   2.310571
     9  H    4.969911   5.438875   5.672352   3.160807   2.218309
    10  H    1.528161   2.218061   2.310413   1.012006   1.619351
    11  O    4.113821   4.973257   4.404278   2.538438   3.015117
    12  H    4.763242   5.678772   4.931443   3.302709   3.575245
    13  H    4.642910   5.435383   4.919019   3.161013   3.789334
                    6          7          8          9         10
     6  H    0.000000
     7  O    2.997686   0.000000
     8  H    3.731570   0.971081   0.000000
     9  H    3.601870   0.972243   1.513465   0.000000
    10  H    1.619333   3.012725   3.573307   3.786374   0.000000
    11  O    1.528176   4.136412   4.793586   4.659782   2.994871
    12  H    2.310333   4.443903   4.983295   4.950913   3.729844
    13  H    2.218522   4.989562   5.703569   5.446807   3.597801
                   11         12         13
    11  O    0.000000
    12  H    0.971081   0.000000
    13  H    0.972240   1.513457   0.000000
 Stoichiometry    H9O4(1+)
 Framework group  C1[X(H9O4)]
 Deg. of freedom    33
 Full point group                 C1      NOp   1
 Largest Abelian subgroup         C1      NOp   1
 Largest concise Abelian subgroup C1      NOp   1
                         Standard orientation:                         
 ---------------------------------------------------------------------
 Center     Atomic      Atomic             Coordinates (Angstroms)
 Number     Number       Type             X           Y           Z
 ---------------------------------------------------------------------
      1          8           0       -0.088575   -2.370399   -0.188265
      2          1           0       -0.495709   -3.099610    0.309483
      3          1           0        0.288408   -2.829759   -0.956303
      4          8           0        0.000736    0.008684    0.696138
      5          1           0       -0.798963    0.486800    0.301090
      6          1           0        0.821306    0.449891    0.300946
      7          8           0       -2.023272    1.257473   -0.191308
      8          1           0       -2.622753    1.157947   -0.948748
      9          1           0       -2.439339    1.980120    0.308617
     10          1           0       -0.020732   -0.933066    0.326271
     11          8           0        2.110381    1.106396   -0.191608
     12          1           0        2.335507    1.656721   -0.959370
     13          1           0        2.938110    1.113726    0.318353
 ---------------------------------------------------------------------
 Rotational constants (GHZ):           2.8721989           2.8322104           1.5372351
 Standard basis: Aug-CC-pVDZ (5D, 7F)
 There are   181 symmetry adapted cartesian basis functions of A   symmetry.
 There are   173 symmetry adapted basis functions of A   symmetry.
   173 basis functions,   271 primitive gaussians,   181 cartesian basis functions
    20 alpha electrons       20 beta electrons
       nuclear repulsion energy       145.1976109144 Hartrees.
 NAtoms=   13 NActive=   13 NUniq=   13 SFac= 1.00D+00 NAtFMM=   60 NAOKFM=F Big=F
 Integral buffers will be    131072 words long.
 Raffenetti 2 integral format.
 Two-electron integral symmetry is turned on.
 Nuclear repulsion after empirical dispersion term =      145.1942569097 Hartrees.
 One-electron integrals computed using PRISM.
 NBasis=   173 RedAO= T EigKep=  7.31D-04  NBF=   173
 NBsUse=   173 1.00D-06 EigRej= -1.00D+00 NBFU=   173
 Initial guess from the checkpoint file:  "/gscratch/scrubbed/gds001/Gau-13911.chk"
 B after Tr=    -0.000000    0.000000   -0.000000
         Rot=    0.934595    0.000822    0.000256    0.355711 Ang=  41.67 deg.
 ExpMin= 2.97D-02 ExpMax= 1.17D+04 ExpMxC= 4.01D+02 IAcc=3 IRadAn=         5 AccDes= 0.00D+00
 Harris functional with IExCor= 4639 and IRadAn=       5 diagonalized for initial guess.
 HarFok:  IExCor= 4639 AccDes= 0.00D+00 IRadAn=         5 IDoV= 1 UseB2=F ITyADJ=14
 ICtDFT=  3500011 ScaDFX=  1.000000  1.000000  1.000000  1.000000
 FoFCou: FMM=F IPFlag=           0 FMFlag=      100000 FMFlg1=           0
         NFxFlg=           0 DoJE=T BraDBF=F KetDBF=T FulRan=T
         wScrn=  0.000000 ICntrl=       500 IOpCl=  0 I1Cent=   200000004 NGrid=           0
         NMat0=    1 NMatS0=      1 NMatT0=    0 NMatD0=    1 NMtDS0=    0 NMtDT0=    0
 Petite list used in FoFCou.
 Requested convergence on RMS density matrix=1.00D-08 within 128 cycles.
 Requested convergence on MAX density matrix=1.00D-06.
 Requested convergence on             energy=1.00D-06.
 No special actions if energy rises.
 SCF Done:  E(RwB97XD) =  -306.075074886     A.U. after   10 cycles
            NFock= 10  Conv=0.56D-08     -V/T= 2.0060
 Calling FoFJK, ICntrl=      2127 FMM=F ISym2X=0 I1Cent= 0 IOpClX= 0 NMat=1 NMatS=1 NMatT=0.
 ***** Axes restored to original set *****
 -------------------------------------------------------------------
 Center     Atomic                   Forces (Hartrees/Bohr)
 Number     Number              X              Y              Z
 -------------------------------------------------------------------
      1        8          -0.016444908   -0.013311553   -0.011955483
      2        1           0.006905611    0.004849069    0.006052788
      3        1           0.007650873    0.006779397    0.003847866
      4        8           0.001422853   -0.012196470    0.005253769
      5        1          -0.000663539    0.004587831   -0.002932522
      6        1           0.000024571    0.005184428   -0.001858231
      7        8           0.023141561   -0.004416739   -0.005526253
      8        1          -0.009919933    0.003454816    0.002878949
      9        1          -0.010161195    0.000441934    0.002422561
     10        1          -0.000930142    0.004335910   -0.001137025
     11        8          -0.004875502    0.004402751    0.023302098
     12        1           0.000921205   -0.001083967   -0.010785717
     13        1           0.002928544   -0.003027407   -0.009562800
 -------------------------------------------------------------------
 Cartesian Forces:  Max     0.023302098 RMS     0.008327700

 GradGradGradGradGradGradGradGradGradGradGradGradGradGradGradGradGradGrad
 Berny optimization.
 Using GEDIIS/GDIIS optimizer.
 FormGI is forming the generalized inverse of G from B-inverse, IUseBI=4.
 Internal  Forces:  Max     0.008909219 RMS     0.004397466
 Search for a local minimum.
 Step number   2 out of a maximum of   52
 All quantities printed in internal units (Hartrees-Bohrs-Radians)
 Mixed Optimization -- RFO/linear search
 Update second derivatives using D2CorX and points    1    2
 DE= -6.88D-03 DEPred=-7.33D-03 R= 9.38D-01
 TightC=F SS=  1.41D+00  RLast= 3.34D-01 DXNew= 5.0454D-01 1.0007D+00
 Trust test= 9.38D-01 RLast= 3.34D-01 DXMaxT set to 5.05D-01
 ITU=  1  0
 Use linear search instead of GDIIS.
     Eigenvalues ---    0.00230   0.00230   0.00230   0.00230   0.00230
     Eigenvalues ---    0.00230   0.00262   0.00263   0.00266   0.00399
     Eigenvalues ---    0.00934   0.01173   0.02972   0.09424   0.11069
     Eigenvalues ---    0.11070   0.11353   0.11514   0.12021   0.16000
     Eigenvalues ---    0.16000   0.16000   0.16000   0.16010   0.45675
     Eigenvalues ---    0.46351   0.46352   0.46690   0.50624   0.50625
     Eigenvalues ---    0.50749   0.50843   0.50843
 RFO step:  Lambda=-7.86593808D-03 EMin= 2.29704708D-03
 Quartic linear search produced a step of  0.83021.
 Maximum step size (   0.505) exceeded in Quadratic search.
    -- Step size scaled by   0.737
 Iteration  1 RMS(Cart)=  0.08187053 RMS(Int)=  0.00643290
 Iteration  2 RMS(Cart)=  0.01140995 RMS(Int)=  0.00245513
 Iteration  3 RMS(Cart)=  0.00006780 RMS(Int)=  0.00245475
 Iteration  4 RMS(Cart)=  0.00000015 RMS(Int)=  0.00245475
 Variable       Old X    -DE/DX   Delta X   Delta X   Delta X     New X
                                 (Linear)    (Quad)   (Total)
    R1        1.83728  -0.00788  -0.01837  -0.02414  -0.04252   1.79476
    R2        1.83509  -0.00763  -0.01839  -0.02335  -0.04173   1.79336
    R3        2.88781   0.00310   0.02801   0.03810   0.06609   2.95389
    R4        1.91243   0.00125   0.00670   0.00454   0.01124   1.92367
    R5        1.91243   0.00124   0.00670   0.00452   0.01120   1.92363
    R6        1.91241   0.00120   0.00668   0.00439   0.01113   1.92354
    R7        2.88784   0.00303   0.02801   0.03722   0.06522   2.95306
    R8        2.88783   0.00306   0.02801   0.03760   0.06561   2.95345
    R9        1.83508  -0.00764  -0.01840  -0.02338  -0.04178   1.79330
   R10        1.83727  -0.00793  -0.01837  -0.02428  -0.04266   1.79462
   R11        1.83508  -0.00763  -0.01840  -0.02336  -0.04177   1.79331
   R12        1.83727  -0.00792  -0.01837  -0.02426  -0.04263   1.79464
    A1        1.78512   0.00891   0.04742   0.07753   0.12470   1.90982
    A2        2.15515  -0.00355  -0.01943  -0.03296  -0.05263   2.10252
    A3        2.33781  -0.00546  -0.02624  -0.04974  -0.07624   2.26157
    A4        1.85700   0.00172   0.02154   0.05281   0.06425   1.92125
    A5        1.85481   0.00187   0.01973   0.05387   0.06704   1.92185
    A6        1.85478   0.00193   0.01972   0.05463   0.06945   1.92423
    A7        2.33813  -0.00536  -0.02591  -0.05110  -0.07808   2.26005
    A8        2.15557  -0.00366  -0.01910  -0.03611  -0.05627   2.09931
    A9        1.78551   0.00890   0.04775   0.07519   0.12187   1.90738
   A10        2.33762  -0.00535  -0.02590  -0.05088  -0.07818   2.25944
   A11        2.15596  -0.00366  -0.01912  -0.03608  -0.05660   2.09936
   A12        1.78550   0.00889   0.04774   0.07525   0.12158   1.90708
   A13        3.16706  -0.00135   0.07940  -0.23232  -0.15272   3.01434
   A14        3.16683  -0.00137   0.07948  -0.23343  -0.15408   3.01275
   A15        3.14075  -0.00063   0.05754  -0.06198  -0.00657   3.13418
   A16        3.22024  -0.00103   0.10833  -0.21986  -0.11131   3.10893
   A17        3.21962  -0.00101   0.10778  -0.21912  -0.11164   3.10798
   A18        3.09987   0.00004  -0.07762   0.02629  -0.04906   3.05081
    D1       -1.66115   0.00156   0.02779   0.02154   0.05329  -1.60786
    D2        2.63985  -0.00201  -0.03717  -0.07004  -0.11114   2.52871
    D3        1.60745   0.00178   0.03675   0.03815   0.07883   1.68628
    D4       -0.37474  -0.00179  -0.02822  -0.05343  -0.08560  -0.46034
    D5        1.61495   0.00169   0.04193  -0.00398   0.03735   1.65230
    D6       -1.65462   0.00149   0.03258  -0.01555   0.01661  -1.63801
    D7       -0.37917  -0.00176  -0.03297  -0.02142  -0.05400  -0.43317
    D8        2.63445  -0.00195  -0.04233  -0.03299  -0.07474   2.55971
    D9       -0.37133  -0.00173  -0.03292  -0.02017  -0.05379  -0.42513
   D10        2.64133  -0.00193  -0.04239  -0.03299  -0.07587   2.56547
   D11        1.62253   0.00167   0.04180  -0.00394   0.03835   1.66088
   D12       -1.64799   0.00146   0.03234  -0.01676   0.01628  -1.63171
         Item               Value     Threshold  Converged?
 Maximum Force            0.008909     0.000450     NO 
 RMS     Force            0.004397     0.000300     NO 
 Maximum Displacement     0.280426     0.001800     NO 
 RMS     Displacement     0.080205     0.001200     NO 
 Predicted change in Energy=-6.588578D-03
 GradGradGradGradGradGradGradGradGradGradGradGradGradGradGradGradGradGrad

                          Input orientation:                          
 ---------------------------------------------------------------------
 Center     Atomic      Atomic             Coordinates (Angstroms)
 Number     Number       Type             X           Y           Z
 ---------------------------------------------------------------------
      1          8           0       -7.519121    1.243919   -0.458433
      2          1           0       -7.898105    1.403374   -1.314564
      3          1           0       -7.955461    0.505251   -0.052743
      4          8           0       -5.796758    2.926257    0.465709
      5          1           0       -4.858947    2.624912    0.208901
      6          1           0       -5.860991    3.047350    1.474381
      7          8           0       -3.404644    2.090520    0.005357
      8          1           0       -3.097626    1.197704   -0.090410
      9          1           0       -2.700510    2.689385   -0.212428
     10          1           0       -6.482709    2.244458    0.148327
     11          8           0       -6.060067    3.052455    3.024539
     12          1           0       -5.574804    2.590203    3.696404
     13          1           0       -6.621524    3.700293    3.433153
 ---------------------------------------------------------------------
                    Distance matrix (angstroms):
                    1          2          3          4          5
     1  O    0.000000
     2  H    0.949745   0.000000
     3  H    0.949004   1.549873   0.000000
     4  O    2.578920   3.147094   3.284822   0.000000
     5  H    3.070668   3.612421   3.761624   1.017963   0.000000
     6  H    3.120501   3.825011   3.630589   1.017943   1.668528
     7  O    4.226199   4.733451   4.819376   2.575382   1.562691
     8  H    4.437025   4.958372   4.907083   3.253072   2.286648
     9  H    5.036755   5.466583   5.693018   3.178480   2.200120
    10  H    1.563133   2.202457   2.287852   1.017894   1.668838
    11  O    4.186971   4.992561   4.421586   2.575436   3.090841
    12  H    4.780744   5.649433   4.906185   3.255700   3.560383
    13  H    4.688699   5.426446   4.913161   3.175704   3.828698
                    6          7          8          9         10
     6  H    0.000000
     7  O    3.017813   0.000000
     8  H    3.675044   0.948974   0.000000
     9  H    3.600293   0.949671   1.548451   0.000000
    10  H    1.670206   3.085227   3.551264   3.825329   0.000000
    11  O    1.562897   4.134254   4.681780   4.679360   3.017297
    12  H    2.286542   4.310813   4.734493   4.852873   3.678679
    13  H    2.200349   4.968851   5.576406   5.448537   3.595665
                   11         12         13
    11  O    0.000000
    12  H    0.948978   0.000000
    13  H    0.949681   1.548297   0.000000
 Stoichiometry    H9O4(1+)
 Framework group  C1[X(H9O4)]
 Deg. of freedom    33
 Full point group                 C1      NOp   1
 Largest Abelian subgroup         C1      NOp   1
 Largest concise Abelian subgroup C1      NOp   1
                         Standard orientation:                         
 ---------------------------------------------------------------------
 Center     Atomic      Atomic             Coordinates (Angstroms)
 Number     Number       Type             X           Y           Z
 ---------------------------------------------------------------------
      1          8           0        2.379413   -0.527366   -0.204168
      2          1           0        2.978765   -1.022780    0.341137
      3          1           0        2.836979   -0.218346   -0.976015
      4          8           0        0.019029   -0.014993    0.699652
      5          1           0       -0.622617   -0.747397    0.402795
      6          1           0       -0.329944    0.895257    0.406614
      7          8           0       -1.668775   -1.740991   -0.197477
      8          1           0       -1.636195   -2.235581   -1.006717
      9          1           0       -2.389053   -2.057198    0.334583
     10          1           0        0.944071   -0.180302    0.308399
     11          8           0       -0.723527    2.283751   -0.193241
     12          1           0       -1.258167    2.483472   -0.951416
     13          1           0       -0.572964    3.079664    0.302487
 ---------------------------------------------------------------------
 Rotational constants (GHZ):           2.8506173           2.7220983           1.5030072
 Standard basis: Aug-CC-pVDZ (5D, 7F)
 There are   181 symmetry adapted cartesian basis functions of A   symmetry.
 There are   173 symmetry adapted basis functions of A   symmetry.
   173 basis functions,   271 primitive gaussians,   181 cartesian basis functions
    20 alpha electrons       20 beta electrons
       nuclear repulsion energy       144.4162706758 Hartrees.
 NAtoms=   13 NActive=   13 NUniq=   13 SFac= 1.00D+00 NAtFMM=   60 NAOKFM=F Big=F
 Integral buffers will be    131072 words long.
 Raffenetti 2 integral format.
 Two-electron integral symmetry is turned on.
 Nuclear repulsion after empirical dispersion term =      144.4129258936 Hartrees.
 One-electron integrals computed using PRISM.
 NBasis=   173 RedAO= T EigKep=  8.30D-04  NBF=   173
 NBsUse=   173 1.00D-06 EigRej= -1.00D+00 NBFU=   173
 Initial guess from the checkpoint file:  "/gscratch/scrubbed/gds001/Gau-13911.chk"
 B after Tr=    -0.000000    0.000000    0.000000
         Rot=    0.769414   -0.002773   -0.000780   -0.638743 Ang= -79.40 deg.
 ExpMin= 2.97D-02 ExpMax= 1.17D+04 ExpMxC= 4.01D+02 IAcc=3 IRadAn=         5 AccDes= 0.00D+00
 Harris functional with IExCor= 4639 and IRadAn=       5 diagonalized for initial guess.
 HarFok:  IExCor= 4639 AccDes= 0.00D+00 IRadAn=         5 IDoV= 1 UseB2=F ITyADJ=14
 ICtDFT=  3500011 ScaDFX=  1.000000  1.000000  1.000000  1.000000
 FoFCou: FMM=F IPFlag=           0 FMFlag=      100000 FMFlg1=           0
         NFxFlg=           0 DoJE=T BraDBF=F KetDBF=T FulRan=T
         wScrn=  0.000000 ICntrl=       500 IOpCl=  0 I1Cent=   200000004 NGrid=           0
         NMat0=    1 NMatS0=      1 NMatT0=    0 NMatD0=    1 NMtDS0=    0 NMtDT0=    0
 Petite list used in FoFCou.
 Requested convergence on RMS density matrix=1.00D-08 within 128 cycles.
 Requested convergence on MAX density matrix=1.00D-06.
 Requested convergence on             energy=1.00D-06.
 No special actions if energy rises.
 SCF Done:  E(RwB97XD) =  -306.076772964     A.U. after   10 cycles
            NFock= 10  Conv=0.94D-08     -V/T= 2.0056
 Calling FoFJK, ICntrl=      2127 FMM=F ISym2X=0 I1Cent= 0 IOpClX= 0 NMat=1 NMatS=1 NMatT=0.
 ***** Axes restored to original set *****
 -------------------------------------------------------------------
 Center     Atomic                   Forces (Hartrees/Bohr)
 Number     Number              X              Y              Z
 -------------------------------------------------------------------
      1        8           0.015452727    0.011254092    0.007028836
      2        1          -0.007281181   -0.000166890   -0.010676263
      3        1          -0.007179773   -0.009796343    0.003710339
      4        8           0.002091156   -0.004942202    0.002218557
      5        1          -0.005909394   -0.000754966    0.004006848
      6        1           0.000606673   -0.004222660   -0.005527897
      7        8          -0.017248756    0.008161342    0.005307442
      8        1           0.005706960   -0.011253832   -0.002368393
      9        1           0.011515559    0.005383328   -0.003908006
     10        1           0.002959571    0.004176596    0.001165262
     11        8          -0.000571898   -0.001092850   -0.019810290
     12        1           0.006015365   -0.004733896    0.010271249
     13        1          -0.006157007    0.007988282    0.008582316
 -------------------------------------------------------------------
 Cartesian Forces:  Max     0.019810290 RMS     0.007799019

 GradGradGradGradGradGradGradGradGradGradGradGradGradGradGradGradGradGrad
 Berny optimization.
 Using GEDIIS/GDIIS optimizer.
 FormGI is forming the generalized inverse of G from B-inverse, IUseBI=4.
 Internal  Forces:  Max     0.012829017 RMS     0.005335991
 Search for a local minimum.
 Step number   3 out of a maximum of   52
 All quantities printed in internal units (Hartrees-Bohrs-Radians)
 Mixed Optimization -- RFO/linear search
 Update second derivatives using D2CorX and points    2    3
 DE= -1.70D-03 DEPred=-6.59D-03 R= 2.58D-01
 Trust test= 2.58D-01 RLast= 4.83D-01 DXMaxT set to 5.05D-01
 ITU=  0  1  0
 Use linear search instead of GDIIS.
     Eigenvalues ---    0.00229   0.00230   0.00230   0.00230   0.00230
     Eigenvalues ---    0.00231   0.00295   0.00365   0.00390   0.00625
     Eigenvalues ---    0.00940   0.01182   0.02878   0.09377   0.11068
     Eigenvalues ---    0.11074   0.11597   0.12167   0.12328   0.16000
     Eigenvalues ---    0.16000   0.16000   0.16001   0.16127   0.46351
     Eigenvalues ---    0.46352   0.46632   0.50624   0.50625   0.50734
     Eigenvalues ---    0.50843   0.50843   0.55453
 RFO step:  Lambda=-2.73276913D-03 EMin= 2.29104983D-03
 Quartic linear search produced a step of -0.39890.
 Iteration  1 RMS(Cart)=  0.20934709 RMS(Int)=  0.02609781
 Iteration  2 RMS(Cart)=  0.07167799 RMS(Int)=  0.00260946
 Iteration  3 RMS(Cart)=  0.00313525 RMS(Int)=  0.00203211
 Iteration  4 RMS(Cart)=  0.00000868 RMS(Int)=  0.00203210
 Iteration  5 RMS(Cart)=  0.00000007 RMS(Int)=  0.00203210
 Variable       Old X    -DE/DX   Delta X   Delta X   Delta X     New X
                                 (Linear)    (Quad)   (Total)
    R1        1.79476   0.01250   0.01696   0.00191   0.01887   1.81362
    R2        1.79336   0.01250   0.01665   0.00258   0.01920   1.81256
    R3        2.95389  -0.00151  -0.02636   0.01338  -0.01298   2.94091
    R4        1.92367  -0.00668  -0.00448  -0.00787  -0.01233   1.91135
    R5        1.92363  -0.00665  -0.00447  -0.00785  -0.01217   1.91146
    R6        1.92354  -0.00670  -0.00444  -0.00803  -0.01247   1.91107
    R7        2.95306  -0.00069  -0.02602   0.01684  -0.00919   2.94387
    R8        2.95345  -0.00085  -0.02617   0.01629  -0.00996   2.94349
    R9        1.79330   0.01267   0.01666   0.00277   0.01943   1.81273
   R10        1.79462   0.01283   0.01702   0.00217   0.01918   1.81380
   R11        1.79331   0.01264   0.01666   0.00274   0.01939   1.81270
   R12        1.79464   0.01278   0.01701   0.00213   0.01914   1.81378
    A1        1.90982  -0.00320  -0.04974   0.03387  -0.01699   1.89282
    A2        2.10252   0.00254   0.02100  -0.01348   0.00641   2.10893
    A3        2.26157   0.00063   0.03041  -0.03264  -0.00329   2.25828
    A4        1.92125   0.00037  -0.02563   0.04045   0.01781   1.93906
    A5        1.92185   0.00027  -0.02674   0.04424   0.01290   1.93475
    A6        1.92423  -0.00029  -0.02770   0.04334   0.01358   1.93781
    A7        2.26005   0.00026   0.03115  -0.03136   0.00137   2.26142
    A8        2.09931   0.00302   0.02244  -0.01066   0.01337   2.11267
    A9        1.90738  -0.00315  -0.04861   0.03590  -0.01109   1.89629
   A10        2.25944   0.00024   0.03118  -0.03145   0.00043   2.25987
   A11        2.09936   0.00300   0.02258  -0.01093   0.01234   2.11170
   A12        1.90708  -0.00309  -0.04850   0.03593  -0.01186   1.89522
   A13        3.01434   0.00324   0.06092   0.19078   0.25145   3.26578
   A14        3.01275   0.00309   0.06146   0.17180   0.23156   3.24431
   A15        3.13418   0.00020   0.00262  -0.04880  -0.04456   3.08962
   A16        3.10893   0.00277   0.04440   0.13743   0.18136   3.29029
   A17        3.10798   0.00275   0.04453   0.15050   0.19263   3.30061
   A18        3.05081   0.00019   0.01957   0.04367   0.06063   3.11144
    D1       -1.60786  -0.00017  -0.02126  -0.02556  -0.05052  -1.65837
    D2        2.52871  -0.00072   0.04433  -0.11598  -0.06775   2.46096
    D3        1.68628   0.00050  -0.03145   0.06184   0.02649   1.71277
    D4       -0.46034  -0.00005   0.03415  -0.02859   0.00926  -0.45108
    D5        1.65230   0.00115  -0.01490   0.13691   0.12284   1.77514
    D6       -1.63801   0.00025  -0.00662   0.00977   0.00374  -1.63427
    D7       -0.43317  -0.00031   0.02154  -0.04987  -0.02891  -0.46208
    D8        2.55971  -0.00121   0.02981  -0.17702  -0.14802   2.41169
    D9       -0.42513  -0.00042   0.02146  -0.04581  -0.02777  -0.45289
   D10        2.56547  -0.00134   0.03026  -0.17640  -0.14966   2.41581
   D11        1.66088   0.00128  -0.01530   0.13611   0.12433   1.78521
   D12       -1.63171   0.00036  -0.00649   0.00552   0.00244  -1.62928
         Item               Value     Threshold  Converged?
 Maximum Force            0.012829     0.000450     NO 
 RMS     Force            0.005336     0.000300     NO 
 Maximum Displacement     0.638445     0.001800     NO 
 RMS     Displacement     0.234581     0.001200     NO 
 Predicted change in Energy=-2.984044D-03
 GradGradGradGradGradGradGradGradGradGradGradGradGradGradGradGradGradGrad

                          Input orientation:                          
 ---------------------------------------------------------------------
 Center     Atomic      Atomic             Coordinates (Angstroms)
 Number     Number       Type             X           Y           Z
 ---------------------------------------------------------------------
      1          8           0       -7.478768    1.248380   -0.536655
      2          1           0       -7.835718    1.499123   -1.391519
      3          1           0       -7.993365    0.513931   -0.196402
      4          8           0       -5.747051    2.739362    0.631697
      5          1           0       -4.819085    2.401415    0.413329
      6          1           0       -5.888160    2.795537    1.631732
      7          8           0       -3.389317    2.079329   -0.114739
      8          1           0       -3.026472    1.248536   -0.428261
      9          1           0       -2.764797    2.780953   -0.312113
     10          1           0       -6.452759    2.159456    0.197647
     11          8           0       -6.119556    3.145689    3.131750
     12          1           0       -5.715531    2.768105    3.915547
     13          1           0       -6.600688    3.936265    3.386179
 ---------------------------------------------------------------------
                    Distance matrix (angstroms):
                    1          2          3          4          5
     1  O    0.000000
     2  H    0.959728   0.000000
     3  H    0.959165   1.556843   0.000000
     4  O    2.566499   3.161349   3.268672   0.000000
     5  H    3.050553   3.629282   3.743050   1.011441   0.000000
     6  H    3.102520   3.822789   3.602733   1.011503   1.668160
     7  O    4.194293   4.662327   4.863578   2.559632   1.557829
     8  H    4.453615   4.911162   5.026274   3.278357   2.291477
     9  H    4.961927   5.340641   5.700061   3.128313   2.211428
    10  H    1.556262   2.207728   2.288338   1.011294   1.665519
    11  O    4.347923   5.110416   4.638308   2.560103   3.104026
    12  H    5.024010   5.854098   5.213248   3.284127   3.633676
    13  H    4.835740   5.503759   5.146534   3.122251   3.790476
                    6          7          8          9         10
     6  H    0.000000
     7  O    3.131665   0.000000
     8  H    3.850460   0.959255   0.000000
     9  H    3.678878   0.959822   1.558931   0.000000
    10  H    1.667324   3.080370   3.600136   3.774543   0.000000
    11  O    1.557628   4.373902   5.083309   4.821580   3.113300
    12  H    2.290495   4.704135   5.329990   5.155589   3.838846
    13  H    2.210666   5.100739   5.877828   5.452171   3.653173
                   11         12         13
    11  O    0.000000
    12  H    0.959242   0.000000
    13  H    0.959809   1.558311   0.000000
 Stoichiometry    H9O4(1+)
 Framework group  C1[X(H9O4)]
 Deg. of freedom    33
 Full point group                 C1      NOp   1
 Largest Abelian subgroup         C1      NOp   1
 Largest concise Abelian subgroup C1      NOp   1
                         Standard orientation:                         
 ---------------------------------------------------------------------
 Center     Atomic      Atomic             Coordinates (Angstroms)
 Number     Number       Type             X           Y           Z
 ---------------------------------------------------------------------
      1          8           0        1.169015    2.160225   -0.130112
      2          1           0        1.758854    2.577575    0.501543
      3          1           0        1.025764    2.767350   -0.858723
      4          8           0       -0.050396   -0.014755    0.477686
      5          1           0        0.485164   -0.800934    0.134012
      6          1           0       -1.000447   -0.042178    0.131583
      7          8           0        1.406669   -2.027324   -0.137331
      8          1           0        2.086037   -2.145518   -0.804159
      9          1           0        1.459336   -2.754640    0.486765
     10          1           0        0.398292    0.859105    0.237349
     11          8           0       -2.531004   -0.123203   -0.145973
     12          1           0       -2.998216   -0.547079   -0.868597
     13          1           0       -3.169062    0.126776    0.526059
 ---------------------------------------------------------------------
 Rotational constants (GHZ):           2.8614605           2.5931797           1.4182216
 Standard basis: Aug-CC-pVDZ (5D, 7F)
 There are   181 symmetry adapted cartesian basis functions of A   symmetry.
 There are   173 symmetry adapted basis functions of A   symmetry.
   173 basis functions,   271 primitive gaussians,   181 cartesian basis functions
    20 alpha electrons       20 beta electrons
       nuclear repulsion energy       143.3327297954 Hartrees.
 NAtoms=   13 NActive=   13 NUniq=   13 SFac= 1.00D+00 NAtFMM=   60 NAOKFM=F Big=F
 Integral buffers will be    131072 words long.
 Raffenetti 2 integral format.
 Two-electron integral symmetry is turned on.
 Nuclear repulsion after empirical dispersion term =      143.3294723662 Hartrees.
 One-electron integrals computed using PRISM.
 NBasis=   173 RedAO= T EigKep=  8.70D-04  NBF=   173
 NBsUse=   173 1.00D-06 EigRej= -1.00D+00 NBFU=   173
 Initial guess from the checkpoint file:  "/gscratch/scrubbed/gds001/Gau-13911.chk"
 B after Tr=     0.000000   -0.000000   -0.000000
         Rot=    0.788239    0.001036    0.005842   -0.615341 Ang=  75.96 deg.
 ExpMin= 2.97D-02 ExpMax= 1.17D+04 ExpMxC= 4.01D+02 IAcc=3 IRadAn=         5 AccDes= 0.00D+00
 Harris functional with IExCor= 4639 and IRadAn=       5 diagonalized for initial guess.
 HarFok:  IExCor= 4639 AccDes= 0.00D+00 IRadAn=         5 IDoV= 1 UseB2=F ITyADJ=14
 ICtDFT=  3500011 ScaDFX=  1.000000  1.000000  1.000000  1.000000
 FoFCou: FMM=F IPFlag=           0 FMFlag=      100000 FMFlg1=           0
         NFxFlg=           0 DoJE=T BraDBF=F KetDBF=T FulRan=T
         wScrn=  0.000000 ICntrl=       500 IOpCl=  0 I1Cent=   200000004 NGrid=           0
         NMat0=    1 NMatS0=      1 NMatT0=    0 NMatD0=    1 NMtDS0=    0 NMtDT0=    0
 Petite list used in FoFCou.
 Requested convergence on RMS density matrix=1.00D-08 within 128 cycles.
 Requested convergence on MAX density matrix=1.00D-06.
 Requested convergence on             energy=1.00D-06.
 No special actions if energy rises.
 SCF Done:  E(RwB97XD) =  -306.078389407     A.U. after   11 cycles
            NFock= 11  Conv=0.48D-08     -V/T= 2.0058
 Calling FoFJK, ICntrl=      2127 FMM=F ISym2X=0 I1Cent= 0 IOpClX= 0 NMat=1 NMatS=1 NMatT=0.
 ***** Axes restored to original set *****
 -------------------------------------------------------------------
 Center     Atomic                   Forces (Hartrees/Bohr)
 Number     Number              X              Y              Z
 -------------------------------------------------------------------
      1        8           0.004728372    0.003470746    0.001155924
      2        1          -0.002643127   -0.001078690   -0.001559479
      3        1          -0.001952333   -0.001348418   -0.000205749
      4        8          -0.000372760   -0.006257801    0.004335747
      5        1          -0.001246586    0.002489653   -0.003946217
      6        1           0.000723247    0.004220166   -0.001328644
      7        8          -0.004641912    0.000909568    0.003594426
      8        1           0.002022607   -0.000771717   -0.000809228
      9        1           0.002571824   -0.000320972   -0.001460709
     10        1           0.001263173   -0.000300165    0.000456619
     11        8          -0.000322238   -0.002612021   -0.005253179
     12        1          -0.000014324    0.000332553    0.002368097
     13        1          -0.000115942    0.001267099    0.002652392
 -------------------------------------------------------------------
 Cartesian Forces:  Max     0.006257801 RMS     0.002550971

 GradGradGradGradGradGradGradGradGradGradGradGradGradGradGradGradGradGrad
 Berny optimization.
 Using GEDIIS/GDIIS optimizer.
 FormGI is forming the generalized inverse of G from B-inverse, IUseBI=4.
 Internal  Forces:  Max     0.003855059 RMS     0.001489306
 Search for a local minimum.
 Step number   4 out of a maximum of   52
 All quantities printed in internal units (Hartrees-Bohrs-Radians)
 Mixed Optimization -- RFO/linear search
 Update second derivatives using D2CorX and points    2    3    4
 DE= -1.62D-03 DEPred=-2.98D-03 R= 5.42D-01
 TightC=F SS=  1.41D+00  RLast= 5.31D-01 DXNew= 8.4853D-01 1.5918D+00
 Trust test= 5.42D-01 RLast= 5.31D-01 DXMaxT set to 8.49D-01
 ITU=  1  0  1  0
 Use linear search instead of GDIIS.
     Eigenvalues ---    0.00223   0.00230   0.00230   0.00230   0.00230
     Eigenvalues ---    0.00241   0.00330   0.00368   0.00384   0.00894
     Eigenvalues ---    0.01002   0.01583   0.02954   0.09882   0.11068
     Eigenvalues ---    0.11072   0.12570   0.12637   0.13621   0.16000
     Eigenvalues ---    0.16000   0.16000   0.16007   0.16150   0.46182
     Eigenvalues ---    0.46338   0.46351   0.50177   0.50625   0.50632
     Eigenvalues ---    0.50770   0.50843   0.50847
 RFO step:  Lambda=-1.51906091D-03 EMin= 2.22578852D-03
 Quartic linear search produced a step of -0.27736.
 Iteration  1 RMS(Cart)=  0.16031661 RMS(Int)=  0.01371921
 Iteration  2 RMS(Cart)=  0.03325028 RMS(Int)=  0.00220201
 Iteration  3 RMS(Cart)=  0.00093557 RMS(Int)=  0.00214313
 Iteration  4 RMS(Cart)=  0.00000652 RMS(Int)=  0.00214313
 Iteration  5 RMS(Cart)=  0.00000005 RMS(Int)=  0.00214313
 Variable       Old X    -DE/DX   Delta X   Delta X   Delta X     New X
                                 (Linear)    (Quad)   (Total)
    R1        1.81362   0.00209  -0.00523   0.01343   0.00819   1.82182
    R2        1.81256   0.00200  -0.00533   0.01333   0.00800   1.82055
    R3        2.94091  -0.00042   0.00360  -0.00666  -0.00310   2.93781
    R4        1.91135  -0.00136   0.00342  -0.00860  -0.00530   1.90604
    R5        1.91146  -0.00139   0.00338  -0.00855  -0.00513   1.90634
    R6        1.91107  -0.00134   0.00346  -0.00859  -0.00506   1.90601
    R7        2.94387  -0.00046   0.00255  -0.00352  -0.00092   2.94295
    R8        2.94349  -0.00039   0.00276  -0.00388  -0.00111   2.94238
    R9        1.81273   0.00170  -0.00539   0.01315   0.00775   1.82048
   R10        1.81380   0.00174  -0.00532   0.01333   0.00801   1.82181
   R11        1.81270   0.00179  -0.00538   0.01324   0.00785   1.82055
   R12        1.81378   0.00180  -0.00531   0.01336   0.00805   1.82183
    A1        1.89282  -0.00219   0.00471  -0.01808  -0.01357   1.87926
    A2        2.10893   0.00218  -0.00178   0.00911   0.00714   2.11607
    A3        2.25828  -0.00001   0.00091  -0.00494  -0.00421   2.25407
    A4        1.93906   0.00052  -0.00494   0.02639   0.01998   1.95904
    A5        1.93475   0.00005  -0.00358   0.02075   0.01637   1.95113
    A6        1.93781   0.00098  -0.00377   0.02302   0.02416   1.96197
    A7        2.26142   0.00042  -0.00038  -0.00625  -0.00993   2.25149
    A8        2.11267   0.00180  -0.00371   0.00720   0.00013   2.11281
    A9        1.89629  -0.00249   0.00308  -0.02091  -0.02127   1.87502
   A10        2.25987   0.00050  -0.00012  -0.00553  -0.00730   2.25257
   A11        2.11170   0.00167  -0.00342   0.00729   0.00212   2.11382
   A12        1.89522  -0.00242   0.00329  -0.01991  -0.01842   1.87680
   A13        3.26578  -0.00386  -0.06974  -0.18900  -0.25610   3.00968
   A14        3.24431  -0.00324  -0.06423  -0.10918  -0.17319   3.07112
   A15        3.08962   0.00038   0.01236   0.06912   0.08020   3.16983
   A16        3.29029  -0.00191  -0.05030   0.12110   0.07392   3.36421
   A17        3.30061  -0.00201  -0.05343   0.06906   0.01501   3.31562
   A18        3.11144  -0.00053  -0.01682  -0.07986  -0.09488   3.01656
    D1       -1.65837   0.00040   0.01401  -0.03559  -0.01890  -1.67727
    D2        2.46096  -0.00120   0.01879  -0.14024  -0.12409   2.33687
    D3        1.71277   0.00095  -0.00735   0.08348   0.07876   1.79153
    D4       -0.45108  -0.00065  -0.00257  -0.02117  -0.02643  -0.47751
    D5        1.77514   0.00007  -0.03407   0.03405  -0.00449   1.77065
    D6       -1.63427   0.00002  -0.00104  -0.01665  -0.02132  -1.65559
    D7       -0.46208  -0.00040   0.00802  -0.04639  -0.03471  -0.49679
    D8        2.41169  -0.00046   0.04105  -0.09709  -0.05153   2.36016
    D9       -0.45289  -0.00006   0.00770  -0.03419  -0.02775  -0.48065
   D10        2.41581  -0.00021   0.04151  -0.09957  -0.05902   2.35679
   D11        1.78521  -0.00021  -0.03448   0.03127  -0.00213   1.78308
   D12       -1.62928  -0.00036  -0.00068  -0.03411  -0.03339  -1.66267
         Item               Value     Threshold  Converged?
 Maximum Force            0.003855     0.000450     NO 
 RMS     Force            0.001489     0.000300     NO 
 Maximum Displacement     0.420269     0.001800     NO 
 RMS     Displacement     0.178250     0.001200     NO 
 Predicted change in Energy=-1.079745D-03
 GradGradGradGradGradGradGradGradGradGradGradGradGradGradGradGradGradGrad

                          Input orientation:                          
 ---------------------------------------------------------------------
 Center     Atomic      Atomic             Coordinates (Angstroms)
 Number     Number       Type             X           Y           Z
 ---------------------------------------------------------------------
      1          8           0       -7.611556    1.264556   -0.487162
      2          1           0       -8.041313    1.587624   -1.287385
      3          1           0       -8.165571    0.567925   -0.118510
      4          8           0       -5.724921    2.651247    0.547295
      5          1           0       -4.811392    2.336185    0.258251
      6          1           0       -5.788213    2.773499    1.546646
      7          8           0       -3.288054    2.146257   -0.003835
      8          1           0       -2.804075    1.338733   -0.208111
      9          1           0       -2.731381    2.889755   -0.262169
     10          1           0       -6.457011    2.059482    0.185126
     11          8           0       -6.114023    3.085989    3.036804
     12          1           0       -5.715593    2.721605    3.834679
     13          1           0       -6.578162    3.893223    3.286562
 ---------------------------------------------------------------------
                    Distance matrix (angstroms):
                    1          2          3          4          5
     1  O    0.000000
     2  H    0.964064   0.000000
     3  H    0.963396   1.556115   0.000000
     4  O    2.559766   3.140543   3.277240   0.000000
     5  H    3.089489   3.658103   3.810408   1.008636   0.000000
     6  H    3.120555   3.809788   3.645426   1.008789   1.674929
     7  O    4.438882   4.955102   5.127812   2.548937   1.557344
     8  H    4.816144   5.353077   5.417362   3.290087   2.289481
     9  H    5.148592   5.562552   5.911172   3.110209   2.214435
    10  H    1.554623   2.213809   2.288256   1.008617   1.670321
    11  O    4.240113   4.965698   4.528301   2.556963   3.159021
    12  H    4.939228   5.738504   5.125274   3.288151   3.709039
    13  H    4.713680   5.327061   5.017170   3.126357   3.836211
                    6          7          8          9         10
     6  H    0.000000
     7  O    3.008026   0.000000
     8  H    3.747373   0.963358   0.000000
     9  H    3.553808   0.964059   1.553666   0.000000
    10  H    1.676558   3.175772   3.744070   3.843143   0.000000
    11  O    1.557040   4.256135   4.953598   4.729058   3.050151
    12  H    2.289773   4.578009   5.170438   5.071288   3.782505
    13  H    2.214748   4.970253   5.742986   5.328992   3.605022
                   11         12         13
    11  O    0.000000
    12  H    0.963393   0.000000
    13  H    0.964069   1.554717   0.000000
 Stoichiometry    H9O4(1+)
 Framework group  C1[X(H9O4)]
 Deg. of freedom    33
 Full point group                 C1      NOp   1
 Largest Abelian subgroup         C1      NOp   1
 Largest concise Abelian subgroup C1      NOp   1
                         Standard orientation:                         
 ---------------------------------------------------------------------
 Center     Atomic      Atomic             Coordinates (Angstroms)
 Number     Number       Type             X           Y           Z
 ---------------------------------------------------------------------
      1          8           0       -2.162831    1.286099   -0.134634
      2          1           0       -2.580654    1.832732    0.540670
      3          1           0       -2.807555    1.144317   -0.836317
      4          8           0        0.010874    0.061710    0.438326
      5          1           0        0.829905    0.571058    0.143203
      6          1           0        0.039630   -0.905675    0.153731
      7          8           0        2.271719    1.090044   -0.134551
      8          1           0        2.585723    1.654408   -0.849362
      9          1           0        2.935143    1.113431    0.564543
     10          1           0       -0.839668    0.521797    0.151611
     11          8           0       -0.120858   -2.429909   -0.120726
     12          1           0        0.258567   -2.962660   -0.828073
     13          1           0       -0.412328   -3.032956    0.572678
 ---------------------------------------------------------------------
 Rotational constants (GHZ):           2.8838698           2.5739335           1.4134620
 Standard basis: Aug-CC-pVDZ (5D, 7F)
 There are   181 symmetry adapted cartesian basis functions of A   symmetry.
 There are   173 symmetry adapted basis functions of A   symmetry.
   173 basis functions,   271 primitive gaussians,   181 cartesian basis functions
    20 alpha electrons       20 beta electrons
       nuclear repulsion energy       143.2830907362 Hartrees.
 NAtoms=   13 NActive=   13 NUniq=   13 SFac= 1.00D+00 NAtFMM=   60 NAOKFM=F Big=F
 Integral buffers will be    131072 words long.
 Raffenetti 2 integral format.
 Two-electron integral symmetry is turned on.
 Nuclear repulsion after empirical dispersion term =      143.2798424248 Hartrees.
 One-electron integrals computed using PRISM.
 NBasis=   173 RedAO= T EigKep=  9.14D-04  NBF=   173
 NBsUse=   173 1.00D-06 EigRej= -1.00D+00 NBFU=   173
 Initial guess from the checkpoint file:  "/gscratch/scrubbed/gds001/Gau-13911.chk"
 B after Tr=    -0.000000    0.000000   -0.000000
         Rot=    0.740495    0.005823   -0.003723   -0.672027 Ang=  84.45 deg.
 ExpMin= 2.97D-02 ExpMax= 1.17D+04 ExpMxC= 4.01D+02 IAcc=3 IRadAn=         5 AccDes= 0.00D+00
 Harris functional with IExCor= 4639 and IRadAn=       5 diagonalized for initial guess.
 HarFok:  IExCor= 4639 AccDes= 0.00D+00 IRadAn=         5 IDoV= 1 UseB2=F ITyADJ=14
 ICtDFT=  3500011 ScaDFX=  1.000000  1.000000  1.000000  1.000000
 FoFCou: FMM=F IPFlag=           0 FMFlag=      100000 FMFlg1=           0
         NFxFlg=           0 DoJE=T BraDBF=F KetDBF=T FulRan=T
         wScrn=  0.000000 ICntrl=       500 IOpCl=  0 I1Cent=   200000004 NGrid=           0
         NMat0=    1 NMatS0=      1 NMatT0=    0 NMatD0=    1 NMtDS0=    0 NMtDT0=    0
 Petite list used in FoFCou.
 Requested convergence on RMS density matrix=1.00D-08 within 128 cycles.
 Requested convergence on MAX density matrix=1.00D-06.
 Requested convergence on             energy=1.00D-06.
 No special actions if energy rises.
 SCF Done:  E(RwB97XD) =  -306.078761693     A.U. after   11 cycles
            NFock= 11  Conv=0.38D-08     -V/T= 2.0059
 Calling FoFJK, ICntrl=      2127 FMM=F ISym2X=0 I1Cent= 0 IOpClX= 0 NMat=1 NMatS=1 NMatT=0.
 ***** Axes restored to original set *****
 -------------------------------------------------------------------
 Center     Atomic                   Forces (Hartrees/Bohr)
 Number     Number              X              Y              Z
 -------------------------------------------------------------------
      1        8          -0.000334361   -0.000001840   -0.001083982
      2        1          -0.000060591   -0.001547598    0.002040053
      3        1           0.000977690    0.001523720   -0.001134926
      4        8           0.001379748   -0.004667188   -0.001976597
      5        1           0.002004836    0.003784579    0.002666919
      6        1          -0.002110014    0.000838533    0.000183591
      7        8           0.001267209   -0.000448767   -0.000746174
      8        1          -0.000710579    0.001717980    0.000044692
      9        1          -0.000593168   -0.002234900   -0.000132998
     10        1          -0.002367773    0.001252743    0.000404436
     11        8          -0.000213013    0.000483483    0.000715760
     12        1          -0.000798384    0.001086380   -0.001482406
     13        1           0.001558400   -0.001787124    0.000501632
 -------------------------------------------------------------------
 Cartesian Forces:  Max     0.004667188 RMS     0.001600135

 GradGradGradGradGradGradGradGradGradGradGradGradGradGradGradGradGradGrad
 Berny optimization.
 Using GEDIIS/GDIIS optimizer.
 FormGI is forming the generalized inverse of G from B-inverse, IUseBI=4.
 Internal  Forces:  Max     0.003404215 RMS     0.001251690
 Search for a local minimum.
 Step number   5 out of a maximum of   52
 All quantities printed in internal units (Hartrees-Bohrs-Radians)
 Mixed Optimization -- RFO/linear search
 Update second derivatives using D2CorX and points    3    4    5
 DE= -3.72D-04 DEPred=-1.08D-03 R= 3.45D-01
 Trust test= 3.45D-01 RLast= 3.90D-01 DXMaxT set to 8.49D-01
 ITU=  0  1  0  1  0
 Use linear search instead of GDIIS.
     Eigenvalues ---    0.00198   0.00230   0.00230   0.00230   0.00230
     Eigenvalues ---    0.00301   0.00493   0.00602   0.00708   0.00951
     Eigenvalues ---    0.01262   0.01929   0.02756   0.08365   0.11063
     Eigenvalues ---    0.11075   0.11948   0.13173   0.13414   0.15105
     Eigenvalues ---    0.16000   0.16000   0.16006   0.16014   0.44316
     Eigenvalues ---    0.46347   0.46349   0.48810   0.50625   0.50628
     Eigenvalues ---    0.50742   0.50843   0.50851
 RFO step:  Lambda=-1.65658763D-03 EMin= 1.97780571D-03
 Quartic linear search produced a step of -0.38849.
 Iteration  1 RMS(Cart)=  0.14209876 RMS(Int)=  0.01628176
 Iteration  2 RMS(Cart)=  0.05122156 RMS(Int)=  0.00148230
 Iteration  3 RMS(Cart)=  0.00139365 RMS(Int)=  0.00120565
 Iteration  4 RMS(Cart)=  0.00000123 RMS(Int)=  0.00120565
 Iteration  5 RMS(Cart)=  0.00000001 RMS(Int)=  0.00120565
 Variable       Old X    -DE/DX   Delta X   Delta X   Delta X     New X
                                 (Linear)    (Quad)   (Total)
[...]
 Maximum Force            0.000012     0.000450     YES
 RMS     Force            0.000005     0.000300     YES
 Maximum Displacement     0.008594     0.001800     NO 
 RMS     Displacement     0.003686     0.001200     NO 
 Predicted change in Energy=-9.127012D-08
                           ----------------------------
                           ! Non-Optimized Parameters !
                           ! (Angstroms and Degrees)  !
 --------------------------                            --------------------------
 ! Name  Definition              Value          Derivative Info.                !
 --------------------------------------------------------------------------------
 ! R1    R(1,2)                  0.9623         -DE/DX =    0.0                 !
 ! R2    R(1,3)                  0.9618         -DE/DX =    0.0                 !
 ! R3    R(1,10)                 1.5477         -DE/DX =    0.0                 !
 ! R4    R(4,5)                  1.0092         -DE/DX =    0.0                 !
 ! R5    R(4,6)                  1.0092         -DE/DX =    0.0                 !
 ! R6    R(4,10)                 1.0092         -DE/DX =    0.0                 !
 ! R7    R(5,7)                  1.5477         -DE/DX =    0.0                 !
 ! R8    R(6,11)                 1.5477         -DE/DX =    0.0                 !
 ! R9    R(7,8)                  0.9618         -DE/DX =    0.0                 !
 ! R10   R(7,9)                  0.9623         -DE/DX =    0.0                 !
 ! R11   R(11,12)                0.9618         -DE/DX =    0.0                 !
 ! R12   R(11,13)                0.9623         -DE/DX =    0.0                 !
 ! A1    A(2,1,3)              107.0027         -DE/DX =    0.0                 !
 ! A2    A(2,1,10)             122.5687         -DE/DX =    0.0                 !
 ! A3    A(3,1,10)             126.4264         -DE/DX =    0.0                 !
 ! A4    A(5,4,6)              113.646          -DE/DX =    0.0                 !
 ! A5    A(5,4,10)             113.6416         -DE/DX =    0.0                 !
 ! A6    A(6,4,10)             113.6459         -DE/DX =    0.0                 !
 ! A7    A(5,7,8)              126.4387         -DE/DX =    0.0                 !
 ! A8    A(5,7,9)              122.5797         -DE/DX =    0.0                 !
 ! A9    A(8,7,9)              107.0025         -DE/DX =    0.0                 !
 ! A10   A(6,11,12)            126.4146         -DE/DX =    0.0                 !
 ! A11   A(6,11,13)            122.5709         -DE/DX =    0.0                 !
 ! A12   A(12,11,13)           106.9995         -DE/DX =    0.0                 !
 ! A13   L(4,5,7,12,-1)        179.0957         -DE/DX =    0.0                 !
 ! A14   L(4,6,11,3,-1)        179.089          -DE/DX =    0.0                 !
 ! A15   L(1,10,4,8,-1)        179.0795         -DE/DX =    0.0                 !
 ! A16   L(4,5,7,12,-2)        184.7804         -DE/DX =    0.0                 !
 ! A17   L(4,6,11,3,-2)        184.7834         -DE/DX =    0.0                 !
 ! A18   L(1,10,4,8,-2)        175.2088         -DE/DX =    0.0                 !
 ! D1    D(2,1,4,5)           -109.6258         -DE/DX =    0.0                 !
 ! D2    D(2,1,4,6)            116.8274         -DE/DX =    0.0                 !
 ! D3    D(3,1,4,5)             94.8727         -DE/DX =    0.0                 !
 ! D4    D(3,1,4,6)            -38.6741         -DE/DX =    0.0                 !
 ! D5    D(6,4,7,8)             94.8266         -DE/DX =    0.0                 !
 ! D6    D(6,4,7,9)           -109.61           -DE/DX =    0.0                 !
 ! D7    D(10,4,7,8)           -38.7207         -DE/DX =    0.0                 !
 ! D8    D(10,4,7,9)           116.8427         -DE/DX =    0.0                 !
 ! D9    D(5,4,11,12)          -38.664          -DE/DX =    0.0                 !
 ! D10   D(5,4,11,13)          116.7925         -DE/DX =    0.0                 !
 ! D11   D(10,4,11,12)          94.8804         -DE/DX =    0.0                 !
 ! D12   D(10,4,11,13)        -109.6631         -DE/DX =    0.0                 !
 --------------------------------------------------------------------------------
 GradGradGradGradGradGradGradGradGradGradGradGradGradGradGradGradGradGrad


 ----------------------------------------------------------------------

 Electric dipole moment (input orientation):
 (Debye = 10**-18 statcoulomb cm , SI units = C m)
                  (au)            (Debye)         (10**-30 SI)
   Tot        0.335607D+00      0.853028D+00      0.284539D+01
   x          0.469852D-01      0.119424D+00      0.398357D+00
   y         -0.302479D+00     -0.768826D+00     -0.256453D+01
   z          0.137589D+00      0.349715D+00      0.116652D+01

 Dipole polarizability, Alpha (input orientation).
 (esu units = cm**3 , SI units = C**2 m**2 J**-1)
 Alpha(0;0):
               (au)            (10**-24 esu)      (10**-40 SI)
   iso        0.345923D+02      0.512606D+01      0.570351D+01
   aniso      0.612508D+01      0.907643D+00      0.100989D+01
   xx         0.365176D+02      0.541135D+01      0.602094D+01
   yx         0.771353D+00      0.114303D+00      0.127179D+00
   yy         0.316586D+02      0.469132D+01      0.521980D+01
   zx        -0.357194D+00     -0.529307D-01     -0.588933D-01
   zy         0.226224D+01      0.335229D+00      0.372993D+00
   zz         0.356008D+02      0.527550D+01      0.586978D+01

 ----------------------------------------------------------------------

 Dipole orientation:
     8        -13.62581741         -1.23648476         -4.54668726
     1        -14.43081072         -2.22382293         -5.84433559
     1        -14.66413317         -1.36475963         -3.06033609
     8        -10.41191431          2.19842423         -5.63892620
     1         -8.63058964          1.72536003         -5.14846195
     1        -10.89263811          3.97791706         -5.14943987
     8         -5.82942077          1.13408090         -4.54941011
     1         -5.19742143          0.30213399         -3.06204200
     1         -4.57365856          0.92725347         -5.84826737
     1        -11.71247927          0.89285262         -5.14759981
     8        -11.78074425          6.69992311         -4.55132853
     1        -11.37454941          7.66437344         -3.06518663
     1        -12.23184544          7.88977124         -5.85035973

 Electric dipole moment (dipole orientation):
 (Debye = 10**-18 statcoulomb cm , SI units = C m)
                  (au)            (Debye)         (10**-30 SI)
   Tot        0.335607D+00      0.853028D+00      0.284539D+01
   x          0.000000D+00      0.000000D+00      0.000000D+00
   y          0.000000D+00      0.000000D+00      0.000000D+00
   z          0.335607D+00      0.853028D+00      0.284539D+01

 Dipole polarizability, Alpha (dipole orientation).
 (esu units = cm**3 , SI units = C**2 m**2 J**-1)
 Alpha(0;0):
               (au)            (10**-24 esu)      (10**-40 SI)
   iso        0.345923D+02      0.512606D+01      0.570351D+01
   aniso      0.612508D+01      0.907643D+00      0.100989D+01
   xx         0.366388D+02      0.542931D+01      0.604092D+01
   yx        -0.481120D-02     -0.712946D-03     -0.793259D-03
   yy         0.366293D+02      0.542790D+01      0.603935D+01
   zx        -0.295659D-03     -0.438121D-04     -0.487475D-04
   zy        -0.164225D-02     -0.243357D-03     -0.270771D-03
   zz         0.305090D+02      0.452096D+01      0.503025D+01

 ----------------------------------------------------------------------
 1\1\GINC-N2228\Freq\RwB97XD\Aug-CC-pVDZ\H9O4(1+)\GDS001\13-Feb-2023\0\
 \#N Geom=AllCheck Guess=TCheck SCRF=Check GenChk RwB97XD/Aug-CC-pVDZ F
 req\\blah\\1,1\O,-7.5056366807,1.2458810322,-0.5666494187\H,-8.0685931
 442,1.6051999949,-1.2594350944\H,-7.9434099597,0.4590328081,-0.2284469
 005\O,-5.7468052846,2.6894765991,0.5965451227\H,-4.8033394802,2.433802
 4146,0.3453554988\H,-5.8771216055,2.8323987883,1.587067704\O,-3.325251
 1032,2.1481192652,-0.0142134297\H,-2.9246674066,1.2820520676,-0.135146
 8871\H,-2.7759887002,2.7806770205,-0.4876739026\H,-6.4508957322,2.1007
 079634,0.1768064723\O,-6.1673363047,3.1156287144,3.080861702\H,-5.7996
 006183,2.642389359,3.8331692242\H,-6.4426213682,3.9807150169,3.3999506
 324\\Version=ES64L-G16RevA.03\State=1-A\HF=-306.0797373\RMSD=2.960e-09
 \RMSF=6.245e-06\ZeroPoint=0.1091324\Thermal=0.1204523\Dipole=0.0469852
 ,-0.3024795,0.1375886\DipoleDeriv=-0.6727406,-0.105965,-0.1055087,-0.1
 287623,-0.6174403,-0.1360002,-0.1109267,-0.125336,-0.6220556,0.2846827
 ,-0.0403818,-0.0237909,-0.0538896,0.3042599,-0.0166517,-0.0148299,-0.0
 010161,0.3591787,0.2769957,-0.0329724,-0.0398066,-0.0194945,0.3490447,
 0.0071295,-0.0503311,-0.0089949,0.3121005,-1.090065,-0.0920823,0.03017
 54,-0.0828727,-0.5398825,-0.2578801,0.050217,-0.2548227,-0.9862165,1.2
 835963,-0.1625385,-0.3457295,-0.2044239,0.2876551,0.0359736,-0.3162948
 ,0.0176604,0.3276748,0.2372937,-0.0546507,-0.1754724,-0.0474864,0.3379
 349,0.2324755,-0.1798547,0.2861151,1.3225403,-0.8615331,0.040831,0.059
 3384,0.0535894,-0.4979695,-0.0245347,0.0383901,-0.0165384,-0.5526752,0
 .2715549,0.0016236,0.0494779,-0.0203569,0.3352154,0.0009064,0.0537021,
 -0.0066588,0.3315127,0.2828384,0.0344463,0.0382051,0.0550878,0.3303076
 ,-0.0118765,0.0328516,-0.0050768,0.3347272,0.8439272,0.4005413,0.42618
 02,0.4435676,0.561004,0.2794749,0.419349,0.2470311,0.4923531,-0.564411
 8,-0.0022892,0.0973834,-0.0076609,-0.5128324,-0.0564236,0.0897825,-0.0
 803688,-0.8348739,0.3461013,0.0177352,0.0069643,0.0185325,0.3206533,-0
 .0581591,-0.0036959,-0.0370398,0.2714407,0.3617603,-0.0042975,-0.01741
 66,-0.0058301,0.3420498,0.005566,-0.0083592,-0.0149544,0.2442932\Polar
 =36.5176074,0.7713531,31.6586046,-0.357194,2.2622381,35.6008162\Quadru
 pole=4.3929431,-6.7045285,2.3115853,1.7682428,-0.8081327,5.1757707\PG=
 C01 [X(H9O4)]\NImag=0\\0.37245053,0.12423087,0.48741667,0.17974193,-0.
 29339461,0.38685106,-0.20901231,0.10636245,-0.23955976,0.19952284,0.07
 166825,-0.10622374,0.13194340,-0.09708300,0.11325349,-0.20848946,0.155
 72927,-0.27826362,0.22302930,-0.15794260,0.28989941,-0.14322606,-0.217
 83894,0.07252047,0.01081241,0.02487474,-0.01239095,0.13267264,-0.18024
 032,-0.35978266,0.16629015,-0.01202541,-0.01185493,0.00201241,0.194058
 56,0.37379660,0.04380044,0.14245791,-0.09138184,0.01802195,0.02740677,
 -0.00968600,-0.06322926,-0.16831656,0.09715363,-0.02075518,-0.01966179
 ,-0.01643888,-0.00115582,-0.00435639,0.00066048,-0.00164998,0.00079022
 ,-0.00463065,0.62606684,-0.01834271,-0.00558826,-0.01166513,-0.0018237
 0,-0.00447132,0.00016919,-0.00105923,0.00058138,-0.00239750,0.06528141
 ,0.21655870,-0.01770164,-0.01446781,-0.00197294,-0.00070233,-0.0019115
 6,0.00041781,-0.00254486,0.00033715,-0.00410279,-0.02970765,0.19126537
 ,0.54926128,0.00388556,0.00364660,0.00356295,0.00018342,0.00042144,-0.
 00080923,0.00037036,-0.00079976,0.00033897,-0.29374657,0.06405942,0.05
 504170,0.28799919,-0.00177135,-0.00278952,-0.00221587,0.00002301,-0.00
 023079,-0.00011876,-0.00044646,0.00018260,-0.00033655,0.08182681,-0.05
 498327,-0.04565113,-0.05994627,0.06567114,-0.00213778,-0.00283591,-0.0
 0261426,-0.00033135,-0.00028974,0.00039283,-0.00007434,0.00000713,-0.0
 0035364,0.04580190,-0.03800214,-0.07626663,-0.05718285,0.02929017,0.07
 699021,-0.00338377,-0.00244736,0.00008827,-0.00006133,-0.00024941,-0.0
 0009515,-0.00043260,-0.00031974,-0.00091317,-0.07944973,-0.00600340,0.
 02951391,0.00735684,0.00122201,0.02837331,0.07446460,-0.00012917,-0.00
 051166,0.00065914,-0.00034515,0.00023629,0.00001391,-0.00047852,-0.000
 21888,-0.00035417,-0.00779246,-0.02468052,-0.02384158,0.00338480,-0.00
 393741,-0.00657978,-0.00181630,0.04714917,0.00574558,0.00405127,0.0025
 3877,-0.00020370,0.00063424,-0.00025767,0.00016428,-0.00042440,0.00130
 904,0.03359238,-0.04482268,-0.32122821,0.01855409,-0.00003316,0.001150
 57,-0.03230391,0.04030535,0.30966262,-0.00201694,-0.00177528,-0.001403
 93,0.00009503,-0.00023126,0.00030891,-0.00004701,0.00033599,-0.0002880
 7,-0.03798302,0.00760150,0.01472437,0.00028236,-0.00457684,-0.00582440
 ,-0.00218744,-0.00119984,-0.00820802,0.37251448,0.00034237,0.00097326,
 0.00051871,0.00003207,-0.00007589,0.00000055,0.00026698,-0.00015650,0.
 00008199,0.01090835,0.00762710,-0.00299430,-0.00632822,-0.02084539,0.0
 0561188,0.00046877,-0.00001133,0.00124041,-0.01721789,0.71251337,0.000
 43101,0.00058627,0.00096154,0.00022209,0.00008367,-0.00023006,0.000037
 21,-0.00001293,-0.00006207,0.01427998,-0.00270374,0.00203714,-0.003109
 94,0.00477948,-0.00563272,-0.00056177,0.00029346,0.00068489,-0.2188552
 9,-0.11282738,0.16257692,0.00012719,-0.00039037,-0.00020766,-0.0000844
 4,0.00003971,-0.00002474,-0.00019798,0.00002248,0.00000439,-0.00537271
 ,-0.00069386,0.00133483,0.00750739,0.00468260,-0.00194605,-0.00039562,
 0.00006535,-0.00019781,-0.13003739,0.20747807,0.04557558,0.11823964,-0
 .00023745,-0.00049957,-0.00018420,0.00002008,0.00003895,0.00000550,-0.
 00013630,0.00014086,-0.00004024,-0.00442766,0.00015281,0.00152178,0.00
 708928,-0.00011215,-0.00255527,0.00003210,-0.00007528,-0.00082284,0.16
 511872,-0.44131434,-0.03626010,-0.18534581,0.46434364,0.00014673,0.000
 02585,-0.00019715,-0.00008062,0.00003134,0.00006182,0.00000349,-0.0000
 2726,0.00012313,0.00154650,0.00038608,0.00003417,-0.00323457,-0.000875
 98,-0.00087688,-0.00008013,-0.00019129,0.00066817,0.05441211,-0.066805
 69,-0.02299571,-0.04366657,0.04541491,0.02099103,0.00010268,0.00004845
 ,-0.00012743,-0.00011337,-0.00003897,0.00003361,-0.00002479,-0.0000359
 9,0.00002807,-0.00365627,0.00195596,0.00048600,0.00337440,-0.00670564,
 0.00193089,-0.00025378,0.00015482,0.00011557,-0.20353951,-0.19615832,0
 .16277914,0.01046308,0.01730994,-0.00925430,0.19367771,0.00029018,0.00
 007058,0.00012259,-0.00003393,0.00009280,-0.00003958,-0.00004807,-0.00
 000567,0.00003471,0.00497673,-0.00202673,-0.00125027,-0.00771155,0.004
 81009,0.00065256,-0.00000339,0.00044484,0.00092756,-0.15353342,-0.2561
 7281,0.14822659,-0.02696737,-0.02359639,0.02225168,0.18336915,0.276830
 05,-0.00009989,-0.00002005,-0.00022526,-0.00007183,-0.00004304,0.00009
 190,0.00001480,-0.00001027,0.00002893,-0.00060196,0.00027136,0.0004626
 9,0.00070380,-0.00028813,-0.00156916,0.00001389,0.00031073,0.00014960,
 0.15760726,0.17805786,-0.13490144,-0.00184373,-0.00799611,0.00241010,-
 0.15617408,-0.17022461,0.13328097,0.00119702,0.00743795,0.00176387,-0.
 00018745,0.00489668,-0.00224013,0.00168488,-0.00184544,0.00668195,-0.1
 8859569,-0.11308041,-0.05958906,-0.01805566,-0.01399121,-0.00752870,0.
 01502289,0.00527521,-0.01381977,0.00335030,0.00008382,-0.00087971,-0.0
 0027479,0.00065627,0.00012801,-0.00007371,-0.00040990,0.00045315,0.188
 10126,0.00459336,-0.01283574,0.00815310,0.00482801,0.00932132,0.000174
 59,0.00078243,-0.00275778,0.00146380,-0.12902311,-0.13716715,-0.091665
 04,-0.00226433,0.01170771,0.01456197,0.00614275,-0.00280387,-0.0063772
 9,0.00489859,-0.00244245,-0.00211072,0.00110410,0.00084066,-0.00017026
 ,0.00010666,-0.00035043,-0.00001414,0.11003355,0.13560603,0.00102278,0
 .00972851,-0.01473590,-0.00040917,0.00039925,-0.00253049,0.00565094,-0
 .00004386,0.00757140,-0.05434444,-0.07832746,-0.09966619,-0.00498203,0
 .01414365,0.01092441,-0.02052076,-0.01633105,-0.00764240,0.00418102,-0
 .00223011,-0.00226059,0.00080888,0.00056024,0.00008956,0.00021055,-0.0
 0030038,0.00034111,0.06759939,0.07170019,0.10760041,0.00096964,0.00031
 364,-0.00009391,-0.00006357,0.00013403,0.00015416,-0.00008299,0.000174
 33,0.00035811,0.00689712,0.00066943,0.00595285,-0.00035848,-0.00036753
 ,-0.00129130,-0.01064224,0.00580934,-0.00049579,0.00003801,0.00019905,
 0.00051756,0.00001232,-0.00016130,-0.00013494,0.00004179,0.00002108,-0
 .00023047,-0.00263067,-0.00137570,0.00017958,0.13553360,-0.00035587,0.
 00007059,-0.00043795,0.00007645,-0.00019341,0.00005117,0.00011850,0.00
 002374,0.00027533,-0.00009136,0.00552653,-0.01048193,-0.00126735,0.000
 12949,0.00068538,0.00669947,-0.01864646,0.00439722,0.00052926,0.000287
 87,-0.00020680,-0.00008557,-0.00004402,0.00014519,-0.00000996,-0.00026
 569,-0.00008278,0.00070385,0.00039860,0.00071111,-0.25416447,0.6053022
 8,-0.00236407,-0.00193616,-0.00112245,0.00010763,-0.00021994,0.0002057
 8,-0.00007585,0.00030044,-0.00050974,0.00782178,-0.01314711,-0.0407124
 1,-0.00820322,0.00121369,-0.00112305,0.00041118,0.00747421,0.00287157,
 0.00325323,-0.00070857,-0.00040848,0.00006914,0.00041500,-0.00023449,-
 0.00012801,-0.00035204,0.00001399,0.00694959,0.00416162,0.00071202,0.1
 0585711,-0.02615567,0.50628759,0.00000389,0.00006806,0.00019207,0.0000
 0874,0.00001362,-0.00005999,0.00004856,-0.00006080,-0.00013044,-0.0007
 8108,0.00162373,0.00372909,0.00113871,-0.00016408,0.00028209,0.0012406
 6,-0.00392510,-0.00452190,-0.00045613,0.00008275,-0.00030060,0.0000048
 8,0.00002265,0.00018924,0.00001742,-0.00000705,0.00010837,-0.00023733,
 0.00008695,0.00011245,-0.08185267,0.11520021,-0.14329851,0.08511371,-0
 .00023551,-0.00042323,-0.00007280,-0.00001144,0.00003064,0.00001914,-0
 .00009024,0.00010458,-0.00019660,0.00165675,-0.00191039,-0.00463265,-0
 .00098105,0.00038221,-0.00021381,-0.00362586,0.00339157,0.00720586,0.0
 0037986,-0.00033513,-0.00001618,0.00007308,0.00014187,-0.00014130,-0.0
 0000385,0.00004695,0.00005217,0.00069266,0.00078978,0.00023903,0.10303
 724,-0.15814549,0.15556175,-0.11649433,0.17351722,0.00003934,-0.000004
 25,0.00015340,-0.00002055,0.00000625,-0.00004077,-0.00006810,-0.000053
 11,-0.00008708,0.00154362,-0.00139292,-0.00248930,-0.00038703,0.000068
 94,-0.00086172,-0.00409585,0.00404677,0.00187542,0.00002189,-0.0000280
 5,0.00022151,0.00007894,-0.00003762,-0.00008090,0.00005094,0.00002333,
 -0.00004814,0.00006903,0.00002800,-0.00035457,-0.16058336,0.20415678,-
 0.35448718,0.15586707,-0.19320736,0.34507601,-0.00034226,0.00000573,-0
 .00003798,0.00005585,-0.00008944,-0.00007682,0.00007255,-0.00005411,-0
 .00004230,0.00018210,-0.00018814,-0.00053723,0.00006246,0.00021495,-0.
 00007141,-0.00127848,0.00099704,0.00157900,-0.00001275,-0.00015781,-0.
 00013525,0.00000843,0.00005946,0.00002505,-0.00001565,0.00005753,0.000
 12068,0.00069895,0.00008674,0.00049080,-0.04786188,0.13264685,0.029600
 01,-0.00424936,0.01560268,0.00748408,0.05268003,0.00018734,0.00012329,
 0.00028347,-0.00001944,0.00007661,-0.00007478,-0.00000346,-0.00005334,
 -0.00007889,-0.00008749,0.00038112,0.00377197,0.00069699,0.00001529,-0
 .00033243,-0.00009965,-0.00033647,-0.00628155,-0.00032940,-0.00004775,
 0.00016838,0.00001761,-0.00001703,-0.00004328,0.00000775,0.00012240,-0
 .00001300,-0.00045302,-0.00030669,-0.00024913,0.14571086,-0.43444403,-
 0.12660721,0.00355337,-0.01759059,-0.01360677,-0.14918148,0.45207719,-
 0.00013498,0.00007970,0.00000865,-0.00000166,-0.00009802,-0.00006095,-
 0.00000783,-0.00005889,-0.00000296,0.00047694,0.00036667,-0.00577463,-
 0.00029264,0.00002366,-0.00015996,0.00017020,-0.00580571,0.00821763,0.
 00007091,0.00008270,0.00000908,0.00001481,-0.00002103,0.00000716,0.000
 04906,-0.00007215,-0.00003530,0.00041236,0.00009417,-0.00004878,0.0498
 1040,-0.17305706,-0.11149315,-0.01216895,0.03540274,0.01112331,-0.0383
 9863,0.14306322,0.09820990\\-0.00000290,-0.00000310,-0.00000357,-0.000
 00235,0.00000132,-0.00000683,-0.00000147,-0.00000201,0.00000803,0.0000
 1448,-0.00001121,0.00001168,-0.00000948,0.00000759,-0.00000129,-0.0000
 0449,0.00000195,-0.00001756,0.00000361,0.00000236,0.00000744,-0.000002
 29,-0.00000707,-0.00000333,0.00000061,0.00000414,-0.00000226,0.0000040
 2,0.00000693,0.00000314,0.00000250,-0.00000224,0.00000929,0.00000298,-
 0.00000305,-0.00000136,-0.00000523,0.00000439,-0.00000338\\\@


 A SCIENTIST IS SOMEONE WHOSE CURIOSITY SURVIVES
 EDUCATION'S ASSAULTS ON IT.
                          - SIR HERMANN BONDI
 Job cpu time:       0 days  0 hours 17 minutes  8.4 seconds.
 Elapsed time:       0 days  0 hours  0 minutes 37.5 seconds.
 File lengths (MBytes):  RWF=    352 Int=      0 D2E=      0 Chk=      8 Scr=      8
 Normal termination of Gaussian 16 at Mon Feb 13 17:16:37 2023.
