 Entering Gaussian System, Link 0=g16
 Input=NicWswB97XDaVDZOptFreq.gjf
 Output=NicWswB97XDaVDZOptFreq.log
 Initial command:
 /sw/contrib/gaussian/g16/A03/g16/l1.exe "/gscratch/scrubbed/gds001/Gau-12958.inp" -scrdir="/gscratch/scrubbed/gds001/"
 Entering Link 1 = /sw/contrib/gaussian/g16/A03/g16/l1.exe PID=     12959.
  
 Copyright (c) 1988,1990,1992,1993,1995,1998,2003,2009,2016,
            Gaussian, Inc.  All Rights Reserved.
  
 This is part of the Gaussian(R) 16 program.  It is based on
 the Gaussian(R) 09 system (copyright 2009, Gaussian, Inc.),
 the Gaussian(R) 03 system (copyright 2003, Gaussian, Inc.),
 the Gaussian(R) 98 system (copyright 1998, Gaussian, Inc.),
 the Gaussian(R) 94 system (copyright 1995, Gaussian, Inc.),
 the Gaussian 92(TM) system (copyright 1992, Gaussian, Inc.),
 the Gaussian 90(TM) system (copyright 1990, Gaussian, Inc.),
 the Gaussian 88(TM) system (copyright 1988, Gaussian, Inc.),
 the Gaussian 86(TM) system (copyright 1986, Carnegie Mellon
 University), and the Gaussian 82(TM) system (copyright 1983,
 Carnegie Mellon University). Gaussian is a federally registered
 trademark of Gaussian, Inc.
  
 This software contains proprietary and confidential information,
 including trade secrets, belonging to Gaussian, Inc.
  
 This software is provided under written license and may be
 used, copied, transmitted, or stored only in accord with that
 written license.
  
 The following legend is applicable only to US Government
 contracts under FAR:
  
                    RESTRICTED RIGHTS LEGEND
  
 Use, reproduction and disclosure by the US Government is
 subject to restrictions as set forth in subparagraphs (a)
 and (c) of the Commercial Computer Software - Restricted
 Rights clause in FAR 52.227-19.
  
 Gaussian, Inc.
 340 Quinnipiac St., Bldg. 40, Wallingford CT 06492
  
  
 ---------------------------------------------------------------
 Warning -- This program may not be used in any manner that
 competes with the business of Gaussian, Inc. or will provide
 assistance to any competitor of Gaussian, Inc.  The licensee
 of this program is prohibited from giving any competitor of
 Gaussian, Inc. access to this program.  By using this program,
 the user acknowledges that Gaussian, Inc. is engaged in the
 business of creating and licensing software in the field of
 computational chemistry and represents and warrants to the
 licensee that it is not a competitor of Gaussian, Inc. and that
 it will not use this program in any manner prohibited above.
 ---------------------------------------------------------------
  

 Cite this work as:
 Gaussian 16, Revision A.03,
 M. J. Frisch, G. W. Trucks, H. B. Schlegel, G. E. Scuseria, 
 M. A. Robb, J. R. Cheeseman, G. Scalmani, V. Barone, 
 G. A. Petersson, H. Nakatsuji, X. Li, M. Caricato, A. V. Marenich, 
 J. Bloino, B. G. Janesko, R. Gomperts, B. Mennucci, H. P. Hratchian, 
 J. V. Ortiz, A. F. Izmaylov, J. L. Sonnenberg, D. Williams-Young, 
 F. Ding, F. Lipparini, F. Egidi, J. Goings, B. Peng, A. Petrone, 
 T. Henderson, D. Ranasinghe, V. G. Zakrzewski, J. Gao, N. Rega, 
 G. Zheng, W. Liang, M. Hada, M. Ehara, K. Toyota, R. Fukuda, 
 J. Hasegawa, M. Ishida, T. Nakajima, Y. Honda, O. Kitao, H. Nakai, 
 T. Vreven, K. Throssell, J. A. Montgomery, Jr., J. E. Peralta, 
 F. Ogliaro, M. J. Bearpark, J. J. Heyd, E. N. Brothers, K. N. Kudin, 
 V. N. Staroverov, T. A. Keith, R. Kobayashi, J. Normand, 
 K. Raghavachari, A. P. Rendell, J. C. Burant, S. S. Iyengar, 
 J. Tomasi, M. Cossi, J. M. Millam, M. Klene, C. Adamo, R. Cammi, 
 J. W. Ochterski, R. L. Martin, K. Morokuma, O. Farkas, 
 J. B. Foresman, and D. J. Fox, Gaussian, Inc., Wallingford CT, 2016.
 
 ******************************************
 Gaussian 16:  ES64L-G16RevA.03 25-Dec-2016
                 1-Nov-2022 
 ******************************************
 %nprocshared=28
 Will use up to   28 processors via shared memory.
 %mem=41GB
 -----------------------------
 # wB97XD/aug-cc-pVDZ opt freq
 -----------------------------
 1/18=20,19=15,26=3,38=1/1,3;
 2/9=110,12=2,17=6,18=5,40=1/2;
 3/5=16,7=10,11=2,25=1,30=1,71=1,74=-58/1,2,3;
 4//1;
 5/5=2,38=5/2;
 6/7=2,8=2,9=2,10=2,28=1/1;
 7//1,2,3,16;
 1/18=20,19=15,26=3/3(2);
 2/9=110/2;
 99//99;
 2/9=110/2;
 3/5=16,7=10,11=2,25=1,30=1,71=1,74=-58/1,2,3;
 4/5=5,16=3,69=1/1;
 5/5=2,38=5/2;
 7//1,2,3,16;
 1/18=20,19=15,26=3/3(-5);
 2/9=110/2;
 6/7=2,8=2,9=2,10=2,19=2,28=1/1;
 99/9=1/99;
 ----
 blah
 ----
 Symbolic Z-matrix:
 Charge =  0 Multiplicity = 1
 C1                    2.40241   0.23092  -0.33926 
 C2                    3.19063  -0.80079   0.00865 
 N3                    2.61164  -2.02893   0.26372 
 C4                    1.22059  -2.15554   0.19133 
 C5                    0.42516  -1.06712  -0.16707 
 C6                    1.07445   0.12442  -0.45355 
 C7                   -1.08397  -1.09781  -0.20948 
 C8                   -1.6975   -0.81376  -1.60361 
 C9                   -2.87393   0.14992  -1.32856 
 C10                  -3.02905   0.11359   0.18867 
 N11                  -1.6494   -0.05524   0.66531 
 C12                  -1.56177  -0.38781   2.08326 
 H13                  -1.41505  -2.09367   0.13995 
 H14                  -0.96244  -0.36684  -2.28301 
 H15                  -2.02786  -1.75107  -2.06333 
 H16                  -2.62165   1.16531  -1.65615 
 H17                  -3.79113  -0.1503   -1.84436 
 H18                  -3.46686   1.02629   0.61085 
 H19                  -3.65563  -0.74174   0.5035 
 H20                  -2.07624  -1.33751   2.31624 
 H21                  -2.02229   0.411     2.67602 
 H22                  -0.51063  -0.47004   2.38772 
 H23                   0.52394   0.94184  -0.75979 
 H24                   2.84166   1.14582  -0.52647 
 H25                   4.21245  -0.6774    0.08405 
 H26                   0.77834  -3.06312   0.40517 
 

 GradGradGradGradGradGradGradGradGradGradGradGradGradGradGradGradGradGrad
 Berny optimization.
 Initialization pass.
                           ----------------------------
                           !    Initial Parameters    !
                           ! (Angstroms and Degrees)  !
 --------------------------                            --------------------------
 ! Name  Definition              Value          Derivative Info.                !
 --------------------------------------------------------------------------------
 ! R1    R(1,2)                  1.3442         estimate D2E/DX2                !
 ! R2    R(1,6)                  1.3371         estimate D2E/DX2                !
 ! R3    R(1,24)                 1.032          estimate D2E/DX2                !
 ! R4    R(2,3)                  1.3815         estimate D2E/DX2                !
 ! R5    R(2,25)                 1.032          estimate D2E/DX2                !
 ! R6    R(3,4)                  1.3987         estimate D2E/DX2                !
 ! R7    R(4,5)                  1.3949         estimate D2E/DX2                !
 ! R8    R(4,26)                 1.032          estimate D2E/DX2                !
 ! R9    R(5,6)                  1.3869         estimate D2E/DX2                !
 ! R10   R(5,7)                  1.51           estimate D2E/DX2                !
 ! R11   R(6,23)                 1.032          estimate D2E/DX2                !
 ! R12   R(7,8)                  1.5494         estimate D2E/DX2                !
 ! R13   R(7,11)                 1.4737         estimate D2E/DX2                !
 ! R14   R(7,13)                 1.1061         estimate D2E/DX2                !
 ! R15   R(8,9)                  1.5454         estimate D2E/DX2                !
 ! R16   R(8,14)                 1.0962         estimate D2E/DX2                !
 ! R17   R(8,15)                 1.095          estimate D2E/DX2                !
 ! R18   R(9,10)                 1.5256         estimate D2E/DX2                !
 ! R19   R(9,16)                 1.0964         estimate D2E/DX2                !
 ! R20   R(9,17)                 1.0943         estimate D2E/DX2                !
 ! R21   R(10,11)                1.4694         estimate D2E/DX2                !
 ! R22   R(10,18)                1.0968         estimate D2E/DX2                !
 ! R23   R(10,19)                1.106          estimate D2E/DX2                !
 ! R24   R(11,12)                1.4591         estimate D2E/DX2                !
 ! R25   R(12,20)                1.1049         estimate D2E/DX2                !
 ! R26   R(12,21)                1.0961         estimate D2E/DX2                !
 ! R27   R(12,22)                1.0974         estimate D2E/DX2                !
 ! A1    A(2,1,6)              122.9136         estimate D2E/DX2                !
 ! A2    A(2,1,24)             118.5432         estimate D2E/DX2                !
 ! A3    A(6,1,24)             118.5432         estimate D2E/DX2                !
 ! A4    A(1,2,3)              118.9707         estimate D2E/DX2                !
 ! A5    A(1,2,25)             120.5146         estimate D2E/DX2                !
 ! A6    A(3,2,25)             120.5146         estimate D2E/DX2                !
 ! A7    A(2,3,4)              119.1912         estimate D2E/DX2                !
 ! A8    A(3,4,5)              120.6498         estimate D2E/DX2                !
 ! A9    A(3,4,26)             119.6751         estimate D2E/DX2                !
 ! A10   A(5,4,26)             119.6751         estimate D2E/DX2                !
 ! A11   A(4,5,6)              117.1604         estimate D2E/DX2                !
 ! A12   A(4,5,7)              124.1417         estimate D2E/DX2                !
 ! A13   A(6,5,7)              118.6562         estimate D2E/DX2                !
 ! A14   A(1,6,5)              121.047          estimate D2E/DX2                !
 ! A15   A(1,6,23)             119.4765         estimate D2E/DX2                !
 ! A16   A(5,6,23)             119.4765         estimate D2E/DX2                !
 ! A17   A(5,7,8)              114.6633         estimate D2E/DX2                !
 ! A18   A(5,7,11)             110.6332         estimate D2E/DX2                !
 ! A19   A(5,7,13)             107.9736         estimate D2E/DX2                !
 ! A20   A(8,7,11)             104.6239         estimate D2E/DX2                !
 ! A21   A(8,7,13)             109.316          estimate D2E/DX2                !
 ! A22   A(11,7,13)            109.5459         estimate D2E/DX2                !
 ! A23   A(7,8,9)              104.8099         estimate D2E/DX2                !
 ! A24   A(7,8,14)             111.5235         estimate D2E/DX2                !
 ! A25   A(7,8,15)             109.8948         estimate D2E/DX2                !
 ! A26   A(9,8,14)             111.5022         estimate D2E/DX2                !
 ! A27   A(9,8,15)             112.2612         estimate D2E/DX2                !
 ! A28   A(14,8,15)            106.9225         estimate D2E/DX2                !
 ! A29   A(8,9,10)             103.8604         estimate D2E/DX2                !
 ! A30   A(8,9,16)             110.4366         estimate D2E/DX2                !
 ! A31   A(8,9,17)             112.5247         estimate D2E/DX2                !
 ! A32   A(10,9,16)            110.0365         estimate D2E/DX2                !
 ! A33   A(10,9,17)            112.15           estimate D2E/DX2                !
 ! A34   A(16,9,17)            107.826          estimate D2E/DX2                !
 ! A35   A(9,10,11)            103.2894         estimate D2E/DX2                !
 ! A36   A(9,10,18)            113.8028         estimate D2E/DX2                !
 ! A37   A(9,10,19)            111.0455         estimate D2E/DX2                !
 ! A38   A(11,10,18)           110.215          estimate D2E/DX2                !
 ! A39   A(11,10,19)           110.5319         estimate D2E/DX2                !
 ! A40   A(18,10,19)           107.9287         estimate D2E/DX2                !
 ! A41   A(7,11,10)            104.4167         estimate D2E/DX2                !
 ! A42   A(7,11,12)            113.1143         estimate D2E/DX2                !
 ! A43   A(10,11,12)           113.4416         estimate D2E/DX2                !
 ! A44   A(11,12,20)           111.8918         estimate D2E/DX2                !
 ! A45   A(11,12,21)           109.5232         estimate D2E/DX2                !
 ! A46   A(11,12,22)           110.134          estimate D2E/DX2                !
 ! A47   A(20,12,21)           108.4643         estimate D2E/DX2                !
 ! A48   A(20,12,22)           108.8489         estimate D2E/DX2                !
 ! A49   A(21,12,22)           107.8784         estimate D2E/DX2                !
 ! D1    D(6,1,2,3)             -0.1201         estimate D2E/DX2                !
 ! D2    D(6,1,2,25)           179.8799         estimate D2E/DX2                !
 ! D3    D(24,1,2,3)           179.8799         estimate D2E/DX2                !
 ! D4    D(24,1,2,25)           -0.1201         estimate D2E/DX2                !
 ! D5    D(2,1,6,5)              2.3658         estimate D2E/DX2                !
 ! D6    D(2,1,6,23)          -177.6342         estimate D2E/DX2                !
 ! D7    D(24,1,6,5)          -177.6342         estimate D2E/DX2                !
 ! D8    D(24,1,6,23)            2.3658         estimate D2E/DX2                !
 ! D9    D(1,2,3,4)             -1.8497         estimate D2E/DX2                !
 ! D10   D(25,2,3,4)           178.1503         estimate D2E/DX2                !
 ! D11   D(2,3,4,5)              1.6364         estimate D2E/DX2                !
 ! D12   D(2,3,4,26)          -178.3636         estimate D2E/DX2                !
 ! D13   D(3,4,5,6)              0.492          estimate D2E/DX2                !
 ! D14   D(3,4,5,7)           -177.1213         estimate D2E/DX2                !
 ! D15   D(26,4,5,6)          -179.508          estimate D2E/DX2                !
 ! D16   D(26,4,5,7)             2.8787         estimate D2E/DX2                !
 ! D17   D(4,5,6,1)             -2.4741         estimate D2E/DX2                !
 ! D18   D(4,5,6,23)           177.5259         estimate D2E/DX2                !
 ! D19   D(7,5,6,1)            175.2749         estimate D2E/DX2                !
 ! D20   D(7,5,6,23)            -4.7251         estimate D2E/DX2                !
 ! D21   D(4,5,7,8)           -119.1024         estimate D2E/DX2                !
 ! D22   D(4,5,7,11)           122.8792         estimate D2E/DX2                !
 ! D23   D(4,5,7,13)             3.0123         estimate D2E/DX2                !
 ! D24   D(6,5,7,8)             63.3176         estimate D2E/DX2                !
 ! D25   D(6,5,7,11)           -54.7008         estimate D2E/DX2                !
 ! D26   D(6,5,7,13)          -174.5677         estimate D2E/DX2                !
 ! D27   D(5,7,8,9)           -136.4186         estimate D2E/DX2                !
 ! D28   D(5,7,8,14)           -15.6331         estimate D2E/DX2                !
 ! D29   D(5,7,8,15)           102.7575         estimate D2E/DX2                !
 ! D30   D(11,7,8,9)           -15.0495         estimate D2E/DX2                !
 ! D31   D(11,7,8,14)          105.736          estimate D2E/DX2                !
 ! D32   D(11,7,8,15)         -135.8733         estimate D2E/DX2                !
 ! D33   D(13,7,8,9)           102.1986         estimate D2E/DX2                !
 ! D34   D(13,7,8,14)         -137.0159         estimate D2E/DX2                !
 ! D35   D(13,7,8,15)          -18.6252         estimate D2E/DX2                !
 ! D36   D(5,7,11,10)          161.0773         estimate D2E/DX2                !
 ! D37   D(5,7,11,12)          -75.1207         estimate D2E/DX2                !
 ! D38   D(8,7,11,10)           37.0862         estimate D2E/DX2                !
 ! D39   D(8,7,11,12)          160.8882         estimate D2E/DX2                !
 ! D40   D(13,7,11,10)         -80.0038         estimate D2E/DX2                !
 ! D41   D(13,7,11,12)          43.7981         estimate D2E/DX2                !
 ! D42   D(7,8,9,10)           -11.3753         estimate D2E/DX2                !
 ! D43   D(7,8,9,16)           106.5643         estimate D2E/DX2                !
 ! D44   D(7,8,9,17)          -132.8915         estimate D2E/DX2                !
 ! D45   D(14,8,9,10)         -132.1748         estimate D2E/DX2                !
 ! D46   D(14,8,9,16)          -14.2352         estimate D2E/DX2                !
 ! D47   D(14,8,9,17)          106.309          estimate D2E/DX2                !
 ! D48   D(15,8,9,10)          107.871          estimate D2E/DX2                !
 ! D49   D(15,8,9,16)         -134.1895         estimate D2E/DX2                !
 ! D50   D(15,8,9,17)          -13.6453         estimate D2E/DX2                !
 ! D51   D(8,9,10,11)           33.9585         estimate D2E/DX2                !
 ! D52   D(8,9,10,18)          153.447          estimate D2E/DX2                !
 ! D53   D(8,9,10,19)          -84.5323         estimate D2E/DX2                !
 ! D54   D(16,9,10,11)         -84.2576         estimate D2E/DX2                !
 ! D55   D(16,9,10,18)          35.2309         estimate D2E/DX2                !
 ! D56   D(16,9,10,19)         157.2516         estimate D2E/DX2                !
 ! D57   D(17,9,10,11)         155.7246         estimate D2E/DX2                !
 ! D58   D(17,9,10,18)         -84.787          estimate D2E/DX2                !
 ! D59   D(17,9,10,19)          37.2338         estimate D2E/DX2                !
 ! D60   D(9,10,11,7)          -44.7215         estimate D2E/DX2                !
 ! D61   D(9,10,11,12)        -168.3124         estimate D2E/DX2                !
 ! D62   D(18,10,11,7)        -166.6519         estimate D2E/DX2                !
 ! D63   D(18,10,11,12)         69.7572         estimate D2E/DX2                !
 ! D64   D(19,10,11,7)          74.1259         estimate D2E/DX2                !
 ! D65   D(19,10,11,12)        -49.465          estimate D2E/DX2                !
 ! D66   D(7,11,12,20)         -58.1285         estimate D2E/DX2                !
 ! D67   D(7,11,12,21)        -178.4351         estimate D2E/DX2                !
 ! D68   D(7,11,12,22)          63.0806         estimate D2E/DX2                !
 ! D69   D(10,11,12,20)         60.5654         estimate D2E/DX2                !
 ! D70   D(10,11,12,21)        -59.7412         estimate D2E/DX2                !
 ! D71   D(10,11,12,22)       -178.2255         estimate D2E/DX2                !
 --------------------------------------------------------------------------------
 Trust Radius=3.00D-01 FncErr=1.00D-07 GrdErr=1.00D-06 EigMax=2.50D+02 EigMin=1.00D-04
 Number of steps in this run=    156 maximum allowed number of steps=    156.
 GradGradGradGradGradGradGradGradGradGradGradGradGradGradGradGradGradGrad

                          Input orientation:                          
 ---------------------------------------------------------------------
 Center     Atomic      Atomic             Coordinates (Angstroms)
 Number     Number       Type             X           Y           Z
 ---------------------------------------------------------------------
      1          6           0        2.402410    0.230923   -0.339263
      2          6           0        3.190629   -0.800793    0.008646
      3          7           0        2.611637   -2.028931    0.263715
      4          6           0        1.220588   -2.155537    0.191329
      5          6           0        0.425161   -1.067115   -0.167067
      6          6           0        1.074455    0.124422   -0.453549
      7          6           0       -1.083966   -1.097811   -0.209480
      8          6           0       -1.697502   -0.813756   -1.603608
      9          6           0       -2.873931    0.149915   -1.328559
     10          6           0       -3.029048    0.113586    0.188674
     11          7           0       -1.649395   -0.055239    0.665310
     12          6           0       -1.561765   -0.387809    2.083262
     13          1           0       -1.415053   -2.093665    0.139946
     14          1           0       -0.962444   -0.366844   -2.283007
     15          1           0       -2.027857   -1.751068   -2.063333
     16          1           0       -2.621645    1.165312   -1.656151
     17          1           0       -3.791125   -0.150304   -1.844363
     18          1           0       -3.466855    1.026290    0.610853
     19          1           0       -3.655629   -0.741743    0.503504
     20          1           0       -2.076241   -1.337506    2.316239
     21          1           0       -2.022292    0.410995    2.676015
     22          1           0       -0.510627   -0.470043    2.387719
     23          1           0        0.523940    0.941840   -0.759793
     24          1           0        2.841659    1.145820   -0.526472
     25          1           0        4.212448   -0.677404    0.084052
     26          1           0        0.778340   -3.063122    0.405174
 ---------------------------------------------------------------------
                    Distance matrix (angstroms):
                    1          2          3          4          5
     1  C    0.000000
     2  C    1.344161   0.000000
     3  N    2.348254   1.381526   0.000000
     4  C    2.715405   2.397867   1.398673   0.000000
     5  C    2.371512   2.783813   2.427208   1.394924   0.000000
     6  C    1.337112   2.355385   2.741227   2.373907   1.386872
     7  C    3.733255   4.290450   3.840362   2.567178   1.510035
     8  C    4.415790   5.147170   4.851002   3.679324   2.575566
     9  C    5.368896   6.282583   6.113441   4.938649   3.703273
    10  C    5.458317   6.289108   6.034346   4.817503   3.667719
    11  N    4.184278   4.940940   4.713081   3.587856   2.453676
    12  C    4.686805   5.201907   4.839558   3.800758   3.077875
    13  H    4.495150   4.785506   4.029112   2.636868   2.129425
    14  H    3.931629   4.763192   4.692801   3.753317   2.625458
    15  H    5.150531   5.694622   5.197813   3.974857   3.175045
    16  H    5.277159   6.357645   6.424665   5.404070   4.060065
    17  H    6.385181   7.252701   6.997756   5.769079   4.629355
    18  H    5.998633   6.929861   6.811971   5.680858   4.487237
    19  H    6.193236   6.864373   6.402576   5.086625   4.148298
    20  H    5.437828   5.775203   5.164022   4.006682   3.535100
    21  H    5.357454   5.979785   5.765911   4.824627   4.032115
    22  H    4.051366   4.412333   4.085347   3.265291   2.785521
    23  H    2.052047   3.276965   3.772470   3.314166   2.096898
    24  H    1.032000   2.048764   3.279688   3.747275   3.296319
    25  H    2.068935   1.032000   2.102736   3.338803   3.815557
    26  H    3.747336   3.330842   2.109631   1.032000   2.106238
                    6          7          8          9         10
     6  C    0.000000
     7  C    2.492429   0.000000
     8  C    3.144290   1.549421   0.000000
     9  C    4.044261   2.452169   1.545412   0.000000
    10  C    4.153469   2.325802   2.417696   1.525574   0.000000
    11  N    2.950166   1.473745   2.392833   2.348849   1.469397
    12  C    3.694245   2.447256   3.713875   3.694787   2.448220
    13  H    3.386709   1.106093   2.181267   3.052619   2.734833
    14  H    2.781585   2.201952   1.096186   2.198134   3.257433
    15  H    3.966511   2.180469   1.095005   2.206688   3.090446
    16  H    4.023787   3.095002   2.184837   1.096356   2.162287
    17  H    5.067909   3.301412   2.209387   1.094271   2.187153
    18  H    4.750770   3.295893   3.379381   2.209278   1.096786
    19  H    4.903049   2.692319   2.877389   2.182329   1.106033
    20  H    4.442504   2.724210   3.972777   4.016626   2.745914
    21  H    4.412045   3.388662   4.463259   4.102446   2.699792
    22  H    3.307367   2.732810   4.178218   4.447502   3.393945
    23  H    1.032000   2.654879   2.954479   3.534992   3.769525
    24  H    2.042445   4.532648   5.060054   5.856888   6.003511
    25  H    3.283129   5.321175   6.147706   7.273011   7.285319
    26  H    3.314442   2.776406   3.901877   5.164157   4.963320
                   11         12         13         14         15
    11  N    0.000000
    12  C    1.459065   0.000000
    13  H    2.118043   2.589970   0.000000
    14  H    3.043283   4.407259   3.009563   0.000000
    15  H    3.234898   4.389757   2.312432   1.760522   0.000000
    16  H    2.797176   4.185539   3.911874   2.343800   3.003940
    17  H    3.300682   4.522465   3.655113   2.870668   2.391549
    18  H    2.115616   2.792317   3.763743   4.072754   4.115301
    19  H    2.126604   2.646728   2.641978   3.893384   3.202660
    20  H    2.133535   1.104938   2.396914   4.830713   4.399321
    21  H    2.097465   1.096143   3.615758   5.130323   5.209219
    22  H    2.106074   1.097428   2.916611   4.693663   4.873897
    23  H    2.783607   3.768434   3.712616   2.498434   3.932256
    24  H    4.799214   5.343489   5.390545   4.454747   5.870783
    25  H    5.923356   6.117372   5.803247   5.699028   6.686211
    26  H    3.874136   3.930569   2.412709   4.186473   3.961029
                   16         17         18         19         20
    16  H    0.000000
    17  H    1.770297   0.000000
    18  H    2.423430   2.741826   0.000000
    19  H    3.061061   2.425003   1.781320   0.000000
    20  H    4.726674   4.654126   3.229502   2.476976   0.000000
    21  H    4.438004   4.886476   2.594271   2.952355   1.785947
    22  H    4.845995   5.364179   3.759727   3.676292   1.791298
    23  H    3.278430   4.581360   4.220456   4.679655   4.627994
    24  H    5.578911   6.885536   6.411330   6.843866   6.199489
    25  H    7.288946   8.249472   7.883640   7.879512   6.705669
    26  H    5.804189   5.867276   5.898074   5.005851   3.844288
                   21         22         23         24         25
    21  H    0.000000
    22  H    1.773266   0.000000
    23  H    4.309277   3.601468   0.000000
    24  H    5.869746   4.726663   2.338347   0.000000
    25  H    6.839215   5.259022   4.115715   2.361345   0.000000
    26  H    5.006970   3.509413   4.178707   4.779168   4.193789
                   26
    26  H    0.000000
 Stoichiometry    C10H14N2
 Framework group  C1[X(C10H14N2)]
 Deg. of freedom    72
 Full point group                 C1      NOp   1
 Largest Abelian subgroup         C1      NOp   1
 Largest concise Abelian subgroup C1      NOp   1
                         Standard orientation:                         
 ---------------------------------------------------------------------
 Center     Atomic      Atomic             Coordinates (Angstroms)
 Number     Number       Type             X           Y           Z
 ---------------------------------------------------------------------
      1          6           0        2.427061   -0.606112   -1.191761
      2          6           0        3.388165   -0.127202   -0.383248
      3          7           0        3.032788    0.377613    0.852666
      4          6           0        1.681624    0.412550    1.212417
      5          6           0        0.703528   -0.086367    0.352054
      6          6           0        1.133428   -0.619700   -0.853830
      7          6           0       -0.779292   -0.032067    0.632236
      8          6           0       -1.472674   -1.415194    0.715241
      9          6           0       -2.786444   -1.246887   -0.080988
     10          6           0       -2.888573    0.258912   -0.303509
     11          7           0       -1.486841    0.674483   -0.450393
     12          6           0       -1.302673    2.121206   -0.406295
     13          1           0       -0.926922    0.509014    1.585588
     14          1           0       -0.843982   -2.206379    0.290510
     15          1           0       -1.653235   -1.679255    1.762478
     16          1           0       -2.719109   -1.765297   -1.044685
     17          1           0       -3.654456   -1.644769    0.453497
     18          1           0       -3.461734    0.536548   -1.196450
     19          1           0       -3.352081    0.758603    0.567570
     20          1           0       -1.642194    2.550668    0.553485
     21          1           0       -1.873961    2.588084   -1.216964
     22          1           0       -0.244276    2.371896   -0.552235
     23          1           0        0.443944   -1.033620   -1.500595
     24          1           0        2.699694   -0.979895   -2.114247
     25          1           0        4.376203   -0.136466   -0.681106
     26          1           0        1.405582    0.811362    2.123337
 ---------------------------------------------------------------------
 Rotational constants (GHZ):           2.0205803           0.5945740           0.5570842
 Standard basis: Aug-CC-pVDZ (5D, 7F)
 There are   426 symmetry adapted cartesian basis functions of A   symmetry.
 There are   402 symmetry adapted basis functions of A   symmetry.
   402 basis functions,   670 primitive gaussians,   426 cartesian basis functions
    44 alpha electrons       44 beta electrons
       nuclear repulsion energy       699.8030695901 Hartrees.
 NAtoms=   26 NActive=   26 NUniq=   26 SFac= 1.00D+00 NAtFMM=   60 NAOKFM=F Big=F
 Integral buffers will be    131072 words long.
 Raffenetti 2 integral format.
 Two-electron integral symmetry is turned on.
 Nuclear repulsion after empirical dispersion term =      699.7845499462 Hartrees.
 One-electron integrals computed using PRISM.
 NBasis=   402 RedAO= T EigKep=  3.29D-06  NBF=   402
 NBsUse=   402 1.00D-06 EigRej= -1.00D+00 NBFU=   402
 ExpMin= 2.97D-02 ExpMax= 9.05D+03 ExpMxC= 3.09D+02 IAcc=3 IRadAn=         5 AccDes= 0.00D+00
 Harris functional with IExCor= 4639 and IRadAn=       5 diagonalized for initial guess.
 HarFok:  IExCor= 4639 AccDes= 0.00D+00 IRadAn=         5 IDoV= 1 UseB2=F ITyADJ=14
 ICtDFT=  3500011 ScaDFX=  1.000000  1.000000  1.000000  1.000000
 FoFCou: FMM=F IPFlag=           0 FMFlag=      100000 FMFlg1=           0
         NFxFlg=           0 DoJE=T BraDBF=F KetDBF=T FulRan=T
         wScrn=  0.000000 ICntrl=       500 IOpCl=  0 I1Cent=   200000004 NGrid=           0
         NMat0=    1 NMatS0=      1 NMatT0=    0 NMatD0=    1 NMtDS0=    0 NMtDT0=    0
 Petite list used in FoFCou.
 Requested convergence on RMS density matrix=1.00D-08 within 128 cycles.
 Requested convergence on MAX density matrix=1.00D-06.
 Requested convergence on             energy=1.00D-06.
 No special actions if energy rises.
 SCF Done:  E(RwB97XD) =  -498.859294283     A.U. after   15 cycles
            NFock= 15  Conv=0.41D-08     -V/T= 2.0058

 **********************************************************************

            Population analysis using the SCF density.

 **********************************************************************

 Orbital symmetries:
       Occupied  (A) (A) (A) (A) (A) (A) (A) (A) (A) (A) (A) (A)
                 (A) (A) (A) (A) (A) (A) (A) (A) (A) (A) (A) (A)
                 (A) (A) (A) (A) (A) (A) (A) (A) (A) (A) (A) (A)
                 (A) (A) (A) (A) (A) (A) (A) (A)
       Virtual   (A) (A) (A) (A) (A) (A) (A) (A) (A) (A) (A) (A)
                 (A) (A) (A) (A) (A) (A) (A) (A) (A) (A) (A) (A)
                 (A) (A) (A) (A) (A) (A) (A) (A) (A) (A) (A) (A)
                 (A) (A) (A) (A) (A) (A) (A) (A) (A) (A) (A) (A)
                 (A) (A) (A) (A) (A) (A) (A) (A) (A) (A) (A) (A)
                 (A) (A) (A) (A) (A) (A) (A) (A) (A) (A) (A) (A)
                 (A) (A) (A) (A) (A) (A) (A) (A) (A) (A) (A) (A)
                 (A) (A) (A) (A) (A) (A) (A) (A) (A) (A) (A) (A)
                 (A) (A) (A) (A) (A) (A) (A) (A) (A) (A) (A) (A)
                 (A) (A) (A) (A) (A) (A) (A) (A) (A) (A) (A) (A)
                 (A) (A) (A) (A) (A) (A) (A) (A) (A) (A) (A) (A)
                 (A) (A) (A) (A) (A) (A) (A) (A) (A) (A) (A) (A)
                 (A) (A) (A) (A) (A) (A) (A) (A) (A) (A) (A) (A)
                 (A) (A) (A) (A) (A) (A) (A) (A) (A) (A) (A) (A)
                 (A) (A) (A) (A) (A) (A) (A) (A) (A) (A) (A) (A)
                 (A) (A) (A) (A) (A) (A) (A) (A) (A) (A) (A) (A)
                 (A) (A) (A) (A) (A) (A) (A) (A) (A) (A) (A) (A)
                 (A) (A) (A) (A) (A) (A) (A) (A) (A) (A) (A) (A)
                 (A) (A) (A) (A) (A) (A) (A) (A) (A) (A) (A) (A)
                 (A) (A) (A) (A) (A) (A) (A) (A) (A) (A) (A) (A)
                 (A) (A) (A) (A) (A) (A) (A) (A) (A) (A) (A) (A)
                 (A) (A) (A) (A) (A) (A) (A) (A) (A) (A) (A) (A)
                 (A) (A) (A) (A) (A) (A) (A) (A) (A) (A) (A) (A)
                 (A) (A) (A) (A) (A) (A) (A) (A) (A) (A) (A) (A)
                 (A) (A) (A) (A) (A) (A) (A) (A) (A) (A) (A) (A)
                 (A) (A) (A) (A) (A) (A) (A) (A) (A) (A) (A) (A)
                 (A) (A) (A) (A) (A) (A) (A) (A) (A) (A) (A) (A)
                 (A) (A) (A) (A) (A) (A) (A) (A) (A) (A) (A) (A)
                 (A) (A) (A) (A) (A) (A) (A) (A) (A) (A) (A) (A)
                 (A) (A) (A) (A) (A) (A) (A) (A) (A) (A)
 The electronic state is 1-A.
 Alpha  occ. eigenvalues --  -14.45189 -14.44730 -10.33240 -10.33103 -10.32482
 Alpha  occ. eigenvalues --  -10.32033 -10.31514 -10.30889 -10.30014 -10.29869
 Alpha  occ. eigenvalues --  -10.29833 -10.28888  -1.04592  -1.02462  -0.91320
 Alpha  occ. eigenvalues --   -0.88999  -0.88230  -0.81961  -0.77574  -0.73998
 Alpha  occ. eigenvalues --   -0.72053  -0.68288  -0.66435  -0.62796  -0.59005
 Alpha  occ. eigenvalues --   -0.58350  -0.56780  -0.54202  -0.53230  -0.52330
 Alpha  occ. eigenvalues --   -0.50966  -0.48838  -0.48563  -0.47610  -0.46029
 Alpha  occ. eigenvalues --   -0.44490  -0.44029  -0.43434  -0.42506  -0.40845
 Alpha  occ. eigenvalues --   -0.35771  -0.33742  -0.33219  -0.30746
 Alpha virt. eigenvalues --    0.03024   0.03466   0.03923   0.04387   0.04465
 Alpha virt. eigenvalues --    0.05492   0.05578   0.06059   0.06316   0.06721
 Alpha virt. eigenvalues --    0.06974   0.07624   0.08239   0.08794   0.09382
 Alpha virt. eigenvalues --    0.10017   0.11056   0.11855   0.12676   0.12771
 Alpha virt. eigenvalues --    0.13209   0.13279   0.13814   0.14313   0.14604
 Alpha virt. eigenvalues --    0.14820   0.15151   0.15501   0.15678   0.16329
 Alpha virt. eigenvalues --    0.16577   0.16634   0.17164   0.17311   0.17799
 Alpha virt. eigenvalues --    0.18068   0.18506   0.18662   0.18950   0.19530
 Alpha virt. eigenvalues --    0.19977   0.20493   0.21260   0.21590   0.21835
 Alpha virt. eigenvalues --    0.22050   0.22363   0.23075   0.23456   0.24362
 Alpha virt. eigenvalues --    0.25397   0.25746   0.26170   0.26427   0.26744
 Alpha virt. eigenvalues --    0.27603   0.27969   0.28810   0.29345   0.29624
 Alpha virt. eigenvalues --    0.29965   0.30416   0.30517   0.30674   0.31741
 Alpha virt. eigenvalues --    0.32073   0.32112   0.32744   0.33465   0.34066
 Alpha virt. eigenvalues --    0.34298   0.34817   0.35236   0.35550   0.35893
 Alpha virt. eigenvalues --    0.36664   0.36860   0.37257   0.37591   0.37947
 Alpha virt. eigenvalues --    0.39523   0.39790   0.40229   0.40702   0.41170
 Alpha virt. eigenvalues --    0.42189   0.42633   0.43089   0.43217   0.44164
 Alpha virt. eigenvalues --    0.44170   0.44642   0.45308   0.45567   0.46027
 Alpha virt. eigenvalues --    0.46123   0.46668   0.47104   0.48158   0.48939
 Alpha virt. eigenvalues --    0.50126   0.50568   0.51426   0.52067   0.52181
 Alpha virt. eigenvalues --    0.52683   0.52851   0.53623   0.54244   0.54796
 Alpha virt. eigenvalues --    0.55105   0.56261   0.57347   0.58168   0.58307
 Alpha virt. eigenvalues --    0.59119   0.59281   0.60199   0.60561   0.60748
 Alpha virt. eigenvalues --    0.61498   0.61719   0.62036   0.62950   0.63180
 Alpha virt. eigenvalues --    0.63778   0.64197   0.64606   0.65165   0.65754
 Alpha virt. eigenvalues --    0.66100   0.66724   0.67142   0.67441   0.67784
 Alpha virt. eigenvalues --    0.68925   0.69460   0.70021   0.70477   0.71129
 Alpha virt. eigenvalues --    0.71410   0.72376   0.72562   0.73075   0.73192
 Alpha virt. eigenvalues --    0.73627   0.74368   0.74771   0.75649   0.76184
 Alpha virt. eigenvalues --    0.76712   0.77591   0.78138   0.78340   0.79181
 Alpha virt. eigenvalues --    0.79238   0.80082   0.80838   0.81581   0.81985
 Alpha virt. eigenvalues --    0.82457   0.83181   0.83768   0.83973   0.84561
 Alpha virt. eigenvalues --    0.84724   0.85677   0.86359   0.87245   0.88319
 Alpha virt. eigenvalues --    0.89156   0.89474   0.90005   0.91076   0.91564
 Alpha virt. eigenvalues --    0.92070   0.93187   0.94691   0.95194   0.95520
 Alpha virt. eigenvalues --    0.96207   0.97298   0.98201   0.98259   0.99999
 Alpha virt. eigenvalues --    1.00611   1.01485   1.02563   1.03428   1.05120
 Alpha virt. eigenvalues --    1.05731   1.06755   1.07412   1.08955   1.10161
 Alpha virt. eigenvalues --    1.10637   1.11092   1.12354   1.13580   1.14532
 Alpha virt. eigenvalues --    1.16196   1.17570   1.18209   1.19321   1.21336
 Alpha virt. eigenvalues --    1.22171   1.22273   1.23042   1.26671   1.28640
 Alpha virt. eigenvalues --    1.29884   1.30830   1.31112   1.33863   1.34423
 Alpha virt. eigenvalues --    1.37436   1.38312   1.40470   1.41456   1.42959
 Alpha virt. eigenvalues --    1.44305   1.45470   1.46134   1.46875   1.48635
 Alpha virt. eigenvalues --    1.48912   1.49641   1.51284   1.51850   1.54335
 Alpha virt. eigenvalues --    1.55046   1.55827   1.58263   1.58855   1.59453
 Alpha virt. eigenvalues --    1.60619   1.61180   1.62070   1.63794   1.64762
 Alpha virt. eigenvalues --    1.66062   1.67081   1.67880   1.69340   1.70792
 Alpha virt. eigenvalues --    1.71356   1.72168   1.74066   1.75061   1.75554
 Alpha virt. eigenvalues --    1.76870   1.77466   1.78708   1.80054   1.80895
 Alpha virt. eigenvalues --    1.82118   1.83079   1.84134   1.85479   1.86136
 Alpha virt. eigenvalues --    1.87202   1.89243   1.90138   1.92639   1.93024
 Alpha virt. eigenvalues --    1.94571   1.95581   1.96147   1.96474   1.97542
 Alpha virt. eigenvalues --    1.99233   2.00492   2.00898   2.02026   2.03516
 Alpha virt. eigenvalues --    2.03931   2.05012   2.05610   2.06340   2.08323
 Alpha virt. eigenvalues --    2.10895   2.11407   2.13110   2.13604   2.14733
 Alpha virt. eigenvalues --    2.15813   2.17273   2.18859   2.19354   2.21585
 Alpha virt. eigenvalues --    2.22075   2.22378   2.23719   2.24944   2.27507
 Alpha virt. eigenvalues --    2.27907   2.28642   2.29470   2.31242   2.32366
 Alpha virt. eigenvalues --    2.33428   2.34725   2.35497   2.37332   2.38980
 Alpha virt. eigenvalues --    2.40982   2.42384   2.42724   2.44675   2.45406
 Alpha virt. eigenvalues --    2.47920   2.49056   2.51426   2.51977   2.52671
 Alpha virt. eigenvalues --    2.54747   2.56925   2.57826   2.59228   2.60444
 Alpha virt. eigenvalues --    2.63428   2.64261   2.66189   2.69661   2.69914
 Alpha virt. eigenvalues --    2.71520   2.72556   2.74231   2.74499   2.76614
 Alpha virt. eigenvalues --    2.78067   2.81271   2.82838   2.83537   2.85888
 Alpha virt. eigenvalues --    2.87779   2.89605   2.91730   2.92888   2.94105
 Alpha virt. eigenvalues --    2.96837   2.99409   2.99678   3.03035   3.05627
 Alpha virt. eigenvalues --    3.10762   3.14048   3.14569   3.16240   3.23841
 Alpha virt. eigenvalues --    3.25090   3.36606   3.43072   3.54653   3.56782
 Alpha virt. eigenvalues --    3.82932   4.18496   4.92043
          Condensed to atoms (all electrons):
               1          2          3          4          5          6
     1  C   15.367103  -2.582730   0.831886  -1.062710  -0.382153  -7.323172
     2  C   -2.582730   9.251185  -0.127291  -0.497461  -0.259428   1.160662
     3  N    0.831886  -0.127291   7.513624  -0.023199   0.166352  -0.776758
     4  C   -1.062710  -0.497461  -0.023199  13.247520  -1.792582  -1.254363
     5  C   -0.382153  -0.259428   0.166352  -1.792582  15.978898  -5.535584
     6  C   -7.323172   1.160662  -0.776758  -1.254363  -5.535584  22.507436
     7  C    1.131699  -1.072825   0.230251  -2.078396  -4.775087  -1.845010
     8  C    0.188470  -0.044962   0.029638  -0.407807   0.059216  -0.031401
     9  C   -0.027279   0.019140  -0.009965   0.132826   0.649040  -0.292085
    10  C    0.121087  -0.023707   0.008999  -0.174560  -0.237921  -0.221874
    11  N   -0.108679   0.090305  -0.021199  -0.016184   0.513495   0.183941
    12  C   -0.038889   0.028510  -0.009301  -0.039029  -0.064840   0.018038
    13  H    0.020681  -0.026080   0.008492  -0.024982   0.811640  -0.144512
    14  H    0.088618  -0.021211   0.010521  -0.048781  -0.217062  -0.030616
    15  H   -0.027439   0.021515  -0.006610   0.078443   0.035589   0.030042
    16  H   -0.000169  -0.000003  -0.001367   0.023200  -0.005751   0.039522
    17  H   -0.004980   0.001573   0.000027  -0.001395  -0.034436  -0.004254
    18  H    0.011577  -0.001285   0.001348  -0.017813  -0.102331  -0.022634
    19  H    0.002475   0.000925  -0.001185   0.036071   0.103104   0.014033
    20  H   -0.010412   0.005183   0.000304  -0.022225   0.095362   0.002350
    21  H   -0.001285   0.002615  -0.001998   0.000309  -0.003313  -0.023505
    22  H    0.036322   0.005936   0.006034   0.012863  -0.007792   0.022058
    23  H    1.456146  -0.231420   0.024864   0.148545   0.342543  -3.963906
    24  H   -2.222899   0.473445  -0.178886   0.108983  -0.101963   1.486867
    25  H   -0.023398  -0.608453  -0.017180  -0.028450   0.048611   0.350014
    26  H   -0.119085   0.157274  -0.042085  -1.092579   0.130479   0.140721
               7          8          9         10         11         12
     1  C    1.131699   0.188470  -0.027279   0.121087  -0.108679  -0.038889
     2  C   -1.072825  -0.044962   0.019140  -0.023707   0.090305   0.028510
     3  N    0.230251   0.029638  -0.009965   0.008999  -0.021199  -0.009301
     4  C   -2.078396  -0.407807   0.132826  -0.174560  -0.016184  -0.039029
     5  C   -4.775087   0.059216   0.649040  -0.237921   0.513495  -0.064840
     6  C   -1.845010  -0.031401  -0.292085  -0.221874   0.183941   0.018038
     7  C   18.696455  -0.974259  -0.694608  -0.367710  -1.441261  -0.132875
     8  C   -0.974259   7.222456  -0.585692   0.327594  -0.439843  -0.074837
     9  C   -0.694608  -0.585692   6.007615   0.047683   0.027963  -0.008636
    10  C   -0.367710   0.327594   0.047683   5.724235   0.159930  -0.187481
    11  N   -1.441261  -0.439843   0.027963   0.159930   8.323607   0.429613
    12  C   -0.132875  -0.074837  -0.008636  -0.187481   0.429613   4.414871
    13  H   -2.367446   0.480992   0.094770  -0.055999   0.063376   0.056861
    14  H   -0.084829  -0.331559   0.249366   0.069544   0.124919   0.029248
    15  H    0.421553  -0.844607   0.197344  -0.155659   0.065930   0.004243
    16  H    0.062609   0.065112  -0.234983  -0.073401   0.080894  -0.013447
    17  H   -0.020461   0.315172  -0.334703   0.132662  -0.013162   0.012512
    18  H    0.306390   0.106726  -0.011323  -0.072888  -0.585189   0.002699
    19  H   -0.117532  -0.121663   0.030798  -0.315885   0.388243  -0.025752
    20  H   -0.181246  -0.029259   0.062785  -0.011671   0.196714   0.154719
    21  H    0.046943  -0.032958   0.035966   0.031844  -0.333940   0.364223
    22  H   -0.044549   0.082840  -0.059634  -0.044281  -0.012097   0.217619
    23  H    0.394964   0.036509  -0.026294   0.093767  -0.155494  -0.032871
    24  H   -0.164303  -0.000416   0.009718   0.001044   0.019209  -0.001612
    25  H    0.017592  -0.000026   0.000143  -0.001215  -0.000344   0.002574
    26  H    0.196271   0.011391  -0.010545   0.010708   0.071983   0.038122
              13         14         15         16         17         18
     1  C    0.020681   0.088618  -0.027439  -0.000169  -0.004980   0.011577
     2  C   -0.026080  -0.021211   0.021515  -0.000003   0.001573  -0.001285
     3  N    0.008492   0.010521  -0.006610  -0.001367   0.000027   0.001348
     4  C   -0.024982  -0.048781   0.078443   0.023200  -0.001395  -0.017813
     5  C    0.811640  -0.217062   0.035589  -0.005751  -0.034436  -0.102331
     6  C   -0.144512  -0.030616   0.030042   0.039522  -0.004254  -0.022634
     7  C   -2.367446  -0.084829   0.421553   0.062609  -0.020461   0.306390
     8  C    0.480992  -0.331559  -0.844607   0.065112   0.315172   0.106726
     9  C    0.094770   0.249366   0.197344  -0.234983  -0.334703  -0.011323
    10  C   -0.055999   0.069544  -0.155659  -0.073401   0.132662  -0.072888
    11  N    0.063376   0.124919   0.065930   0.080894  -0.013162  -0.585189
    12  C    0.056861   0.029248   0.004243  -0.013447   0.012512   0.002699
    13  H    3.135102   0.154517  -0.321447  -0.054600   0.031033   0.042072
    14  H    0.154517   2.215258  -0.487735  -0.334586   0.120550   0.014587
    15  H   -0.321447  -0.487735   2.447412   0.195654  -0.281851  -0.022021
    16  H   -0.054600  -0.334586   0.195654   2.136980  -0.452140  -0.258882
    17  H    0.031033   0.120550  -0.281851  -0.452140   1.961787   0.059860
    18  H    0.042072   0.014587  -0.022021  -0.258882   0.059860   2.500756
    19  H   -0.071007  -0.037461   0.066086   0.180125  -0.190821  -0.448367
    20  H   -0.004780   0.001285   0.001974   0.001075   0.006612   0.002333
    21  H    0.014853  -0.001919   0.002145   0.008370  -0.003030   0.017159
    22  H    0.028604   0.008548  -0.005738  -0.009994  -0.000096   0.007636
    23  H   -0.009789  -0.037328   0.012774   0.002841   0.009042   0.012415
    24  H   -0.006694  -0.003243  -0.002078   0.000989  -0.000239  -0.000792
    25  H    0.003738  -0.002334   0.001203   0.000327   0.000009  -0.000152
    26  H   -0.069330   0.002431   0.014953   0.002220  -0.000410  -0.002017
              19         20         21         22         23         24
     1  C    0.002475  -0.010412  -0.001285   0.036322   1.456146  -2.222899
     2  C    0.000925   0.005183   0.002615   0.005936  -0.231420   0.473445
     3  N   -0.001185   0.000304  -0.001998   0.006034   0.024864  -0.178886
     4  C    0.036071  -0.022225   0.000309   0.012863   0.148545   0.108983
     5  C    0.103104   0.095362  -0.003313  -0.007792   0.342543  -0.101963
     6  C    0.014033   0.002350  -0.023505   0.022058  -3.963906   1.486867
     7  C   -0.117532  -0.181246   0.046943  -0.044549   0.394964  -0.164303
     8  C   -0.121663  -0.029259  -0.032958   0.082840   0.036509  -0.000416
     9  C    0.030798   0.062785   0.035966  -0.059634  -0.026294   0.009718
    10  C   -0.315885  -0.011671   0.031844  -0.044281   0.093767   0.001044
    11  N    0.388243   0.196714  -0.333940  -0.012097  -0.155494   0.019209
    12  C   -0.025752   0.154719   0.364223   0.217619  -0.032871  -0.001612
    13  H   -0.071007  -0.004780   0.014853   0.028604  -0.009789  -0.006694
    14  H   -0.037461   0.001285  -0.001919   0.008548  -0.037328  -0.003243
    15  H    0.066086   0.001974   0.002145  -0.005738   0.012774  -0.002078
    16  H    0.180125   0.001075   0.008370  -0.009994   0.002841   0.000989
    17  H   -0.190821   0.006612  -0.003030  -0.000096   0.009042  -0.000239
    18  H   -0.448367   0.002333   0.017159   0.007636   0.012415  -0.000792
    19  H    1.893556   0.014356  -0.005841  -0.001477   0.003804  -0.000007
    20  H    0.014356   1.599158  -0.291062  -0.416826  -0.009787   0.000521
    21  H   -0.005841  -0.291062   1.993019  -0.559028  -0.003535   0.000160
    22  H   -0.001477  -0.416826  -0.559028   2.038394   0.030563  -0.003632
    23  H    0.003804  -0.009787  -0.003535   0.030563   4.300118  -0.271447
    24  H   -0.000007   0.000521   0.000160  -0.003632  -0.271447   2.673251
    25  H    0.000112  -0.000016   0.000475  -0.002794  -0.016816  -0.094428
    26  H    0.005214   0.004514   0.003044  -0.002684  -0.014767   0.006677
              25         26
     1  C   -0.023398  -0.119085
     2  C   -0.608453   0.157274
     3  N   -0.017180  -0.042085
     4  C   -0.028450  -1.092579
     5  C    0.048611   0.130479
     6  C    0.350014   0.140721
     7  C    0.017592   0.196271
     8  C   -0.000026   0.011391
     9  C    0.000143  -0.010545
    10  C   -0.001215   0.010708
    11  N   -0.000344   0.071983
    12  C    0.002574   0.038122
    13  H    0.003738  -0.069330
    14  H   -0.002334   0.002431
    15  H    0.001203   0.014953
    16  H    0.000327   0.002220
    17  H    0.000009  -0.000410
    18  H   -0.000152  -0.002017
    19  H    0.000112   0.005214
    20  H   -0.000016   0.004514
    21  H    0.000475   0.003044
    22  H   -0.002794  -0.002684
    23  H   -0.016816  -0.014767
    24  H   -0.094428   0.006677
    25  H    1.950508   0.000851
    26  H    0.000851   2.375981
 Mulliken charges:
               1
     1  C    0.679215
     2  C    0.278585
     3  N   -0.615317
     4  C    0.793757
     5  C    0.585915
     6  C    1.513991
     7  C    0.857668
     8  C    0.993170
     9  C    0.730590
    10  C    1.215156
    11  N   -0.612730
    12  C    0.855717
    13  H   -0.790068
    14  H   -0.450730
    15  H   -0.441675
    16  H   -0.360595
    17  H   -0.308861
    18  H   -0.539864
    19  H   -0.401906
    20  H   -0.171961
    21  H   -0.259709
    22  H   -0.326796
    23  H   -1.095443
    24  H   -0.728226
    25  H   -0.580551
    26  H   -0.819332
 Sum of Mulliken charges =  -0.00000
 Mulliken charges with hydrogens summed into heavy atoms:
               1
     1  C   -0.049011
     2  C   -0.301965
     3  N   -0.615317
     4  C   -0.025576
     5  C    0.585915
     6  C    0.418548
     7  C    0.067600
     8  C    0.100765
     9  C    0.061134
    10  C    0.273386
    11  N   -0.612730
    12  C    0.097251
 Electronic spatial extent (au):  <R**2>=           2208.0497
 Charge=             -0.0000 electrons
 Dipole moment (field-independent basis, Debye):
    X=             -2.5702    Y=             -0.7260    Z=             -1.0595  Tot=              2.8732
 Quadrupole moment (field-independent basis, Debye-Ang):
   XX=            -75.6319   YY=            -72.3277   ZZ=            -71.7202
   XY=             -2.6668   XZ=             -7.6860   YZ=              0.8563
 Traceless Quadrupole moment (field-independent basis, Debye-Ang):
   XX=             -2.4053   YY=              0.8989   ZZ=              1.5064
   XY=             -2.6668   XZ=             -7.6860   YZ=              0.8563
 Octapole moment (field-independent basis, Debye-Ang**2):
  XXX=            -23.3897  YYY=              3.1343  ZZZ=             -1.8776  XYY=             -8.3277
  XXY=            -11.3578  XXZ=            -31.5891  XZZ=             -4.6984  YZZ=             -2.0169
  YYZ=             -4.0346  XYZ=              2.2942
 Hexadecapole moment (field-independent basis, Debye-Ang**3):
 XXXX=          -2133.0498 YYYY=           -549.7915 ZZZZ=           -353.7349 XXXY=            -38.9043
 XXXZ=           -111.5217 YYYX=             -2.9805 YYYZ=             -5.0219 ZZZX=            -12.5318
 ZZZY=              8.7701 XXYY=           -463.7380 XXZZ=           -428.0962 YYZZ=           -146.4758
 XXYZ=            -11.3813 YYXZ=             -0.1673 ZZXY=             -6.8483
 N-N= 6.997845499462D+02 E-N=-2.557101538677D+03  KE= 4.959975360723D+02
 Calling FoFJK, ICntrl=      2127 FMM=F ISym2X=0 I1Cent= 0 IOpClX= 0 NMat=1 NMatS=1 NMatT=0.
 ***** Axes restored to original set *****
 -------------------------------------------------------------------
 Center     Atomic                   Forces (Hartrees/Bohr)
 Number     Number              X              Y              Z
 -------------------------------------------------------------------
      1        6           0.011270474    0.013900652   -0.003642377
      2        6          -0.063085056   -0.077925050    0.014098875
      3        7          -0.016077078    0.007829496   -0.001240083
      4        6           0.066351237    0.068478234   -0.013533061
      5        6          -0.003175147   -0.005286959    0.002205973
      6        6          -0.023250430   -0.032762218    0.006371671
      7        6           0.003484635    0.000645712    0.002283915
      8        6          -0.000453506    0.000747765    0.002129924
      9        6           0.000148851   -0.000953843   -0.000254270
     10        6           0.008403422    0.001544195    0.003775917
     11        7          -0.006295520   -0.004590851   -0.001602193
     12        6           0.001178681    0.004407752   -0.006924086
     13        1          -0.002075475   -0.002663668   -0.000129438
     14        1           0.000390242   -0.000059790    0.000853865
     15        1          -0.000581986   -0.000608354   -0.000305272
     16        1           0.000093054    0.000362221    0.000386533
     17        1          -0.001226842   -0.000191545   -0.000567845
     18        1          -0.000295327    0.000574046    0.000000131
     19        1          -0.002366558   -0.002205012   -0.000242460
     20        1          -0.000918542   -0.002549509    0.000881899
     21        1          -0.000493517    0.000658695    0.000053086
     22        1          -0.000033576   -0.000635993   -0.000844352
     23        1          -0.027021858    0.037292845   -0.011048683
     24        1           0.021198470    0.043326472   -0.009910830
     25        1           0.047012609   -0.004294427    0.005695989
     26        1          -0.012181257   -0.045040866    0.011507171
 -------------------------------------------------------------------
 Cartesian Forces:  Max     0.077925050 RMS     0.020062665

 GradGradGradGradGradGradGradGradGradGradGradGradGradGradGradGradGradGrad
 Berny optimization.
 FormGI is forming the generalized inverse of G from B-inverse, IUseBI=4.
 Internal  Forces:  Max     0.052400458 RMS     0.012102926
 Search for a local minimum.
 Step number   1 out of a maximum of  156
 All quantities printed in internal units (Hartrees-Bohrs-Radians)
 Mixed Optimization -- RFO/linear search
 Second derivative matrix not updated -- first step.
 ITU=  0
     Eigenvalues ---    0.00330   0.00633   0.00856   0.00910   0.01540
     Eigenvalues ---    0.01951   0.02020   0.02199   0.02274   0.02508
     Eigenvalues ---    0.02534   0.02598   0.02759   0.02875   0.03548
     Eigenvalues ---    0.04527   0.04658   0.04967   0.05164   0.05548
     Eigenvalues ---    0.05996   0.06321   0.06880   0.06968   0.07028
     Eigenvalues ---    0.07261   0.07559   0.08322   0.09371   0.10349
     Eigenvalues ---    0.12835   0.15679   0.16000   0.16000   0.16000
     Eigenvalues ---    0.16000   0.16000   0.16000   0.16000   0.18362
     Eigenvalues ---    0.20544   0.21994   0.23170   0.23447   0.24977
     Eigenvalues ---    0.26545   0.26708   0.28998   0.31347   0.33017
     Eigenvalues ---    0.33024   0.33142   0.33498   0.33815   0.33968
     Eigenvalues ---    0.34040   0.34088   0.34107   0.34112   0.34241
     Eigenvalues ---    0.34324   0.37082   0.42477   0.42477   0.42477
     Eigenvalues ---    0.42477   0.43376   0.44086   0.46791   0.48429
     Eigenvalues ---    0.54285   0.56737
 RFO step:  Lambda=-4.71457946D-02 EMin= 3.29939646D-03
 Linear search not attempted -- first point.
 Maximum step size (   0.300) exceeded in Quadratic search.
    -- Step size scaled by   0.908
 Iteration  1 RMS(Cart)=  0.05632540 RMS(Int)=  0.00154156
 Iteration  2 RMS(Cart)=  0.00246195 RMS(Int)=  0.00014041
 Iteration  3 RMS(Cart)=  0.00000473 RMS(Int)=  0.00014036
 Iteration  4 RMS(Cart)=  0.00000000 RMS(Int)=  0.00014036
 Variable       Old X    -DE/DX   Delta X   Delta X   Delta X     New X
                                 (Linear)    (Quad)   (Total)
    R1        2.54010   0.05240   0.00000   0.08232   0.08229   2.62239
    R2        2.52678   0.04709   0.00000   0.07540   0.07572   2.60249
    R3        1.95020   0.04923   0.00000   0.09474   0.09474   2.04494
    R4        2.61071  -0.04035   0.00000  -0.07188  -0.07222   2.53849
    R5        1.95020   0.04645   0.00000   0.08939   0.08939   2.03959
    R6        2.64311  -0.04811   0.00000  -0.09515  -0.09546   2.54765
    R7        2.63603   0.00376   0.00000   0.00167   0.00168   2.63771
    R8        1.95020   0.04721   0.00000   0.09086   0.09086   2.04105
    R9        2.62081   0.00727   0.00000   0.01645   0.01679   2.63760
   R10        2.85355   0.00117   0.00000   0.00294   0.00294   2.85650
   R11        1.95020   0.04723   0.00000   0.09089   0.09089   2.04109
   R12        2.92798  -0.00144   0.00000  -0.00371  -0.00371   2.92428
   R13        2.78497  -0.00379   0.00000  -0.00957  -0.00956   2.77542
   R14        2.09021   0.00298   0.00000   0.00717   0.00717   2.09738
   R15        2.92041  -0.00076   0.00000  -0.00060  -0.00062   2.91979
   R16        2.07149  -0.00029   0.00000  -0.00068  -0.00068   2.07081
   R17        2.06926   0.00083   0.00000   0.00192   0.00192   2.07118
   R18        2.88292  -0.00064   0.00000  -0.00120  -0.00122   2.88170
   R19        2.07181   0.00024   0.00000   0.00056   0.00056   2.07237
   R20        2.06787   0.00135   0.00000   0.00314   0.00314   2.07101
   R21        2.77676  -0.00574   0.00000  -0.01389  -0.01389   2.76287
   R22        2.07262   0.00059   0.00000   0.00139   0.00139   2.07402
   R23        2.09010   0.00298   0.00000   0.00717   0.00717   2.09727
   R24        2.75723  -0.00709   0.00000  -0.01540  -0.01540   2.74184
   R25        2.08803   0.00280   0.00000   0.00673   0.00673   2.09476
   R26        2.07141   0.00072   0.00000   0.00168   0.00168   2.07308
   R27        2.07384  -0.00022   0.00000  -0.00051  -0.00051   2.07332
    A1        2.14525  -0.02331   0.00000  -0.05267  -0.05235   2.09290
    A2        2.06897   0.01151   0.00000   0.02569   0.02553   2.09450
    A3        2.06897   0.01180   0.00000   0.02698   0.02681   2.09578
    A4        2.07643   0.01774   0.00000   0.06429   0.06396   2.14039
    A5        2.10338   0.00103   0.00000   0.01127   0.01144   2.11482
    A6        2.10338  -0.01878   0.00000  -0.07557  -0.07540   2.02798
    A7        2.08028  -0.00265   0.00000  -0.03805  -0.03900   2.04128
    A8        2.10574   0.02556   0.00000   0.06233   0.06207   2.16781
    A9        2.08872  -0.02151   0.00000  -0.06945  -0.06932   2.01941
   A10        2.08872  -0.00405   0.00000   0.00711   0.00724   2.09597
   A11        2.04483   0.00167   0.00000   0.00447   0.00488   2.04971
   A12        2.16668  -0.00985   0.00000  -0.02971  -0.02993   2.13676
   A13        2.07094   0.00820   0.00000   0.02546   0.02525   2.09619
   A14        2.11267  -0.01897   0.00000  -0.03965  -0.03895   2.07372
   A15        2.08526   0.01124   0.00000   0.02753   0.02718   2.11244
   A16        2.08526   0.00773   0.00000   0.01212   0.01176   2.09702
   A17        2.00125   0.00060   0.00000   0.00414   0.00414   2.00539
   A18        1.93091   0.00136   0.00000   0.00704   0.00704   1.93796
   A19        1.88450  -0.00020   0.00000   0.00054   0.00055   1.88504
   A20        1.82603  -0.00131   0.00000  -0.00622  -0.00623   1.81981
   A21        1.90792  -0.00053   0.00000  -0.00670  -0.00671   1.90121
   A22        1.91194   0.00005   0.00000   0.00093   0.00087   1.91281
   A23        1.82928   0.00040   0.00000   0.00278   0.00278   1.83206
   A24        1.94645  -0.00073   0.00000  -0.00513  -0.00512   1.94133
   A25        1.91803   0.00014   0.00000   0.00096   0.00096   1.91899
   A26        1.94608   0.00012   0.00000   0.00191   0.00191   1.94799
   A27        1.95933  -0.00024   0.00000  -0.00248  -0.00247   1.95685
   A28        1.86615   0.00027   0.00000   0.00175   0.00175   1.86790
   A29        1.81271  -0.00115   0.00000  -0.00300  -0.00301   1.80969
   A30        1.92748   0.00013   0.00000   0.00006   0.00005   1.92753
   A31        1.96393   0.00078   0.00000   0.00329   0.00330   1.96722
   A32        1.92050  -0.00007   0.00000  -0.00235  -0.00235   1.91815
   A33        1.95739   0.00044   0.00000   0.00133   0.00134   1.95873
   A34        1.88192  -0.00015   0.00000   0.00049   0.00048   1.88240
   A35        1.80274  -0.00021   0.00000  -0.00248  -0.00247   1.80027
   A36        1.98623  -0.00031   0.00000  -0.00147  -0.00148   1.98476
   A37        1.93811  -0.00051   0.00000  -0.00395  -0.00394   1.93417
   A38        1.92361   0.00032   0.00000   0.00166   0.00166   1.92527
   A39        1.92915   0.00063   0.00000   0.00575   0.00574   1.93488
   A40        1.88371   0.00011   0.00000   0.00074   0.00072   1.88444
   A41        1.82241   0.00243   0.00000   0.00938   0.00940   1.83181
   A42        1.97422  -0.00124   0.00000  -0.00270  -0.00272   1.97150
   A43        1.97993  -0.00102   0.00000  -0.00157  -0.00158   1.97835
   A44        1.95288   0.00069   0.00000   0.00286   0.00286   1.95574
   A45        1.91154  -0.00033   0.00000  -0.00087  -0.00087   1.91067
   A46        1.92220  -0.00105   0.00000  -0.00500  -0.00500   1.91720
   A47        1.89306   0.00012   0.00000   0.00125   0.00125   1.89431
   A48        1.89977  -0.00023   0.00000  -0.00211  -0.00211   1.89767
   A49        1.88283   0.00083   0.00000   0.00403   0.00402   1.88686
    D1       -0.00210  -0.00002   0.00000   0.00132   0.00142  -0.00067
    D2        3.13950   0.00015   0.00000   0.00183   0.00186   3.14136
    D3        3.13950  -0.00030   0.00000  -0.00148  -0.00136   3.13814
    D4       -0.00210  -0.00014   0.00000  -0.00097  -0.00092  -0.00302
    D5        0.04129  -0.00146   0.00000  -0.01457  -0.01445   0.02684
    D6       -3.10030  -0.00134   0.00000  -0.01478  -0.01472  -3.11502
    D7       -3.10030  -0.00117   0.00000  -0.01178  -0.01167  -3.11197
    D8        0.04129  -0.00106   0.00000  -0.01199  -0.01194   0.02936
    D9       -0.03228   0.00071   0.00000   0.00892   0.00891  -0.02337
   D10        3.10931   0.00055   0.00000   0.00841   0.00849   3.11780
   D11        0.02856  -0.00020   0.00000  -0.00639  -0.00651   0.02205
   D12       -3.11303  -0.00045   0.00000  -0.00916  -0.00920  -3.12223
   D13        0.00859  -0.00025   0.00000  -0.00514  -0.00524   0.00335
   D14       -3.09135  -0.00093   0.00000  -0.01210  -0.01208  -3.10343
   D15       -3.13301  -0.00001   0.00000  -0.00236  -0.00244  -3.13545
   D16        0.05024  -0.00068   0.00000  -0.00933  -0.00928   0.04096
   D17       -0.04318   0.00135   0.00000   0.01549   0.01545  -0.02773
   D18        3.09841   0.00123   0.00000   0.01571   0.01572   3.11413
   D19        3.05912   0.00155   0.00000   0.02072   0.02077   3.07989
   D20       -0.08247   0.00143   0.00000   0.02093   0.02104  -0.06143
   D21       -2.07873   0.00053   0.00000   0.00880   0.00879  -2.06994
   D22        2.14465   0.00084   0.00000   0.00897   0.00892   2.15357
   D23        0.05257   0.00010   0.00000   0.00334   0.00332   0.05590
   D24        1.10510  -0.00001   0.00000   0.00223   0.00227   1.10737
   D25       -0.95471   0.00031   0.00000   0.00240   0.00241  -0.95230
   D26       -3.04678  -0.00043   0.00000  -0.00322  -0.00320  -3.04998
   D27       -2.38095  -0.00034   0.00000  -0.00464  -0.00463  -2.38558
   D28       -0.27285  -0.00034   0.00000  -0.00341  -0.00341  -0.27626
   D29        1.79346  -0.00036   0.00000  -0.00381  -0.00381   1.78964
   D30       -0.26266   0.00079   0.00000   0.00223   0.00223  -0.26044
   D31        1.84544   0.00079   0.00000   0.00346   0.00345   1.84889
   D32       -2.37144   0.00077   0.00000   0.00305   0.00304  -2.36839
   D33        1.78370  -0.00009   0.00000  -0.00317  -0.00314   1.78056
   D34       -2.39138  -0.00009   0.00000  -0.00194  -0.00192  -2.39330
   D35       -0.32507  -0.00012   0.00000  -0.00234  -0.00233  -0.32740
   D36        2.81133   0.00082   0.00000   0.00590   0.00590   2.81723
   D37       -1.31110   0.00048   0.00000   0.00878   0.00877  -1.30234
   D38        0.64728   0.00015   0.00000   0.00080   0.00082   0.64810
   D39        2.80803  -0.00019   0.00000   0.00368   0.00369   2.81172
   D40       -1.39633   0.00144   0.00000   0.01147   0.01149  -1.38485
   D41        0.76442   0.00110   0.00000   0.01435   0.01435   0.77877
   D42       -0.19854   0.00005   0.00000   0.00029   0.00029  -0.19824
   D43        1.85990  -0.00061   0.00000  -0.00409  -0.00409   1.85581
   D44       -2.31939  -0.00017   0.00000  -0.00120  -0.00120  -2.32059
   D45       -2.30689   0.00061   0.00000   0.00371   0.00371  -2.30317
   D46       -0.24845  -0.00004   0.00000  -0.00067  -0.00067  -0.24912
   D47        1.85544   0.00039   0.00000   0.00222   0.00222   1.85767
   D48        1.88270   0.00034   0.00000   0.00185   0.00185   1.88455
   D49       -2.34205  -0.00032   0.00000  -0.00253  -0.00253  -2.34458
   D50       -0.23815   0.00012   0.00000   0.00036   0.00036  -0.23780
   D51        0.59269  -0.00044   0.00000  -0.00225  -0.00227   0.59042
   D52        2.67815  -0.00035   0.00000  -0.00260  -0.00261   2.67555
   D53       -1.47537  -0.00082   0.00000  -0.00571  -0.00571  -1.48108
   D54       -1.47057   0.00007   0.00000   0.00043   0.00043  -1.47014
   D55        0.61490   0.00016   0.00000   0.00009   0.00009   0.61498
   D56        2.74456  -0.00031   0.00000  -0.00302  -0.00302   2.74154
   D57        2.71791   0.00002   0.00000   0.00054   0.00054   2.71845
   D58       -1.47981   0.00011   0.00000   0.00020   0.00020  -1.47961
   D59        0.64985  -0.00036   0.00000  -0.00291  -0.00291   0.64694
   D60       -0.78054  -0.00057   0.00000  -0.00196  -0.00197  -0.78251
   D61       -2.93761  -0.00009   0.00000  -0.00415  -0.00416  -2.94176
   D62       -2.90862  -0.00024   0.00000   0.00037   0.00037  -2.90825
   D63        1.21749   0.00024   0.00000  -0.00182  -0.00181   1.21568
   D64        1.29374  -0.00098   0.00000  -0.00523  -0.00524   1.28850
   D65       -0.86333  -0.00050   0.00000  -0.00742  -0.00743  -0.87075
   D66       -1.01453  -0.00057   0.00000  -0.00401  -0.00401  -1.01854
   D67       -3.11428  -0.00094   0.00000  -0.00684  -0.00684  -3.12112
   D68        1.10096  -0.00112   0.00000  -0.00822  -0.00822   1.09274
   D69        1.05707   0.00096   0.00000   0.00516   0.00516   1.06223
   D70       -1.04268   0.00059   0.00000   0.00233   0.00233  -1.04035
   D71       -3.11062   0.00041   0.00000   0.00095   0.00095  -3.10968
         Item               Value     Threshold  Converged?
 Maximum Force            0.052400     0.000450     NO 
 RMS     Force            0.012103     0.000300     NO 
 Maximum Displacement     0.352613     0.001800     NO 
 RMS     Displacement     0.056832     0.001200     NO 
 Predicted change in Energy=-2.555705D-02
 GradGradGradGradGradGradGradGradGradGradGradGradGradGradGradGradGradGrad

                          Input orientation:                          
 ---------------------------------------------------------------------
 Center     Atomic      Atomic             Coordinates (Angstroms)
 Number     Number       Type             X           Y           Z
 ---------------------------------------------------------------------
      1          6           0        2.459166    0.253745   -0.341927
      2          6           0        3.168502   -0.883102    0.018841
      3          7           0        2.571839   -2.060441    0.268532
      4          6           0        1.226938   -2.094646    0.181333
      5          6           0        0.435482   -1.000773   -0.172693
      6          6           0        1.087810    0.200085   -0.456508
      7          6           0       -1.073979   -1.071127   -0.211307
      8          6           0       -1.703264   -0.806425   -1.600035
      9          6           0       -2.908275    0.119866   -1.322150
     10          6           0       -3.052939    0.078335    0.195336
     11          7           0       -1.671798   -0.049133    0.657707
     12          6           0       -1.565030   -0.372607    2.068071
     13          1           0       -1.379389   -2.080055    0.136023
     14          1           0       -0.982395   -0.338013   -2.279571
     15          1           0       -2.008209   -1.753791   -2.059137
     16          1           0       -2.687721    1.143418   -1.648254
     17          1           0       -3.820231   -0.206897   -1.834626
     18          1           0       -3.515106    0.978888    0.619554
     19          1           0       -3.657509   -0.797516    0.510126
     20          1           0       -2.047164   -1.340821    2.310719
     21          1           0       -2.046058    0.414878    2.661327
     22          1           0       -0.508570   -0.422223    2.359929
     23          1           0        0.520005    1.067413   -0.759745
     24          1           0        2.983275    1.181556   -0.530320
     25          1           0        4.243400   -0.863999    0.114372
     26          1           0        0.767109   -3.046204    0.404194
 ---------------------------------------------------------------------
                    Distance matrix (angstroms):
                    1          2          3          4          5
     1  C    0.000000
     2  C    1.387707   0.000000
     3  N    2.395998   1.343309   0.000000
     4  C    2.703170   2.294322   1.348158   0.000000
     5  C    2.386996   2.742249   2.425200   1.395814   0.000000
     6  C    1.377180   2.393434   2.799643   2.385789   1.395759
     7  C    3.775640   4.252877   3.808015   2.548721   1.511593
     8  C    4.475781   5.134271   4.831211   3.663178   2.578626
     9  C    5.457856   6.303287   6.108654   4.925903   3.709150
    10  C    5.541004   6.297764   6.018126   4.799937   3.670014
    11  N    4.260970   4.952995   4.712246   3.579627   2.456789
    12  C    4.732289   5.183269   4.816722   3.784215   3.068822
    13  H    4.517695   4.704226   3.953498   2.606762   2.133991
    14  H    3.993618   4.775957   4.700230   3.744725   2.624607
    15  H    5.190034   5.645744   5.146738   3.949945   3.177630
    16  H    5.384093   6.417268   6.449941   5.399723   4.065616
    17  H    6.470793   7.261885   6.979789   5.753399   4.637171
    18  H    6.094441   6.964085   6.812609   5.667948   4.489305
    19  H    6.264571   6.844202   6.360669   5.064432   4.154531
    20  H    5.466825   5.715364   5.101330   3.977723   3.527960
    21  H    5.416875   5.988249   5.760004   4.812545   4.024149
    22  H    4.069940   4.383374   4.067754   3.248888   2.764079
    23  H    2.144056   3.380125   3.879542   3.374019   2.151550
    24  H    1.082135   2.144458   3.364221   3.784794   3.373678
    25  H    2.154310   1.079304   2.061396   3.258530   3.821171
    26  H    3.782779   3.254873   2.060870   1.080080   2.150945
                    6          7          8          9         10
     6  C    0.000000
     7  C    2.519809   0.000000
     8  C    3.179751   1.547460   0.000000
     9  C    4.089557   2.452973   1.545086   0.000000
    10  C    4.193510   2.324414   2.414080   1.524931   0.000000
    11  N    2.986473   1.468688   2.381572   2.340357   1.462049
    12  C    3.706620   2.434055   3.696256   3.679733   2.434000
    13  H    3.411335   1.109887   2.177367   3.050150   2.731837
    14  H    2.810491   2.196260   1.095824   2.198937   3.253562
    15  H    3.996422   2.180204   1.096023   2.205416   3.087198
    16  H    4.069984   3.094057   2.184804   1.096653   2.160234
    17  H    5.114070   3.305141   2.212694   1.095933   2.188799
    18  H    4.790750   3.294237   3.375900   2.208252   1.097523
    19  H    4.944456   2.696285   2.876097   2.181783   1.109826
    20  H    4.456456   2.716696   3.962051   4.009097   2.738692
    21  H    4.425851   3.377155   4.446155   4.086384   2.684805
    22  H    3.296667   2.711461   4.154061   4.428335   3.377844
    23  H    1.080099   2.723036   3.026596   3.601007   3.828365
    24  H    2.135771   4.651629   5.201923   6.038587   6.178960
    25  H    3.378746   5.331368   6.189129   7.360574   7.357384
    26  H    3.373730   2.769364   3.890538   5.149050   4.939548
                   11         12         13         14         15
    11  N    0.000000
    12  C    1.450917   0.000000
    13  H    2.117145   2.585082   0.000000
    14  H    3.030896   4.386645   3.004565   0.000000
    15  H    3.224945   4.374691   2.306640   1.762190   0.000000
    16  H    2.787783   4.167713   3.909751   2.345493   3.004060
    17  H    3.294295   4.510480   3.653749   2.875496   2.393054
    18  H    2.110941   2.779845   3.761944   4.068634   4.112622
    19  H    2.127183   2.643143   2.640963   3.892273   3.199338
    20  H    2.131151   1.108499   2.392006   4.817688   4.389499
    21  H    2.090423   1.097029   3.611966   5.109863   5.194933
    22  H    2.095198   1.097156   2.907317   4.664393   4.852848
    23  H    2.838986   3.797047   3.783736   2.557792   4.004932
    24  H    4.959405   5.463894   5.487710   4.592984   5.989027
    25  H    5.995730   6.147867   5.752827   5.772049   6.678209
    26  H    3.872334   3.918607   2.369138   4.194957   3.929469
                   16         17         18         19         20
    16  H    0.000000
    17  H    1.772192   0.000000
    18  H    2.419626   2.742661   0.000000
    19  H    3.060444   2.423463   1.785459   0.000000
    20  H    4.717544   4.649025   3.224274   2.475990   0.000000
    21  H    4.417577   4.873180   2.577798   2.948616   1.790365
    22  H    4.823428   5.348622   3.745834   3.671298   1.792628
    23  H    3.329373   4.649396   4.265258   4.747858   4.670942
    24  H    5.780261   7.065175   6.602442   7.007086   6.303904
    25  H    7.428123   8.321809   7.990361   7.911093   6.680007
    26  H    5.805284   5.841033   5.880911   4.964379   3.803065
                   21         22         23         24         25
    21  H    0.000000
    22  H    1.776358   0.000000
    23  H    4.325992   3.606847   0.000000
    24  H    6.005713   4.808183   2.476562   0.000000
    25  H    6.905055   5.274364   4.284636   2.487537   0.000000
    26  H    4.998765   3.512483   4.282250   4.864017   4.114682
                   26
    26  H    0.000000
 Stoichiometry    C10H14N2
 Framework group  C1[X(C10H14N2)]
 Deg. of freedom    72
 Full point group                 C1      NOp   1
 Largest Abelian subgroup         C1      NOp   1
 Largest concise Abelian subgroup C1      NOp   1
                         Standard orientation:                         
 ---------------------------------------------------------------------
 Center     Atomic      Atomic             Coordinates (Angstroms)
 Number     Number       Type             X           Y           Z
 ---------------------------------------------------------------------
      1          6           0        2.487412   -0.618427   -1.208535
      2          6           0        3.386142   -0.098681   -0.287733
      3          7           0        3.001107    0.397874    0.899559
      4          6           0        1.678650    0.399294    1.161544
      5          6           0        0.706320   -0.101035    0.294052
      6          6           0        1.141313   -0.638722   -0.918308
      7          6           0       -0.770905   -0.035441    0.607769
      8          6           0       -1.475768   -1.408846    0.715280
      9          6           0       -2.809379   -1.233593   -0.045020
     10          6           0       -2.900699    0.271707   -0.271174
     11          7           0       -1.504671    0.665870   -0.453737
     12          6           0       -1.304421    2.102633   -0.425975
     13          1           0       -0.894017    0.508580    1.567318
     14          1           0       -0.862997   -2.204727    0.277196
     15          1           0       -1.632233   -1.667432    1.768807
     16          1           0       -2.771716   -1.754374   -1.009393
     17          1           0       -3.668893   -1.621844    0.513161
     18          1           0       -3.493572    0.550681   -1.151647
     19          1           0       -3.341755    0.777368    0.612845
     20          1           0       -1.611549    2.547082    0.541965
     21          1           0       -1.892141    2.569323   -1.226136
     22          1           0       -0.246343    2.334702   -0.600236
     23          1           0        0.428577   -1.061124   -1.611271
     24          1           0        2.844217   -1.004755   -2.154292
     25          1           0        4.445227   -0.072953   -0.494066
     26          1           0        1.390157    0.819937    2.113596
 ---------------------------------------------------------------------
 Rotational constants (GHZ):           2.0308837           0.5904392           0.5544019
 Standard basis: Aug-CC-pVDZ (5D, 7F)
 There are   426 symmetry adapted cartesian basis functions of A   symmetry.
 There are   402 symmetry adapted basis functions of A   symmetry.
   402 basis functions,   670 primitive gaussians,   426 cartesian basis functions
    44 alpha electrons       44 beta electrons
       nuclear repulsion energy       698.6362529398 Hartrees.
 NAtoms=   26 NActive=   26 NUniq=   26 SFac= 1.00D+00 NAtFMM=   60 NAOKFM=F Big=F
 Integral buffers will be    131072 words long.
 Raffenetti 2 integral format.
 Two-electron integral symmetry is turned on.
 Nuclear repulsion after empirical dispersion term =      698.6178112587 Hartrees.
 One-electron integrals computed using PRISM.
 NBasis=   402 RedAO= T EigKep=  3.21D-06  NBF=   402
 NBsUse=   402 1.00D-06 EigRej= -1.00D+00 NBFU=   402
 Initial guess from the checkpoint file:  "/gscratch/scrubbed/gds001/Gau-12959.chk"
 B after Tr=    -0.000000    0.000000   -0.000000
         Rot=    0.999996    0.002141    0.001496   -0.000516 Ang=   0.31 deg.
 ExpMin= 2.97D-02 ExpMax= 9.05D+03 ExpMxC= 3.09D+02 IAcc=3 IRadAn=         5 AccDes= 0.00D+00
 Harris functional with IExCor= 4639 and IRadAn=       5 diagonalized for initial guess.
 HarFok:  IExCor= 4639 AccDes= 0.00D+00 IRadAn=         5 IDoV= 1 UseB2=F ITyADJ=14
 ICtDFT=  3500011 ScaDFX=  1.000000  1.000000  1.000000  1.000000
 FoFCou: FMM=F IPFlag=           0 FMFlag=      100000 FMFlg1=           0
         NFxFlg=           0 DoJE=T BraDBF=F KetDBF=T FulRan=T
         wScrn=  0.000000 ICntrl=       500 IOpCl=  0 I1Cent=   200000004 NGrid=           0
         NMat0=    1 NMatS0=      1 NMatT0=    0 NMatD0=    1 NMtDS0=    0 NMtDT0=    0
 Petite list used in FoFCou.
 Requested convergence on RMS density matrix=1.00D-08 within 128 cycles.
 Requested convergence on MAX density matrix=1.00D-06.
 Requested convergence on             energy=1.00D-06.
 No special actions if energy rises.
 SCF Done:  E(RwB97XD) =  -498.883896935     A.U. after   15 cycles
            NFock= 15  Conv=0.30D-08     -V/T= 2.0064
 Calling FoFJK, ICntrl=      2127 FMM=F ISym2X=0 I1Cent= 0 IOpClX= 0 NMat=1 NMatS=1 NMatT=0.
 ***** Axes restored to original set *****
 -------------------------------------------------------------------
 Center     Atomic                   Forces (Hartrees/Bohr)
 Number     Number              X              Y              Z
 -------------------------------------------------------------------
      1        6           0.006559092    0.006633708   -0.001828227
      2        6          -0.013149782   -0.015176212    0.002831917
      3        7          -0.004758778    0.006514435   -0.001159129
      4        6           0.012062502    0.009907168   -0.002303342
      5        6          -0.001932007   -0.000316671    0.000911244
      6        6          -0.003875636   -0.008473538    0.001219871
      7        6           0.002436117    0.000441420    0.000858965
      8        6          -0.000332971    0.000005657   -0.000073962
      9        6          -0.000535814   -0.000590655   -0.001097843
     10        6           0.004234476    0.000975396    0.002007727
     11        7          -0.003977930   -0.003401735   -0.001095547
     12        6           0.001093864    0.003089975   -0.002020154
     13        1          -0.000395394   -0.000667102   -0.000245933
     14        1           0.000194088    0.000146278    0.000234698
[...]
 007030,0.00009131,-0.00000484,0.00000627,0.00005781,-0.00000413,0.0001
 5677,0.00058886,0.00017834,-0.00067575,0.00095256,0.00043641,-0.000375
 29,0.00761830,0.01044991,-0.00466795,0.11792478,0.00001416,0.00011453,
 -0.00002646,-0.00001703,-0.00001925,0.00000187,-0.00010387,0.00007370,
 -0.00003718,-0.00006296,-0.00015162,-0.00000957,-0.00007568,0.00020248
 ,0.00002862,0.00014229,-0.00010991,-0.00001754,0.00138002,0.00188765,-
 0.00082239,-0.00025236,-0.00022092,0.00009335,0.00139893,0.00171746,-0
 .00181165,-0.07818366,-0.19734371,0.06885925,-0.00850332,0.00134995,-0
 .00252436,0.00118494,0.00221126,0.00053906,-0.00118970,0.00083961,0.00
 099433,-0.00000079,0.00003597,-0.00003220,-0.00007022,0.00005402,0.000
 14630,0.00011372,0.00122712,-0.00039090,0.00043242,0.00124414,0.000450
 29,-0.01263722,-0.02151014,0.01089221,0.09698375,0.20861411,0.00001619
 ,-0.00003837,0.00004084,0.00000374,0.00004183,-0.00001151,-0.00005133,
 -0.00004422,-0.00000772,0.00007711,0.00006177,0.00000941,-0.00012287,-
 0.00015891,0.00011876,-0.00014613,0.00002629,0.00002475,0.00042333,-0.
 00028015,0.00016034,-0.00072824,0.00054664,-0.00074336,0.01218760,0.02
 559896,-0.01390422,0.04116999,0.06690325,-0.08113741,-0.00784483,-0.00
 749196,0.00339650,-0.00162364,-0.00347632,0.00292357,0.00047195,0.0001
 2121,-0.00011913,0.00017456,-0.00025374,0.00009585,0.00028265,-0.00003
 515,-0.00013322,0.00169951,-0.00077828,-0.00567419,-0.00026486,0.00036
 283,0.00099266,-0.00416978,-0.00789062,0.00409317,-0.04298127,-0.07435
 528,0.08916333,0.00026342,0.00003203,0.00004149,0.00001870,0.00014959,
 -0.00001726,-0.00019524,0.00003678,-0.00006251,0.00009412,-0.00035575,
 -0.00001481,-0.00020167,0.00012951,-0.00010670,-0.00008544,-0.00007829
 ,0.00008684,0.00035931,-0.00120198,-0.00027352,0.00007066,0.00017003,0
 .00003869,-0.00007676,-0.00007613,-0.00009924,0.00294434,0.00334273,-0
 .00114817,0.00195670,0.00326887,0.00166326,-0.08713578,-0.08065885,0.0
 2298721,-0.00030207,0.00043032,0.00046815,-0.00009260,0.00007392,-0.00
 007073,0.00000040,0.00001910,0.00006602,-0.00008093,-0.00005221,0.0000
 0766,-0.00000330,-0.00004954,0.00002109,-0.00007016,-0.00018215,0.0000
 5593,0.00065088,-0.00083503,0.00113244,0.08610985,0.00001516,0.0001256
 5,-0.00001270,-0.00003621,-0.00002004,0.00000602,-0.00012161,0.0001101
 4,-0.00007366,-0.00007339,-0.00027524,0.00005183,-0.00002674,-0.000102
 21,0.00008948,0.00004715,-0.00012097,0.00001648,0.00178416,0.00254887,
 -0.00202718,0.00008139,0.00017228,-0.00026379,0.00013980,0.00032526,-0
 .00020330,-0.00138952,0.00108768,-0.00120094,-0.00052809,-0.00425339,0
 .01331848,-0.08053952,-0.22616857,0.04948491,-0.00106879,0.00095711,0.
 00188746,-0.00005271,-0.00002082,-0.00014593,0.00001384,0.00000753,0.0
 0012094,0.00004829,-0.00001207,-0.00021375,0.00004485,0.00005189,0.000
 15816,0.00002984,-0.00033376,-0.00016331,0.00171359,-0.00003421,0.0008
 8571,0.08981239,0.24552779,0.00002445,-0.00013024,0.00004194,0.0000532
 1,-0.00002141,-0.00001354,0.00007124,-0.00003901,0.00004260,0.00012993
 ,0.00009853,-0.00002281,-0.00006057,-0.00052016,-0.00004566,0.00001481
 ,0.00015212,0.00004924,-0.00133941,0.00659400,0.00256878,-0.00030028,-
 0.00046205,0.00043232,-0.00002540,-0.00046249,0.00048557,0.00581527,0.
 00170408,0.00118046,0.01098787,0.03227884,-0.02949735,0.02362921,0.050
 72094,-0.06279476,-0.00044740,-0.00227468,0.00070080,0.00002033,-0.000
 08344,0.00023268,-0.00011809,-0.00015009,-0.00012934,0.00000509,-0.000
 04067,0.00021344,-0.00005090,-0.00015078,-0.00011401,-0.00048940,-0.00
 019856,-0.00005900,-0.00136048,-0.00168588,0.00079061,-0.02818822,-0.0
 6701893,0.07898002,0.00001894,0.00003187,-0.00001385,0.00000204,0.0000
 1984,-0.00000666,-0.00005951,-0.00001715,0.00000135,0.00012545,-0.0002
 3669,0.00008576,0.00022686,0.00003098,0.00010157,0.00010121,0.00023249
 ,0.00002065,0.00008130,-0.00024672,-0.00102468,0.00020592,0.00012853,-
 0.00039046,0.00007631,-0.00011526,0.00009024,0.00088298,-0.00125198,-0
 .00073172,0.00122135,-0.00391460,-0.00254564,-0.10583715,0.09491244,0.
 06071907,-0.00010748,0.00025407,0.00004558,-0.00000742,0.00000357,-0.0
 0008589,0.00004347,-0.00001617,-0.00001497,-0.00001385,-0.00000728,0.0
 0004006,0.00002416,-0.00000227,0.00000854,0.00027559,0.00030763,0.0001
 9160,-0.00001446,0.00002255,0.00008954,0.00587478,-0.01073018,-0.00653
 389,0.10844785,0.00006602,-0.00002424,0.00002246,-0.00000776,0.0000615
 8,-0.00000933,-0.00000779,-0.00000274,-0.00001226,-0.00002232,-0.00008
 895,0.00000833,-0.00008844,0.00008781,0.00003436,-0.00001303,-0.000062
 46,-0.00002023,-0.00021797,0.00075582,0.00086712,0.00022930,0.00041601
 ,0.00027371,-0.00024717,0.00008010,-0.00012971,0.00028391,0.00068149,0
 .00036072,-0.00383167,0.00572551,0.00315371,0.09514791,-0.20031150,-0.
 09803104,-0.00000625,0.00059329,0.00044838,-0.00009839,0.00004772,-0.0
 0009500,-0.00002548,-0.00001440,0.00011491,0.00000567,0.00000319,0.000
 01246,-0.00002157,-0.00001485,-0.00001566,-0.00025774,0.00003760,-0.00
 042496,0.00010096,-0.00054231,0.00015281,0.01306346,-0.01933093,-0.012
 21314,-0.10236448,0.21053941,0.00001630,0.00001985,0.00001951,0.000033
 13,-0.00001102,-0.00001766,0.00009889,-0.00004750,0.00004553,0.0001555
 3,0.00006282,0.00007700,-0.00077622,0.00003511,0.00018447,0.00010785,0
 .00000234,0.00007200,-0.00330775,0.00238588,-0.00511242,0.00080296,-0.
 00143901,-0.00095801,0.00035887,0.00017356,0.00012126,0.00160254,-0.00
 124042,0.00104986,0.01899399,-0.02637825,-0.02358848,0.05540447,-0.090
 24954,-0.10446124,-0.00013122,-0.00020161,0.00006707,-0.00004057,0.000
 04717,-0.00016954,-0.00019440,0.00016074,-0.00058247,-0.00005599,0.000
 03231,-0.00001144,-0.00004924,0.00004351,0.00009891,-0.00067325,0.0004
 5736,-0.00010778,-0.00035791,0.00003984,-0.00004268,-0.00430030,0.0059
 8694,0.00469115,-0.06486128,0.10382839,0.12474389,0.00016445,-0.000065
 92,-0.00000560,-0.00002988,0.00008733,-0.00008224,-0.00003474,-0.00005
 765,0.00008527,0.00025185,-0.00019952,0.00009257,-0.00022431,0.0001043
 2,0.00095708,-0.00011780,0.00016267,0.00056269,-0.00020507,0.00097594,
 0.00053794,-0.00009595,-0.00008918,-0.00007826,-0.00019756,0.00006115,
 0.00017152,0.00171576,-0.00025774,-0.00089336,-0.00180154,0.00084348,-
 0.00270193,-0.30513712,-0.00506602,-0.06070345,-0.00014610,-0.00018846
 ,0.00006804,0.00003030,0.00000485,-0.00002094,0.00001130,-0.00004480,-
 0.00003866,0.00002536,0.00000702,-0.00010815,0.00001541,-0.00001367,-0
 .00013441,0.00011259,-0.00005936,0.00012475,0.00027964,0.00009564,0.00
 023275,-0.01020443,0.00066854,-0.00167354,-0.01153122,-0.00169552,-0.0
 0282124,0.32710415,-0.00024893,0.00002470,-0.00005863,-0.00002440,-0.0
 0012177,-0.00000616,0.00019291,-0.00001350,0.00007977,-0.00012241,-0.0
 0000741,0.00001885,0.00015979,-0.00000331,-0.00012865,0.00020731,0.000
 32987,-0.00015167,-0.00074752,0.00029006,-0.00038047,-0.00001329,-0.00
 008537,0.00004092,0.00034797,0.00058628,-0.00003797,-0.00026945,0.0003
 6765,0.00086023,0.00638981,-0.00131544,0.00149241,-0.00643966,-0.04732
 174,-0.00148850,-0.00016183,-0.00011457,0.00017853,0.00001156,0.000010
 59,0.00000630,-0.00002364,0.00001677,0.00000086,0.00001439,-0.00003850
 ,-0.00013472,-0.00001607,0.00001863,0.00018992,-0.00035246,0.00025202,
 -0.00008428,0.00058382,0.00028758,0.00009946,-0.02723427,-0.00041509,-
 0.00594291,0.02296799,0.00129173,0.00633335,0.00476945,0.04616879,0.00
 014063,0.00002374,0.00010310,0.00005912,0.00010653,-0.00004585,-0.0002
 4354,-0.00001633,-0.00003507,0.00039430,-0.00027999,0.00007455,0.00025
 233,-0.00035688,-0.00078604,0.00034578,0.00023725,-0.00028208,-0.00148
 221,0.00013048,0.00128378,-0.00017066,0.00035285,0.00025652,-0.0019151
 3,-0.00002852,-0.00050901,0.00215077,-0.00066875,-0.00614890,-0.037859
 70,0.00211645,-0.01244005,-0.05092780,-0.00137925,-0.05951660,0.000205
 64,-0.00023968,-0.00019465,0.00005502,-0.00000461,-0.00003341,0.000053
 84,-0.00002633,0.00005859,-0.00002135,0.00000108,-0.00018739,0.0000499
 3,0.00002049,-0.00060725,-0.00001405,0.00030346,0.00012290,-0.00009165
 ,-0.00030103,0.00000917,0.00776894,-0.00068788,0.00233041,0.01478024,0
 .00164952,0.00398289,0.06662058,-0.00100571,0.07264869,-0.00842887,0.0
 2741858,-0.00255050,-0.00577491,-0.00142271,-0.00007266,-0.00048069,-0
 .00050705,0.00005763,-0.00105894,-0.00338033,0.00025729,0.01293247,-0.
 01246410,0.00142317,-0.12958185,0.12278696,-0.01254957,-0.00027699,-0.
 00062496,-0.00005197,-0.00022506,-0.00001872,0.00002350,0.00000768,-0.
 00003634,-0.00005847,-0.00033333,0.00019171,-0.00020066,-0.00049047,-0
 .00031405,-0.00008250,0.00010311,-0.00001778,0.00044643,0.00027209,0.0
 0026138,0.00005322,-0.00000508,-0.00008766,-0.00012034,0.00008025,0.00
 005654,0.00002171,-0.00006782,0.00002954,-0.00003426,0.00001181,0.0000
 6018,0.00002219,0.00000261,-0.00000214,-0.00000420,0.00020737,0.000165
 27,-0.00002157,0.00009420,0.00017167,-0.00019305,0.00000349,-0.0000027
 8,-0.00003396,0.00000677,0.00006126,-0.00010812,0.13207642,-0.00321308
 ,0.00456921,-0.00010053,-0.00080976,0.00219471,0.00041707,-0.00060112,
 0.00010279,-0.00030110,-0.00434076,-0.00329085,0.00079068,0.01589538,-
 0.01796182,0.00229207,0.12242376,-0.26996416,0.02069863,0.00176874,-0.
 00076024,-0.00043465,-0.00038882,-0.00009673,0.00017288,-0.00010525,0.
 00007322,-0.00009294,-0.00030246,0.00027170,-0.00008832,0.00076603,0.0
 0103784,-0.00026093,-0.00001180,-0.00007235,0.00048183,-0.00004237,0.0
 0011360,-0.00008216,-0.00006935,-0.00005504,-0.00037801,0.00016555,0.0
 0013834,-0.00004678,-0.00005872,-0.00000258,0.00000048,0.00002819,0.00
 002823,0.00000847,0.00000410,-0.00004979,-0.00004142,0.00022369,0.0000
 7385,0.00001775,0.00005877,0.00009999,-0.00012183,0.00001428,0.0000006
 8,-0.00003162,-0.00003854,-0.00010628,0.00001811,-0.13236574,0.2840111
 6,-0.00012759,0.00123299,0.00521107,-0.00050142,0.00054518,0.00893124,
 0.00014979,-0.00045221,-0.00394265,0.00022331,0.00105489,0.00812126,-0
 .00078331,0.00189647,0.00573342,-0.01233286,0.01915150,-0.04390342,-0.
 00014220,-0.00012090,-0.00338096,-0.00063359,-0.00005551,0.00043737,0.
 00003715,0.00011272,-0.00014177,0.00019398,-0.00036637,0.00009894,0.00
 006823,-0.00005440,-0.00021235,0.00021793,0.00012540,-0.00003638,0.000
 15615,-0.00016682,-0.00013135,-0.00002450,0.00000563,-0.00034370,0.000
 11087,0.00007923,-0.00002277,-0.00006879,0.00005437,0.00000283,0.00001
 355,0.00000390,-0.00004533,0.00005751,-0.00001840,0.00003826,-0.000142
 73,-0.00005640,-0.00004044,-0.00012066,-0.00005660,-0.00003351,0.00004
 172,-0.00000139,-0.00004567,-0.00012493,0.00013619,-0.00006435,0.01370
 187,-0.02264316,0.02899200,-0.13893294,-0.12837218,0.00877270,0.011948
 86,0.01325402,-0.00090822,0.00005632,0.00422052,-0.00056908,-0.0016026
 3,0.00095885,-0.00013245,-0.00540864,0.00121482,-0.00057187,-0.0097561
 6,-0.02779803,0.00213024,0.00025153,-0.00158132,0.00012249,0.00001275,
 -0.00000654,0.00016764,0.00001419,-0.00001386,-0.00001965,0.00002757,0
 .00000513,0.00005772,0.00003493,0.00013602,0.00001962,-0.00003644,0.00
 002774,-0.00009470,-0.00055062,-0.00006800,-0.00000636,0.00003546,0.00
 002586,-0.00002322,0.00000109,0.00000068,-0.00001229,-0.00002665,0.000
 02339,-0.00001213,-0.00001606,0.00000498,-0.00000164,-0.00003297,0.000
 01972,0.00000230,0.00000223,-0.00001068,-0.00000605,0.00000907,-0.0000
 1313,0.00000603,-0.00002540,0.00001408,0.00002913,0.00001310,-0.000029
 51,-0.00002166,0.00107872,0.00033100,0.00011358,0.14241192,-0.12784856
 ,-0.26464282,0.01662529,-0.02005526,-0.01455108,0.00086526,0.00302641,
 -0.00532552,0.00128156,0.00208086,0.00043853,-0.00009322,0.00100735,0.
 00220505,0.00055203,0.00356995,0.00481690,-0.00003547,0.00037087,0.000
 11509,0.00003054,-0.00002887,0.00001530,0.00001031,0.00000637,-0.00001
 675,-0.00001820,0.00003860,0.00000395,0.00003074,-0.00010402,-0.000001
 29,0.00001435,-0.00000930,0.00001548,-0.00004582,0.00000053,-0.0000069
 3,-0.00002029,0.00000011,-0.00000197,0.00001884,-0.00000357,-0.0000073
 5,-0.00000560,-0.00000438,0.00000885,0.00000211,-0.00001213,0.00000077
 ,0.00000384,-0.00001206,0.00000683,0.00000157,-0.00001728,-0.00000982,
 -0.00000045,0.00000204,-0.00000833,0.00001254,-0.00001030,0.00000885,0
 .00000479,0.00000678,-0.00000994,-0.00002692,-0.00041132,0.00057399,-0
 .00043477,0.13817560,0.27588918,0.00870295,0.01647382,-0.03787670,0.00
 196906,0.00179822,0.00107841,-0.00044613,0.00120557,0.00753397,-0.0000
 8045,-0.00005370,-0.00025094,-0.00026173,0.00074409,0.00814016,-0.0007
 0513,-0.00098014,0.00338310,-0.00012284,0.00004449,0.00036977,0.000016
 35,0.00003937,-0.00007620,-0.00000017,-0.00003168,-0.00000060,-0.00001
 255,0.00000824,-0.00000687,0.00007411,-0.00008296,-0.00008034,0.000061
 85,-0.00002408,0.00008122,-0.00005174,0.00001045,-0.00012799,-0.000054
 86,-0.00000253,-0.00002378,-0.00001302,0.00000152,-0.00001763,-0.00000
 026,0.00000092,-0.00000304,0.00000008,0.00000342,-0.00000389,0.0000054
 7,0.00000120,-0.00000403,0.00000475,0.00001691,-0.00000369,-0.00001690
 ,0.00000317,-0.00001459,0.00001832,-0.00000376,-0.00000555,-0.00002739
 ,0.00002197,-0.00000478,0.00007528,-0.00032640,-0.00425924,-0.00920652
 ,-0.01836398,0.02684165,-0.00925545,-0.00344268,-0.00006414,-0.3324829
 5,0.02406318,-0.00812870,-0.01621013,-0.00820318,0.00050278,0.00152861
 ,-0.00214009,0.00000099,0.00045906,0.00032841,-0.00004363,0.00036033,0
 .00288216,-0.00036029,0.00006767,0.00011194,0.00005703,0.00001443,0.00
 001058,-0.00000595,0.00000361,-0.00000912,0.00000546,0.00006435,0.0000
 0514,0.00004228,-0.00015834,0.00001838,0.00001256,-0.00000950,0.000016
 14,-0.00007287,0.00000076,0.00001558,-0.00000521,0.00000980,0.00000297
 ,0.00002773,-0.00001566,-0.00000932,0.00001239,0.00000056,0.00001067,0
 .,-0.00001473,-0.00000647,-0.00000298,-0.00001883,0.00001437,0.0000043
 9,-0.00002290,-0.00002417,-0.00000139,-0.00000360,-0.00002122,0.000008
 58,-0.00001468,0.00001378,0.00000925,0.00000868,-0.00000323,-0.0000324
 5,-0.00050888,-0.00019152,0.00000157,0.00034812,0.00044978,0.00002153,
 0.35633824,0.02695472,0.00373552,0.00085732,0.02540725,-0.05762162,0.0
 0183143,-0.03578994,-0.00257444,-0.00093275,-0.00410189,-0.00304800,0.
 00125490,-0.00057612,-0.00112394,0.00009395,0.00217003,-0.00494263,0.0
 0110815,-0.00002771,0.00009605,-0.00021342,-0.00005940,0.00001554,0.00
 003447,-0.00000825,0.00000307,-0.00001854,-0.00002790,0.00001811,-0.00
 000300,0.00002973,0.00013780,-0.00003190,-0.00000674,-0.00000876,0.000
 03414,0.00010097,0.00006705,-0.00001253,-0.00000533,0.00000172,-0.0000
 4020,0.00001468,0.00000945,0.00000327,-0.00001280,0.00000590,-0.000002
 98,-0.00000259,0.00000544,0.00000011,-0.00000721,-0.00000184,0.0000008
 8,0.00001751,0.00000743,0.00000127,0.00001252,0.00001267,-0.00000926,-
 0.00000237,0.00000358,0.00000127,-0.00000124,-0.00001763,0.00000686,0.
 00135427,0.00009962,0.00002227,-0.00045142,0.00056509,-0.00032683,-0.0
 1396560,0.06450628,-0.00268315,0.00014618,0.00657316,-0.00836000,0.001
 72634,-0.04281614,0.00308555,-0.00017002,-0.00428039,0.00021534,0.0013
 9808,0.01102328,0.00025667,-0.00004018,-0.00016830,-0.00048032,0.00106
 463,0.00680779,-0.00012405,-0.00026316,-0.00183385,-0.00028758,0.00006
 525,0.00007774,-0.00002850,0.00002201,-0.00008551,0.00001993,-0.000096
 74,-0.00005179,0.00023756,0.00000660,0.00005155,0.00000970,-0.00000986
 ,0.00005231,0.00002706,0.00005211,-0.00000208,0.00001049,0.00002304,0.
 00000604,-0.00000326,-0.00000198,-0.00000211,-0.00001583,0.00001129,0.
 00000095,-0.00001595,0.00000960,0.00000294,0.00003287,-0.00000203,0.00
 001681,-0.00000360,0.00000171,-0.00000483,0.00000489,0.00000563,-0.000
 00310,-0.00000417,0.00000240,-0.00000704,-0.00000223,0.00000068,0.0000
 0340,-0.00011185,-0.00003955,-0.00044962,0.00010762,-0.00028498,-0.002
 98949,0.00803555,-0.00367386,0.02772514,-0.00071817,-0.00002126,0.0000
 2386,-0.00469301,-0.00043276,-0.00018964,-0.02577004,-0.03033862,0.002
 47354,-0.10276816,-0.10379870,0.00988066,0.00866056,0.01359283,-0.0015
 5258,-0.00139733,0.00301578,-0.00036089,0.00132190,0.00228853,-0.00031
 364,-0.00010687,-0.00004629,0.00007672,-0.00002440,0.00002974,0.000004
 50,-0.00007491,0.00003773,-0.00004903,0.00000310,-0.00048162,-0.000122
 88,0.00002069,-0.00000324,0.00007010,-0.00028775,-0.00030605,0.0001962
 1,-0.00000557,-0.00003618,0.00002914,0.00006217,-0.00003547,0.00000253
 ,0.00000548,-0.00000878,0.00000242,0.00001085,0.00000264,0.00000082,0.
 00000820,-0.00001460,-0.00000158,0.00000583,0.00003300,0.00000059,0.00
 000554,0.00003043,0.00001461,-0.00000052,-0.00001674,-0.00000958,-0.00
 001364,-0.00001956,0.00001120,0.00035591,0.00085980,-0.00008463,0.0001
 4264,-0.00021821,0.00004993,-0.00048857,-0.00101517,0.00007728,0.12574
 609,0.00110442,0.00018455,0.00000043,0.00156210,0.00326667,0.00088518,
 -0.00315570,0.00629548,-0.00131636,-0.10441537,-0.27844626,0.02288334,
 -0.01486953,-0.01744575,0.00218783,0.00399576,-0.00351583,0.00118068,-
 0.00213550,-0.00063714,-0.00005807,0.00011681,0.00005426,-0.00010191,0
 .00005129,0.00000494,0.00003536,0.00010496,-0.00003074,0.00000738,0.00
 020006,0.00091511,-0.00007897,-0.00017839,-0.00016471,0.00009627,0.001
 49131,0.00065973,-0.00028279,-0.00008264,0.00009832,-0.00016597,0.0000
 8993,0.00001342,0.00009575,-0.00002239,0.00002557,-0.00000344,0.000009
 53,-0.00001000,-0.00000613,-0.00000954,0.00001398,0.00001520,0.0000341
 9,0.00000102,-0.00001634,0.00012213,0.00006877,-0.00003553,-0.00001078
 ,0.00005801,-0.00001626,-0.00000958,-0.00007411,0.00005506,-0.00090168
 ,-0.00102909,0.00000621,-0.00006773,-0.00008207,-0.00017732,0.00007352
 ,0.00004855,0.00004681,0.11690280,0.28972733,-0.00005701,-0.00016970,-
 0.00047419,-0.00045159,0.00084665,0.01084176,-0.00010754,-0.00167748,-
 0.00416558,0.00996969,0.02286033,-0.04443070,0.00189818,0.00256298,0.0
 0682532,-0.00071887,0.00091308,0.00668755,-0.00014793,-0.00061400,-0.0
 0303801,-0.00019154,0.00039902,0.00014685,-0.00009625,-0.00002451,-0.0
 0012795,0.00004809,-0.00014995,-0.00004340,0.00008504,-0.00007381,0.00
 010072,-0.00000243,-0.00002507,0.00018507,-0.00006316,0.00036068,0.000
 02581,0.00001102,-0.00000472,-0.00000452,-0.00009946,-0.00000951,-0.00
 009005,-0.00000413,-0.00000588,-0.00001021,-0.00002714,0.00001783,0.00
 000264,0.00003951,0.00000086,0.00000569,-0.00001704,0.00000711,0.00000
 346,0.00007644,0.00005276,-0.00001237,-0.00002103,0.00002722,-0.000043
 55,-0.00003686,-0.00003981,-0.00001855,0.00011140,0.00009143,-0.000512
 87,0.00005676,-0.00012406,-0.00167894,-0.00002447,0.00001497,0.0003531
 3,-0.01022968,-0.02523643,0.02947291\\-0.00000129,-0.00000178,-0.00000
 157,0.00000868,0.00001151,0.00000145,-0.00000496,-0.00000099,-0.000008
 77,-0.00000594,-0.00000487,0.00000307,0.00000003,0.00000125,-0.0000005
 5,0.00000457,0.00000461,0.00000024,-0.00001051,0.00000278,0.00001857,-
 0.00000632,0.00000890,-0.00000514,0.00000034,0.00000210,-0.00000812,0.
 00001707,-0.00001028,0.00000256,0.00000159,-0.00001120,-0.00000035,0.0
 0000479,0.00000224,-0.00001122,0.00000117,-0.00000009,0.00000257,-0.00
 000335,0.00000032,-0.00000111,-0.00000219,0.00000071,0.00000146,-0.000
 00217,-0.00000157,-0.00000012,0.00000013,-0.00000243,0.00000017,0.0000
 0270,-0.00000072,0.00000022,-0.00000565,-0.00000023,0.00000176,-0.0000
 0001,-0.00000206,0.00000331,0.00000091,-0.00000160,0.00000003,0.000001
 72,-0.00000113,0.00000339,0.00000118,-0.00000256,0.00000010,-0.0000008
 0,-0.00000044,-0.00000161,-0.00000377,0.00000256,-0.00000018,0.0000020
 6,0.00000498,-0.00000016\\\@


 THE CHYMISTS ARE A STRANGE CLASS OF MORTALS IMPELLED
 BY AN ALMOST INSANE IMPULSE TO SEEK THEIR PLEASURE
 AMONG SMOKE AND VAPOR, SOOT AND FLAME, POISONS AND
 POVERTY; YET AMONG ALL THESE EVILS I SEEM TO LIVE
 SO SWEETLY, THAT I MAY DIE IF I WOULD CHANGE PLACES
 WITH THE PERSIAN KING.
   --  JOHANN JOACHIM BECHER, 1635-1682
 ACTA LABORATORII CHYMICA MONACENSIS, 1669
 Job cpu time:       0 days  7 hours 43 minutes 34.6 seconds.
 Elapsed time:       0 days  0 hours 16 minutes 35.0 seconds.
 File lengths (MBytes):  RWF=    616 Int=      0 D2E=      0 Chk=     20 Scr=      8
 Normal termination of Gaussian 16 at Tue Nov  1 11:56:55 2022.
