 Entering Gaussian System, Link 0=g16
 Input=NicWawB97XDaVDZOptFreq.gjf
 Output=NicWawB97XDaVDZOptFreq.log
 Initial command:
 /sw/contrib/gaussian/g16/A03/g16/l1.exe "/gscratch/scrubbed/gds001/Gau-24203.inp" -scrdir="/gscratch/scrubbed/gds001/"
 Entering Link 1 = /sw/contrib/gaussian/g16/A03/g16/l1.exe PID=     24205.
  
 Copyright (c) 1988,1990,1992,1993,1995,1998,2003,2009,2016,
            Gaussian, Inc.  All Rights Reserved.
  
 This is part of the Gaussian(R) 16 program.  It is based on
 the Gaussian(R) 09 system (copyright 2009, Gaussian, Inc.),
 the Gaussian(R) 03 system (copyright 2003, Gaussian, Inc.),
 the Gaussian(R) 98 system (copyright 1998, Gaussian, Inc.),
 the Gaussian(R) 94 system (copyright 1995, Gaussian, Inc.),
 the Gaussian 92(TM) system (copyright 1992, Gaussian, Inc.),
 the Gaussian 90(TM) system (copyright 1990, Gaussian, Inc.),
 the Gaussian 88(TM) system (copyright 1988, Gaussian, Inc.),
 the Gaussian 86(TM) system (copyright 1986, Carnegie Mellon
 University), and the Gaussian 82(TM) system (copyright 1983,
 Carnegie Mellon University). Gaussian is a federally registered
 trademark of Gaussian, Inc.
  
 This software contains proprietary and confidential information,
 including trade secrets, belonging to Gaussian, Inc.
  
 This software is provided under written license and may be
 used, copied, transmitted, or stored only in accord with that
 written license.
  
 The following legend is applicable only to US Government
 contracts under FAR:
  
                    RESTRICTED RIGHTS LEGEND
  
 Use, reproduction and disclosure by the US Government is
 subject to restrictions as set forth in subparagraphs (a)
 and (c) of the Commercial Computer Software - Restricted
 Rights clause in FAR 52.227-19.
  
 Gaussian, Inc.
 340 Quinnipiac St., Bldg. 40, Wallingford CT 06492
  
  
 ---------------------------------------------------------------
 Warning -- This program may not be used in any manner that
 competes with the business of Gaussian, Inc. or will provide
 assistance to any competitor of Gaussian, Inc.  The licensee
 of this program is prohibited from giving any competitor of
 Gaussian, Inc. access to this program.  By using this program,
 the user acknowledges that Gaussian, Inc. is engaged in the
 business of creating and licensing software in the field of
 computational chemistry and represents and warrants to the
 licensee that it is not a competitor of Gaussian, Inc. and that
 it will not use this program in any manner prohibited above.
 ---------------------------------------------------------------
  

 Cite this work as:
 Gaussian 16, Revision A.03,
 M. J. Frisch, G. W. Trucks, H. B. Schlegel, G. E. Scuseria, 
 M. A. Robb, J. R. Cheeseman, G. Scalmani, V. Barone, 
 G. A. Petersson, H. Nakatsuji, X. Li, M. Caricato, A. V. Marenich, 
 J. Bloino, B. G. Janesko, R. Gomperts, B. Mennucci, H. P. Hratchian, 
 J. V. Ortiz, A. F. Izmaylov, J. L. Sonnenberg, D. Williams-Young, 
 F. Ding, F. Lipparini, F. Egidi, J. Goings, B. Peng, A. Petrone, 
 T. Henderson, D. Ranasinghe, V. G. Zakrzewski, J. Gao, N. Rega, 
 G. Zheng, W. Liang, M. Hada, M. Ehara, K. Toyota, R. Fukuda, 
 J. Hasegawa, M. Ishida, T. Nakajima, Y. Honda, O. Kitao, H. Nakai, 
 T. Vreven, K. Throssell, J. A. Montgomery, Jr., J. E. Peralta, 
 F. Ogliaro, M. J. Bearpark, J. J. Heyd, E. N. Brothers, K. N. Kudin, 
 V. N. Staroverov, T. A. Keith, R. Kobayashi, J. Normand, 
 K. Raghavachari, A. P. Rendell, J. C. Burant, S. S. Iyengar, 
 J. Tomasi, M. Cossi, J. M. Millam, M. Klene, C. Adamo, R. Cammi, 
 J. W. Ochterski, R. L. Martin, K. Morokuma, O. Farkas, 
 J. B. Foresman, and D. J. Fox, Gaussian, Inc., Wallingford CT, 2016.
 
 ******************************************
 Gaussian 16:  ES64L-G16RevA.03 25-Dec-2016
                 1-Nov-2022 
 ******************************************
 %nprocshared=28
 Will use up to   28 processors via shared memory.
 %mem=41GB
 -----------------------------
 # wB97XD/aug-cc-pVDZ opt freq
 -----------------------------
 1/18=20,19=15,26=3,38=1/1,3;
 2/9=110,12=2,17=6,18=5,40=1/2;
 3/5=16,7=10,11=2,25=1,30=1,71=1,74=-58/1,2,3;
 4//1;
 5/5=2,38=5/2;
 6/7=2,8=2,9=2,10=2,28=1/1;
 7//1,2,3,16;
 1/18=20,19=15,26=3/3(2);
 2/9=110/2;
 99//99;
 2/9=110/2;
 3/5=16,7=10,11=2,25=1,30=1,71=1,74=-58/1,2,3;
 4/5=5,16=3,69=1/1;
 5/5=2,38=5/2;
 7//1,2,3,16;
 1/18=20,19=15,26=3/3(-5);
 2/9=110/2;
 6/7=2,8=2,9=2,10=2,19=2,28=1/1;
 99/9=1/99;
 ----
 blah
 ----
 Symbolic Z-matrix:
 Charge =  0 Multiplicity = 1
 N1                    2.40241   0.23092  -0.33926 
 C2                    3.19063  -0.80079   0.00865 
 C3                    2.61164  -2.02893   0.26372 
 C4                    1.22059  -2.15554   0.19133 
 C5                    0.42516  -1.06712  -0.16707 
 C6                    1.07445   0.12442  -0.45355 
 C7                   -1.08397  -1.09781  -0.20948 
 C8                   -1.6975   -0.81376  -1.60361 
 C9                   -2.87393   0.14992  -1.32856 
 C10                  -3.02905   0.11359   0.18867 
 N11                  -1.6494   -0.05524   0.66531 
 C12                  -1.56177  -0.38781   2.08326 
 H13                   4.25716  -0.60524   0.0818 
 H14                   3.2403   -2.87158   0.54148 
 H15                   0.75369  -3.112     0.42839 
 H16                   0.55399   1.02823  -0.75501 
 H17                  -1.41505  -2.09367   0.13995 
 H18                  -0.96244  -0.36684  -2.28301 
 H19                  -2.02786  -1.75107  -2.06333 
 H20                  -2.62165   1.16531  -1.65615 
 H21                  -3.79113  -0.1503   -1.84436 
 H22                  -3.46686   1.02629   0.61085 
 H23                  -3.65563  -0.74174   0.5035 
 H24                  -2.07624  -1.33751   2.31624 
 H25                  -2.02229   0.411     2.67602 
 H26                  -0.51063  -0.47004   2.38772 
 

 GradGradGradGradGradGradGradGradGradGradGradGradGradGradGradGradGradGrad
 Berny optimization.
 Initialization pass.
                           ----------------------------
                           !    Initial Parameters    !
                           ! (Angstroms and Degrees)  !
 --------------------------                            --------------------------
 ! Name  Definition              Value          Derivative Info.                !
 --------------------------------------------------------------------------------
 ! R1    R(1,2)                  1.3442         estimate D2E/DX2                !
 ! R2    R(1,6)                  1.3371         estimate D2E/DX2                !
 ! R3    R(2,3)                  1.3815         estimate D2E/DX2                !
 ! R4    R(2,13)                 1.0868         estimate D2E/DX2                !
 ! R5    R(3,4)                  1.3987         estimate D2E/DX2                !
 ! R6    R(3,14)                 1.0874         estimate D2E/DX2                !
 ! R7    R(4,5)                  1.3949         estimate D2E/DX2                !
 ! R8    R(4,15)                 1.0904         estimate D2E/DX2                !
 ! R9    R(5,6)                  1.3869         estimate D2E/DX2                !
 ! R10   R(5,7)                  1.51           estimate D2E/DX2                !
 ! R11   R(6,16)                 1.0856         estimate D2E/DX2                !
 ! R12   R(7,8)                  1.5494         estimate D2E/DX2                !
 ! R13   R(7,11)                 1.4737         estimate D2E/DX2                !
 ! R14   R(7,17)                 1.1061         estimate D2E/DX2                !
 ! R15   R(8,9)                  1.5454         estimate D2E/DX2                !
 ! R16   R(8,18)                 1.0962         estimate D2E/DX2                !
 ! R17   R(8,19)                 1.095          estimate D2E/DX2                !
 ! R18   R(9,10)                 1.5256         estimate D2E/DX2                !
 ! R19   R(9,20)                 1.0964         estimate D2E/DX2                !
 ! R20   R(9,21)                 1.0943         estimate D2E/DX2                !
 ! R21   R(10,11)                1.4694         estimate D2E/DX2                !
 ! R22   R(10,22)                1.0968         estimate D2E/DX2                !
 ! R23   R(10,23)                1.106          estimate D2E/DX2                !
 ! R24   R(11,12)                1.4591         estimate D2E/DX2                !
 ! R25   R(12,24)                1.1049         estimate D2E/DX2                !
 ! R26   R(12,25)                1.0961         estimate D2E/DX2                !
 ! R27   R(12,26)                1.0974         estimate D2E/DX2                !
 ! A1    A(2,1,6)              122.9136         estimate D2E/DX2                !
 ! A2    A(1,2,3)              118.9707         estimate D2E/DX2                !
 ! A3    A(1,2,13)             117.0515         estimate D2E/DX2                !
 ! A4    A(3,2,13)             123.9742         estimate D2E/DX2                !
 ! A5    A(2,3,4)              119.1912         estimate D2E/DX2                !
 ! A6    A(2,3,14)             119.5878         estimate D2E/DX2                !
 ! A7    A(4,3,14)             121.202          estimate D2E/DX2                !
 ! A8    A(3,4,5)              120.6498         estimate D2E/DX2                !
 ! A9    A(3,4,15)             119.6038         estimate D2E/DX2                !
 ! A10   A(5,4,15)             119.7429         estimate D2E/DX2                !
 ! A11   A(4,5,6)              117.1604         estimate D2E/DX2                !
 ! A12   A(4,5,7)              124.1417         estimate D2E/DX2                !
 ! A13   A(6,5,7)              118.6562         estimate D2E/DX2                !
 ! A14   A(1,6,5)              121.047          estimate D2E/DX2                !
 ! A15   A(1,6,16)             115.6929         estimate D2E/DX2                !
 ! A16   A(5,6,16)             123.2413         estimate D2E/DX2                !
 ! A17   A(5,7,8)              114.6633         estimate D2E/DX2                !
 ! A18   A(5,7,11)             110.6332         estimate D2E/DX2                !
 ! A19   A(5,7,17)             107.9736         estimate D2E/DX2                !
 ! A20   A(8,7,11)             104.6239         estimate D2E/DX2                !
 ! A21   A(8,7,17)             109.316          estimate D2E/DX2                !
 ! A22   A(11,7,17)            109.5459         estimate D2E/DX2                !
 ! A23   A(7,8,9)              104.8099         estimate D2E/DX2                !
 ! A24   A(7,8,18)             111.5235         estimate D2E/DX2                !
 ! A25   A(7,8,19)             109.8948         estimate D2E/DX2                !
 ! A26   A(9,8,18)             111.5022         estimate D2E/DX2                !
 ! A27   A(9,8,19)             112.2612         estimate D2E/DX2                !
 ! A28   A(18,8,19)            106.9225         estimate D2E/DX2                !
 ! A29   A(8,9,10)             103.8604         estimate D2E/DX2                !
 ! A30   A(8,9,20)             110.4366         estimate D2E/DX2                !
 ! A31   A(8,9,21)             112.5247         estimate D2E/DX2                !
 ! A32   A(10,9,20)            110.0365         estimate D2E/DX2                !
 ! A33   A(10,9,21)            112.15           estimate D2E/DX2                !
 ! A34   A(20,9,21)            107.826          estimate D2E/DX2                !
 ! A35   A(9,10,11)            103.2894         estimate D2E/DX2                !
 ! A36   A(9,10,22)            113.8028         estimate D2E/DX2                !
 ! A37   A(9,10,23)            111.0455         estimate D2E/DX2                !
 ! A38   A(11,10,22)           110.215          estimate D2E/DX2                !
 ! A39   A(11,10,23)           110.5319         estimate D2E/DX2                !
 ! A40   A(22,10,23)           107.9287         estimate D2E/DX2                !
 ! A41   A(7,11,10)            104.4167         estimate D2E/DX2                !
 ! A42   A(7,11,12)            113.1143         estimate D2E/DX2                !
 ! A43   A(10,11,12)           113.4416         estimate D2E/DX2                !
 ! A44   A(11,12,24)           111.8918         estimate D2E/DX2                !
 ! A45   A(11,12,25)           109.5232         estimate D2E/DX2                !
 ! A46   A(11,12,26)           110.134          estimate D2E/DX2                !
 ! A47   A(24,12,25)           108.4643         estimate D2E/DX2                !
 ! A48   A(24,12,26)           108.8489         estimate D2E/DX2                !
 ! A49   A(25,12,26)           107.8784         estimate D2E/DX2                !
 ! D1    D(6,1,2,3)             -0.1201         estimate D2E/DX2                !
 ! D2    D(6,1,2,13)          -179.4579         estimate D2E/DX2                !
 ! D3    D(2,1,6,5)              2.3658         estimate D2E/DX2                !
 ! D4    D(2,1,6,16)          -179.1644         estimate D2E/DX2                !
 ! D5    D(1,2,3,4)             -1.8497         estimate D2E/DX2                !
 ! D6    D(1,2,3,14)           179.7198         estimate D2E/DX2                !
 ! D7    D(13,2,3,4)           177.4391         estimate D2E/DX2                !
 ! D8    D(13,2,3,14)           -0.9914         estimate D2E/DX2                !
 ! D9    D(2,3,4,5)              1.6364         estimate D2E/DX2                !
 ! D10   D(2,3,4,15)          -177.6798         estimate D2E/DX2                !
 ! D11   D(14,3,4,5)          -179.9593         estimate D2E/DX2                !
 ! D12   D(14,3,4,15)            0.7246         estimate D2E/DX2                !
 ! D13   D(3,4,5,6)              0.492          estimate D2E/DX2                !
 ! D14   D(3,4,5,7)           -177.1213         estimate D2E/DX2                !
 ! D15   D(15,4,5,6)           179.8072         estimate D2E/DX2                !
 ! D16   D(15,4,5,7)             2.1939         estimate D2E/DX2                !
 ! D17   D(4,5,6,1)             -2.4741         estimate D2E/DX2                !
 ! D18   D(4,5,6,16)           179.1746         estimate D2E/DX2                !
 ! D19   D(7,5,6,1)            175.2749         estimate D2E/DX2                !
 ! D20   D(7,5,6,16)            -3.0764         estimate D2E/DX2                !
 ! D21   D(4,5,7,8)           -119.1024         estimate D2E/DX2                !
 ! D22   D(4,5,7,11)           122.8792         estimate D2E/DX2                !
 ! D23   D(4,5,7,17)             3.0123         estimate D2E/DX2                !
 ! D24   D(6,5,7,8)             63.3176         estimate D2E/DX2                !
 ! D25   D(6,5,7,11)           -54.7008         estimate D2E/DX2                !
 ! D26   D(6,5,7,17)          -174.5677         estimate D2E/DX2                !
 ! D27   D(5,7,8,9)           -136.4186         estimate D2E/DX2                !
 ! D28   D(5,7,8,18)           -15.6331         estimate D2E/DX2                !
 ! D29   D(5,7,8,19)           102.7575         estimate D2E/DX2                !
 ! D30   D(11,7,8,9)           -15.0495         estimate D2E/DX2                !
 ! D31   D(11,7,8,18)          105.736          estimate D2E/DX2                !
 ! D32   D(11,7,8,19)         -135.8733         estimate D2E/DX2                !
 ! D33   D(17,7,8,9)           102.1986         estimate D2E/DX2                !
 ! D34   D(17,7,8,18)         -137.0159         estimate D2E/DX2                !
 ! D35   D(17,7,8,19)          -18.6252         estimate D2E/DX2                !
 ! D36   D(5,7,11,10)          161.0773         estimate D2E/DX2                !
 ! D37   D(5,7,11,12)          -75.1207         estimate D2E/DX2                !
 ! D38   D(8,7,11,10)           37.0862         estimate D2E/DX2                !
 ! D39   D(8,7,11,12)          160.8882         estimate D2E/DX2                !
 ! D40   D(17,7,11,10)         -80.0038         estimate D2E/DX2                !
 ! D41   D(17,7,11,12)          43.7981         estimate D2E/DX2                !
 ! D42   D(7,8,9,10)           -11.3753         estimate D2E/DX2                !
 ! D43   D(7,8,9,20)           106.5643         estimate D2E/DX2                !
 ! D44   D(7,8,9,21)          -132.8915         estimate D2E/DX2                !
 ! D45   D(18,8,9,10)         -132.1748         estimate D2E/DX2                !
 ! D46   D(18,8,9,20)          -14.2352         estimate D2E/DX2                !
 ! D47   D(18,8,9,21)          106.309          estimate D2E/DX2                !
 ! D48   D(19,8,9,10)          107.871          estimate D2E/DX2                !
 ! D49   D(19,8,9,20)         -134.1895         estimate D2E/DX2                !
 ! D50   D(19,8,9,21)          -13.6453         estimate D2E/DX2                !
 ! D51   D(8,9,10,11)           33.9585         estimate D2E/DX2                !
 ! D52   D(8,9,10,22)          153.447          estimate D2E/DX2                !
 ! D53   D(8,9,10,23)          -84.5323         estimate D2E/DX2                !
 ! D54   D(20,9,10,11)         -84.2576         estimate D2E/DX2                !
 ! D55   D(20,9,10,22)          35.2309         estimate D2E/DX2                !
 ! D56   D(20,9,10,23)         157.2516         estimate D2E/DX2                !
 ! D57   D(21,9,10,11)         155.7246         estimate D2E/DX2                !
 ! D58   D(21,9,10,22)         -84.787          estimate D2E/DX2                !
 ! D59   D(21,9,10,23)          37.2338         estimate D2E/DX2                !
 ! D60   D(9,10,11,7)          -44.7215         estimate D2E/DX2                !
 ! D61   D(9,10,11,12)        -168.3124         estimate D2E/DX2                !
 ! D62   D(22,10,11,7)        -166.6519         estimate D2E/DX2                !
 ! D63   D(22,10,11,12)         69.7572         estimate D2E/DX2                !
 ! D64   D(23,10,11,7)          74.1259         estimate D2E/DX2                !
 ! D65   D(23,10,11,12)        -49.465          estimate D2E/DX2                !
 ! D66   D(7,11,12,24)         -58.1285         estimate D2E/DX2                !
 ! D67   D(7,11,12,25)        -178.4351         estimate D2E/DX2                !
 ! D68   D(7,11,12,26)          63.0806         estimate D2E/DX2                !
 ! D69   D(10,11,12,24)         60.5654         estimate D2E/DX2                !
 ! D70   D(10,11,12,25)        -59.7412         estimate D2E/DX2                !
 ! D71   D(10,11,12,26)       -178.2255         estimate D2E/DX2                !
 --------------------------------------------------------------------------------
 Trust Radius=3.00D-01 FncErr=1.00D-07 GrdErr=1.00D-06 EigMax=2.50D+02 EigMin=1.00D-04
 Number of steps in this run=    156 maximum allowed number of steps=    156.
 GradGradGradGradGradGradGradGradGradGradGradGradGradGradGradGradGradGrad

                          Input orientation:                          
 ---------------------------------------------------------------------
 Center     Atomic      Atomic             Coordinates (Angstroms)
 Number     Number       Type             X           Y           Z
 ---------------------------------------------------------------------
      1          7           0        2.402410    0.230923   -0.339263
      2          6           0        3.190629   -0.800793    0.008646
      3          6           0        2.611637   -2.028931    0.263715
      4          6           0        1.220588   -2.155537    0.191329
      5          6           0        0.425161   -1.067115   -0.167067
      6          6           0        1.074455    0.124422   -0.453549
      7          6           0       -1.083966   -1.097811   -0.209480
      8          6           0       -1.697502   -0.813756   -1.603608
      9          6           0       -2.873931    0.149915   -1.328559
     10          6           0       -3.029048    0.113586    0.188674
     11          7           0       -1.649395   -0.055239    0.665310
     12          6           0       -1.561765   -0.387809    2.083262
     13          1           0        4.257162   -0.605244    0.081796
     14          1           0        3.240296   -2.871582    0.541484
     15          1           0        0.753685   -3.112001    0.428388
     16          1           0        0.553991    1.028228   -0.755009
     17          1           0       -1.415053   -2.093665    0.139946
     18          1           0       -0.962444   -0.366844   -2.283007
     19          1           0       -2.027857   -1.751068   -2.063333
     20          1           0       -2.621645    1.165312   -1.656151
     21          1           0       -3.791125   -0.150304   -1.844363
     22          1           0       -3.466855    1.026290    0.610853
     23          1           0       -3.655629   -0.741743    0.503504
     24          1           0       -2.076241   -1.337506    2.316239
     25          1           0       -2.022292    0.410995    2.676015
     26          1           0       -0.510627   -0.470043    2.387719
 ---------------------------------------------------------------------
                    Distance matrix (angstroms):
                    1          2          3          4          5
     1  N    0.000000
     2  C    1.344161   0.000000
     3  C    2.348254   1.381526   0.000000
     4  C    2.715405   2.397867   1.398673   0.000000
     5  C    2.371512   2.783813   2.427208   1.394924   0.000000
     6  C    1.337112   2.355385   2.741227   2.373907   1.386872
     7  C    3.733255   4.290450   3.840362   2.567178   1.510035
     8  C    4.415790   5.147170   4.851002   3.679324   2.575566
     9  C    5.368896   6.282583   6.113441   4.938649   3.703273
    10  C    5.458317   6.289108   6.034346   4.817503   3.667719
    11  N    4.184278   4.940940   4.713081   3.587856   2.453676
    12  C    4.686805   5.201907   4.839558   3.800758   3.077875
    13  H    2.077636   1.086776   2.183514   3.411186   3.867750
    14  H    3.332162   2.138820   1.087395   2.171301   3.418059
    15  H    3.805617   3.384754   2.156883   1.090421   2.155007
    16  H    2.055527   3.298537   3.823340   3.387664   2.180077
    17  H    4.495150   4.785506   4.029112   2.636868   2.129425
    18  H    3.931629   4.763192   4.692801   3.753317   2.625458
    19  H    5.150531   5.694622   5.197813   3.974857   3.175045
    20  H    5.277159   6.357645   6.424665   5.404070   4.060065
    21  H    6.385181   7.252701   6.997756   5.769079   4.629355
    22  H    5.998633   6.929861   6.811971   5.680858   4.487237
    23  H    6.193236   6.864373   6.402576   5.086625   4.148298
    24  H    5.437828   5.775203   5.164022   4.006682   3.535100
    25  H    5.357454   5.979785   5.765911   4.824627   4.032115
    26  H    4.051366   4.412333   4.085347   3.265291   2.785521
                    6          7          8          9         10
     6  C    0.000000
     7  C    2.492429   0.000000
     8  C    3.144290   1.549421   0.000000
     9  C    4.044261   2.452169   1.545412   0.000000
    10  C    4.153469   2.325802   2.417696   1.525574   0.000000
    11  N    2.950166   1.473745   2.392833   2.348849   1.469397
    12  C    3.694245   2.447256   3.713875   3.694787   2.448220
    13  H    3.308871   5.371695   6.192099   7.308341   7.322363
    14  H    3.828446   4.733862   5.763499   7.071794   6.952724
    15  H    3.369739   2.800143   3.926736   5.185225   4.977042
    16  H    1.085646   2.738713   3.030222   3.584835   3.816448
    17  H    3.386709   1.106093   2.181267   3.052619   2.734833
    18  H    2.781585   2.201952   1.096186   2.198134   3.257433
    19  H    3.966511   2.180469   1.095005   2.206688   3.090446
    20  H    4.023787   3.095002   2.184837   1.096356   2.162287
    21  H    5.067909   3.301412   2.209387   1.094271   2.187153
    22  H    4.750770   3.295893   3.379381   2.209278   1.096786
    23  H    4.903049   2.692319   2.877389   2.182329   1.106033
    24  H    4.442504   2.724210   3.972777   4.016626   2.745914
    25  H    4.412045   3.388662   4.463259   4.102446   2.699792
    26  H    3.307367   2.732810   4.178218   4.447502   3.393945
                   11         12         13         14         15
    11  N    0.000000
    12  C    1.459065   0.000000
    13  H    5.960739   6.157358   0.000000
    14  H    5.644130   5.621921   2.526186   0.000000
    15  H    3.895474   3.939688   4.321841   2.500765   0.000000
    16  H    2.836568   3.812790   4.133031   4.909750   4.310661
    17  H    2.118043   2.589970   5.864538   4.736946   2.413220
    18  H    3.043283   4.407259   5.735278   5.649291   4.222872
    19  H    3.234898   4.389757   6.739136   5.982814   3.974643
    20  H    2.797176   4.185539   7.312545   7.449058   5.833829
    21  H    3.300682   4.522465   8.288063   7.908129   5.881526
    22  H    2.115616   2.792317   7.912158   7.757841   5.913688
    23  H    2.126604   2.646728   7.925196   7.217440   5.006577
    24  H    2.133535   1.104938   6.755808   5.811085   3.836834
    25  H    2.097465   1.096143   6.869808   6.559449   5.016909
    26  H    2.106074   1.097428   5.297865   4.821348   3.523834
                   16         17         18         19         20
    16  H    0.000000
    17  H    3.797933   0.000000
    18  H    2.565264   3.009563   0.000000
    19  H    4.012747   2.312432   1.760522   0.000000
    20  H    3.303863   3.911874   2.343800   3.003940   0.000000
    21  H    4.632026   3.655113   2.870668   2.391549   1.770297
    22  H    4.246503   3.763743   4.072754   4.115301   2.423430
    23  H    4.736829   2.641978   3.893384   3.202660   3.061061
    24  H    4.684803   2.396914   4.830713   4.399321   4.726674
    25  H    4.334759   3.615758   5.130323   5.209219   4.438004
    26  H    3.640737   2.916611   4.693663   4.873897   4.845995
                   21         22         23         24         25
    21  H    0.000000
    22  H    2.741826   0.000000
    23  H    2.425003   1.781320   0.000000
    24  H    4.654126   3.229502   2.476976   0.000000
    25  H    4.886476   2.594271   2.952355   1.785947   0.000000
    26  H    5.364179   3.759727   3.676292   1.791298   1.773266
                   26
    26  H    0.000000
 Stoichiometry    C10H14N2
 Framework group  C1[X(C10H14N2)]
 Deg. of freedom    72
 Full point group                 C1      NOp   1
 Largest Abelian subgroup         C1      NOp   1
 Largest concise Abelian subgroup C1      NOp   1
                         Standard orientation:                         
 ---------------------------------------------------------------------
 Center     Atomic      Atomic             Coordinates (Angstroms)
 Number     Number       Type             X           Y           Z
 ---------------------------------------------------------------------
      1          7           0        2.396759   -0.624483   -1.251126
      2          6           0        3.374302   -0.161173   -0.453303
      3          6           0        3.042360    0.335430    0.792416
      4          6           0        1.697238    0.378665    1.173288
      5          6           0        0.701736   -0.104034    0.323706
      6          6           0        1.108402   -0.630064   -0.893393
      7          6           0       -0.776076   -0.039590    0.627227
      8          6           0       -1.480104   -1.417427    0.708559
      9          6           0       -2.804440   -1.230663   -0.065750
     10          6           0       -2.896874    0.277912   -0.273195
     11          7           0       -1.494003    0.682785   -0.437985
     12          6           0       -1.296603    2.127419   -0.383803
     13          1           0        4.387981   -0.193564   -0.843800
     14          1           0        3.825696    0.708569    1.447839
     15          1           0        1.424369    0.804261    2.139429
     16          1           0        0.419148   -1.044050   -1.622894
     17          1           0       -0.904328    0.494062    1.587544
     18          1           0       -0.864919   -2.210078    0.267114
     19          1           0       -1.646843   -1.689425    1.756057
     20          1           0       -2.756431   -1.740865   -1.034968
     21          1           0       -3.667565   -1.625935    0.478497
     22          1           0       -3.481251    0.568534   -1.154660
     23          1           0       -3.342580    0.773627    0.609371
     24          1           0       -1.617588    2.551044    0.584907
     25          1           0       -1.876197    2.606507   -1.181347
     26          1           0       -0.238433    2.370355   -0.543823
 ---------------------------------------------------------------------
 Rotational constants (GHZ):           2.0209984           0.5941065           0.5564572
 Standard basis: Aug-CC-pVDZ (5D, 7F)
 There are   426 symmetry adapted cartesian basis functions of A   symmetry.
 There are   402 symmetry adapted basis functions of A   symmetry.
   402 basis functions,   670 primitive gaussians,   426 cartesian basis functions
    44 alpha electrons       44 beta electrons
       nuclear repulsion energy       698.5172315576 Hartrees.
 NAtoms=   26 NActive=   26 NUniq=   26 SFac= 1.00D+00 NAtFMM=   60 NAOKFM=F Big=F
 Integral buffers will be    131072 words long.
 Raffenetti 2 integral format.
 Two-electron integral symmetry is turned on.
 Nuclear repulsion after empirical dispersion term =      698.4988634049 Hartrees.
 One-electron integrals computed using PRISM.
 NBasis=   402 RedAO= T EigKep=  2.88D-06  NBF=   402
 NBsUse=   402 1.00D-06 EigRej= -1.00D+00 NBFU=   402
 ExpMin= 2.97D-02 ExpMax= 9.05D+03 ExpMxC= 3.09D+02 IAcc=3 IRadAn=         5 AccDes= 0.00D+00
 Harris functional with IExCor= 4639 and IRadAn=       5 diagonalized for initial guess.
 HarFok:  IExCor= 4639 AccDes= 0.00D+00 IRadAn=         5 IDoV= 1 UseB2=F ITyADJ=14
 ICtDFT=  3500011 ScaDFX=  1.000000  1.000000  1.000000  1.000000
 FoFCou: FMM=F IPFlag=           0 FMFlag=      100000 FMFlg1=           0
         NFxFlg=           0 DoJE=T BraDBF=F KetDBF=T FulRan=T
         wScrn=  0.000000 ICntrl=       500 IOpCl=  0 I1Cent=   200000004 NGrid=           0
         NMat0=    1 NMatS0=      1 NMatT0=    0 NMatD0=    1 NMtDS0=    0 NMtDT0=    0
 Petite list used in FoFCou.
 Requested convergence on RMS density matrix=1.00D-08 within 128 cycles.
 Requested convergence on MAX density matrix=1.00D-06.
 Requested convergence on             energy=1.00D-06.
 No special actions if energy rises.
 SCF Done:  E(RwB97XD) =  -498.879704871     A.U. after   14 cycles
            NFock= 14  Conv=0.58D-08     -V/T= 2.0066

 **********************************************************************

            Population analysis using the SCF density.

 **********************************************************************

 Orbital symmetries:
       Occupied  (A) (A) (A) (A) (A) (A) (A) (A) (A) (A) (A) (A)
                 (A) (A) (A) (A) (A) (A) (A) (A) (A) (A) (A) (A)
                 (A) (A) (A) (A) (A) (A) (A) (A) (A) (A) (A) (A)
                 (A) (A) (A) (A) (A) (A) (A) (A)
       Virtual   (A) (A) (A) (A) (A) (A) (A) (A) (A) (A) (A) (A)
                 (A) (A) (A) (A) (A) (A) (A) (A) (A) (A) (A) (A)
                 (A) (A) (A) (A) (A) (A) (A) (A) (A) (A) (A) (A)
                 (A) (A) (A) (A) (A) (A) (A) (A) (A) (A) (A) (A)
                 (A) (A) (A) (A) (A) (A) (A) (A) (A) (A) (A) (A)
                 (A) (A) (A) (A) (A) (A) (A) (A) (A) (A) (A) (A)
                 (A) (A) (A) (A) (A) (A) (A) (A) (A) (A) (A) (A)
                 (A) (A) (A) (A) (A) (A) (A) (A) (A) (A) (A) (A)
                 (A) (A) (A) (A) (A) (A) (A) (A) (A) (A) (A) (A)
                 (A) (A) (A) (A) (A) (A) (A) (A) (A) (A) (A) (A)
                 (A) (A) (A) (A) (A) (A) (A) (A) (A) (A) (A) (A)
                 (A) (A) (A) (A) (A) (A) (A) (A) (A) (A) (A) (A)
                 (A) (A) (A) (A) (A) (A) (A) (A) (A) (A) (A) (A)
                 (A) (A) (A) (A) (A) (A) (A) (A) (A) (A) (A) (A)
                 (A) (A) (A) (A) (A) (A) (A) (A) (A) (A) (A) (A)
                 (A) (A) (A) (A) (A) (A) (A) (A) (A) (A) (A) (A)
                 (A) (A) (A) (A) (A) (A) (A) (A) (A) (A) (A) (A)
                 (A) (A) (A) (A) (A) (A) (A) (A) (A) (A) (A) (A)
                 (A) (A) (A) (A) (A) (A) (A) (A) (A) (A) (A) (A)
                 (A) (A) (A) (A) (A) (A) (A) (A) (A) (A) (A) (A)
                 (A) (A) (A) (A) (A) (A) (A) (A) (A) (A) (A) (A)
                 (A) (A) (A) (A) (A) (A) (A) (A) (A) (A) (A) (A)
                 (A) (A) (A) (A) (A) (A) (A) (A) (A) (A) (A) (A)
                 (A) (A) (A) (A) (A) (A) (A) (A) (A) (A) (A) (A)
                 (A) (A) (A) (A) (A) (A) (A) (A) (A) (A) (A) (A)
                 (A) (A) (A) (A) (A) (A) (A) (A) (A) (A) (A) (A)
                 (A) (A) (A) (A) (A) (A) (A) (A) (A) (A) (A) (A)
                 (A) (A) (A) (A) (A) (A) (A) (A) (A) (A) (A) (A)
                 (A) (A) (A) (A) (A) (A) (A) (A) (A) (A) (A) (A)
                 (A) (A) (A) (A) (A) (A) (A) (A) (A) (A)
 The electronic state is 1-A.
 Alpha  occ. eigenvalues --  -14.44609 -14.44043 -10.33183 -10.33087 -10.32715
 Alpha  occ. eigenvalues --  -10.31905 -10.31767 -10.31447 -10.31065 -10.30834
 Alpha  occ. eigenvalues --  -10.29877 -10.29673  -1.04719  -1.03571  -0.91046
 Alpha  occ. eigenvalues --   -0.88786  -0.87619  -0.81809  -0.77472  -0.72871
 Alpha  occ. eigenvalues --   -0.72022  -0.68148  -0.66498  -0.61514  -0.58874
 Alpha  occ. eigenvalues --   -0.57901  -0.56692  -0.53412  -0.53089  -0.52186
 Alpha  occ. eigenvalues --   -0.50344  -0.48865  -0.48314  -0.47629  -0.46769
 Alpha  occ. eigenvalues --   -0.44638  -0.43809  -0.42652  -0.42385  -0.40952
 Alpha  occ. eigenvalues --   -0.36000  -0.33484  -0.32634  -0.30414
 Alpha virt. eigenvalues --    0.03280   0.03883   0.03991   0.04512   0.04547
 Alpha virt. eigenvalues --    0.04831   0.05553   0.05788   0.06513   0.06656
 Alpha virt. eigenvalues --    0.07209   0.07667   0.08122   0.08674   0.09421
 Alpha virt. eigenvalues --    0.10032   0.10978   0.11999   0.12520   0.12870
 Alpha virt. eigenvalues --    0.13211   0.13348   0.13923   0.14383   0.14540
 Alpha virt. eigenvalues --    0.14752   0.15191   0.15351   0.15484   0.16125
 Alpha virt. eigenvalues --    0.16273   0.16665   0.16868   0.17487   0.18129
 Alpha virt. eigenvalues --    0.18174   0.18621   0.19014   0.19376   0.19503
 Alpha virt. eigenvalues --    0.19952   0.20068   0.20643   0.21046   0.21468
 Alpha virt. eigenvalues --    0.21951   0.22501   0.23108   0.23694   0.24802
 Alpha virt. eigenvalues --    0.25340   0.25745   0.26187   0.26324   0.27134
 Alpha virt. eigenvalues --    0.27462   0.27736   0.28600   0.28944   0.29206
 Alpha virt. eigenvalues --    0.29639   0.30328   0.30533   0.30786   0.31396
 Alpha virt. eigenvalues --    0.31603   0.32802   0.32888   0.32982   0.33628
 Alpha virt. eigenvalues --    0.33814   0.34512   0.34866   0.35336   0.36266
 Alpha virt. eigenvalues --    0.36707   0.37006   0.37644   0.37903   0.38463
 Alpha virt. eigenvalues --    0.38983   0.39440   0.40064   0.40737   0.40987
 Alpha virt. eigenvalues --    0.41672   0.42425   0.42996   0.43026   0.43917
 Alpha virt. eigenvalues --    0.44478   0.44910   0.45514   0.45859   0.46086
 Alpha virt. eigenvalues --    0.46381   0.46427   0.47412   0.47723   0.49171
 Alpha virt. eigenvalues --    0.49917   0.50030   0.50655   0.51674   0.52099
 Alpha virt. eigenvalues --    0.52802   0.53011   0.53398   0.54480   0.55104
 Alpha virt. eigenvalues --    0.55385   0.56378   0.57169   0.57462   0.58442
 Alpha virt. eigenvalues --    0.58759   0.59192   0.59540   0.60571   0.60940
 Alpha virt. eigenvalues --    0.61148   0.61613   0.62127   0.62578   0.63258
 Alpha virt. eigenvalues --    0.63473   0.63954   0.64231   0.64796   0.65720
 Alpha virt. eigenvalues --    0.66040   0.66628   0.66921   0.67343   0.67994
 Alpha virt. eigenvalues --    0.68596   0.69122   0.69636   0.69774   0.70679
 Alpha virt. eigenvalues --    0.71313   0.71530   0.71994   0.72407   0.73382
 Alpha virt. eigenvalues --    0.73633   0.74143   0.74472   0.74962   0.75869
 Alpha virt. eigenvalues --    0.76292   0.77341   0.77731   0.78217   0.78583
 Alpha virt. eigenvalues --    0.79684   0.80083   0.80719   0.80812   0.81455
 Alpha virt. eigenvalues --    0.82169   0.82281   0.83344   0.83632   0.84337
 Alpha virt. eigenvalues --    0.84680   0.85099   0.86196   0.87071   0.87134
 Alpha virt. eigenvalues --    0.88007   0.88973   0.89600   0.89904   0.90694
 Alpha virt. eigenvalues --    0.92344   0.93137   0.93908   0.94592   0.95279
 Alpha virt. eigenvalues --    0.96216   0.97691   0.97974   0.99485   1.00591
 Alpha virt. eigenvalues --    1.01185   1.01978   1.02520   1.03770   1.04206
 Alpha virt. eigenvalues --    1.05445   1.06180   1.06581   1.07815   1.09482
 Alpha virt. eigenvalues --    1.10245   1.11077   1.12113   1.13397   1.14622
 Alpha virt. eigenvalues --    1.16219   1.16767   1.17573   1.18692   1.21751
 Alpha virt. eigenvalues --    1.22914   1.23258   1.24410   1.26238   1.26860
 Alpha virt. eigenvalues --    1.29679   1.30217   1.31211   1.33220   1.35270
 Alpha virt. eigenvalues --    1.36930   1.38085   1.40698   1.41654   1.43215
 Alpha virt. eigenvalues --    1.43489   1.43960   1.46005   1.47238   1.49139
 Alpha virt. eigenvalues --    1.49761   1.50251   1.51150   1.52704   1.53766
 Alpha virt. eigenvalues --    1.56035   1.56742   1.57408   1.58211   1.59361
 Alpha virt. eigenvalues --    1.60459   1.61866   1.62897   1.63686   1.64909
 Alpha virt. eigenvalues --    1.65204   1.66339   1.67922   1.68645   1.70500
 Alpha virt. eigenvalues --    1.71093   1.72381   1.73065   1.74241   1.75183
 Alpha virt. eigenvalues --    1.76505   1.77440   1.78148   1.78311   1.80271
 Alpha virt. eigenvalues --    1.81337   1.82559   1.85028   1.85530   1.85957
 Alpha virt. eigenvalues --    1.87200   1.88777   1.89581   1.90410   1.92898
 Alpha virt. eigenvalues --    1.93841   1.94448   1.94767   1.96335   1.96660
 Alpha virt. eigenvalues --    1.97613   1.98599   1.99415   2.01535   2.02252
 Alpha virt. eigenvalues --    2.03547   2.04662   2.04907   2.06578   2.07872
 Alpha virt. eigenvalues --    2.09422   2.11152   2.11449   2.12433   2.13647
 Alpha virt. eigenvalues --    2.15258   2.15847   2.16190   2.16583   2.19110
 Alpha virt. eigenvalues --    2.20946   2.22053   2.22847   2.22904   2.24371
 Alpha virt. eigenvalues --    2.25555   2.27086   2.29102   2.30756   2.31907
 Alpha virt. eigenvalues --    2.31957   2.33555   2.33807   2.37015   2.38714
 Alpha virt. eigenvalues --    2.39035   2.40634   2.41187   2.42844   2.45284
 Alpha virt. eigenvalues --    2.46187   2.47824   2.49263   2.51692   2.52840
 Alpha virt. eigenvalues --    2.53673   2.54768   2.55933   2.57433   2.60230
 Alpha virt. eigenvalues --    2.61975   2.62965   2.64845   2.65463   2.66947
 Alpha virt. eigenvalues --    2.69825   2.70409   2.73232   2.73479   2.77458
 Alpha virt. eigenvalues --    2.77755   2.79654   2.80516   2.83019   2.84629
 Alpha virt. eigenvalues --    2.85986   2.86865   2.88606   2.91351   2.94033
 Alpha virt. eigenvalues --    2.95091   2.97524   2.99285   3.00311   3.01998
 Alpha virt. eigenvalues --    3.06202   3.12868   3.13600   3.21197   3.22764
 Alpha virt. eigenvalues --    3.25023   3.37935   3.44669   3.51167   3.60285
 Alpha virt. eigenvalues --    3.69401   4.20225   4.91686
          Condensed to atoms (all electrons):
               1          2          3          4          5          6
     1  N    7.423091   0.169772   0.294864  -0.542949  -0.170616   0.378283
     2  C    0.169772   7.972492  -1.133618   0.803330  -0.036417  -1.332030
     3  C    0.294864  -1.133618   9.467237  -2.426238  -0.579976  -0.012166
     4  C   -0.542949   0.803330  -2.426238  17.011901  -4.830457  -1.930627
     5  C   -0.170616  -0.036417  -0.579976  -4.830457  15.799440  -2.362342
     6  C    0.378283  -1.332030  -0.012166  -1.930627  -2.362342  11.930960
     7  C    0.147142  -0.582330   0.450477  -1.401391  -5.128374  -0.861949
     8  C    0.046462  -0.014670  -0.068189  -0.281862   0.361315   0.207288
     9  C   -0.017318   0.004434  -0.000305   0.031493   0.429107  -0.210919
    10  C    0.031253  -0.027379  -0.007152  -0.102838   0.014971  -0.067483
    11  N    0.040981   0.044893  -0.116964   0.005419   0.654221   0.099482
    12  C   -0.014782  -0.002048   0.053593  -0.099873   0.040469  -0.031891
    13  H   -0.086434  -0.043315  -0.175138   0.213681  -0.020211  -0.018608
    14  H   -0.095711   0.182966  -0.895722   0.477957   0.008295   0.040105
    15  H    0.022876  -0.185166   0.470325  -2.041540   0.604040   0.126620
    16  H   -0.292263   0.024136  -0.027580  -0.057993  -0.430915  -0.155231
    17  H   -0.002704   0.016314   0.012879  -0.007253   0.825487  -0.077042
    18  H    0.008504  -0.014082   0.027146   0.048949  -0.175581  -0.040727
    19  H   -0.003135   0.006989  -0.019850  -0.028114   0.070556   0.049246
    20  H   -0.001699   0.003762  -0.005719   0.012403  -0.033226   0.056502
    21  H   -0.001557  -0.000670   0.002579   0.004867  -0.038183  -0.008622
    22  H    0.001427  -0.002590   0.003370   0.008464  -0.088642  -0.033753
    23  H   -0.000911   0.002539  -0.006585   0.010066   0.080347   0.046699
    24  H    0.002512   0.007489  -0.020903   0.004273   0.059675  -0.013206
    25  H   -0.000922  -0.000171   0.005782  -0.003683  -0.027743  -0.025003
    26  H   -0.013324  -0.019889   0.054890  -0.053779   0.081294   0.094969
               7          8          9         10         11         12
     1  N    0.147142   0.046462  -0.017318   0.031253   0.040981  -0.014782
     2  C   -0.582330  -0.014670   0.004434  -0.027379   0.044893  -0.002048
     3  C    0.450477  -0.068189  -0.000305  -0.007152  -0.116964   0.053593
     4  C   -1.401391  -0.281862   0.031493  -0.102838   0.005419  -0.099873
     5  C   -5.128374   0.361315   0.429107   0.014971   0.654221   0.040469
     6  C   -0.861949   0.207288  -0.210919  -0.067483   0.099482  -0.031891
     7  C   18.175405  -1.651463  -0.500874  -0.669485  -1.627993  -0.103545
     8  C   -1.651463   7.343602  -0.489182   0.339347  -0.309366  -0.111973
     9  C   -0.500874  -0.489182   5.888688   0.158808  -0.027135  -0.000303
    10  C   -0.669485   0.339347   0.158808   5.640719   0.248649  -0.213671
    11  N   -1.627993  -0.309366  -0.027135   0.248649   8.385566   0.399739
    12  C   -0.103545  -0.111973  -0.000303  -0.213671   0.399739   4.409458
    13  H    0.015646   0.001597   0.000619  -0.000681   0.002268   0.001331
    14  H   -0.027336  -0.001007   0.000245  -0.000630  -0.001260  -0.002745
    15  H    0.118387   0.008598  -0.016638   0.009963   0.035608   0.031144
    16  H    0.618682  -0.046797   0.006513  -0.006097  -0.224956  -0.018333
    17  H   -2.435627   0.459284   0.095758  -0.061574   0.052302   0.051800
    18  H    0.003526  -0.407671   0.271112   0.023958   0.096011   0.025476
    19  H    0.503296  -0.788768   0.166384  -0.146971   0.071301   0.006151
    20  H    0.035506   0.083079  -0.235428  -0.057889   0.077297  -0.013505
    21  H    0.049027   0.258433  -0.312305   0.090318  -0.001331   0.013938
    22  H    0.361120   0.069092   0.010271  -0.127899  -0.551240   0.004529
    23  H   -0.112917  -0.098956   0.009087  -0.292274   0.369613  -0.029694
    24  H   -0.201880  -0.018164   0.058282   0.006802   0.242804   0.154696
    25  H    0.075545  -0.023001   0.026393   0.037928  -0.327145   0.353895
    26  H   -0.045295   0.053148  -0.046862  -0.071875  -0.053356   0.230571
              13         14         15         16         17         18
     1  N   -0.086434  -0.095711   0.022876  -0.292263  -0.002704   0.008504
     2  C   -0.043315   0.182966  -0.185166   0.024136   0.016314  -0.014082
     3  C   -0.175138  -0.895722   0.470325  -0.027580   0.012879   0.027146
     4  C    0.213681   0.477957  -2.041540  -0.057993  -0.007253   0.048949
     5  C   -0.020211   0.008295   0.604040  -0.430915   0.825487  -0.175581
     6  C   -0.018608   0.040105   0.126620  -0.155231  -0.077042  -0.040727
     7  C    0.015646  -0.027336   0.118387   0.618682  -2.435627   0.003526
     8  C    0.001597  -0.001007   0.008598  -0.046797   0.459284  -0.407671
     9  C    0.000619   0.000245  -0.016638   0.006513   0.095758   0.271112
    10  C   -0.000681  -0.000630   0.009963  -0.006097  -0.061574   0.023958
    11  N    0.002268  -0.001260   0.035608  -0.224956   0.052302   0.096011
    12  C    0.001331  -0.002745   0.031144  -0.018333   0.051800   0.025476
    13  H    1.692938  -0.062039  -0.008915   0.000711   0.001883  -0.001160
    14  H   -0.062039   2.133946  -0.158441   0.001724  -0.003509   0.001002
    15  H   -0.008915  -0.158441   3.030354  -0.009145  -0.171392   0.000104
    16  H    0.000711   0.001724  -0.009145   2.460095   0.002898  -0.063081
    17  H    0.001883  -0.003509  -0.171392   0.002898   3.220512   0.165339
    18  H   -0.001160   0.001002   0.000104  -0.063081   0.165339   2.186146
    19  H    0.000461  -0.000599   0.009542   0.006694  -0.344160  -0.496948
    20  H    0.000361  -0.000228   0.001906   0.016679  -0.056714  -0.327274
    21  H   -0.000010   0.000096  -0.001359   0.002825   0.033818   0.120202
    22  H   -0.000110   0.000097  -0.002150  -0.001302   0.042485   0.007582
    23  H    0.000148  -0.000404   0.004569   0.005159  -0.068843  -0.034418
    24  H    0.000173   0.000744   0.001452  -0.006889  -0.008791   0.000638
    25  H    0.000355  -0.000779   0.002669   0.001491   0.012933  -0.000577
    26  H   -0.002233  -0.001866   0.001855   0.013989   0.037284   0.007737
              19         20         21         22         23         24
     1  N   -0.003135  -0.001699  -0.001557   0.001427  -0.000911   0.002512
     2  C    0.006989   0.003762  -0.000670  -0.002590   0.002539   0.007489
     3  C   -0.019850  -0.005719   0.002579   0.003370  -0.006585  -0.020903
     4  C   -0.028114   0.012403   0.004867   0.008464   0.010066   0.004273
     5  C    0.070556  -0.033226  -0.038183  -0.088642   0.080347   0.059675
     6  C    0.049246   0.056502  -0.008622  -0.033753   0.046699  -0.013206
     7  C    0.503296   0.035506   0.049027   0.361120  -0.112917  -0.201880
     8  C   -0.788768   0.083079   0.258433   0.069092  -0.098956  -0.018164
     9  C    0.166384  -0.235428  -0.312305   0.010271   0.009087   0.058282
    10  C   -0.146971  -0.057889   0.090318  -0.127899  -0.292274   0.006802
    11  N    0.071301   0.077297  -0.001331  -0.551240   0.369613   0.242804
    12  C    0.006151  -0.013505   0.013938   0.004529  -0.029694   0.154696
    13  H    0.000461   0.000361  -0.000010  -0.000110   0.000148   0.000173
    14  H   -0.000599  -0.000228   0.000096   0.000097  -0.000404   0.000744
    15  H    0.009542   0.001906  -0.001359  -0.002150   0.004569   0.001452
    16  H    0.006694   0.016679   0.002825  -0.001302   0.005159  -0.006889
    17  H   -0.344160  -0.056714   0.033818   0.042485  -0.068843  -0.008791
    18  H   -0.496948  -0.327274   0.120202   0.007582  -0.034418   0.000638
    19  H    2.406619   0.196503  -0.285444  -0.019432   0.063664   0.003911
    20  H    0.196503   2.124480  -0.437796  -0.244378   0.175231   0.001399
    21  H   -0.285444  -0.437796   1.950338   0.049849  -0.187344   0.005900
    22  H   -0.019432  -0.244378   0.049849   2.456516  -0.436521  -0.000452
    23  H    0.063664   0.175231  -0.187344  -0.436521   1.892805   0.018192
    24  H    0.003911   0.001399   0.005900  -0.000452   0.018192   1.586063
    25  H    0.001522   0.006697  -0.003260   0.017694  -0.005743  -0.306263
    26  H   -0.006690  -0.008971   0.000694   0.006593  -0.004632  -0.407197
              25         26
     1  N   -0.000922  -0.013324
     2  C   -0.000171  -0.019889
     3  C    0.005782   0.054890
     4  C   -0.003683  -0.053779
     5  C   -0.027743   0.081294
     6  C   -0.025003   0.094969
     7  C    0.075545  -0.045295
     8  C   -0.023001   0.053148
     9  C    0.026393  -0.046862
    10  C    0.037928  -0.071875
    11  N   -0.327145  -0.053356
    12  C    0.353895   0.230571
    13  H    0.000355  -0.002233
    14  H   -0.000779  -0.001866
    15  H    0.002669   0.001855
    16  H    0.001491   0.013989
    17  H    0.012933   0.037284
    18  H   -0.000577   0.007737
    19  H    0.001522  -0.006690
    20  H    0.006697  -0.008971
    21  H   -0.003260   0.000694
    22  H    0.017694   0.006593
    23  H   -0.005743  -0.004632
    24  H   -0.306263  -0.407197
    25  H    1.978756  -0.543203
    26  H   -0.543203   2.018767
 Mulliken charges:
               1
     1  N   -0.322842
     2  C    0.155259
     3  C    0.652962
     4  C    1.175796
     5  C    0.893466
     6  C    0.151445
     7  C    0.796699
     8  C    1.079824
     9  C    0.700075
    10  C    1.251179
    11  N   -0.585408
    12  C    0.865574
    13  H   -0.513319
    14  H   -0.594899
    15  H   -0.885265
    16  H   -0.821015
    17  H   -0.793365
    18  H   -0.431913
    19  H   -0.422727
    20  H   -0.368978
    21  H   -0.305003
    22  H   -0.530620
    23  H   -0.398877
    24  H   -0.171260
    25  H   -0.254167
    26  H   -0.322617
 Sum of Mulliken charges =  -0.00000
 Mulliken charges with hydrogens summed into heavy atoms:
               1
     1  N   -0.322842
     2  C   -0.358061
     3  C    0.058062
     4  C    0.290531
     5  C    0.893466
     6  C   -0.669570
     7  C    0.003333
     8  C    0.225184
     9  C    0.026094
    10  C    0.321682
    11  N   -0.585408
    12  C    0.117529
 Electronic spatial extent (au):  <R**2>=           2216.6073
 Charge=             -0.0000 electrons
 Dipole moment (field-independent basis, Debye):
    X=             -1.4865    Y=              0.8816    Z=              2.3217  Tot=              2.8943
 Quadrupole moment (field-independent basis, Debye-Ang):
   XX=            -68.0923   YY=            -73.0671   ZZ=            -75.0152
   XY=              3.4092   XZ=              4.9146   YZ=             -0.2919
 Traceless Quadrupole moment (field-independent basis, Debye-Ang):
   XX=              3.9659   YY=             -1.0089   ZZ=             -2.9570
   XY=              3.4092   XZ=              4.9146   YZ=             -0.2919
 Octapole moment (field-independent basis, Debye-Ang**2):
  XXX=             13.7211  YYY=              2.7330  ZZZ=              9.6345  XYY=             -9.9837
  XXY=              8.7944  XXZ=              9.5698  XZZ=            -10.2894  YZZ=              4.7028
  YYZ=             -2.0444  XYZ=              0.7441
 Hexadecapole moment (field-independent basis, Debye-Ang**3):
 XXXX=          -1995.0448 YYYY=           -550.5747 ZZZZ=           -374.7022 XXXY=             28.7374
 XXXZ=             26.8355 YYYX=             -0.6492 YYYZ=             -7.3929 ZZZX=             29.9489
 ZZZY=             -0.8275 XXYY=           -469.1270 XXZZ=           -432.1689 YYZZ=           -150.5663
 XXYZ=             -8.5925 YYXZ=              9.1690 ZZXY=             15.8572
 N-N= 6.984988634049D+02 E-N=-2.554312667062D+03  KE= 4.956178167918D+02
 Calling FoFJK, ICntrl=      2127 FMM=F ISym2X=0 I1Cent= 0 IOpClX= 0 NMat=1 NMatS=1 NMatT=0.
 ***** Axes restored to original set *****
 -------------------------------------------------------------------
 Center     Atomic                   Forces (Hartrees/Bohr)
 Number     Number              X              Y              Z
 -------------------------------------------------------------------
      1        7           0.012324735    0.019020197   -0.006684302
      2        6          -0.029984087    0.011212066   -0.005492272
      3        6           0.000637379   -0.009899413    0.003653662
      4        6          -0.000817666    0.000207335   -0.000250169
      5        6          -0.007432446   -0.005453105    0.001622605
      6        6           0.030170454   -0.006576553    0.006492568
      7        6           0.002903857    0.001337779    0.002733845
      8        6          -0.000292140    0.000946934    0.001829380
      9        6           0.000183598   -0.000845745   -0.000243099
     10        6           0.008471264    0.001675266    0.003738706
     11        7          -0.006410974   -0.004923736   -0.001493815
     12        6           0.001233896    0.004573576   -0.007148864
     13        1           0.002266844   -0.000735270   -0.000074477
     14        1          -0.000866693   -0.003449899    0.000729791
     15        1          -0.000721800   -0.000592855    0.000025398
     16        1          -0.004161799    0.001228248    0.000296835
     17        1          -0.001918638   -0.002741671   -0.000096878
     18        1           0.000314619   -0.000042410    0.000949817
     19        1          -0.000666469   -0.000689263   -0.000297725
     20        1           0.000144671    0.000270033    0.000410834
     21        1          -0.001243414   -0.000226961   -0.000561659
     22        1          -0.000256022    0.000568300   -0.000014298
     23        1          -0.002395375   -0.002298871   -0.000189959
     24        1          -0.001046861   -0.002706647    0.000858537
     25        1          -0.000431320    0.000640718    0.000041244
     26        1          -0.000005613   -0.000498055   -0.000835706
 -------------------------------------------------------------------
 Cartesian Forces:  Max     0.030170454 RMS     0.006342544

 GradGradGradGradGradGradGradGradGradGradGradGradGradGradGradGradGradGrad
 Berny optimization.
 FormGI is forming the generalized inverse of G from B-inverse, IUseBI=4.
 Internal  Forces:  Max     0.023135483 RMS     0.003995793
 Search for a local minimum.
 Step number   1 out of a maximum of  156
 All quantities printed in internal units (Hartrees-Bohrs-Radians)
 Mixed Optimization -- RFO/linear search
 Second derivative matrix not updated -- first step.
 ITU=  0
     Eigenvalues ---    0.00330   0.00633   0.00856   0.00910   0.01547
     Eigenvalues ---    0.02130   0.02174   0.02199   0.02221   0.02275
     Eigenvalues ---    0.02335   0.02363   0.02440   0.02534   0.03548
     Eigenvalues ---    0.04527   0.04658   0.04967   0.05164   0.05548
     Eigenvalues ---    0.05996   0.06321   0.06880   0.06968   0.07028
     Eigenvalues ---    0.07261   0.07559   0.08322   0.09371   0.10349
     Eigenvalues ---    0.12835   0.15679   0.15994   0.15996   0.15999
     Eigenvalues ---    0.15999   0.16000   0.16000   0.16000   0.18362
     Eigenvalues ---    0.20544   0.22000   0.23218   0.23448   0.24977
     Eigenvalues ---    0.26545   0.26708   0.28998   0.31347   0.33017
     Eigenvalues ---    0.33024   0.33142   0.33498   0.33815   0.33968
     Eigenvalues ---    0.34040   0.34088   0.34107   0.34112   0.34241
     Eigenvalues ---    0.34324   0.34764   0.35115   0.35188   0.35321
     Eigenvalues ---    0.37082   0.43385   0.44000   0.46746   0.48420
     Eigenvalues ---    0.54486   0.56677
 RFO step:  Lambda=-8.74485517D-03 EMin= 3.29939646D-03
 Linear search not attempted -- first point.
 Iteration  1 RMS(Cart)=  0.03444902 RMS(Int)=  0.00086935
 Iteration  2 RMS(Cart)=  0.00126224 RMS(Int)=  0.00028229
 Iteration  3 RMS(Cart)=  0.00000116 RMS(Int)=  0.00028229
 Iteration  4 RMS(Cart)=  0.00000000 RMS(Int)=  0.00028229
 Variable       Old X    -DE/DX   Delta X   Delta X   Delta X     New X
                                 (Linear)    (Quad)   (Total)
    R1        2.54010  -0.00826   0.00000  -0.01536  -0.01517   2.52492
    R2        2.52678  -0.00757   0.00000  -0.01353  -0.01343   2.51335
    R3        2.61071   0.01168   0.00000   0.02318   0.02328   2.63398
    R4        2.05371   0.00209   0.00000   0.00579   0.00579   2.05950
    R5        2.64311  -0.00727   0.00000  -0.01481  -0.01491   2.62819
    R6        2.05488   0.00236   0.00000   0.00655   0.00655   2.06143
    R7        2.63603  -0.00677   0.00000  -0.01320  -0.01339   2.62263
    R8        2.06060   0.00083   0.00000   0.00234   0.00234   2.06294
    R9        2.62081   0.01585   0.00000   0.03282   0.03274   2.65355
   R10        2.85355   0.00152   0.00000   0.00473   0.00473   2.85828
   R11        2.05157   0.00294   0.00000   0.00811   0.00811   2.05968
   R12        2.92798  -0.00129   0.00000  -0.00410  -0.00409   2.92389
   R13        2.78497  -0.00394   0.00000  -0.01290  -0.01286   2.77211
   R14        2.09021   0.00301   0.00000   0.00889   0.00889   2.09910
   R15        2.92041  -0.00084   0.00000   0.00006   0.00001   2.92042
   R16        2.07149  -0.00039   0.00000  -0.00113  -0.00113   2.07036
   R17        2.06926   0.00092   0.00000   0.00261   0.00261   2.07187
   R18        2.88292  -0.00066   0.00000  -0.00106  -0.00108   2.88183
   R19        2.07181   0.00016   0.00000   0.00046   0.00046   2.07227
   R20        2.06787   0.00137   0.00000   0.00389   0.00389   2.07176
   R21        2.77676  -0.00583   0.00000  -0.01766  -0.01763   2.75912
   R22        2.07262   0.00057   0.00000   0.00163   0.00163   2.07426
   R23        2.09010   0.00308   0.00000   0.00909   0.00909   2.09919
   R24        2.75723  -0.00736   0.00000  -0.01939  -0.01939   2.73784
   R25        2.08803   0.00299   0.00000   0.00880   0.00880   2.09683
   R26        2.07141   0.00067   0.00000   0.00192   0.00192   2.07333
   R27        2.07384  -0.00020   0.00000  -0.00057  -0.00057   2.07326
    A1        2.14525  -0.02314   0.00000  -0.09635  -0.09605   2.04919
    A2        2.07643   0.01810   0.00000   0.07469   0.07486   2.15129
    A3        2.04293  -0.00799   0.00000  -0.03103  -0.03112   2.01181
    A4        2.16376  -0.01011   0.00000  -0.04359  -0.04369   2.12007
    A5        2.08028  -0.00274   0.00000  -0.01254  -0.01275   2.06753
    A6        2.08720   0.00421   0.00000   0.02335   0.02333   2.11053
    A7        2.11537  -0.00146   0.00000  -0.01024  -0.01026   2.10511
    A8        2.10574  -0.00559   0.00000  -0.02206  -0.02246   2.08327
    A9        2.08748   0.00323   0.00000   0.01362   0.01380   2.10128
   A10        2.08991   0.00236   0.00000   0.00854   0.00872   2.09863
   A11        2.04483   0.00008   0.00000   0.00193   0.00150   2.04634
   A12        2.16668  -0.00838   0.00000  -0.03293  -0.03283   2.13385
   A13        2.07094   0.00831   0.00000   0.03170   0.03186   2.10280
   A14        2.11267   0.01334   0.00000   0.05614   0.05599   2.16866
   A15        2.01922  -0.00353   0.00000  -0.00918  -0.00924   2.00998
   A16        2.15097  -0.00979   0.00000  -0.04636  -0.04642   2.10454
   A17        2.00125   0.00050   0.00000   0.00647   0.00646   2.00771
   A18        1.93091   0.00145   0.00000   0.01190   0.01191   1.94282
   A19        1.88450  -0.00028   0.00000   0.00096   0.00097   1.88546
   A20        1.82603  -0.00134   0.00000  -0.01008  -0.01008   1.81595
   A21        1.90792  -0.00043   0.00000  -0.01168  -0.01169   1.89623
   A22        1.91194   0.00006   0.00000   0.00201   0.00185   1.91379
   A23        1.82928   0.00035   0.00000   0.00332   0.00331   1.83259
   A24        1.94645  -0.00071   0.00000  -0.00696  -0.00695   1.93950
   A25        1.91803   0.00016   0.00000   0.00082   0.00081   1.91884
   A26        1.94608   0.00012   0.00000   0.00329   0.00327   1.94935
   A27        1.95933  -0.00024   0.00000  -0.00412  -0.00409   1.95524
   A28        1.86615   0.00030   0.00000   0.00332   0.00332   1.86947
   A29        1.81271  -0.00113   0.00000  -0.00322  -0.00325   1.80946
   A30        1.92748   0.00008   0.00000  -0.00065  -0.00069   1.92679
   A31        1.96393   0.00078   0.00000   0.00466   0.00469   1.96862
   A32        1.92050  -0.00006   0.00000  -0.00493  -0.00494   1.91556
   A33        1.95739   0.00042   0.00000   0.00227   0.00229   1.95968
   A34        1.88192  -0.00012   0.00000   0.00150   0.00150   1.88342
   A35        1.80274  -0.00022   0.00000  -0.00512  -0.00510   1.79764
   A36        1.98623  -0.00033   0.00000  -0.00242  -0.00245   1.98378
   A37        1.93811  -0.00046   0.00000  -0.00547  -0.00544   1.93267
   A38        1.92361   0.00031   0.00000   0.00197   0.00197   1.92558
   A39        1.92915   0.00062   0.00000   0.00980   0.00975   1.93890
   A40        1.88371   0.00012   0.00000   0.00160   0.00156   1.88527
   A41        1.82241   0.00248   0.00000   0.01267   0.01268   1.83509
   A42        1.97422  -0.00127   0.00000  -0.00052  -0.00060   1.97362
   A43        1.97993  -0.00099   0.00000   0.00168   0.00162   1.98155
   A44        1.95288   0.00062   0.00000   0.00346   0.00346   1.95634
   A45        1.91154  -0.00031   0.00000  -0.00083  -0.00084   1.91070
   A46        1.92220  -0.00108   0.00000  -0.00721  -0.00721   1.91499
   A47        1.89306   0.00015   0.00000   0.00241   0.00241   1.89547
   A48        1.89977  -0.00013   0.00000  -0.00265  -0.00265   1.89712
   A49        1.88283   0.00078   0.00000   0.00505   0.00505   1.88788
    D1       -0.00210   0.00030   0.00000   0.00767   0.00742   0.00532
    D2       -3.13213   0.00004   0.00000   0.00079   0.00042  -3.13171
    D3        0.04129  -0.00128   0.00000  -0.03644  -0.03618   0.00511
    D4       -3.12701  -0.00078   0.00000  -0.01295  -0.01161  -3.13862
    D5       -0.03228   0.00059   0.00000   0.01874   0.01840  -0.01389
    D6        3.13670  -0.00023   0.00000  -0.00430  -0.00434   3.13236
    D7        3.09690   0.00091   0.00000   0.02630   0.02597   3.12287
    D8       -0.01730   0.00008   0.00000   0.00326   0.00323  -0.01407
    D9        0.02856  -0.00072   0.00000  -0.01703  -0.01656   0.01200
   D10       -3.10110  -0.00114   0.00000  -0.02708  -0.02609  -3.12718
   D11       -3.14088   0.00021   0.00000   0.00694   0.00664  -3.13424
   D12        0.01265  -0.00021   0.00000  -0.00311  -0.00288   0.00977
   D13        0.00859  -0.00071   0.00000  -0.01218  -0.01118  -0.00259
   D14       -3.09135  -0.00136   0.00000  -0.03322  -0.03187  -3.12322
   D15        3.13823  -0.00029   0.00000  -0.00208  -0.00164   3.13659
   D16        0.03829  -0.00094   0.00000  -0.02312  -0.02233   0.01596
   D17       -0.04318   0.00098   0.00000   0.03588   0.03678  -0.00640
   D18        3.12719   0.00031   0.00000   0.00983   0.01025   3.13743
   D19        3.05912   0.00119   0.00000   0.05415   0.05550   3.11462
   D20       -0.05369   0.00052   0.00000   0.02811   0.02897  -0.02473
   D21       -2.07873   0.00046   0.00000   0.02686   0.02689  -2.05184
   D22        2.14465   0.00080   0.00000   0.02693   0.02687   2.17152
   D23        0.05257   0.00004   0.00000   0.01687   0.01686   0.06944
   D24        1.10510  -0.00001   0.00000   0.00622   0.00628   1.11137
   D25       -0.95471   0.00034   0.00000   0.00630   0.00626  -0.94845
   D26       -3.04678  -0.00043   0.00000  -0.00377  -0.00375  -3.05053
   D27       -2.38095  -0.00038   0.00000  -0.01464  -0.01460  -2.39555
   D28       -0.27285  -0.00041   0.00000  -0.01241  -0.01241  -0.28526
   D29        1.79346  -0.00038   0.00000  -0.01210  -0.01210   1.78136
   D30       -0.26266   0.00079   0.00000  -0.00305  -0.00303  -0.26569
   D31        1.84544   0.00076   0.00000  -0.00082  -0.00084   1.84460
   D32       -2.37144   0.00079   0.00000  -0.00051  -0.00052  -2.37196
   D33        1.78370  -0.00005   0.00000  -0.01158  -0.01150   1.77221
   D34       -2.39138  -0.00008   0.00000  -0.00935  -0.00931  -2.40069
   D35       -0.32507  -0.00005   0.00000  -0.00904  -0.00899  -0.33406
   D36        2.81133   0.00076   0.00000   0.01539   0.01538   2.82671
   D37       -1.31110   0.00047   0.00000   0.02585   0.02583  -1.28527
   D38        0.64728   0.00017   0.00000   0.00715   0.00719   0.65446
   D39        2.80803  -0.00012   0.00000   0.01761   0.01764   2.82567
   D40       -1.39633   0.00135   0.00000   0.02514   0.02517  -1.37116
   D41        0.76442   0.00107   0.00000   0.03560   0.03562   0.80004
   D42       -0.19854   0.00005   0.00000   0.00445   0.00448  -0.19406
   D43        1.85990  -0.00061   0.00000  -0.00340  -0.00340   1.85650
   D44       -2.31939  -0.00017   0.00000   0.00122   0.00123  -2.31817
   D45       -2.30689   0.00063   0.00000   0.00900   0.00903  -2.29786
   D46       -0.24845  -0.00003   0.00000   0.00115   0.00115  -0.24730
   D47        1.85544   0.00041   0.00000   0.00578   0.00578   1.86122
   D48        1.88270   0.00033   0.00000   0.00529   0.00531   1.88801
   D49       -2.34205  -0.00033   0.00000  -0.00256  -0.00256  -2.34461
   D50       -0.23815   0.00011   0.00000   0.00206   0.00206  -0.23609
   D51        0.59269  -0.00044   0.00000  -0.00417  -0.00421   0.58848
   D52        2.67815  -0.00038   0.00000  -0.00632  -0.00634   2.67181
   D53       -1.47537  -0.00082   0.00000  -0.01015  -0.01018  -1.48555
   D54       -1.47057   0.00011   0.00000   0.00070   0.00068  -1.46989
   D55        0.61490   0.00017   0.00000  -0.00146  -0.00146   0.61344
   D56        2.74456  -0.00027   0.00000  -0.00529  -0.00529   2.73926
   D57        2.71791   0.00002   0.00000   0.00066   0.00065   2.71855
   D58       -1.47981   0.00008   0.00000  -0.00149  -0.00149  -1.48130
   D59        0.64985  -0.00036   0.00000  -0.00532  -0.00532   0.64453
   D60       -0.78054  -0.00060   0.00000  -0.00581  -0.00584  -0.78638
   D61       -2.93761  -0.00014   0.00000  -0.01492  -0.01495  -2.95256
   D62       -2.90862  -0.00023   0.00000  -0.00098  -0.00098  -2.90961
   D63        1.21749   0.00022   0.00000  -0.01009  -0.01010   1.20739
   D64        1.29374  -0.00097   0.00000  -0.01040  -0.01043   1.28331
   D65       -0.86333  -0.00051   0.00000  -0.01951  -0.01955  -0.88288
   D66       -1.01453  -0.00060   0.00000  -0.01013  -0.01012  -1.02465
   D67       -3.11428  -0.00098   0.00000  -0.01483  -0.01482  -3.12910
   D68        1.10096  -0.00109   0.00000  -0.01616  -0.01615   1.08481
   D69        1.05707   0.00100   0.00000   0.00728   0.00727   1.06433
   D70       -1.04268   0.00062   0.00000   0.00258   0.00257  -1.04011
   D71       -3.11062   0.00051   0.00000   0.00125   0.00124  -3.10938
         Item               Value     Threshold  Converged?
 Maximum Force            0.023135     0.000450     NO 
 RMS     Force            0.003996     0.000300     NO 
 Maximum Displacement     0.127109     0.001800     NO 
 RMS     Displacement     0.034224     0.001200     NO 
 Predicted change in Energy=-4.589106D-03
 GradGradGradGradGradGradGradGradGradGradGradGradGradGradGradGradGradGrad

                          Input orientation:                          
 ---------------------------------------------------------------------
 Center     Atomic      Atomic             Coordinates (Angstroms)
 Number     Number       Type             X           Y           Z
 ---------------------------------------------------------------------
      1          7           0        2.454131    0.277840   -0.352288
      2          6           0        3.163330   -0.804645   -0.019855
      3          6           0        2.584825   -2.042126    0.257232
      4          6           0        1.199668   -2.153706    0.201021
      5          6           0        0.440792   -1.043049   -0.140508
      6          6           0        1.131638    0.149255   -0.410537
      7          6           0       -1.070057   -1.084437   -0.198765
      8          6           0       -1.679299   -0.807575   -1.593818
      9          6           0       -2.879061    0.129428   -1.327518
     10          6           0       -3.039528    0.087729    0.188444
     11          7           0       -1.665214   -0.055036    0.660324
     12          6           0       -1.567649   -0.367170    2.071738
     13          1           0        4.242212   -0.657704    0.026758
     14          1           0        3.201480   -2.903733    0.516755
     15          1           0        0.712589   -3.104574    0.425357
     16          1           0        0.589854    1.053461   -0.687746
     17          1           0       -1.399740   -2.089769    0.139590
     18          1           0       -0.944008   -0.344304   -2.260931
     19          1           0       -1.989299   -1.750139   -2.060222
     20          1           0       -2.643991    1.151670   -1.647348
     21          1           0       -3.789165   -0.186689   -1.850702
     22          1           0       -3.494664    0.994016    0.608359
     23          1           0       -3.659602   -0.781639    0.494512
     24          1           0       -2.062094   -1.328565    2.321635
     25          1           0       -2.040210    0.431828    2.656583
     26          1           0       -0.512297   -0.427687    2.365422
 ---------------------------------------------------------------------
                    Distance matrix (angstroms):
                    1          2          3          4          5
     1  N    0.000000
     2  C    1.336132   0.000000
     3  C    2.402257   1.393845   0.000000
     4  C    2.791459   2.392639   1.390781   0.000000
     5  C    2.417258   2.735619   2.398590   1.387838   0.000000
     6  C    1.330006   2.278230   2.712898   2.383748   1.404198
     7  C    3.781438   4.246394   3.805689   2.540634   1.512538
     8  C    4.450255   5.091997   4.809705   3.649927   2.581152
     9  C    5.423655   6.252437   6.089428   4.917841   3.715524
    10  C    5.523479   6.270181   6.014513   4.795307   3.674166
    11  N    4.255020   4.933497   4.708911   3.580911   2.460236
    12  C    4.739900   5.191176   4.831248   3.788052   3.063442
    13  H    2.053327   1.089839   2.171790   3.394917   3.824561
    14  H    3.381742   2.166928   1.090863   2.160898   3.393456
    15  H    3.883095   3.390283   2.159243   1.091661   2.154985
    16  H    2.046862   3.243672   3.802045   3.383444   2.171875
    17  H    4.549708   4.743267   3.986587   2.600920   2.135799
    18  H    3.946812   4.701549   4.655793   3.732357   2.627187
    19  H    5.174341   5.621979   5.135997   3.930089   3.176573
    20  H    5.332130   6.340417   6.416251   5.395896   4.074708
    21  H    6.437373   7.216028   6.965184   5.741705   4.642268
    22  H    6.068271   6.925223   6.804531   5.666642   4.494246
    23  H    6.262372   6.842332   6.374795   5.057787   4.157501
    24  H    5.488779   5.749967   5.134666   3.977053   3.522514
    25  H    5.410741   5.980720   5.767867   4.817839   4.019247
    26  H    4.084532   4.397939   4.079588   3.254934   2.750769
                    6          7          8          9         10
     6  C    0.000000
     7  C    2.532648   0.000000
     8  C    3.196411   1.547256   0.000000
     9  C    4.114238   2.453578   1.545418   0.000000
    10  C    4.214403   2.324375   2.414176   1.525001   0.000000
    11  N    3.001809   1.466939   2.376482   2.336443   1.460066
    12  C    3.703314   2.432540   3.693606   3.677139   2.433138
    13  H    3.243159   5.334151   6.141093   7.291514   7.321581
    14  H    3.803269   4.697642   5.715803   7.040909   6.928696
    15  H    3.385516   2.765558   3.882577   5.141137   4.932069
    16  H    1.089937   2.750457   3.071397   3.646440   3.856522
    17  H    3.423995   1.110796   2.174139   3.043950   2.726314
    18  H    2.824157   2.194588   1.095588   2.200026   3.252276
    19  H    4.008666   2.180181   1.096385   2.204837   3.088242
    20  H    4.097550   3.094485   2.184522   1.096599   2.158368
    21  H    5.138213   3.305812   2.214277   1.096330   2.189835
    22  H    4.811906   3.293954   3.375034   2.207736   1.097649
    23  H    4.964037   2.697788   2.878088   2.181532   1.110842
    24  H    4.455181   2.719586   3.968467   4.013663   2.740760
    25  H    4.421277   3.375391   4.442103   4.082668   2.684911
    26  H    3.277397   2.705082   4.145092   4.421511   3.375172
                   11         12         13         14         15
    11  N    0.000000
    12  C    1.448805   0.000000
    13  H    5.971791   6.166103   0.000000
    14  H    5.640958   5.621096   2.523463   0.000000
    15  H    3.874124   3.924721   4.313269   2.498654   0.000000
    16  H    2.851560   3.779916   4.096134   4.891911   4.306194
    17  H    2.117021   2.593981   5.821955   4.687859   2.360810
    18  H    3.022838   4.377382   5.677025   5.608145   4.192797
    19  H    3.221766   4.377612   6.661879   5.908957   3.913156
    20  H    2.781995   4.158965   7.314114   7.436342   5.803305
    21  H    3.291467   4.511457   8.261339   7.864878   5.827545
    22  H    2.109526   2.776273   7.932571   7.748496   5.876470
    23  H    2.129091   2.652489   7.916617   7.181799   4.951451
    24  H    2.130573   1.109597   6.742461   5.783076   3.801177
    25  H    2.088709   1.097157   6.897237   6.571160   5.006236
    26  H    2.091756   1.097124   5.303546   4.831202   3.525609
                   16         17         18         19         20
    16  H    0.000000
    17  H    3.810888   0.000000
    18  H    2.604111   3.002806   0.000000
    19  H    4.049184   2.302629   1.763318   0.000000
    20  H    3.374647   3.904899   2.346139   3.003263   0.000000
    21  H    4.697473   3.645865   2.878897   2.393281   1.773127
    22  H    4.285640   3.757417   4.065682   4.113130   2.415928
    23  H    4.777364   2.635175   3.893351   3.202276   3.058875
    24  H    4.665110   2.404051   4.818589   4.402691   4.716248
    25  H    4.299791   3.619931   5.097645   5.197290   4.405286
    26  H    3.567964   2.916230   4.647200   4.849406   4.810490
                   21         22         23         24         25
    21  H    0.000000
    22  H    2.743679   0.000000
    23  H    2.422970   1.786930   0.000000
    24  H    4.657794   3.222103   2.487878   0.000000
    25  H    4.874118   2.574240   2.961332   1.792108   0.000000
    26  H    5.345245   3.742062   3.678467   1.793146   1.777093
                   26
    26  H    0.000000
 Stoichiometry    C10H14N2
 Framework group  C1[X(C10H14N2)]
 Deg. of freedom    72
 Full point group                 C1      NOp   1
 Largest Abelian subgroup         C1      NOp   1
 Largest concise Abelian subgroup C1      NOp   1
                         Standard orientation:                         
 ---------------------------------------------------------------------
 Center     Atomic      Atomic             Coordinates (Angstroms)
 Number     Number       Type             X           Y           Z
 ---------------------------------------------------------------------
      1          7           0        2.446457   -0.649903   -1.278504
      2          6           0        3.348293   -0.172769   -0.415785
      3          6           0        3.010149    0.359353    0.827319
      4          6           0        1.666520    0.411800    1.182538
      5          6           0        0.710502   -0.076216    0.302787
      6          6           0        1.167437   -0.600340   -0.917163
      7          6           0       -0.769388   -0.030528    0.611996
      8          6           0       -1.460264   -1.411350    0.712098
      9          6           0       -2.800254   -1.243561   -0.039295
     10          6           0       -2.904807    0.262033   -0.258125
     11          7           0       -1.513604    0.664218   -0.444120
     12          6           0       -1.319012    2.099778   -0.425772
     13          1           0        4.384129   -0.221688   -0.751047
     14          1           0        3.779108    0.730852    1.506049
     15          1           0        1.365188    0.834579    2.142841
     16          1           0        0.463910   -1.001623   -1.646536
     17          1           0       -0.902732    0.504067    1.576515
     18          1           0       -0.840633   -2.196271    0.264583
     19          1           0       -1.609811   -1.679218    1.764687
     20          1           0       -2.762419   -1.757055   -1.007500
     21          1           0       -3.654121   -1.642481    0.520806
     22          1           0       -3.502478    0.539135   -1.136098
     23          1           0       -3.349084    0.758700    0.630644
     24          1           0       -1.624925    2.550012    0.541137
     25          1           0       -1.909566    2.559249   -1.228198
     26          1           0       -0.261587    2.332336   -0.603109
 ---------------------------------------------------------------------
 Rotational constants (GHZ):           2.0157711           0.5925060           0.5574353
 Standard basis: Aug-CC-pVDZ (5D, 7F)
 There are   426 symmetry adapted cartesian basis functions of A   symmetry.
 There are   402 symmetry adapted basis functions of A   symmetry.
   402 basis functions,   670 primitive gaussians,   426 cartesian basis functions
    44 alpha electrons       44 beta electrons
       nuclear repulsion energy       698.6854941489 Hartrees.
 NAtoms=   26 NActive=   26 NUniq=   26 SFac= 1.00D+00 NAtFMM=   60 NAOKFM=F Big=F
 Integral buffers will be    131072 words long.
 Raffenetti 2 integral format.
 Two-electron integral symmetry is turned on.
 Nuclear repulsion after empirical dispersion term =      698.6671079762 Hartrees.
 One-electron integrals computed using PRISM.
 NBasis=   402 RedAO= T EigKep=  2.79D-06  NBF=   402
 NBsUse=   402 1.00D-06 EigRej= -1.00D+00 NBFU=   402
 Initial guess from the checkpoint file:  "/gscratch/scrubbed/gds001/Gau-24205.chk"
 B after Tr=     0.000000    0.000000   -0.000000
         Rot=    0.999976    0.005935    0.001917   -0.003055 Ang=   0.80 deg.
 ExpMin= 2.97D-02 ExpMax= 9.05D+03 ExpMxC= 3.09D+02 IAcc=3 IRadAn=         5 AccDes= 0.00D+00
 Harris functional with IExCor= 4639 and IRadAn=       5 diagonalized for initial guess.
 HarFok:  IExCor= 4639 AccDes= 0.00D+00 IRadAn=         5 IDoV= 1 UseB2=F ITyADJ=14
 ICtDFT=  3500011 ScaDFX=  1.000000  1.000000  1.000000  1.000000
 FoFCou: FMM=F IPFlag=           0 FMFlag=      100000 FMFlg1=           0
         NFxFlg=           0 DoJE=T BraDBF=F KetDBF=T FulRan=T
         wScrn=  0.000000 ICntrl=       500 IOpCl=  0 I1Cent=   200000004 NGrid=           0
         NMat0=    1 NMatS0=      1 NMatT0=    0 NMatD0=    1 NMtDS0=    0 NMtDT0=    0
 Petite list used in FoFCou.
 Requested convergence on RMS density matrix=1.00D-08 within 128 cycles.
 Requested convergence on MAX density matrix=1.00D-06.
 Requested convergence on             energy=1.00D-06.
 No special actions if energy rises.
 SCF Done:  E(RwB97XD) =  -498.883988726     A.U. after   13 cycles
            NFock= 13  Conv=0.69D-08     -V/T= 2.0065
 Calling FoFJK, ICntrl=      2127 FMM=F ISym2X=0 I1Cent= 0 IOpClX= 0 NMat=1 NMatS=1 NMatT=0.
 ***** Axes restored to original set *****
 -------------------------------------------------------------------
 Center     Atomic                   Forces (Hartrees/Bohr)
 Number     Number              X              Y              Z
 -------------------------------------------------------------------
      1        7           0.000860518    0.000104763   -0.000090201
      2        6          -0.000142831   -0.002164011    0.000577555
      3        6           0.004661316    0.000417383    0.000137115
      4        6          -0.001134043   -0.001833216   -0.000089514
      5        6          -0.002607602    0.004593813   -0.000571264
      6        6          -0.001673146   -0.001588414   -0.000439893
      7        6           0.001571961    0.003351600    0.000733746
      8        6          -0.000375717   -0.000224172   -0.000838995
      9        6          -0.000471332   -0.000252014   -0.001258862
     10        6           0.003497851    0.000851789    0.001370487
     11        7          -0.003507284   -0.003322570   -0.000616469
     12        6           0.001086518    0.002528484   -0.001342842
     13        1           0.001729921   -0.002200446    0.000289008
     14        1           0.000477222    0.001593651   -0.000018735
     15        1          -0.000271221    0.000200274    0.000046302
[...]
 .00005679,0.00016983,0.00009790,0.00071800,0.00024755,0.00046834,-0.00
 189237,-0.01706258,-0.01130834,0.05285461,0.00001123,0.00009884,-0.000
 01903,-0.00006016,0.00004880,-0.00000801,-0.00010567,-0.00002334,0.000
 03926,0.00000624,-0.00012896,-0.00009475,-0.00026404,0.00030601,-0.000
 11909,0.00006564,-0.00026497,-0.00008833,0.00131072,0.00558159,0.00698
 389,-0.02421574,-0.24809543,-0.12030643,-0.00287157,-0.00881532,-0.003
 97588,0.00060364,-0.00115193,0.00051824,0.00079998,0.00040235,0.000853
 93,-0.00006154,0.00049765,0.00034674,-0.00000906,0.00001431,0.00000372
 ,-0.00001179,0.00001109,-0.00001783,-0.00002865,0.00003181,-0.00001723
 ,0.00004017,0.00014073,0.00007019,0.00009065,0.00138029,0.00001717,-0.
 00143926,-0.01573123,-0.01044436,0.02435915,0.26447559,0.00037662,-0.0
 0014124,0.00005996,-0.00012118,0.00031698,-0.00006543,-0.00028344,-0.0
 0001942,0.00007871,-0.00011141,-0.00025642,0.00016377,0.00084572,0.000
 66634,-0.00107189,-0.00054354,-0.00010799,0.00005969,-0.00203063,-0.02
 582298,-0.01185912,-0.01242687,-0.11639967,-0.11536204,-0.00157557,-0.
 00047554,-0.00102677,-0.00058064,-0.00037939,-0.00078088,-0.00172115,0
 .00120388,-0.00582496,0.00101617,-0.00127993,-0.00023686,0.00001210,0.
 00000832,-0.00000861,-0.00003170,-0.00000580,-0.00000075,0.00000678,0.
 00007678,-0.00012393,0.00001873,-0.00003051,-0.00000964,0.00059341,0.0
 0005144,0.00063613,0.00169525,0.01433474,0.00918072,0.01463761,0.12730
 936,0.12637096,-0.00011195,-0.00002311,0.00007912,-0.00005416,-0.00011
 784,-0.00000313,0.00012064,0.00002107,0.00007634,-0.00023095,0.0000249
 1,0.00001315,0.00038986,-0.00006734,-0.00061930,-0.00006616,0.00025938
 ,0.00000513,-0.00286263,0.00190388,0.00119798,-0.00255858,0.02556129,-
 0.01075137,-0.04531371,-0.00691151,-0.00076253,-0.00194497,-0.00341849
 ,0.00294924,0.00042546,-0.00030128,-0.00022017,0.00003892,-0.00015959,
 -0.00006540,-0.00000105,-0.00000540,-0.00001442,-0.00001359,0.00000280
 ,-0.00000405,0.00001036,-0.00001534,-0.00000591,-0.00005331,-0.0000599
 3,-0.00006402,0.00003625,-0.00000966,-0.00024785,0.00116842,0.00071662
 ,-0.00016093,-0.00264382,0.00185745,-0.00028363,0.05257890,0.00008749,
 0.00005099,-0.00003975,0.00001675,0.00002198,-0.00000493,-0.00002582,0
 .00000199,-0.00002202,0.00010083,0.00003301,0.00000327,-0.00023714,0.0
 0003270,0.00032776,0.00005316,-0.00014511,0.00002505,0.00090746,-0.000
 58294,-0.00122004,-0.00113248,-0.01100739,0.00439988,-0.00521819,-0.27
 414374,0.10428829,-0.00047320,0.00416877,-0.00350816,0.00057341,0.0002
 4519,0.00001951,0.00000604,0.00006997,-0.00010334,0.00000935,0.0000018
 0,0.00000877,0.00001705,-0.00000604,0.00000213,-0.00001492,0.00001862,
 -0.00000211,0.00002463,0.00000138,0.00004374,-0.00007736,0.00004787,-0
 .00011419,-0.00007495,0.00182210,-0.00011732,0.00199547,-0.00046891,0.
 00037243,0.00299877,0.29183709,0.00005153,-0.00005243,0.00000968,-0.00
 000169,0.00002790,-0.00000920,-0.00002391,-0.00001250,-0.00000371,-0.0
 0001841,-0.00003486,0.00002818,-0.00003170,0.00009459,-0.00001672,-0.0
 0008776,0.00010616,0.00000418,0.00020948,-0.00067921,-0.00109013,0.001
 60455,-0.00676436,0.00254010,-0.00169363,0.10170605,-0.09300697,0.0037
 6174,0.03045436,-0.01384814,0.00011577,0.00008931,0.00029030,-0.000586
 19,-0.00019604,-0.00029622,0.00000108,-0.00000173,0.00000049,-0.000003
 18,-0.00000156,-0.00000149,0.00000573,-0.00000135,-0.00001077,-0.00002
 912,-0.00000173,-0.00000706,-0.00001534,-0.00004479,0.00011715,-0.0001
 0106,-0.00028467,0.00113433,0.00102108,-0.00077349,-0.00008582,-0.0040
 4666,-0.11062116,0.10275507,0.00004770,-0.00003015,0.00001697,-0.00007
 100,0.00010939,0.00000073,-0.00010191,-0.00005233,0.00009883,-0.000047
 44,-0.00017185,-0.00004477,0.00009763,0.00033743,-0.00082382,-0.000101
 22,0.00001408,-0.00007296,-0.00232794,-0.00000531,0.00076523,-0.017289
 10,-0.01399482,-0.00811235,-0.20517422,-0.10846008,-0.08106597,0.00382
 925,0.00224049,0.00357921,-0.00033048,0.00081038,0.00054015,0.00021853
 ,-0.00005457,0.00019353,-0.00001404,0.00000484,-0.00001168,-0.00002964
 ,0.00000988,-0.00000024,0.00001550,0.00000990,-0.00003986,0.00000857,0
 .00003125,0.00001394,0.00000725,0.00013942,-0.00023247,-0.00292905,0.0
 0188341,-0.00033739,0.00171304,0.00000830,0.00011859,0.00019358,0.0002
 7785,0.00024373,0.22152941,-0.00013857,0.00004446,-0.00001919,0.000074
 56,-0.00006178,0.00000055,0.00003129,0.00003635,-0.00005017,0.00004304
 ,0.00001318,0.00000445,-0.00006838,-0.00014901,0.00040876,0.00016601,-
 0.00007081,0.00003896,0.00183195,-0.00057622,0.00014763,0.01310751,0.0
 0771781,0.00624429,-0.11099459,-0.12277690,-0.05475399,-0.00115765,-0.
 00180228,0.00213626,0.00117670,0.00000319,-0.00056711,0.00007611,0.000
 38878,0.00023721,-0.00000774,0.00000126,0.00000656,0.00000405,0.000001
 14,-0.00000551,0.00000387,-0.00000532,0.00002979,0.00004976,0.00003088
 ,0.00000743,-0.00002458,-0.00002869,0.00019021,0.00173621,-0.00019928,
 -0.00001652,0.00001031,0.00154664,0.00015200,-0.02244494,-0.01456853,-
 0.01224685,0.11615046,0.12909751,-0.00006678,0.00001541,0.00001458,0.0
 0002211,-0.00003591,-0.00000143,0.00001688,0.00002672,-0.00002333,-0.0
 0008086,-0.00000791,0.00002825,-0.00000247,0.00013092,0.00012238,0.000
 05914,0.00001581,0.00004003,0.00065563,-0.00070975,-0.00101116,0.00663
 669,0.00328682,0.00140830,-0.07908746,-0.05193603,-0.08519281,-0.02539
 832,-0.01600225,-0.00838425,0.00102195,-0.00049949,-0.00656988,-0.0016
 9744,0.00017592,0.00023477,-0.00000262,0.00000031,-0.00000087,-0.00000
 415,0.00000007,-0.00000300,0.00000413,-0.00000521,0.00000127,0.0000222
 6,0.00001226,-0.00004193,0.00000848,0.00021414,-0.00002355,0.00152261,
 -0.00056021,-0.00008180,-0.00012422,0.00027787,0.00089181,0.01112554,0
 .00702556,0.00577672,0.08556390,0.05805882,0.09402709,-0.00009070,-0.0
 0005926,-0.00005111,-0.00004549,0.00000909,0.00000643,-0.00004750,0.00
 005653,-0.00012024,-0.00051811,-0.00017724,-0.00001634,0.00011222,0.00
 137113,0.00086300,0.00003097,0.00010567,-0.00006220,-0.00492804,0.0007
 4219,-0.00254802,-0.00098442,0.00040481,-0.00090059,0.00103249,-0.0003
 8343,-0.00022484,-0.09234503,0.09035141,0.03258944,-0.02102861,0.02665
 713,0.01079330,0.00023547,0.00078094,0.00157809,-0.00001627,0.00000034
 ,0.00001457,-0.00005703,0.00000540,-0.00000338,0.00001273,-0.00001786,
 0.00005215,-0.00000537,0.00001046,0.00004725,-0.00009640,0.00068177,0.
 00009386,0.00004521,-0.00001536,0.00014596,0.00002624,-0.00004096,0.00
 019929,0.00038339,0.00003463,0.00023964,-0.00026442,0.00000609,0.00025
 813,0.11050692,0.00008676,0.00003446,0.00002833,-0.00000416,-0.0000150
 2,0.00000250,0.00002045,-0.00000331,-0.00000848,0.00000765,0.00004600,
 -0.00001358,-0.00023096,0.00014761,-0.00006795,0.00010907,-0.00000085,
 -0.00000964,-0.00004202,0.00104991,0.00077818,-0.00071859,0.00079578,0
 .00067650,-0.00167864,0.00101267,0.00203554,0.09852238,-0.24499734,-0.
 07034049,0.00065524,0.00330490,0.00059554,-0.00000187,-0.00001853,-0.0
 0045015,0.00001362,-0.00000276,-0.00000391,0.00001613,-0.00000475,0.00
 000128,-0.00001148,0.00000718,0.00000020,0.00000076,-0.00004746,-0.000
 01183,-0.00045590,0.00043358,0.00015086,-0.00001970,0.00000596,-0.0000
 2771,-0.00010228,0.00006988,0.00004516,-0.00002866,0.00141111,-0.00003
 290,0.00030730,0.00006219,-0.00029083,-0.10641406,0.25817667,-0.000048
 93,0.00002083,-0.00005494,-0.00000589,-0.00004679,0.00000313,0.0000130
 4,0.00002785,-0.00006012,-0.00008875,0.00001958,0.00001702,-0.00005027
 ,0.00020675,0.00062577,0.00003215,-0.00000509,0.00002289,-0.00218585,0
 .00003809,-0.00238183,0.00037604,-0.00123883,-0.00422466,0.01374713,-0
 .02395967,-0.00597865,0.03544386,-0.06996595,-0.07270947,-0.00676816,0
 .01114338,0.00341131,-0.00047009,0.00105577,0.00129342,0.00000333,0.00
 000033,0.00001270,-0.00000247,0.00000127,-0.00000397,-0.00000074,0.000
 01464,0.00000992,-0.00000520,-0.00004315,0.00003605,0.00014414,-0.0002
 6851,0.00004478,0.00062537,-0.00033033,-0.00024333,0.00093524,-0.00049
 441,-0.00019301,0.00007604,0.00010665,0.00135662,-0.00008889,-0.000280
 86,-0.00156870,-0.03762446,0.07376347,0.07674164,-0.00001776,0.0001559
 3,0.00009008,-0.00003587,0.00016262,-0.00003467,-0.00017363,-0.0000137
 2,-0.00002405,0.00000117,-0.00015452,0.00008568,-0.00008704,0.00112284
 ,-0.00033618,0.00006811,-0.00041783,0.00011253,0.00150087,-0.00612065,
 -0.00202016,-0.00019710,0.00043693,-0.00023796,0.00024311,-0.00080122,
 -0.00074433,-0.09997359,-0.08255756,0.04400409,-0.03721083,-0.02555609
 ,0.00552827,0.00105448,-0.00114076,0.00517499,-0.00002841,0.00001951,-
 0.00001592,-0.00002696,0.00000816,-0.00001036,0.00001032,0.00003727,-0
 .00000361,0.00019824,0.00028732,-0.00013222,0.00053373,0.00177511,-0.0
 0006042,0.00008801,-0.00000439,0.00000747,0.00005005,-0.00000190,0.000
 16131,0.00057388,0.00020237,-0.00055152,0.00098314,0.00043383,-0.00036
 569,0.00771037,0.00991936,-0.00442180,0.12379775,-0.00012830,0.0000444
 0,0.00001246,-0.00000604,0.00005519,-0.00001437,-0.00006248,-0.0000071
 8,-0.00001607,-0.00004831,-0.00012657,-0.00003633,-0.00008818,0.000203
 62,0.00001203,0.00023135,-0.00018268,-0.00000730,0.00144522,0.00196417
 ,-0.00079127,-0.00025188,-0.00023134,0.00008884,0.00152958,0.00182859,
 -0.00187338,-0.08099958,-0.19284056,0.06677185,-0.00783352,0.00202515,
 -0.00285730,0.00117316,0.00219100,0.00049036,-0.00002174,0.00000557,-0
 .00000007,-0.00002545,0.00001242,-0.00000008,0.00003837,0.00000469,0.0
 0001593,0.00012880,0.00010101,-0.00004399,-0.00122364,0.00088434,0.000
 97094,0.00000055,0.00003649,-0.00002857,-0.00007170,0.00006108,0.00014
 515,0.00014513,0.00121097,-0.00040059,0.00043184,0.00123524,0.00047026
 ,-0.01353319,-0.02143663,0.01092682,0.09986493,0.20328103,0.00002480,-
 0.00003633,0.00004012,-0.00001256,0.00003527,-0.00001007,-0.00002961,-
 0.00001924,-0.00000698,0.00004849,0.00004387,0.00001024,-0.00012983,-0
 .00015162,0.00011261,-0.00014410,0.00003475,0.00002413,0.00044720,-0.0
 0041253,0.00012709,-0.00071425,0.00056718,-0.00076601,0.01299746,0.025
 22182,-0.01381271,0.04247270,0.06479595,-0.08014388,-0.00872637,-0.007
 83160,0.00343075,-0.00171202,-0.00343874,0.00301972,0.00000035,-0.0000
 0051,-0.00000605,0.00000497,-0.00000109,-0.00000334,0.00000519,-0.0000
 1365,0.00000006,-0.00001524,0.00002063,-0.00003846,0.00050391,0.000134
 56,-0.00012262,0.00017168,-0.00025461,0.00010291,0.00028858,-0.0000425
 7,-0.00012720,0.00180215,-0.00086592,-0.00565025,-0.00026476,0.0003673
 7,0.00098289,-0.00417364,-0.00740857,0.00390487,-0.04433529,-0.0718910
 7,0.08815371,0.00024883,0.00001106,0.00004735,0.00001459,0.00019527,-0
 .00002248,-0.00023144,-0.00002613,-0.00004818,0.00014362,-0.00028231,-
 0.00005248,-0.00016373,0.00020095,-0.00007807,-0.00008872,-0.00019540,
 0.00003536,0.00040045,-0.00131757,-0.00034843,0.00008555,0.00018417,0.
 00002581,-0.00007416,-0.00006911,-0.00011109,0.00288024,0.00324962,-0.
 00114171,0.00174156,0.00258011,0.00254701,-0.09073650,-0.08336566,0.02
 386456,-0.00000915,0.00001605,0.00000390,-0.00002121,0.00001004,0.0000
 1331,0.00000313,0.00010851,0.00008792,0.00009773,0.00008689,-0.0001180
 4,-0.00031941,0.00052176,0.00047460,-0.00008961,0.00007436,-0.00008093
 ,0.00000165,0.00002360,0.00007108,-0.00008002,-0.00004913,0.00000010,-
 0.00000296,-0.00004465,0.00002637,-0.00006164,-0.00018198,0.00005342,0
 .00066260,-0.00080910,0.00115908,0.09017552,-0.00016142,0.00007234,0.0
 0000722,-0.00000764,0.00004148,0.00000202,-0.00010433,0.00002506,-0.00
 003937,-0.00005036,-0.00021715,-0.00000829,-0.00004027,-0.00007287,0.0
 0010105,0.00016371,-0.00020185,0.00000149,0.00191450,0.00255589,-0.002
 02793,0.00009152,0.00016870,-0.00026257,0.00014973,0.00032315,-0.00020
 027,-0.00141144,0.00105012,-0.00120217,-0.00077521,-0.00396274,0.01331
 158,-0.08316553,-0.22168079,0.04847812,-0.00002393,0.00001361,-0.00000
 417,-0.00003391,0.00001557,0.00001048,0.00003161,0.00006494,0.00007769
 ,0.00013474,0.00012039,-0.00004692,-0.00107969,0.00102802,0.00190051,-
 0.00005122,-0.00002378,-0.00014654,0.00000949,0.00000767,0.00012128,0.
 00005252,-0.00001552,-0.00021034,0.00004404,0.00005244,0.00016020,0.00
 002641,-0.00033334,-0.00016911,0.00167744,-0.00004472,0.00088637,0.093
 17635,0.24051361,0.00012943,-0.00011572,0.00006551,0.00006258,-0.00001
 327,-0.00003291,0.00002284,-0.00002973,0.00003198,0.00015644,0.0000598
 7,0.00001558,-0.00011895,-0.00054001,-0.00004354,-0.00008891,0.0002237
 4,0.00002525,-0.00123855,0.00670372,0.00253741,-0.00032455,-0.00045117
 ,0.00043607,-0.00005010,-0.00046813,0.00048958,0.00592339,0.00165474,0
 .00125865,0.01215132,0.03189950,-0.02977654,0.02460368,0.04993135,-0.0
 6257398,0.00000909,-0.00000983,0.00000318,0.00001535,-0.00000301,-0.00
 000819,0.00000290,-0.00002902,-0.00002462,-0.00017461,-0.00014194,-0.0
 0003417,-0.00053383,-0.00232051,0.00074606,0.00001452,-0.00007943,0.00
 023244,-0.00012025,-0.00015394,-0.00013190,-0.00000048,-0.00003716,0.0
 0021465,-0.00005383,-0.00015161,-0.00011782,-0.00049748,-0.00018794,-0
 .00006656,-0.00140416,-0.00169273,0.00081458,-0.02988234,-0.06605113,0
 .07892219,0.00004968,-0.00007602,0.00000628,-0.00001351,0.00008974,-0.
 00002657,-0.00006109,-0.00007566,0.00001084,0.00016356,-0.00025316,0.0
 0007790,0.00024757,0.00007243,0.00011397,0.00004332,0.00024480,0.00001
 128,0.00014210,-0.00028358,-0.00091496,0.00020986,0.00015593,-0.000369
 92,0.00006080,-0.00012000,0.00008869,0.00084496,-0.00124828,-0.0007305
 8,0.00078291,-0.00332315,-0.00201697,-0.10474800,0.09563580,0.05824911
 ,-0.00001203,0.00000271,-0.00000477,-0.00001644,0.00000734,0.00000210,
 0.00000395,-0.00000491,-0.00002087,-0.00000767,0.00002311,0.00003855,-
 0.00009319,0.00028032,0.00005766,-0.00000767,0.00000255,-0.00008666,0.
 00004603,-0.00002112,-0.00000207,-0.00001174,-0.00000601,0.00004184,0.
 00002304,-0.00000400,0.00000635,0.00028708,0.00029786,0.00019105,-0.00
 000758,0.00001425,0.00009227,0.00609479,-0.01138569,-0.00660297,0.1074
 1000,0.00008480,0.00002277,0.00001339,-0.00001136,0.00000967,-0.000001
 04,-0.00002721,0.00002791,-0.00001282,-0.00001068,-0.00003385,0.000008
 56,-0.00008859,0.00004324,0.00001703,-0.00001795,-0.00006110,-0.000011
 80,-0.00024458,0.00079951,0.00082875,0.00023212,0.00039710,0.00027606,
 -0.00023833,0.00009075,-0.00013699,0.00028268,0.00070034,0.00039268,-0
 .00364897,0.00561086,0.00288396,0.09602512,-0.20541424,-0.09657612,0.0
 0001337,0.00000138,0.,0.00000379,-0.00000911,0.00000166,-0.00002228,0.
 00004728,0.00003202,0.00000031,-0.00000396,-0.00000485,-0.00000241,0.0
 0058827,0.00044092,-0.00009477,0.00004852,-0.00009578,-0.00003065,-0.0
 0001191,0.00010896,0.00000543,0.00000308,0.00001340,-0.00002296,-0.000
 01375,-0.00001274,-0.00025606,0.00004009,-0.00043311,0.00008401,-0.000
 54403,0.00015402,0.01275847,-0.01941829,-0.01159659,-0.10323103,0.2160
 7166,0.00007330,0.00006506,0.00002183,0.00003403,-0.00001256,-0.000015
 29,0.00004008,-0.00002715,0.00002735,0.00018038,0.00002828,0.00009218,
 -0.00076520,0.00006105,0.00017655,0.00008195,-0.00002561,0.00006118,-0
 .00314365,0.00238211,-0.00522120,0.00078698,-0.00146424,-0.00092804,0.
 00036699,0.00016517,0.00013360,0.00157957,-0.00129298,0.00107630,0.019
 00610,-0.02705416,-0.02306838,0.05305659,-0.08861174,-0.10072153,0.000
 00805,-0.00000182,-0.00000127,0.00002645,-0.00000562,-0.00000629,-0.00
 001471,-0.00001717,-0.00004633,-0.00002782,-0.00003613,-0.00003531,-0.
 00013985,-0.00021572,0.00006446,-0.00003496,0.00004589,-0.00016652,-0.
 00017749,0.00016219,-0.00059149,-0.00005682,0.00003262,-0.00001149,-0.
 00004843,0.00004558,0.00009983,-0.00065877,0.00047838,-0.00012060,-0.0
 0035925,0.00005085,-0.00004870,-0.00430137,0.00609397,0.00453047,-0.06
 250882,0.10232076,0.12057414,0.00018791,-0.00004720,-0.00000184,-0.000
 06083,0.00008549,-0.00007176,-0.00000598,-0.00007139,0.00004942,0.0002
 7787,-0.00021256,0.00009714,-0.00027494,0.00019080,0.00095599,-0.00018
 784,0.00013096,0.00057475,-0.00018983,0.00099581,0.00048694,-0.0000890
 6,-0.00009097,-0.00008048,-0.00015050,0.00007806,0.00018351,0.00166988
 ,-0.00028529,-0.00072443,-0.00089336,0.00077004,-0.00246880,-0.3029993
 0,-0.00138178,-0.06532248,0.00000936,-0.00000145,0.00000137,0.00000700
 ,-0.00000547,0.00000198,-0.00001530,-0.00001580,-0.00004860,0.00003232
 ,-0.00006047,-0.00012494,-0.00016013,-0.00019008,0.00007457,0.00002761
 ,0.00000381,-0.00001764,0.00001059,-0.00004533,-0.00004085,0.00002697,
 0.00000396,-0.00010609,0.00001677,-0.00001665,-0.00012017,0.00010594,-
 0.00006628,0.00012068,0.00028296,0.00009992,0.00023882,-0.01067170,0.0
 0081856,-0.00200052,-0.01143073,-0.00154227,-0.00300335,0.32447432,-0.
 00024425,-0.00005327,-0.00008676,-0.00002150,-0.00013657,0.00002021,0.
 00023039,-0.00002489,0.00006292,-0.00011453,-0.00005891,0.00005203,0.0
 0014569,-0.00002525,-0.00013051,0.00016689,0.00050716,-0.00013563,-0.0
 0073988,0.00028251,-0.00037677,-0.00001988,-0.00007599,0.00003694,0.00
 034888,0.00057208,-0.00004242,-0.00028467,0.00038312,0.00082852,0.0060
 7282,-0.00139083,0.00156834,-0.00284875,-0.04717806,-0.00072500,0.0000
 0091,-0.00000939,-0.00000431,-0.00001277,0.00000566,-0.00001005,-0.000
 01626,-0.00006029,-0.00005330,0.00006716,-0.00014175,0.00013502,-0.000
 15484,-0.00009800,0.00017642,0.00001118,0.00000888,0.00000770,-0.00002
 187,0.00001767,0.00000606,0.00001384,-0.00004043,-0.00013120,-0.000018
 21,0.00002149,0.00018925,-0.00034656,0.00026200,-0.00008964,0.00058101
 ,0.00026875,0.00010627,-0.02685619,-0.00008196,-0.00640006,0.02320577,
 0.00100781,0.00683298,0.00085563,0.04603847,0.00027035,-0.00013469,0.0
 0009904,0.00001584,0.00032039,-0.00008347,-0.00029092,-0.00016855,0.00
 001642,0.00049263,-0.00027073,0.00004957,0.00027270,-0.00024924,-0.000
 73487,0.00024187,0.00013151,-0.00031802,-0.00151169,0.00019611,0.00131
 059,-0.00016288,0.00036169,0.00024665,-0.00189702,0.00000281,-0.000539
 99,0.00227992,-0.00080489,-0.00610346,-0.03768600,0.00270374,-0.013295
 26,-0.05556779,-0.00069623,-0.06164366,-0.00002835,0.00001016,-0.00000
 224,-0.00001912,0.00002225,-0.00000150,0.00000412,0.00004826,-0.000012
 28,-0.00008448,0.00004489,-0.00007463,0.00020465,-0.00026417,-0.000192
 08,0.00005757,-0.00000764,-0.00003013,0.00005160,-0.00002721,0.0000585
 2,-0.00001799,0.00000044,-0.00018950,0.00006260,0.00001596,-0.00060737
 ,-0.00000006,0.00029802,0.00012573,-0.00010683,-0.00030236,0.00001260,
 0.00777523,-0.00078318,0.00248665,0.01429728,0.00138968,0.00412454,0.0
 7134678,-0.00183702,0.07529817\\0.00000464,-0.00000270,-0.00000149,0.0
 0000039,0.00000466,-0.00000152,-0.00000430,-0.00000405,-0.00000074,0.0
 0000382,-0.00000045,-0.00000007,0.00000234,0.00000076,-0.00000118,-0.0
 0000697,-0.00000156,-0.00000214,-0.00000240,0.00000290,0.00000470,-0.0
 0000054,-0.00000016,-0.00000098,0.00000040,0.00000020,0.00000102,0.000
 00190,0.00000179,0.00000327,-0.00000067,-0.00000389,-0.00000133,0.0000
 0092,0.00000205,-0.00000434,0.00000019,-0.00000066,-0.00000253,0.00000
 050,0.00000018,-0.00000107,-0.00000091,0.00000013,0.00000036,0.0000014
 1,0.00000006,-0.00000107,-0.00000007,-0.00000050,0.00000036,-0.0000007
 5,-0.00000117,0.00000012,-0.00000078,-0.00000094,0.00000176,-0.0000009
 5,-0.00000068,0.00000035,-0.00000109,-0.00000012,0.00000242,-0.0000001
 7,0.00000079,0.00000083,-0.00000064,0.00000031,0.00000159,0.00000133,0
 .00000081,0.00000140,0.00000092,0.00000092,0.00000038,0.00000150,0.000
 00131,-0.00000010\\\@


 OUR LITTLE SYSTEMS HAVE THEIR DAY,    
   THEY HAVE THEIR DAY AND CEASE TO BE.
   THEY ARE BUT BROKEN LIGHTS OF THEE, 
 AND THOU, OH LORD, ART MORE THAN THEY.
          -------------------          
 LET KNOWLEDGE GROW FROM MORE TO MORE, 
   BUT MORE OF REVERENCE IN US DWELL.  
   THAT MIND AND SOUL, ACCORDING WELL, 
 MAY MAKE ONE MUSIC AS BEFORE.....     
          -------------------          
                    LORD TENNYSON      
 Job cpu time:       0 days  7 hours 43 minutes 27.7 seconds.
 Elapsed time:       0 days  0 hours 16 minutes 35.1 seconds.
 File lengths (MBytes):  RWF=    616 Int=      0 D2E=      0 Chk=     20 Scr=      8
 Normal termination of Gaussian 16 at Tue Nov  1 11:52:45 2022.
