 Entering Gaussian System, Link 0=g16
 Input=Nic5h3bMidBTSOptFreq_2.gjf
 Output=Nic5h3bMidBTSOptFreq_2.log
 Initial command:
 /sw/contrib/gaussian/g16/A03/g16/l1.exe "/gscratch/scrubbed/gds001/Gau-22874.inp" -scrdir="/gscratch/scrubbed/gds001/"
 Entering Link 1 = /sw/contrib/gaussian/g16/A03/g16/l1.exe PID=     22875.
  
 Copyright (c) 1988,1990,1992,1993,1995,1998,2003,2009,2016,
            Gaussian, Inc.  All Rights Reserved.
  
 This is part of the Gaussian(R) 16 program.  It is based on
 the Gaussian(R) 09 system (copyright 2009, Gaussian, Inc.),
 the Gaussian(R) 03 system (copyright 2003, Gaussian, Inc.),
 the Gaussian(R) 98 system (copyright 1998, Gaussian, Inc.),
 the Gaussian(R) 94 system (copyright 1995, Gaussian, Inc.),
 the Gaussian 92(TM) system (copyright 1992, Gaussian, Inc.),
 the Gaussian 90(TM) system (copyright 1990, Gaussian, Inc.),
 the Gaussian 88(TM) system (copyright 1988, Gaussian, Inc.),
 the Gaussian 86(TM) system (copyright 1986, Carnegie Mellon
 University), and the Gaussian 82(TM) system (copyright 1983,
 Carnegie Mellon University). Gaussian is a federally registered
 trademark of Gaussian, Inc.
  
 This software contains proprietary and confidential information,
 including trade secrets, belonging to Gaussian, Inc.
  
 This software is provided under written license and may be
 used, copied, transmitted, or stored only in accord with that
 written license.
  
 The following legend is applicable only to US Government
 contracts under FAR:
  
                    RESTRICTED RIGHTS LEGEND
  
 Use, reproduction and disclosure by the US Government is
 subject to restrictions as set forth in subparagraphs (a)
 and (c) of the Commercial Computer Software - Restricted
 Rights clause in FAR 52.227-19.
  
 Gaussian, Inc.
 340 Quinnipiac St., Bldg. 40, Wallingford CT 06492
  
  
 ---------------------------------------------------------------
 Warning -- This program may not be used in any manner that
 competes with the business of Gaussian, Inc. or will provide
 assistance to any competitor of Gaussian, Inc.  The licensee
 of this program is prohibited from giving any competitor of
 Gaussian, Inc. access to this program.  By using this program,
 the user acknowledges that Gaussian, Inc. is engaged in the
 business of creating and licensing software in the field of
 computational chemistry and represents and warrants to the
 licensee that it is not a competitor of Gaussian, Inc. and that
 it will not use this program in any manner prohibited above.
 ---------------------------------------------------------------
  

 Cite this work as:
 Gaussian 16, Revision A.03,
 M. J. Frisch, G. W. Trucks, H. B. Schlegel, G. E. Scuseria, 
 M. A. Robb, J. R. Cheeseman, G. Scalmani, V. Barone, 
 G. A. Petersson, H. Nakatsuji, X. Li, M. Caricato, A. V. Marenich, 
 J. Bloino, B. G. Janesko, R. Gomperts, B. Mennucci, H. P. Hratchian, 
 J. V. Ortiz, A. F. Izmaylov, J. L. Sonnenberg, D. Williams-Young, 
 F. Ding, F. Lipparini, F. Egidi, J. Goings, B. Peng, A. Petrone, 
 T. Henderson, D. Ranasinghe, V. G. Zakrzewski, J. Gao, N. Rega, 
 G. Zheng, W. Liang, M. Hada, M. Ehara, K. Toyota, R. Fukuda, 
 J. Hasegawa, M. Ishida, T. Nakajima, Y. Honda, O. Kitao, H. Nakai, 
 T. Vreven, K. Throssell, J. A. Montgomery, Jr., J. E. Peralta, 
 F. Ogliaro, M. J. Bearpark, J. J. Heyd, E. N. Brothers, K. N. Kudin, 
 V. N. Staroverov, T. A. Keith, R. Kobayashi, J. Normand, 
 K. Raghavachari, A. P. Rendell, J. C. Burant, S. S. Iyengar, 
 J. Tomasi, M. Cossi, J. M. Millam, M. Klene, C. Adamo, R. Cammi, 
 J. W. Ochterski, R. L. Martin, K. Morokuma, O. Farkas, 
 J. B. Foresman, and D. J. Fox, Gaussian, Inc., Wallingford CT, 2016.
 
 ******************************************
 Gaussian 16:  ES64L-G16RevA.03 25-Dec-2016
                28-Dec-2022 
 ******************************************
 %nprocshared=28
 Will use up to   28 processors via shared memory.
 %mem=41GB
 ----------------------------------------------------------------
 # wB97XD/aug-cc-pVDZ opt=(TS,CalcAll,MaxStep=5,NoEigenTest) freq
 ----------------------------------------------------------------
 1/5=1,8=5,10=4,11=1,18=20,26=3,38=1/1,3;
 2/9=110,12=2,17=6,18=5,40=1/2;
 3/5=16,7=10,11=2,25=1,30=1,71=2,74=-58,140=1/1,2,3;
 4//1;
 5/5=2,38=5/2;
 8/6=4,10=90,11=11/1;
 11/6=1,8=1,9=11,15=111,16=1/1,2,10;
 10/6=1/2;
 6/7=2,8=2,9=2,10=2,18=1,28=1/1;
 7/10=1,25=1/1,2,3,16;
 1/5=1,8=5,10=4,11=1,18=20,26=3/3(3);
 2/9=110/2;
 7/8=1,9=1,25=1,44=-1/16;
 99//99;
 2/9=110/2;
 3/5=16,7=10,11=2,25=1,30=1,71=2,74=-58,140=1/1,2,3;
 4/5=5,16=3,69=1/1;
 5/5=2,38=5/2;
 8/6=4,10=90,11=11/1;
 11/6=1,8=1,9=11,15=111,16=1/1,2,10;
 10/6=1/2;
 7/10=1,25=1/1,2,3,16;
 1/5=1,8=5,10=4,11=1,18=20,26=3/3(-8);
 2/9=110/2;
 6/7=2,8=2,9=2,10=2,18=1,19=2,28=1/1;
 7/8=1,9=1,25=1,44=-1/16;
 99//99;
 ----
 blah
 ----
 Symbolic Z-matrix:
 Charge =  1 Multiplicity = 1
 N                    -0.51204   2.48912  -0.42132 
 C                    -0.6286    3.20839   0.70041 
 C                     0.12269   2.94474   1.84067 
 C                     1.01918   1.88022   1.81366 
 C                     1.15777   1.12439   0.6497 
 C                     0.36836   1.48544  -0.44349 
 C                     2.12638  -0.02975   0.58124 
 C                     3.21528   0.05664  -0.49665 
 C                     3.62678  -1.41393  -0.74764 
 C                     2.62352  -2.24696   0.06648 
 N                     1.47832  -1.3354    0.28319 
 C                     0.54733  -1.79289   1.31887 
 H                    -1.35128   4.0246    0.68048 
 H                     0.00187   3.55821   2.73143 
 H                     1.61332   1.6416    2.69681 
 H                     0.43866   0.93883  -1.38451 
 H                     2.60621  -0.12751   1.57043 
 H                     4.04586   0.68549  -0.16162 
 H                     2.80551   0.50894  -1.40701 
 H                     4.65177  -1.61735  -0.42252 
 H                     3.56714  -1.65687  -1.81373 
 H                     3.04091  -2.53976   1.04211 
 H                     2.27993  -3.15579  -0.44163 
 H                     1.04872  -1.85741   2.29628 
 H                     0.16979  -2.78452   1.04513 
 H                    -0.30257  -1.10448   1.38316 
 O                    -2.31328   1.86458  -2.36345 
 O                     0.20766  -1.37288  -1.8662 
 O                    -2.08544  -0.65205  -1.82398 
 H                    -2.36826   2.33665  -3.19685 
 H                     0.3764   -2.16562  -2.38052 
 H                    -2.42109  -0.68461  -0.88857 
 H                    -1.67391   2.33276  -1.77348 
 H                    -2.18351   0.29426  -2.14112 
 H                    -1.00857  -1.01039  -1.85854 
 H                     0.80547  -1.34133  -0.87778 
 O                    -2.80014  -0.67672   0.71539 
 H                    -3.19008   0.14102   1.0354 
 H                    -3.39807  -1.39001   1.01758 
 O                    -4.45842  -2.70606   1.48297 
 H                    -4.53612  -3.10795   2.35208 
 H                    -5.25733  -2.94741   1.00656 
 
 Add virtual bond connecting atoms H36        and O28        Dist= 2.18D+00.
 Add virtual bond connecting atoms H35        and O28        Dist= 2.40D+00.
 Add virtual bond connecting atoms H36        and N11        Dist= 2.54D+00.
 Add virtual bond connecting atoms H34        and O27        Dist= 3.01D+00.
 Add virtual bond connecting atoms O37        and H32        Dist= 3.11D+00.
 Add virtual bond connecting atoms O40        and H39        Dist= 3.31D+00.

 GradGradGradGradGradGradGradGradGradGradGradGradGradGradGradGradGradGrad
 Berny optimization.
 Initialization pass.
                           ----------------------------
                           !    Initial Parameters    !
                           ! (Angstroms and Degrees)  !
 --------------------------                            --------------------------
 ! Name  Definition              Value          Derivative Info.                !
 --------------------------------------------------------------------------------
 ! R1    R(1,2)                  1.3376         calculate D2E/DX2 analytically  !
 ! R2    R(1,6)                  1.3353         calculate D2E/DX2 analytically  !
 ! R3    R(2,3)                  1.3907         calculate D2E/DX2 analytically  !
 ! R4    R(2,13)                 1.0903         calculate D2E/DX2 analytically  !
 ! R5    R(3,4)                  1.392          calculate D2E/DX2 analytically  !
 ! R6    R(3,14)                 1.0883         calculate D2E/DX2 analytically  !
 ! R7    R(4,5)                  1.3947         calculate D2E/DX2 analytically  !
 ! R8    R(4,15)                 1.0908         calculate D2E/DX2 analytically  !
 ! R9    R(5,6)                  1.3959         calculate D2E/DX2 analytically  !
 ! R10   R(5,7)                  1.5083         calculate D2E/DX2 analytically  !
 ! R11   R(6,16)                 1.0905         calculate D2E/DX2 analytically  !
 ! R12   R(7,8)                  1.5346         calculate D2E/DX2 analytically  !
 ! R13   R(7,11)                 1.4878         calculate D2E/DX2 analytically  !
 ! R14   R(7,17)                 1.1038         calculate D2E/DX2 analytically  !
 ! R15   R(8,9)                  1.5475         calculate D2E/DX2 analytically  !
 ! R16   R(8,18)                 1.0943         calculate D2E/DX2 analytically  !
 ! R17   R(8,19)                 1.096          calculate D2E/DX2 analytically  !
 ! R18   R(9,10)                 1.5373         calculate D2E/DX2 analytically  !
 ! R19   R(9,20)                 1.0944         calculate D2E/DX2 analytically  !
 ! R20   R(9,21)                 1.0951         calculate D2E/DX2 analytically  !
 ! R21   R(10,11)                1.4797         calculate D2E/DX2 analytically  !
 ! R22   R(10,22)                1.1008         calculate D2E/DX2 analytically  !
 ! R23   R(10,23)                1.0964         calculate D2E/DX2 analytically  !
 ! R24   R(11,12)                1.4658         calculate D2E/DX2 analytically  !
 ! R25   R(11,36)                1.3419         calculate D2E/DX2 analytically  !
 ! R26   R(12,24)                1.1004         calculate D2E/DX2 analytically  !
 ! R27   R(12,25)                1.0958         calculate D2E/DX2 analytically  !
 ! R28   R(12,26)                1.0956         calculate D2E/DX2 analytically  !
 ! R29   R(27,30)                0.9594         calculate D2E/DX2 analytically  !
 ! R30   R(27,33)                0.988          calculate D2E/DX2 analytically  !
 ! R31   R(27,34)                1.5913         calculate D2E/DX2 analytically  !
 ! R32   R(28,31)                0.9599         calculate D2E/DX2 analytically  !
 ! R33   R(28,35)                1.2691         calculate D2E/DX2 analytically  !
 ! R34   R(28,36)                1.1556         calculate D2E/DX2 analytically  !
 ! R35   R(29,32)                0.9943         calculate D2E/DX2 analytically  !
 ! R36   R(29,34)                1.0028         calculate D2E/DX2 analytically  !
 ! R37   R(29,35)                1.1354         calculate D2E/DX2 analytically  !
 ! R38   R(32,37)                1.6482         calculate D2E/DX2 analytically  !
 ! R39   R(37,38)                0.9608         calculate D2E/DX2 analytically  !
 ! R40   R(37,39)                0.9786         calculate D2E/DX2 analytically  !
 ! R41   R(39,40)                1.753          calculate D2E/DX2 analytically  !
 ! R42   R(40,41)                0.9607         calculate D2E/DX2 analytically  !
 ! R43   R(40,42)                0.961          calculate D2E/DX2 analytically  !
 ! A1    A(2,1,6)              118.3965         calculate D2E/DX2 analytically  !
 ! A2    A(1,2,3)              122.5848         calculate D2E/DX2 analytically  !
 ! A3    A(1,2,13)             116.4214         calculate D2E/DX2 analytically  !
 ! A4    A(3,2,13)             120.9939         calculate D2E/DX2 analytically  !
 ! A5    A(2,3,4)              118.489          calculate D2E/DX2 analytically  !
 ! A6    A(2,3,14)             120.2805         calculate D2E/DX2 analytically  !
 ! A7    A(4,3,14)             121.2295         calculate D2E/DX2 analytically  !
 ! A8    A(3,4,5)              119.6443         calculate D2E/DX2 analytically  !
 ! A9    A(3,4,15)             120.1566         calculate D2E/DX2 analytically  !
 ! A10   A(5,4,15)             120.1984         calculate D2E/DX2 analytically  !
 ! A11   A(4,5,6)              117.2064         calculate D2E/DX2 analytically  !
 ! A12   A(4,5,7)              121.0888         calculate D2E/DX2 analytically  !
 ! A13   A(6,5,7)              121.7044         calculate D2E/DX2 analytically  !
 ! A14   A(1,6,5)              123.6611         calculate D2E/DX2 analytically  !
 ! A15   A(1,6,16)             115.6955         calculate D2E/DX2 analytically  !
 ! A16   A(5,6,16)             120.6419         calculate D2E/DX2 analytically  !
 ! A17   A(5,7,8)              116.3898         calculate D2E/DX2 analytically  !
 ! A18   A(5,7,11)             113.6335         calculate D2E/DX2 analytically  !
 ! A19   A(5,7,17)             107.8344         calculate D2E/DX2 analytically  !
 ! A20   A(8,7,11)             102.5782         calculate D2E/DX2 analytically  !
 ! A21   A(8,7,17)             109.0267         calculate D2E/DX2 analytically  !
 ! A22   A(11,7,17)            106.9277         calculate D2E/DX2 analytically  !
 ! A23   A(7,8,9)              104.4239         calculate D2E/DX2 analytically  !
 ! A24   A(7,8,18)             110.8462         calculate D2E/DX2 analytically  !
 ! A25   A(7,8,19)             109.96           calculate D2E/DX2 analytically  !
 ! A26   A(9,8,18)             113.1967         calculate D2E/DX2 analytically  !
 ! A27   A(9,8,19)             110.907          calculate D2E/DX2 analytically  !
 ! A28   A(18,8,19)            107.5128         calculate D2E/DX2 analytically  !
 ! A29   A(8,9,10)             104.8036         calculate D2E/DX2 analytically  !
 ! A30   A(8,9,20)             112.1788         calculate D2E/DX2 analytically  !
 ! A31   A(8,9,21)             110.7464         calculate D2E/DX2 analytically  !
 ! A32   A(10,9,20)            110.6822         calculate D2E/DX2 analytically  !
 ! A33   A(10,9,21)            111.0884         calculate D2E/DX2 analytically  !
 ! A34   A(20,9,21)            107.3971         calculate D2E/DX2 analytically  !
 ! A35   A(9,10,11)            104.4082         calculate D2E/DX2 analytically  !
 ! A36   A(9,10,22)            111.4715         calculate D2E/DX2 analytically  !
 ! A37   A(9,10,23)            114.0954         calculate D2E/DX2 analytically  !
 ! A38   A(11,10,22)           109.1182         calculate D2E/DX2 analytically  !
 ! A39   A(11,10,23)           109.6319         calculate D2E/DX2 analytically  !
 ! A40   A(22,10,23)           108.0027         calculate D2E/DX2 analytically  !
 ! A41   A(7,11,10)            103.465          calculate D2E/DX2 analytically  !
 ! A42   A(7,11,12)            114.1421         calculate D2E/DX2 analytically  !
 ! A43   A(7,11,36)            113.3043         calculate D2E/DX2 analytically  !
 ! A44   A(10,11,12)           113.7515         calculate D2E/DX2 analytically  !
 ! A45   A(10,11,36)           104.9899         calculate D2E/DX2 analytically  !
 ! A46   A(12,11,36)           106.9446         calculate D2E/DX2 analytically  !
 ! A47   A(11,12,24)           110.884          calculate D2E/DX2 analytically  !
 ! A48   A(11,12,25)           108.9505         calculate D2E/DX2 analytically  !
 ! A49   A(11,12,26)           109.7577         calculate D2E/DX2 analytically  !
 ! A50   A(24,12,25)           109.0144         calculate D2E/DX2 analytically  !
 ! A51   A(24,12,26)           109.7659         calculate D2E/DX2 analytically  !
 ! A52   A(25,12,26)           108.4211         calculate D2E/DX2 analytically  !
 ! A53   A(30,27,33)           108.8227         calculate D2E/DX2 analytically  !
 ! A54   A(30,27,34)           127.7064         calculate D2E/DX2 analytically  !
 ! A55   A(33,27,34)           109.3562         calculate D2E/DX2 analytically  !
 ! A56   A(31,28,35)           114.0527         calculate D2E/DX2 analytically  !
 ! A57   A(31,28,36)           112.9483         calculate D2E/DX2 analytically  !
 ! A58   A(35,28,36)           118.8688         calculate D2E/DX2 analytically  !
 ! A59   A(32,29,34)           107.1809         calculate D2E/DX2 analytically  !
 ! A60   A(32,29,35)           109.782          calculate D2E/DX2 analytically  !
 ! A61   A(34,29,35)           112.3913         calculate D2E/DX2 analytically  !
 ! A62   A(32,37,38)           114.9315         calculate D2E/DX2 analytically  !
 ! A63   A(32,37,39)           115.9477         calculate D2E/DX2 analytically  !
 ! A64   A(38,37,39)           105.6369         calculate D2E/DX2 analytically  !
 ! A65   A(39,40,41)           127.0978         calculate D2E/DX2 analytically  !
 ! A66   A(39,40,42)           124.0425         calculate D2E/DX2 analytically  !
 ! A67   A(41,40,42)           106.033          calculate D2E/DX2 analytically  !
 ! A68   L(29,32,37,1,-1)      174.7813         calculate D2E/DX2 analytically  !
 ! A69   L(27,34,29,3,-1)      170.4009         calculate D2E/DX2 analytically  !
 ! A70   L(28,35,29,1,-1)      177.7964         calculate D2E/DX2 analytically  !
 ! A71   L(11,36,28,1,-1)      180.8758         calculate D2E/DX2 analytically  !
 ! A72   L(37,39,40,25,-1)     179.1992         calculate D2E/DX2 analytically  !
 ! A73   L(29,32,37,1,-2)      184.3514         calculate D2E/DX2 analytically  !
 ! A74   L(27,34,29,3,-2)      175.6503         calculate D2E/DX2 analytically  !
 ! A75   L(28,35,29,1,-2)      180.617          calculate D2E/DX2 analytically  !
 ! A76   L(11,36,28,1,-2)      181.4515         calculate D2E/DX2 analytically  !
 ! A77   L(37,39,40,25,-2)     182.8098         calculate D2E/DX2 analytically  !
 ! D1    D(6,1,2,3)             -0.4512         calculate D2E/DX2 analytically  !
 ! D2    D(6,1,2,13)           179.5466         calculate D2E/DX2 analytically  !
 ! D3    D(2,1,6,5)              1.3757         calculate D2E/DX2 analytically  !
 ! D4    D(2,1,6,16)          -179.0562         calculate D2E/DX2 analytically  !
 ! D5    D(1,2,3,4)             -0.7301         calculate D2E/DX2 analytically  !
 ! D6    D(1,2,3,14)           179.6214         calculate D2E/DX2 analytically  !
 ! D7    D(13,2,3,4)           179.2722         calculate D2E/DX2 analytically  !
 ! D8    D(13,2,3,14)           -0.3763         calculate D2E/DX2 analytically  !
 ! D9    D(2,3,4,5)              1.0282         calculate D2E/DX2 analytically  !
 ! D10   D(2,3,4,15)          -179.2528         calculate D2E/DX2 analytically  !
 ! D11   D(14,3,4,5)          -179.3268         calculate D2E/DX2 analytically  !
 ! D12   D(14,3,4,15)            0.3922         calculate D2E/DX2 analytically  !
 ! D13   D(3,4,5,6)             -0.1954         calculate D2E/DX2 analytically  !
 ! D14   D(3,4,5,7)            179.5619         calculate D2E/DX2 analytically  !
 ! D15   D(15,4,5,6)          -179.9143         calculate D2E/DX2 analytically  !
 ! D16   D(15,4,5,7)            -0.1571         calculate D2E/DX2 analytically  !
 ! D17   D(4,5,6,1)             -1.0502         calculate D2E/DX2 analytically  !
 ! D18   D(4,5,6,16)           179.4022         calculate D2E/DX2 analytically  !
 ! D19   D(7,5,6,1)            179.1941         calculate D2E/DX2 analytically  !
 ! D20   D(7,5,6,16)            -0.3535         calculate D2E/DX2 analytically  !
 ! D21   D(4,5,7,8)           -121.1357         calculate D2E/DX2 analytically  !
 ! D22   D(4,5,7,11)           120.0166         calculate D2E/DX2 analytically  !
 ! D23   D(4,5,7,17)             1.6802         calculate D2E/DX2 analytically  !
 ! D24   D(6,5,7,8)             58.6106         calculate D2E/DX2 analytically  !
 ! D25   D(6,5,7,11)           -60.2371         calculate D2E/DX2 analytically  !
 ! D26   D(6,5,7,17)          -178.5736         calculate D2E/DX2 analytically  !
 ! D27   D(5,7,8,9)           -156.3261         calculate D2E/DX2 analytically  !
 ! D28   D(5,7,8,18)            81.4562         calculate D2E/DX2 analytically  !
 ! D29   D(5,7,8,19)           -37.2859         calculate D2E/DX2 analytically  !
 ! D30   D(11,7,8,9)           -31.6292         calculate D2E/DX2 analytically  !
 ! D31   D(11,7,8,18)         -153.8468         calculate D2E/DX2 analytically  !
 ! D32   D(11,7,8,19)           87.4111         calculate D2E/DX2 analytically  !
 ! D33   D(17,7,8,9)            81.4816         calculate D2E/DX2 analytically  !
 ! D34   D(17,7,8,18)          -40.736          calculate D2E/DX2 analytically  !
 ! D35   D(17,7,8,19)         -159.4781         calculate D2E/DX2 analytically  !
 ! D36   D(5,7,11,10)          171.7573         calculate D2E/DX2 analytically  !
 ! D37   D(5,7,11,12)          -64.1061         calculate D2E/DX2 analytically  !
 ! D38   D(5,7,11,36)           58.6333         calculate D2E/DX2 analytically  !
 ! D39   D(8,7,11,10)           45.2636         calculate D2E/DX2 analytically  !
 ! D40   D(8,7,11,12)          169.4002         calculate D2E/DX2 analytically  !
 ! D41   D(8,7,11,36)          -67.8604         calculate D2E/DX2 analytically  !
 ! D42   D(17,7,11,10)         -69.3856         calculate D2E/DX2 analytically  !
 ! D43   D(17,7,11,12)          54.751          calculate D2E/DX2 analytically  !
 ! D44   D(17,7,11,36)         177.4904         calculate D2E/DX2 analytically  !
 ! D45   D(7,8,9,10)             7.0791         calculate D2E/DX2 analytically  !
 ! D46   D(7,8,9,20)          -113.0688         calculate D2E/DX2 analytically  !
 ! D47   D(7,8,9,21)           126.9517         calculate D2E/DX2 analytically  !
 ! D48   D(18,8,9,10)          127.7415         calculate D2E/DX2 analytically  !
 ! D49   D(18,8,9,20)            7.5936         calculate D2E/DX2 analytically  !
 ! D50   D(18,8,9,21)         -112.3859         calculate D2E/DX2 analytically  !
 ! D51   D(19,8,9,10)         -111.3173         calculate D2E/DX2 analytically  !
 ! D52   D(19,8,9,20)          128.5348         calculate D2E/DX2 analytically  !
 ! D53   D(19,8,9,21)            8.5553         calculate D2E/DX2 analytically  !
 ! D54   D(8,9,10,11)           20.245          calculate D2E/DX2 analytically  !
 ! D55   D(8,9,10,22)          -97.4278         calculate D2E/DX2 analytically  !
 ! D56   D(8,9,10,23)          139.9077         calculate D2E/DX2 analytically  !
 ! D57   D(20,9,10,11)         141.3845         calculate D2E/DX2 analytically  !
 ! D58   D(20,9,10,22)          23.7117         calculate D2E/DX2 analytically  !
 ! D59   D(20,9,10,23)         -98.9529         calculate D2E/DX2 analytically  !
 ! D60   D(21,9,10,11)         -99.3989         calculate D2E/DX2 analytically  !
 ! D61   D(21,9,10,22)         142.9283         calculate D2E/DX2 analytically  !
 ! D62   D(21,9,10,23)          20.2637         calculate D2E/DX2 analytically  !
 ! D63   D(9,10,11,7)          -40.9274         calculate D2E/DX2 analytically  !
 ! D64   D(9,10,11,12)        -165.3186         calculate D2E/DX2 analytically  !
 ! D65   D(9,10,11,36)          78.1007         calculate D2E/DX2 analytically  !
 ! D66   D(22,10,11,7)          78.3501         calculate D2E/DX2 analytically  !
 ! D67   D(22,10,11,12)        -46.0411         calculate D2E/DX2 analytically  !
 ! D68   D(22,10,11,36)       -162.6219         calculate D2E/DX2 analytically  !
 ! D69   D(23,10,11,7)        -163.5546         calculate D2E/DX2 analytically  !
 ! D70   D(23,10,11,12)         72.0542         calculate D2E/DX2 analytically  !
 ! D71   D(23,10,11,36)        -44.5266         calculate D2E/DX2 analytically  !
 ! D72   D(7,11,12,24)         -56.4852         calculate D2E/DX2 analytically  !
 ! D73   D(7,11,12,25)        -176.4657         calculate D2E/DX2 analytically  !
 ! D74   D(7,11,12,26)          64.9574         calculate D2E/DX2 analytically  !
 ! D75   D(10,11,12,24)         61.9401         calculate D2E/DX2 analytically  !
 ! D76   D(10,11,12,25)        -58.0404         calculate D2E/DX2 analytically  !
 ! D77   D(10,11,12,26)       -176.6173         calculate D2E/DX2 analytically  !
 ! D78   D(36,11,12,24)        177.3745         calculate D2E/DX2 analytically  !
 ! D79   D(36,11,12,25)         57.394          calculate D2E/DX2 analytically  !
 ! D80   D(36,11,12,26)        -61.1829         calculate D2E/DX2 analytically  !
 ! D81   D(7,11,28,31)         135.2703         calculate D2E/DX2 analytically  !
 ! D82   D(7,11,28,35)         -87.917          calculate D2E/DX2 analytically  !
 ! D83   D(10,11,28,31)         22.7352         calculate D2E/DX2 analytically  !
 ! D84   D(10,11,28,35)        159.5479         calculate D2E/DX2 analytically  !
 ! D85   D(12,11,28,31)        -98.0949         calculate D2E/DX2 analytically  !
 ! D86   D(12,11,28,35)         38.7178         calculate D2E/DX2 analytically  !
 ! D87   D(30,27,29,32)       -158.78           calculate D2E/DX2 analytically  !
 ! D88   D(30,27,29,35)         83.9286         calculate D2E/DX2 analytically  !
 ! D89   D(33,27,29,32)         65.9584         calculate D2E/DX2 analytically  !
 ! D90   D(33,27,29,35)        -51.3331         calculate D2E/DX2 analytically  !
 ! D91   D(31,28,29,32)        117.646          calculate D2E/DX2 analytically  !
 ! D92   D(31,28,29,34)       -123.9527         calculate D2E/DX2 analytically  !
 ! D93   D(36,28,29,32)        -19.91           calculate D2E/DX2 analytically  !
 ! D94   D(36,28,29,34)         98.4912         calculate D2E/DX2 analytically  !
 ! D95   D(34,29,37,38)          8.5404         calculate D2E/DX2 analytically  !
 ! D96   D(34,29,37,39)        134.3315         calculate D2E/DX2 analytically  !
 ! D97   D(35,29,37,38)        128.7402         calculate D2E/DX2 analytically  !
 ! D98   D(35,29,37,39)       -105.4687         calculate D2E/DX2 analytically  !
 ! D99   D(32,37,40,41)        153.7108         calculate D2E/DX2 analytically  !
 ! D100  D(32,37,40,42)        -47.0083         calculate D2E/DX2 analytically  !
 ! D101  D(38,37,40,41)        -77.9357         calculate D2E/DX2 analytically  !
 ! D102  D(38,37,40,42)         81.3452         calculate D2E/DX2 analytically  !
 --------------------------------------------------------------------------------
 Trust Radius=5.00D-02 FncErr=1.00D-07 GrdErr=1.00D-06 EigMax=2.50D+02 EigMin=1.00D-04
 Number of steps in this run=    232 maximum allowed number of steps=    252.
 Search for a saddle point of order  1.
 GradGradGradGradGradGradGradGradGradGradGradGradGradGradGradGradGradGrad

                          Input orientation:                          
 ---------------------------------------------------------------------
 Center     Atomic      Atomic             Coordinates (Angstroms)
 Number     Number       Type             X           Y           Z
 ---------------------------------------------------------------------
      1          7           0       -0.512038    2.489118   -0.421318
      2          6           0       -0.628604    3.208391    0.700405
      3          6           0        0.122690    2.944735    1.840666
      4          6           0        1.019184    1.880218    1.813658
      5          6           0        1.157771    1.124392    0.649701
      6          6           0        0.368363    1.485443   -0.443486
      7          6           0        2.126380   -0.029753    0.581238
      8          6           0        3.215277    0.056644   -0.496652
      9          6           0        3.626783   -1.413926   -0.747636
     10          6           0        2.623522   -2.246960    0.066480
     11          7           0        1.478320   -1.335400    0.283188
     12          6           0        0.547326   -1.792890    1.318867
     13          1           0       -1.351280    4.024603    0.680482
     14          1           0        0.001866    3.558211    2.731431
     15          1           0        1.613315    1.641601    2.696809
     16          1           0        0.438663    0.938832   -1.384509
     17          1           0        2.606206   -0.127514    1.570430
     18          1           0        4.045861    0.685494   -0.161618
     19          1           0        2.805513    0.508936   -1.407009
     20          1           0        4.651770   -1.617347   -0.422522
     21          1           0        3.567140   -1.656871   -1.813731
     22          1           0        3.040912   -2.539759    1.042112
     23          1           0        2.279927   -3.155789   -0.441628
     24          1           0        1.048721   -1.857410    2.296275
     25          1           0        0.169792   -2.784520    1.045130
     26          1           0       -0.302569   -1.104481    1.383158
     27          8           0       -2.313284    1.864575   -2.363447
     28          8           0        0.207662   -1.372881   -1.866201
     29          8           0       -2.085437   -0.652049   -1.823980
     30          1           0       -2.368261    2.336650   -3.196845
     31          1           0        0.376403   -2.165622   -2.380515
     32          1           0       -2.421092   -0.684611   -0.888565
     33          1           0       -1.673910    2.332757   -1.773483
     34          1           0       -2.183513    0.294257   -2.141124
     35          1           0       -1.008570   -1.010392   -1.858537
     36          1           0        0.805473   -1.341329   -0.877782
     37          8           0       -2.800138   -0.676723    0.715394
     38          1           0       -3.190080    0.141023    1.035400
     39          1           0       -3.398065   -1.390009    1.017575
     40          8           0       -4.458416   -2.706062    1.482971
     41          1           0       -4.536123   -3.107949    2.352083
     42          1           0       -5.257330   -2.947412    1.006560
 ---------------------------------------------------------------------
                    Distance matrix (angstroms):
                    1          2          3          4          5
     1  N    0.000000
     2  C    1.337611   0.000000
     3  C    2.393123   1.390738   0.000000
     4  C    2.776782   2.391355   1.391987   0.000000
     5  C    2.407866   2.745316   2.409033   1.394731   0.000000
     6  C    1.335276   2.295861   2.721624   2.382040   1.395916
     7  C    3.782999   4.253200   3.801120   2.528385   1.508291
     8  C    4.451458   5.112913   4.834069   3.672299   2.586028
     9  C    5.698252   6.447554   6.162459   4.920486   3.806787
    10  C    5.700887   6.382714   6.029560   4.760266   3.722175
    11  N    4.368614   5.025857   4.752160   3.590730   2.507521
    12  C    4.741950   5.174758   4.785152   3.736200   3.054662
    13  H    2.067850   1.090348   2.164424   3.391397   3.835037
    14  H    3.368514   2.155211   1.088308   2.166311   3.404878
    15  H    3.867574   3.386246   2.157105   1.090819   2.160018
    16  H    2.057901   3.261414   3.811199   3.384004   2.165539
    17  H    4.531806   4.727494   3.959747   2.570756   2.124376
    18  H    4.908660   5.381330   4.950210   3.806554   3.031820
    19  H    3.987336   4.849888   4.866010   3.929896   2.706270
    20  H    6.597573   7.240930   6.815217   5.516262   4.568897
    21  H    5.980613   6.898980   6.811287   5.671070   4.428203
    22  H    6.328877   6.828129   6.263656   4.921267   4.138382
    23  H    6.297655   7.089893   6.861409   5.660137   4.557432
    24  H    5.358506   5.569790   4.911793   3.768774   3.407967
    25  H    5.516033   6.055679   5.784415   4.803320   4.051180
    26  H    4.026657   4.378734   4.097110   3.292535   2.763770
    27  O    2.721471   3.745821   4.977477   5.343575   4.655658
    28  O    4.185772   5.317411   5.691212   4.978211   3.669992
    29  O    3.782853   4.837135   5.589482   5.411419   4.448959
    30  H    3.342508   4.356018   5.652532   6.065332   5.357088
    31  H    5.127805   6.275518   6.633136   5.862856   4.540588
    32  H    3.733010   4.570919   5.204967   5.071080   4.294999
    33  H    1.789622   2.824805   4.082201   4.508340   3.917957
    34  H    3.250996   4.357087   5.310203   5.330370   4.431930
    35  H    3.815588   4.948807   5.532349   5.094353   3.942283
    36  H    4.076336   5.024660   5.121181   4.203319   2.921831
    37  O    4.068177   4.450831   4.787914   4.725606   4.348951
    38  H    3.848050   4.010253   4.414034   4.620432   4.474325
    39  H    5.044521   5.377341   5.644750   5.553397   5.216626
    40  O    6.796331   7.089473   7.283267   7.151742   6.848961
    41  H    7.430489   7.608738   7.655134   7.485529   7.295974
    42  H    7.356119   7.707966   8.022328   7.959400   7.606606
                    6          7          8          9         10
     6  C    0.000000
     7  C    2.537026   0.000000
     8  C    3.185783   1.534604   0.000000
     9  C    4.372202   2.435785   1.547548   0.000000
    10  C    4.390517   2.329835   2.444153   1.537291   0.000000
    11  N    3.117245   1.487794   2.358592   2.384252   1.479659
    12  C    3.726310   2.479145   3.719523   3.727882   2.466828
    13  H    3.266161   5.342450   6.163099   7.509875   7.450406
    14  H    3.809302   4.691522   5.745216   7.068669   6.904712
    15  H    3.381678   2.744504   3.908525   5.025386   4.802089
    16  H    1.090527   2.765991   3.045674   4.013127   4.126530
    17  H    3.415469   1.103762   2.162801   2.840750   2.598888
    18  H    3.774038   2.178949   1.094335   2.219596   3.267164
    19  H    2.796720   2.168994   1.096004   2.192409   3.130376
    20  H    5.289170   3.147314   2.207092   1.094385   2.179295
    21  H    4.688697   3.234065   2.189666   1.095052   2.184906
    22  H    5.054876   2.710886   3.023162   2.194070   1.100819
    23  H    5.019474   3.292709   3.346286   2.223004   1.096449
    24  H    4.375368   2.728192   4.019703   4.013537   2.757487
    25  H    4.526366   3.410597   4.441203   4.128356   2.695833
    26  H    3.239519   2.774511   4.154171   4.480608   3.406011
    27  O    3.319823   5.654225   6.108889   6.974511   6.868866
    28  O    3.196867   3.387540   3.600688   3.597674   3.214910
    29  O    3.534936   4.889962   5.510137   5.862459   5.319011
    30  H    3.974248   6.330527   6.607977   7.483715   7.521746
    31  H    4.133089   4.049239   4.067753   3.714339   3.323243
    32  H    3.562062   4.823760   5.698395   6.093320   5.366673
    33  H    2.580254   5.056517   5.542124   6.571708   6.544249
    34  H    3.288308   5.107976   5.648688   6.214438   5.868465
    35  H    3.182374   4.091707   4.564447   4.783664   4.292655
    36  H    2.893150   2.365114   2.811893   2.825243   2.239888
    37  O    4.007164   4.970628   6.179976   6.632438   5.683557
    38  H    4.081309   5.338555   6.586570   7.215726   6.359185
    39  H    4.958720   5.706153   6.937001   7.243275   6.156172
    40  O    6.676657   7.164865   8.392676   8.486204   7.236786
    41  H    7.277942   7.549843   8.843876   8.894437   7.564774
    42  H    7.307616   7.950648   9.114223   9.184566   7.967573
                   11         12         13         14         15
    11  N    0.000000
    12  C    1.465837   0.000000
    13  H    6.074052   6.152679   0.000000
    14  H    5.667560   5.561218   2.500983   0.000000
    15  H    3.834883   3.851076   4.305008   2.504268   0.000000
    16  H    3.005700   3.844783   4.121901   4.898255   4.304747
    17  H    2.094781   2.660028   5.804634   4.659944   2.320416
    18  H    3.297595   4.535854   6.402180   5.742485   3.873245
    19  H    2.831922   4.222347   5.830648   5.855357   4.421039
    20  H    3.263174   4.462030   8.311728   7.639072   5.439042
    21  H    2.977177   4.353269   7.917771   7.782465   5.919655
    22  H    2.113798   2.617705   7.906515   7.019604   4.718032
    23  H    2.117014   2.821124   8.124212   7.767603   5.771404
    24  H    2.123575   1.100403   6.555064   5.533012   3.566829
    25  H    2.095889   1.095807   6.986472   6.565215   4.939873
    26  H    2.105902   1.095610   5.282145   4.863252   3.596840
    27  O    5.623236   5.926177   3.854436   5.846888   6.408907
    28  O    2.497168   3.230548   6.168365   6.745090   5.646594
    29  O    4.196128   4.255637   5.355594   6.544837   6.275279
    30  H    6.355373   6.778304   4.349379   6.500321   7.146412
    31  H    2.999801   3.722039   7.118531   7.683393   6.465610
    32  H    4.123342   3.861676   5.077706   6.080842   5.877296
    33  H    5.255647   5.614043   2.998062   4.960263   5.591695
    34  H    4.684239   4.877007   4.750742   6.258680   6.295779
    35  H    3.298066   3.623398   5.649358   6.554458   5.887149
    36  H    1.341868   2.257391   5.989407   6.138216   4.725270
    37  O    4.350386   3.579878   4.919642   5.463543   5.364625
    38  H    4.953747   4.217651   4.311536   4.974155   5.299492
    39  H    4.931677   3.977336   5.798360   6.243534   6.092981
    40  O    6.209914   5.090999   7.456550   7.790628   7.565811
    41  H    6.602710   5.351483   7.988165   8.073100   7.777702
    42  H    6.963536   5.926592   7.998284   8.541514   8.433371
                   16         17         18         19         20
    16  H    0.000000
    17  H    3.816674   0.000000
    18  H    3.817266   2.394489   0.000000
    19  H    2.405680   3.051219   1.766532   0.000000
    20  H    5.020930   3.221148   2.395469   2.983112   0.000000
    21  H    4.087698   3.835997   2.906084   2.331570   1.764496
    22  H    4.976021   2.507392   3.586244   3.917671   2.364500
    23  H    4.587505   3.650381   4.237025   3.826018   2.827155
    24  H    4.662543   2.438268   4.635779   4.732887   4.520116
    25  H    4.454075   3.643039   5.340520   4.879228   4.858438
    26  H    3.519167   3.074168   4.949665   4.477535   5.298017
    27  O    3.064071   6.606451   6.832057   5.380949   8.025145
    28  O    2.372637   4.372000   4.676995   3.240513   4.679110
    29  O    3.015811   5.814522   6.491940   5.044120   6.948802
    30  H    3.621778   7.317400   7.285594   5.771654   8.521256
    31  H    3.260911   4.973517   5.149494   3.741864   4.734248
    32  H    3.325617   5.624121   6.650347   5.386162   7.149306
    33  H    2.560721   5.962724   6.166633   4.850346   7.579093
    34  H    2.804238   6.074120   6.548023   5.047315   7.302665
    35  H    2.473593   5.060029   5.594894   4.130310   5.871114
    36  H    2.364415   3.272572   3.888575   2.775558   3.882969
    37  O    4.184429   5.501025   7.035090   6.110131   7.596747
    38  H    4.433986   5.827118   7.354464   6.484432   8.167742
    39  H    5.090579   6.160423   7.817304   6.925964   8.180795
    40  O    6.744559   7.521000   9.302153   8.452979   9.370789
    41  H    7.422065   7.778614   9.713874   9.006234   9.712760
    42  H    7.298249   8.372871  10.055447   9.098412  10.099585
                   21         22         23         24         25
    21  H    0.000000
    22  H    3.035168   0.000000
    23  H    2.405481   1.777660   0.000000
    24  H    4.824396   2.450990   3.270744   0.000000
    25  H    4.581119   2.881536   2.607865   1.788131   0.000000
    26  H    5.049741   3.654477   3.769217   1.796293   1.777616
    27  O    6.876202   7.724209   7.070716   6.846113   6.276794
    28  O    3.371868   4.224594   3.082605   4.274150   3.235739
    29  O    5.741202   6.169067   5.218813   5.315293   4.226734
    30  H    7.286302   8.426581   7.704788   7.709752   7.117756
    31  H    3.280377   4.353615   2.891905   4.734910   3.487229
    32  H    6.136786   6.082974   5.329733   4.853686   3.855058
    33  H    6.586908   7.341562   6.894259   6.444622   6.126201
    34  H    6.081455   6.742348   5.891808   5.896399   5.016884
    35  H    4.621370   5.210665   4.174275   4.712998   3.601021
    36  H    2.932980   3.181103   2.378342   3.224926   2.486862
    37  O    6.920939   6.139667   5.769881   4.325150   3.656777
    38  H    7.550496   6.783207   6.555269   4.852935   4.455069
    39  H    7.523403   6.540868   6.122650   4.650531   3.830799
    40  O    8.739485   7.514116   7.022222   5.631184   4.649534
    41  H    9.226186   7.710404   7.366522   5.723412   4.894729
    42  H    9.353652   8.308325   7.677950   6.528227   5.429703
                   26         27         28         29         30
    26  H    0.000000
    27  O    5.186070   0.000000
    28  O    3.300107   4.133224   0.000000
    29  O    3.697167   2.583861   2.404097   0.000000
    30  H    6.089737   0.959390   4.708143   3.301071   0.000000
    31  H    3.968911   4.845327   0.959912   2.943007   5.335731
    32  H    3.134510   2.947075   2.887877   0.994347   3.802495
    33  H    4.864110   0.987953   4.157002   3.013465   1.583698
    34  H    4.232609   1.591278   2.927909   1.002843   2.306523
    35  H    3.319017   3.197288   1.269125   1.135450   3.852599
    36  H    2.528973   4.712925   1.155572   3.118935   5.383138
    37  O    2.620446   4.021751   4.024442   2.638148   4.957071
    38  H    3.163848   3.910443   4.717610   3.166268   4.838188
    39  H    3.130060   4.816677   4.617112   3.215900   5.719250
    40  O    4.454895   6.347223   5.896322   4.559158   7.190158
    41  H    4.782853   7.204390   6.580872   5.429255   8.070557
    42  H    5.299800   6.571117   6.371659   4.831310   7.344157
                   31         32         33         34         35
    31  H    0.000000
    32  H    3.499327   0.000000
    33  H    4.980731   3.232007   0.000000
    34  H    3.558298   1.607336   2.133152   0.000000
    35  H    1.877543   1.744190   3.409774   1.778329   0.000000
    36  H    1.766852   3.292737   4.522005   3.633898   2.088576
    37  O    4.678877   1.648157   4.064464   3.079403   3.153755
    38  H    5.450586   2.230394   3.871988   3.335710   3.802580
    39  H    5.137626   2.255090   4.962026   3.780115   3.758433
    40  O    6.212413   3.723055   6.614202   5.226008   5.093369
    41  H    6.886100   4.565931   7.403637   6.107265   5.879855
    42  H    6.619850   4.093411   6.960583   5.464859   5.478393
                   36         37         38         39         40
    36  H    0.000000
    37  O    3.997542   0.000000
    38  H    4.671411   0.960816   0.000000
    39  H    4.611342   0.978574   1.545197   0.000000
    40  O    5.928253   2.730802   3.148792   1.752978   0.000000
    41  H    6.487343   3.406355   3.755170   2.455077   0.960681
    42  H    6.548880   3.358363   3.716556   2.425385   0.960979
                   41         42
    41  H    0.000000
    42  H    1.535039   0.000000
 Stoichiometry    C10H25N2O5(1+)
 Framework group  C1[X(C10H25N2O5)]
 Deg. of freedom   120
 Full point group                 C1      NOp   1
 Largest Abelian subgroup         C1      NOp   1
 Largest concise Abelian subgroup C1      NOp   1
                         Standard orientation:                         
 ---------------------------------------------------------------------
 Center     Atomic      Atomic             Coordinates (Angstroms)
 Number     Number       Type             X           Y           Z
 ---------------------------------------------------------------------
      1          7           0        0.512038    2.489118    0.421318
      2          6           0        0.628604    3.208391   -0.700405
      3          6           0       -0.122690    2.944735   -1.840666
      4          6           0       -1.019184    1.880218   -1.813658
      5          6           0       -1.157771    1.124392   -0.649701
      6          6           0       -0.368363    1.485443    0.443486
      7          6           0       -2.126380   -0.029753   -0.581238
      8          6           0       -3.215277    0.056644    0.496652
      9          6           0       -3.626783   -1.413926    0.747636
     10          6           0       -2.623522   -2.246960   -0.066480
     11          7           0       -1.478320   -1.335400   -0.283188
     12          6           0       -0.547326   -1.792890   -1.318867
     13          1           0        1.351280    4.024603   -0.680482
     14          1           0       -0.001866    3.558211   -2.731431
     15          1           0       -1.613315    1.641601   -2.696809
     16          1           0       -0.438663    0.938832    1.384509
     17          1           0       -2.606206   -0.127514   -1.570430
     18          1           0       -4.045861    0.685494    0.161618
     19          1           0       -2.805513    0.508936    1.407009
     20          1           0       -4.651770   -1.617347    0.422522
     21          1           0       -3.567140   -1.656871    1.813731
     22          1           0       -3.040912   -2.539759   -1.042112
     23          1           0       -2.279927   -3.155789    0.441628
     24          1           0       -1.048721   -1.857410   -2.296275
     25          1           0       -0.169792   -2.784520   -1.045130
     26          1           0        0.302569   -1.104481   -1.383158
     27          8           0        2.313284    1.864575    2.363447
     28          8           0       -0.207662   -1.372881    1.866201
     29          8           0        2.085437   -0.652049    1.823980
     30          1           0        2.368261    2.336650    3.196845
     31          1           0       -0.376403   -2.165622    2.380515
     32          1           0        2.421092   -0.684611    0.888565
     33          1           0        1.673910    2.332757    1.773483
     34          1           0        2.183513    0.294257    2.141124
     35          1           0        1.008570   -1.010392    1.858537
     36          1           0       -0.805473   -1.341329    0.877782
     37          8           0        2.800138   -0.676723   -0.715394
     38          1           0        3.190080    0.141023   -1.035400
     39          1           0        3.398065   -1.390009   -1.017575
     40          8           0        4.458416   -2.706063   -1.482971
     41          1           0        4.536123   -3.107950   -2.352083
     42          1           0        5.257330   -2.947413   -1.006560
 ---------------------------------------------------------------------
 Rotational constants (GHZ):           0.3839474           0.2947685           0.2362116
 Standard basis: Aug-CC-pVDZ (5D, 7F)
 There are   650 symmetry adapted cartesian basis functions of A   symmetry.
 There are   616 symmetry adapted basis functions of A   symmetry.
   616 basis functions,  1006 primitive gaussians,   650 cartesian basis functions
    69 alpha electrons       69 beta electrons
       nuclear repulsion energy      1396.6416048813 Hartrees.
 NAtoms=   42 NActive=   42 NUniq=   42 SFac= 1.00D+00 NAtFMM=   60 NAOKFM=F Big=F
 Integral buffers will be    131072 words long.
 Raffenetti 2 integral format.
 Two-electron integral symmetry is turned on.
 Nuclear repulsion after empirical dispersion term =     1396.6080760994 Hartrees.
 One-electron integrals computed using PRISM.
 NBasis=   616 RedAO= T EigKep=  1.84D-06  NBF=   616
 NBsUse=   616 1.00D-06 EigRej= -1.00D+00 NBFU=   616
 ExpMin= 2.97D-02 ExpMax= 1.17D+04 ExpMxC= 4.01D+02 IAcc=3 IRadAn=         5 AccDes= 0.00D+00
 Harris functional with IExCor= 4639 and IRadAn=       5 diagonalized for initial guess.
 HarFok:  IExCor= 4639 AccDes= 0.00D+00 IRadAn=         5 IDoV= 1 UseB2=F ITyADJ=14
 ICtDFT=  3500011 ScaDFX=  1.000000  1.000000  1.000000  1.000000
 FoFCou: FMM=F IPFlag=           0 FMFlag=      100000 FMFlg1=           0
         NFxFlg=           0 DoJE=T BraDBF=F KetDBF=T FulRan=T
         wScrn=  0.000000 ICntrl=       500 IOpCl=  0 I1Cent=   200000004 NGrid=           0
         NMat0=    1 NMatS0=      1 NMatT0=    0 NMatD0=    1 NMtDS0=    0 NMtDT0=    0
 Petite list used in FoFCou.
 Requested convergence on RMS density matrix=1.00D-08 within 128 cycles.
 Requested convergence on MAX density matrix=1.00D-06.
 Requested convergence on             energy=1.00D-06.
 No special actions if energy rises.
 SCF Done:  E(RwB97XD) =  -881.457165450     A.U. after   16 cycles
            NFock= 16  Conv=0.15D-08     -V/T= 2.0062
 DoSCS=F DFT=T ScalE2(SS,OS)=  1.000000  1.000000
 Range of M.O.s used for correlation:     1   616
 NBasis=   616 NAE=    69 NBE=    69 NFC=     0 NFV=     0
 NROrb=    616 NOA=    69 NOB=    69 NVA=   547 NVB=   547

 **** Warning!!: The largest alpha MO coefficient is  0.94469472D+02

 Symmetrizing basis deriv contribution to polar:
 IMax=3 JMax=2 DiffMx= 0.00D+00
 G2DrvN: will do    43 centers at a time, making    1 passes.
 Calling FoFCou, ICntrl=  3107 FMM=F I1Cent=   0 AccDes= 0.00D+00.
 End of G2Drv F.D. properties file   721 does not exist.
 End of G2Drv F.D. properties file   722 does not exist.
 End of G2Drv F.D. properties file   788 does not exist.
          IDoAtm=111111111111111111111111111111111111111111
          Differentiating once with respect to electric field.
                with respect to dipole field.
          Differentiating once with respect to nuclear coordinates.
 CalDSu exits because no D1Ps are significant.
          There are   129 degrees of freedom in the 1st order CPHF.  IDoFFX=6 NUNeed=     3.
    126 vectors produced by pass  0 Test12= 3.77D-14 1.00D-09 XBig12= 7.27D+01 2.70D+00.
 AX will form   126 AO Fock derivatives at one time.
    126 vectors produced by pass  1 Test12= 3.77D-14 1.00D-09 XBig12= 9.99D+00 5.58D-01.
    126 vectors produced by pass  2 Test12= 3.77D-14 1.00D-09 XBig12= 1.89D-01 5.93D-02.
    126 vectors produced by pass  3 Test12= 3.77D-14 1.00D-09 XBig12= 1.77D-03 4.17D-03.
    126 vectors produced by pass  4 Test12= 3.77D-14 1.00D-09 XBig12= 1.60D-05 3.28D-04.
    126 vectors produced by pass  5 Test12= 3.77D-14 1.00D-09 XBig12= 1.07D-07 2.28D-05.
    124 vectors produced by pass  6 Test12= 3.77D-14 1.00D-09 XBig12= 6.05D-10 1.52D-06.
     45 vectors produced by pass  7 Test12= 3.77D-14 1.00D-09 XBig12= 3.05D-12 1.12D-07.
      3 vectors produced by pass  8 Test12= 3.77D-14 1.00D-09 XBig12= 1.82D-14 8.59D-09.
      3 vectors produced by pass  9 Test12= 3.77D-14 1.00D-09 XBig12= 1.76D-15 2.47D-09.
      1 vectors produced by pass 10 Test12= 3.77D-14 1.00D-09 XBig12= 2.60D-16 1.11D-09.
 InvSVY:  IOpt=1 It=  1 EMax= 2.49D-14
 Solved reduced A of dimension   932 with   129 vectors.
 Isotropic polarizability for W=    0.000000      170.90 Bohr**3.
 End of Minotr F.D. properties file   721 does not exist.
 End of Minotr F.D. properties file   722 does not exist.
 End of Minotr F.D. properties file   788 does not exist.

 **********************************************************************

            Population analysis using the SCF density.

 **********************************************************************

 Orbital symmetries:
       Occupied  (A) (A) (A) (A) (A) (A) (A) (A) (A) (A) (A) (A)
                 (A) (A) (A) (A) (A) (A) (A) (A) (A) (A) (A) (A)
                 (A) (A) (A) (A) (A) (A) (A) (A) (A) (A) (A) (A)
                 (A) (A) (A) (A) (A) (A) (A) (A) (A) (A) (A) (A)
                 (A) (A) (A) (A) (A) (A) (A) (A) (A) (A) (A) (A)
                 (A) (A) (A) (A) (A) (A) (A) (A) (A)
       Virtual   (A) (A) (A) (A) (A) (A) (A) (A) (A) (A) (A) (A)
                 (A) (A) (A) (A) (A) (A) (A) (A) (A) (A) (A) (A)
                 (A) (A) (A) (A) (A) (A) (A) (A) (A) (A) (A) (A)
                 (A) (A) (A) (A) (A) (A) (A) (A) (A) (A) (A) (A)
                 (A) (A) (A) (A) (A) (A) (A) (A) (A) (A) (A) (A)
                 (A) (A) (A) (A) (A) (A) (A) (A) (A) (A) (A) (A)
                 (A) (A) (A) (A) (A) (A) (A) (A) (A) (A) (A) (A)
                 (A) (A) (A) (A) (A) (A) (A) (A) (A) (A) (A) (A)
                 (A) (A) (A) (A) (A) (A) (A) (A) (A) (A) (A) (A)
                 (A) (A) (A) (A) (A) (A) (A) (A) (A) (A) (A) (A)
                 (A) (A) (A) (A) (A) (A) (A) (A) (A) (A) (A) (A)
                 (A) (A) (A) (A) (A) (A) (A) (A) (A) (A) (A) (A)
                 (A) (A) (A) (A) (A) (A) (A) (A) (A) (A) (A) (A)
                 (A) (A) (A) (A) (A) (A) (A) (A) (A) (A) (A) (A)
                 (A) (A) (A) (A) (A) (A) (A) (A) (A) (A) (A) (A)
                 (A) (A) (A) (A) (A) (A) (A) (A) (A) (A) (A) (A)
                 (A) (A) (A) (A) (A) (A) (A) (A) (A) (A) (A) (A)
                 (A) (A) (A) (A) (A) (A) (A) (A) (A) (A) (A) (A)
                 (A) (A) (A) (A) (A) (A) (A) (A) (A) (A) (A) (A)
                 (A) (A) (A) (A) (A) (A) (A) (A) (A) (A) (A) (A)
                 (A) (A) (A) (A) (A) (A) (A) (A) (A) (A) (A) (A)
                 (A) (A) (A) (A) (A) (A) (A) (A) (A) (A) (A) (A)
                 (A) (A) (A) (A) (A) (A) (A) (A) (A) (A) (A) (A)
                 (A) (A) (A) (A) (A) (A) (A) (A) (A) (A) (A) (A)
                 (A) (A) (A) (A) (A) (A) (A) (A) (A) (A) (A) (A)
                 (A) (A) (A) (A) (A) (A) (A) (A) (A) (A) (A) (A)
                 (A) (A) (A) (A) (A) (A) (A) (A) (A) (A) (A) (A)
                 (A) (A) (A) (A) (A) (A) (A) (A) (A) (A) (A) (A)
                 (A) (A) (A) (A) (A) (A) (A) (A) (A) (A) (A) (A)
                 (A) (A) (A) (A) (A) (A) (A) (A) (A) (A) (A) (A)
                 (A) (A) (A) (A) (A) (A) (A) (A) (A) (A) (A) (A)
                 (A) (A) (A) (A) (A) (A) (A) (A) (A) (A) (A) (A)
                 (A) (A) (A) (A) (A) (A) (A) (A) (A) (A) (A) (A)
                 (A) (A) (A) (A) (A) (A) (A) (A) (A) (A) (A) (A)
                 (A) (A) (A) (A) (A) (A) (A) (A) (A) (A) (A) (A)
                 (A) (A) (A) (A) (A) (A) (A) (A) (A) (A) (A) (A)
                 (A) (A) (A) (A) (A) (A) (A) (A) (A) (A) (A) (A)
                 (A) (A) (A) (A) (A) (A) (A) (A) (A) (A) (A) (A)
                 (A) (A) (A) (A) (A) (A) (A) (A) (A) (A) (A) (A)
                 (A) (A) (A) (A) (A) (A) (A) (A) (A) (A) (A) (A)
                 (A) (A) (A) (A) (A) (A) (A) (A) (A) (A) (A) (A)
                 (A) (A) (A) (A) (A) (A) (A) (A) (A) (A) (A) (A)
                 (A) (A) (A) (A) (A) (A) (A) (A) (A) (A) (A) (A)
                 (A) (A) (A) (A) (A) (A) (A) (A) (A) (A) (A) (A)
                 (A) (A) (A) (A) (A) (A) (A) (A) (A) (A) (A) (A)
                 (A) (A) (A) (A) (A) (A) (A)
 The electronic state is 1-A.
 Alpha  occ. eigenvalues --  -19.41231 -19.40899 -19.39803 -19.38277 -19.38072
 Alpha  occ. eigenvalues --  -14.60946 -14.57868 -10.46243 -10.45495 -10.45416
 Alpha  occ. eigenvalues --  -10.44734 -10.44048 -10.43855 -10.43718 -10.42629
 Alpha  occ. eigenvalues --  -10.41300 -10.41093  -1.27546  -1.25406  -1.23762
 Alpha  occ. eigenvalues --   -1.22471  -1.21798  -1.18798  -1.17310  -1.04205
 Alpha  occ. eigenvalues --   -1.01365  -0.99709  -0.94399  -0.90272  -0.85891
 Alpha  occ. eigenvalues --   -0.84517  -0.81233  -0.80159  -0.77175  -0.76698
 Alpha  occ. eigenvalues --   -0.76065  -0.75674  -0.75108  -0.73592  -0.72077
 Alpha  occ. eigenvalues --   -0.71360  -0.70089  -0.69132  -0.66541  -0.65182
 Alpha  occ. eigenvalues --   -0.64711  -0.64405  -0.62528  -0.62299  -0.61381
 Alpha  occ. eigenvalues --   -0.61009  -0.59932  -0.59430  -0.58919  -0.58039
 Alpha  occ. eigenvalues --   -0.57649  -0.56269  -0.56130  -0.54950  -0.54557
 Alpha  occ. eigenvalues --   -0.53838  -0.53362  -0.52620  -0.52489  -0.51817
 Alpha  occ. eigenvalues --   -0.48785  -0.47775  -0.46938  -0.45582
 Alpha virt. eigenvalues --   -0.08661  -0.07479  -0.06554  -0.05247  -0.04760
 Alpha virt. eigenvalues --   -0.04515  -0.03384  -0.02921  -0.02718  -0.02475
 Alpha virt. eigenvalues --   -0.02194  -0.01734  -0.00979  -0.00842  -0.00405
 Alpha virt. eigenvalues --   -0.00157   0.00611   0.00739   0.01142   0.01613
 Alpha virt. eigenvalues --    0.01995   0.02243   0.02309   0.02719   0.02950
 Alpha virt. eigenvalues --    0.03299   0.03603   0.03878   0.04686   0.04896
 Alpha virt. eigenvalues --    0.04914   0.05309   0.05551   0.05768   0.06510
 Alpha virt. eigenvalues --    0.06593   0.06741   0.06876   0.07272   0.07399
 Alpha virt. eigenvalues --    0.07750   0.07881   0.08257   0.08343   0.08398
 Alpha virt. eigenvalues --    0.08815   0.08972   0.09544   0.09788   0.09913
 Alpha virt. eigenvalues --    0.10404   0.11004   0.11042   0.11247   0.11526
 Alpha virt. eigenvalues --    0.11792   0.12042   0.12304   0.12444   0.12566
 Alpha virt. eigenvalues --    0.12852   0.13359   0.13749   0.13931   0.14511
 Alpha virt. eigenvalues --    0.14871   0.14946   0.15509   0.15552   0.15769
 Alpha virt. eigenvalues --    0.16094   0.16252   0.16696   0.16817   0.16991
 Alpha virt. eigenvalues --    0.17173   0.17399   0.17767   0.18278   0.18416
 Alpha virt. eigenvalues --    0.18848   0.18972   0.19277   0.19324   0.19707
 Alpha virt. eigenvalues --    0.19886   0.20320   0.20572   0.21011   0.21232
 Alpha virt. eigenvalues --    0.21388   0.21582   0.21704   0.22125   0.22625
 Alpha virt. eigenvalues --    0.22945   0.23405   0.23520   0.24057   0.24397
 Alpha virt. eigenvalues --    0.24740   0.25013   0.25553   0.25758   0.26253
 Alpha virt. eigenvalues --    0.26510   0.26784   0.27077   0.27395   0.27748
 Alpha virt. eigenvalues --    0.27831   0.27923   0.28311   0.28873   0.29150
 Alpha virt. eigenvalues --    0.29336   0.29561   0.29936   0.30335   0.30689
 Alpha virt. eigenvalues --    0.31399   0.31595   0.31866   0.32502   0.32759
 Alpha virt. eigenvalues --    0.33005   0.33347   0.33757   0.34187   0.34465
 Alpha virt. eigenvalues --    0.35290   0.35647   0.36101   0.36564   0.36934
 Alpha virt. eigenvalues --    0.37301   0.37364   0.37668   0.38152   0.38586
 Alpha virt. eigenvalues --    0.39118   0.39446   0.39586   0.39941   0.40484
 Alpha virt. eigenvalues --    0.40717   0.40963   0.41202   0.41504   0.42154
 Alpha virt. eigenvalues --    0.42683   0.43099   0.43393   0.43617   0.44050
 Alpha virt. eigenvalues --    0.44395   0.44626   0.44893   0.45611   0.46028
 Alpha virt. eigenvalues --    0.46379   0.46861   0.46985   0.47334   0.47651
 Alpha virt. eigenvalues --    0.48026   0.48652   0.48710   0.48910   0.49417
 Alpha virt. eigenvalues --    0.49554   0.50066   0.50410   0.50576   0.51255
 Alpha virt. eigenvalues --    0.51654   0.51755   0.52222   0.52318   0.53387
 Alpha virt. eigenvalues --    0.53470   0.53768   0.53988   0.54402   0.54563
 Alpha virt. eigenvalues --    0.54895   0.55331   0.55572   0.56056   0.56654
 Alpha virt. eigenvalues --    0.57065   0.57540   0.58732   0.58940   0.59117
 Alpha virt. eigenvalues --    0.59570   0.60008   0.60079   0.60655   0.60830
 Alpha virt. eigenvalues --    0.61249   0.61426   0.61943   0.62249   0.62700
 Alpha virt. eigenvalues --    0.62920   0.63078   0.63386   0.64275   0.64634
 Alpha virt. eigenvalues --    0.65407   0.65476   0.66046   0.66146   0.66637
 Alpha virt. eigenvalues --    0.67479   0.67768   0.68631   0.69105   0.69299
 Alpha virt. eigenvalues --    0.69529   0.70084   0.70632   0.70706   0.71367
 Alpha virt. eigenvalues --    0.71602   0.71910   0.72245   0.72578   0.72908
 Alpha virt. eigenvalues --    0.73634   0.74250   0.74507   0.74613   0.75206
 Alpha virt. eigenvalues --    0.75988   0.76371   0.76876   0.77151   0.78520
 Alpha virt. eigenvalues --    0.78841   0.79534   0.79847   0.80139   0.80470
 Alpha virt. eigenvalues --    0.80956   0.81912   0.82237   0.82713   0.83076
 Alpha virt. eigenvalues --    0.83570   0.83953   0.84732   0.85106   0.86250
 Alpha virt. eigenvalues --    0.86974   0.87126   0.87548   0.88058   0.88818
 Alpha virt. eigenvalues --    0.89567   0.89867   0.91042   0.91148   0.91506
 Alpha virt. eigenvalues --    0.92015   0.92616   0.93310   0.94256   0.94615
 Alpha virt. eigenvalues --    0.95258   0.95477   0.96380   0.97132   0.98224
 Alpha virt. eigenvalues --    0.98435   0.99471   1.00498   1.00875   1.01850
 Alpha virt. eigenvalues --    1.02057   1.03071   1.03608   1.03760   1.05205
 Alpha virt. eigenvalues --    1.05506   1.06155   1.07155   1.07585   1.08362
 Alpha virt. eigenvalues --    1.09245   1.09724   1.11032   1.11690   1.12008
 Alpha virt. eigenvalues --    1.12358   1.12990   1.13410   1.14409   1.15243
 Alpha virt. eigenvalues --    1.15667   1.16605   1.17537   1.18806   1.19229
 Alpha virt. eigenvalues --    1.20176   1.21031   1.21075   1.21627   1.22006
 Alpha virt. eigenvalues --    1.22597   1.23194   1.23883   1.24292   1.25619
 Alpha virt. eigenvalues --    1.27518   1.27980   1.29499   1.30329   1.31714
 Alpha virt. eigenvalues --    1.32299   1.32830   1.33363   1.34454   1.35167
 Alpha virt. eigenvalues --    1.35391   1.35970   1.36861   1.37487   1.38530
 Alpha virt. eigenvalues --    1.39954   1.40549   1.41384   1.42545   1.43038
 Alpha virt. eigenvalues --    1.43637   1.44942   1.45879   1.46193   1.47176
 Alpha virt. eigenvalues --    1.47692   1.49269   1.49917   1.50631   1.50975
 Alpha virt. eigenvalues --    1.52394   1.52767   1.53861   1.54936   1.55355
 Alpha virt. eigenvalues --    1.56225   1.56982   1.57619   1.58685   1.59520
 Alpha virt. eigenvalues --    1.60313   1.61647   1.62144   1.63162   1.63618
 Alpha virt. eigenvalues --    1.64795   1.65398   1.66176   1.66786   1.67535
 Alpha virt. eigenvalues --    1.68393   1.69378   1.70581   1.70769   1.71318
 Alpha virt. eigenvalues --    1.72164   1.72932   1.73203   1.73445   1.74477
 Alpha virt. eigenvalues --    1.75438   1.76083   1.76623   1.76996   1.77452
 Alpha virt. eigenvalues --    1.79071   1.79935   1.80471   1.81474   1.82045
 Alpha virt. eigenvalues --    1.82399   1.82834   1.83650   1.84405   1.85027
 Alpha virt. eigenvalues --    1.86014   1.86093   1.86724   1.87390   1.88502
 Alpha virt. eigenvalues --    1.88877   1.89519   1.90238   1.91058   1.91255
 Alpha virt. eigenvalues --    1.92376   1.92891   1.94336   1.95012   1.96020
 Alpha virt. eigenvalues --    1.96647   1.97324   1.98463   1.98897   1.99873
 Alpha virt. eigenvalues --    2.00556   2.01366   2.01954   2.03034   2.03633
 Alpha virt. eigenvalues --    2.04242   2.05874   2.05935   2.07713   2.08228
 Alpha virt. eigenvalues --    2.09480   2.11065   2.12145   2.12319   2.12990
 Alpha virt. eigenvalues --    2.13639   2.14688   2.15154   2.15638   2.16809
 Alpha virt. eigenvalues --    2.17211   2.18318   2.18504   2.19501   2.20196
 Alpha virt. eigenvalues --    2.21572   2.22294   2.24159   2.25080   2.25374
 Alpha virt. eigenvalues --    2.26934   2.27435   2.27790   2.29118   2.29759
 Alpha virt. eigenvalues --    2.30833   2.32056   2.32504   2.33096   2.34289
 Alpha virt. eigenvalues --    2.35266   2.36429   2.37920   2.39054   2.40614
 Alpha virt. eigenvalues --    2.41355   2.42356   2.43390   2.45622   2.46018
 Alpha virt. eigenvalues --    2.46221   2.47901   2.49111   2.51410   2.51722
 Alpha virt. eigenvalues --    2.51967   2.53694   2.55291   2.55885   2.56348
 Alpha virt. eigenvalues --    2.57210   2.57712   2.58417   2.60187   2.61409
 Alpha virt. eigenvalues --    2.62075   2.63166   2.63923   2.66040   2.66715
 Alpha virt. eigenvalues --    2.67073   2.67676   2.68773   2.69036   2.71870
 Alpha virt. eigenvalues --    2.72235   2.73981   2.74433   2.75174   2.76616
 Alpha virt. eigenvalues --    2.77595   2.77846   2.79417   2.82065   2.83725
 Alpha virt. eigenvalues --    2.83782   2.84866   2.86685   2.88162   2.89424
 Alpha virt. eigenvalues --    2.90326   2.91148   2.94787   2.95454   2.95625
 Alpha virt. eigenvalues --    2.97288   2.99908   3.02059   3.04808   3.07449
 Alpha virt. eigenvalues --    3.10274   3.11259   3.15287   3.18276   3.23113
 Alpha virt. eigenvalues --    3.27986   3.28701   3.33147   3.35635   3.38155
 Alpha virt. eigenvalues --    3.38822   3.41022   3.42231   3.43266   3.43693
 Alpha virt. eigenvalues --    3.44499   3.46230   3.47675   3.49244   3.52867
 Alpha virt. eigenvalues --    3.57213   3.58202   3.66768   3.66892   3.74611
 Alpha virt. eigenvalues --    3.79614   3.83383   3.88714   3.90305   3.95837
 Alpha virt. eigenvalues --    4.01829   4.04413   4.11842   4.14599   4.26938
 Alpha virt. eigenvalues --    4.34248   4.93742
          Condensed to atoms (all electrons):
               1          2          3          4          5          6
     1  N    8.410007   0.225565   0.500718  -0.944291   0.322582  -1.113351
     2  C    0.225565  10.053612  -2.700800   1.470076  -0.693354  -1.127624
     3  C    0.500718  -2.700800  11.951848  -4.298055   0.250603  -0.522392
     4  C   -0.944291   1.470076  -4.298055  24.107881 -10.674905  -1.319948
     5  C    0.322582  -0.693354   0.250603 -10.674905  27.933082  -4.482939
     6  C   -1.113351  -1.127624  -0.522392  -1.319948  -4.482939  17.766353
     7  C    0.353176  -1.209850   0.855548  -0.924460 -11.492663  -1.691991
     8  C   -0.061243  -0.077102  -0.035516   0.208073  -0.303033  -0.754681
     9  C    0.009997   0.018584  -0.029033  -0.056360   0.376871   0.020823
    10  C    0.011747  -0.029455  -0.003093   0.172752  -0.776389  -0.121803
    11  N   -0.001937   0.107721  -0.146072  -0.639674   2.175607   0.056176
    12  C    0.030077  -0.060086   0.106602  -0.325591   0.647903  -0.213372
    13  H   -0.265155  -0.498552   0.028629   0.324313  -0.170956   0.219315
    14  H   -0.074314   0.402967  -1.291896   0.629662   0.003250   0.021389
    15  H   -0.033691  -0.230200   0.739507  -2.645089   1.186719   0.109709
    16  H   -0.042521  -0.038324   0.057169  -0.270966  -0.585620  -1.195225
    17  H   -0.001643   0.054816  -0.062053   0.085421   1.143164  -0.164281
    18  H   -0.015591   0.004957   0.000097  -0.072295   0.468730   0.297992
    19  H    0.018285   0.008484  -0.030348   0.072964   0.041918  -0.182163
    20  H   -0.001603   0.004357  -0.005049  -0.006883   0.045064   0.040710
    21  H    0.001927  -0.003403   0.001286   0.006497  -0.158822  -0.040779
    22  H   -0.001318  -0.004243   0.004256   0.013679   0.224363   0.027694
    23  H   -0.000947   0.001012  -0.001863   0.047436  -0.257071   0.000449
    24  H   -0.002145   0.019126  -0.029583  -0.012079   0.240679   0.024622
    25  H    0.004001  -0.009205   0.014543  -0.074074   0.071599  -0.077801
    26  H   -0.012011  -0.056556   0.078442   0.141817  -0.285680   0.144630
    27  O   -0.008185   0.024069  -0.003099  -0.000085  -0.058418  -0.022157
    28  O    0.023290   0.002922   0.004149  -0.018995  -0.089333  -0.080062
    29  O   -0.008892   0.031147  -0.011076   0.012603  -0.010411  -0.049564
    30  H   -0.002959  -0.010688   0.010141  -0.004778   0.008160  -0.000534
    31  H   -0.006349   0.001273  -0.000387   0.006990   0.021427   0.029054
    32  H   -0.000446  -0.008214   0.013325   0.001499  -0.024397   0.048148
    33  H    0.143141   0.082138  -0.068764   0.010510   0.006515  -0.112099
    34  H    0.017503   0.004216  -0.000685  -0.005046   0.028429  -0.054037
    35  H    0.004141  -0.002721  -0.004075  -0.004202   0.002948  -0.027319
    36  H    0.061472  -0.008792   0.007102  -0.131989  -0.024312  -0.285888
    37  O    0.049376   0.023941   0.001468  -0.023369   0.053313  -0.082525
    38  H    0.013725  -0.012485   0.014102  -0.014393   0.014623  -0.030631
    39  H   -0.006208   0.008823  -0.012087   0.006010   0.002212   0.013970
    40  O    0.000220  -0.000749   0.000889  -0.000954   0.001743  -0.002463
    41  H    0.000001  -0.000152   0.000212  -0.000009  -0.000252   0.000169
    42  H    0.000017  -0.000189   0.000142  -0.000170   0.000026   0.000269
               7          8          9         10         11         12
     1  N    0.353176  -0.061243   0.009997   0.011747  -0.001937   0.030077
     2  C   -1.209850  -0.077102   0.018584  -0.029455   0.107721  -0.060086
     3  C    0.855548  -0.035516  -0.029033  -0.003093  -0.146072   0.106602
     4  C   -0.924460   0.208073  -0.056360   0.172752  -0.639674  -0.325591
     5  C  -11.492663  -0.303033   0.376871  -0.776389   2.175607   0.647903
     6  C   -1.691991  -0.754681   0.020823  -0.121803   0.056176  -0.213372
     7  C   29.223276  -1.409658  -0.003089  -0.237628  -6.454091  -0.873699
     8  C   -1.409658   8.319671  -0.802777   0.730933  -0.871971  -0.148694
     9  C   -0.003089  -0.802777   6.242878   0.026097  -0.625913   0.021748
    10  C   -0.237628   0.730933   0.026097   5.872344  -0.235599  -0.117595
    11  N   -6.454091  -0.871971  -0.625913  -0.235599  19.279673   1.051048
    12  C   -0.873699  -0.148694   0.021748  -0.117595   1.051048   4.788221
    13  H   -0.010678   0.003067   0.000596  -0.000232   0.005096   0.001575
    14  H    0.014376   0.000380   0.000283  -0.000809  -0.001471  -0.008473
    15  H    0.001192  -0.079524  -0.000802   0.000366  -0.007233   0.060101
    16  H    0.093278   0.139538   0.011679   0.017787  -0.231581   0.033144
    17  H   -3.133042   0.776250  -0.072995   0.086589  -0.695998  -0.128521
    18  H    0.003670  -1.102156   0.193129  -0.205593   0.277943   0.072922
    19  H   -0.309752  -0.039254   0.254783   0.053900  -0.095713  -0.050299
    20  H   -0.189273   0.210683  -0.232806   0.190127  -0.069604  -0.027196
    21  H    0.409096   0.190809  -0.396000  -0.019700   0.031377   0.008011
    22  H    0.200382  -0.005946  -0.048739  -0.379564  -0.338074  -0.036499
    23  H    0.613589   0.060871   0.174904  -0.066914  -1.646661  -0.119468
    24  H   -0.225078   0.063360   0.023586   0.062493  -0.601747   0.082805
    25  H    0.099257  -0.090483   0.077008  -0.031837  -0.364257   0.132483
    26  H    0.183262   0.107135  -0.053402  -0.009141  -0.206613   0.066702
    27  O   -0.008790  -0.001285  -0.000958  -0.001099   0.001686   0.001992
    28  O    0.168927   0.001168   0.050063   0.028065  -0.200910  -0.048887
    29  O   -0.005630   0.008874   0.004721   0.003805  -0.048447  -0.015228
    30  H   -0.002618   0.001334   0.000091   0.000362   0.000376   0.000455
    31  H   -0.092393   0.034527  -0.026659   0.036513   0.033413   0.029619
    32  H   -0.010717  -0.003774   0.001372   0.005475   0.008518  -0.004313
    33  H    0.018745  -0.008951   0.000332  -0.002203  -0.000484  -0.003519
    34  H   -0.020346   0.003003  -0.003690  -0.003684   0.011961   0.006837
    35  H    0.059472  -0.003416   0.019280   0.000151  -0.077230  -0.015669
    36  H    0.708410  -0.106176   0.001890  -0.338444  -0.538043  -0.151128
    37  O   -0.072733  -0.001666  -0.001713  -0.010554   0.026370  -0.022644
    38  H    0.011048   0.000155  -0.000409   0.000239  -0.007203   0.003985
    39  H   -0.004559  -0.000780   0.000608   0.000006   0.014512   0.001063
    40  O   -0.001091  -0.000128   0.000005  -0.000266  -0.000698   0.001239
    41  H    0.000140  -0.000018   0.000026   0.000055  -0.000505  -0.000560
    42  H    0.000195  -0.000000  -0.000025  -0.000038  -0.000057   0.000385
              13         14         15         16         17         18
     1  N   -0.265155  -0.074314  -0.033691  -0.042521  -0.001643  -0.015591
     2  C   -0.498552   0.402967  -0.230200  -0.038324   0.054816   0.004957
     3  C    0.028629  -1.291896   0.739507   0.057169  -0.062053   0.000097
     4  C    0.324313   0.629662  -2.645089  -0.270966   0.085421  -0.072295
     5  C   -0.170956   0.003250   1.186719  -0.585620   1.143164   0.468730
     6  C    0.219315   0.021389   0.109709  -1.195225  -0.164281   0.297992
     7  C   -0.010678   0.014376   0.001192   0.093278  -3.133042   0.003670
     8  C    0.003067   0.000380  -0.079524   0.139538   0.776250  -1.102156
     9  C    0.000596   0.000283  -0.000802   0.011679  -0.072995   0.193129
    10  C   -0.000232  -0.000809   0.000366   0.017787   0.086589  -0.205593
    11  N    0.005096  -0.001471  -0.007233  -0.231581  -0.695998   0.277943
    12  C    0.001575  -0.008473   0.060101   0.033144  -0.128521   0.072922
    13  H    2.156015  -0.121941  -0.004038   0.026536   0.000850   0.001797
    14  H   -0.121941   2.187299  -0.142894  -0.011420   0.001500  -0.002645
    15  H   -0.004038  -0.142894   3.160310  -0.006234  -0.175673   0.013457
    16  H    0.026536  -0.011420  -0.006234   4.310299  -0.041049   0.069561
    17  H    0.000850   0.001500  -0.175673  -0.041049   4.040644  -0.318520
    18  H    0.001797  -0.002645   0.013457   0.069561  -0.318520   2.627521
    19  H   -0.000995   0.000996  -0.009637  -0.166602   0.236872  -0.661828
    20  H    0.000096  -0.000070   0.002967  -0.006451   0.068140  -0.282149
    21  H   -0.000067   0.000029  -0.001136   0.014046  -0.048967   0.151891
    22  H    0.000069  -0.000410   0.002244   0.010794  -0.094638   0.066286
    23  H    0.000075  -0.000040  -0.002115  -0.009981   0.120858  -0.042848
    24  H    0.000091  -0.000170   0.005053   0.008060   0.084746   0.006353
    25  H    0.000272  -0.001026   0.000312  -0.011627   0.010138   0.002221
    26  H    0.002356  -0.004670   0.010584   0.016471   0.047942  -0.000316
    27  O    0.003192   0.000081  -0.000166  -0.004552  -0.000074   0.000094
    28  O   -0.000178   0.000115  -0.001148   0.021680   0.002776  -0.002112
    29  O    0.002590  -0.000230   0.000602   0.079765   0.000125   0.000483
    30  H    0.004476  -0.000509   0.000234   0.004944  -0.000121   0.000094
    31  H    0.000219  -0.000107   0.000976   0.004971  -0.002789   0.003438
    32  H    0.003976  -0.001008   0.002581  -0.003748  -0.000721   0.001059
    33  H   -0.064388   0.009407  -0.002749  -0.038277  -0.000343  -0.000928
    34  H   -0.001361   0.000228  -0.001046  -0.008437  -0.000312  -0.000403
    35  H   -0.001836   0.000772  -0.001987   0.002860   0.004776  -0.002586
    36  H   -0.004905   0.002351  -0.012582  -0.034327   0.035335  -0.028856
    37  O   -0.001479   0.000590   0.000423  -0.006073  -0.001575   0.000014
    38  H    0.000489  -0.001911   0.001209  -0.000684  -0.000157  -0.000019
    39  H   -0.000975   0.000941  -0.001271   0.000234  -0.000279  -0.000016
    40  O   -0.000098   0.000056  -0.000052  -0.000375  -0.000054  -0.000001
    41  H    0.000001  -0.000001   0.000022   0.000118   0.000006   0.000000
    42  H   -0.000010   0.000001  -0.000009  -0.000009   0.000020  -0.000001
              19         20         21         22         23         24
     1  N    0.018285  -0.001603   0.001927  -0.001318  -0.000947  -0.002145
     2  C    0.008484   0.004357  -0.003403  -0.004243   0.001012   0.019126
     3  C   -0.030348  -0.005049   0.001286   0.004256  -0.001863  -0.029583
     4  C    0.072964  -0.006883   0.006497   0.013679   0.047436  -0.012079
     5  C    0.041918   0.045064  -0.158822   0.224363  -0.257071   0.240679
     6  C   -0.182163   0.040710  -0.040779   0.027694   0.000449   0.024622
     7  C   -0.309752  -0.189273   0.409096   0.200382   0.613589  -0.225078
     8  C   -0.039254   0.210683   0.190809  -0.005946   0.060871   0.063360
     9  C    0.254783  -0.232806  -0.396000  -0.048739   0.174904   0.023586
    10  C    0.053900   0.190127  -0.019700  -0.379564  -0.066914   0.062493
    11  N   -0.095713  -0.069604   0.031377  -0.338074  -1.646661  -0.601747
    12  C   -0.050299  -0.027196   0.008011  -0.036499  -0.119468   0.082805
    13  H   -0.000995   0.000096  -0.000067   0.000069   0.000075   0.000091
    14  H    0.000996  -0.000070   0.000029  -0.000410  -0.000040  -0.000170
    15  H   -0.009637   0.002967  -0.001136   0.002244  -0.002115   0.005053
    16  H   -0.166602  -0.006451   0.014046   0.010794  -0.009981   0.008060
    17  H    0.236872   0.068140  -0.048967  -0.094638   0.120858   0.084746
    18  H   -0.661828  -0.282149   0.151891   0.066286  -0.042848   0.006353
    19  H    2.287797   0.188387  -0.398406  -0.066362   0.065315   0.004472
    20  H    0.188387   2.075474  -0.589398  -0.282831   0.136277   0.007728
    21  H   -0.398406  -0.589398   2.171665   0.188555  -0.310732  -0.006790
    22  H   -0.066362  -0.282831   0.188555   2.577188  -0.581728   0.000522
    23  H    0.065315   0.136277  -0.310732  -0.581728   3.138264   0.037322
    24  H    0.004472   0.007728  -0.006790   0.000522   0.037322   2.343661
    25  H   -0.011200  -0.003746   0.012137   0.003620  -0.011070  -0.435514
    26  H    0.013321  -0.003413  -0.004634   0.024301   0.033864  -0.470996
    27  O    0.000765  -0.000056  -0.000219   0.000002  -0.000178   0.000304
    28  O    0.000609  -0.002508  -0.005701  -0.017322   0.114785  -0.005337
    29  O    0.002000   0.000138   0.000366  -0.000136   0.003291  -0.001770
    30  H    0.000472  -0.000013   0.000017   0.000022   0.000030  -0.000059
    31  H    0.000703  -0.001198   0.003835   0.003287  -0.011331   0.005588
    32  H   -0.001943  -0.000157  -0.000087   0.000761   0.001213  -0.002162
    33  H   -0.000107   0.000194  -0.000152  -0.000166   0.000129   0.000579
    34  H    0.000784   0.000027  -0.000082   0.000029  -0.001312   0.000815
    35  H    0.006032   0.000152  -0.003344  -0.002914   0.009037  -0.004644
    36  H    0.049144  -0.000956   0.054921   0.029600   0.068500  -0.062195
    37  O   -0.000870  -0.000054  -0.000012  -0.000136  -0.002656   0.015985
    38  H    0.000011  -0.000002  -0.000012  -0.000055   0.000230   0.000378
    39  H   -0.000252   0.000013   0.000105  -0.000115  -0.000731   0.001893
    40  O   -0.000026  -0.000000  -0.000005  -0.000018  -0.000097  -0.000383
    41  H    0.000002   0.000002  -0.000001  -0.000002   0.000049  -0.000435
    42  H    0.000006  -0.000001  -0.000002   0.000006  -0.000002  -0.000017
              25         26         27         28         29         30
     1  N    0.004001  -0.012011  -0.008185   0.023290  -0.008892  -0.002959
     2  C   -0.009205  -0.056556   0.024069   0.002922   0.031147  -0.010688
     3  C    0.014543   0.078442  -0.003099   0.004149  -0.011076   0.010141
     4  C   -0.074074   0.141817  -0.000085  -0.018995   0.012603  -0.004778
     5  C    0.071599  -0.285680  -0.058418  -0.089333  -0.010411   0.008160
     6  C   -0.077801   0.144630  -0.022157  -0.080062  -0.049564  -0.000534
     7  C    0.099257   0.183262  -0.008790   0.168927  -0.005630  -0.002618
     8  C   -0.090483   0.107135  -0.001285   0.001168   0.008874   0.001334
     9  C    0.077008  -0.053402  -0.000958   0.050063   0.004721   0.000091
    10  C   -0.031837  -0.009141  -0.001099   0.028065   0.003805   0.000362
    11  N   -0.364257  -0.206613   0.001686  -0.200910  -0.048447   0.000376
    12  C    0.132483   0.066702   0.001992  -0.048887  -0.015228   0.000455
    13  H    0.000272   0.002356   0.003192  -0.000178   0.002590   0.004476
    14  H   -0.001026  -0.004670   0.000081   0.000115  -0.000230  -0.000509
    15  H    0.000312   0.010584  -0.000166  -0.001148   0.000602   0.000234
    16  H   -0.011627   0.016471  -0.004552   0.021680   0.079765   0.004944
    17  H    0.010138   0.047942  -0.000074   0.002776   0.000125  -0.000121
    18  H    0.002221  -0.000316   0.000094  -0.002112   0.000483   0.000094
    19  H   -0.011200   0.013321   0.000765   0.000609   0.002000   0.000472
    20  H   -0.003746  -0.003413  -0.000056  -0.002508   0.000138  -0.000013
    21  H    0.012137  -0.004634  -0.000219  -0.005701   0.000366   0.000017
    22  H    0.003620   0.024301   0.000002  -0.017322  -0.000136   0.000022
    23  H   -0.011070   0.033864  -0.000178   0.114785   0.003291   0.000030
    24  H   -0.435514  -0.470996   0.000304  -0.005337  -0.001770  -0.000059
    25  H    2.383335  -0.688203  -0.000118   0.013439   0.000032   0.000101
    26  H   -0.688203   2.217225  -0.002469  -0.015867  -0.001035   0.000996
    27  O   -0.000118  -0.002469   7.975987   0.000173  -0.132149   0.364405
    28  O    0.013439  -0.015867   0.000173   8.436634  -0.091540  -0.000433
    29  O    0.000032  -0.001035  -0.132149  -0.091540   8.560458   0.015123
    30  H    0.000101   0.000996   0.364405  -0.000433   0.015123   0.575968
    31  H   -0.008355   0.007367   0.001679   0.355262   0.001724   0.000375
    32  H   -0.001306   0.012961   0.003314  -0.017320   0.218430   0.005282
    33  H   -0.000877  -0.003124   0.270982  -0.001703  -0.038838  -0.125172
[...]
 454,-0.00000148,0.00000713,-0.00000490,0.00000649,0.00000394,-0.000005
 83,-0.00001212,0.00000187,-0.00000828,-0.00000379,0.00000255,0.0000049
 0,-0.00005905,0.00002553,-0.00001611,0.00006435,-0.00004267,-0.0000348
 1,0.00003950,0.00014264,0.00023027,-0.00014853,0.00015676,0.00047292,-
 0.00027392,0.00012011,-0.00013730,0.00047686,0.00201308,-0.00299713,-0
 .00009432,-0.00001262,-0.00004920,-0.00001554,-0.00001180,-0.00000085,
 -0.00146591,-0.00640869,0.00301990,0.00029403,0.00031778,-0.00039427,0
 .00036003,-0.00082719,-0.00092405,0.00043930,-0.00020367,-0.00009853,0
 .00017128,-0.00002113,0.00026568,-0.00368886,-0.17332289,-0.07961919,0
 .00076170,0.16071147,0.07442635,0.00030613,0.00047289,0.00001688,0.000
 51960,-0.00039488,-0.00018342,0.00015049,0.00008113,-0.00031060,-0.000
 17562,0.00013313,-0.00016639,-0.00013916,0.00014079,0.00002597,-0.0003
 1210,0.00021078,0.00025108,-0.00024701,0.00004079,-0.00010219,-0.00001
 756,-0.00007820,0.00000636,0.00005728,0.00000376,-0.00000023,-0.000230
 48,0.00026010,-0.00000303,0.00053862,-0.00025366,0.00005637,-0.0002881
 9,0.00022722,-0.00002646,-0.00001193,-0.00002456,-0.00000277,0.0000104
 8,-0.00005086,-0.00000760,-0.00001379,-0.00004189,-0.00001424,-0.00004
 659,-0.00003116,0.00003535,0.00002231,-0.00001998,0.00003033,0.0000225
 6,0.00000983,0.00001006,-0.00002793,-0.00001373,0.00002386,0.00004952,
 0.00000119,-0.00000227,-0.00001282,-0.00000906,-0.00002571,0.00002446,
 -0.00000712,0.00003156,-0.00000481,-0.00001635,-0.00001849,0.00016774,
 0.00000720,0.00001298,-0.00000797,0.00003294,-0.00005687,-0.00069992,0
 .00009218,0.00003037,-0.00052006,0.00056041,-0.00064608,0.00100514,-0.
 00032419,-0.00024232,0.00122538,-0.00094688,-0.00582356,0.00014762,0.0
 0001991,0.00012924,0.00000823,0.00008788,0.00014989,-0.00045737,0.0023
 9285,0.00854239,0.00024542,-0.00015524,0.00050417,0.00051956,-0.001114
 57,0.00082353,-0.00177007,0.00063468,0.00032318,-0.00022545,0.00001919
 ,-0.00006035,-0.33466405,-0.13803785,0.14409287,-0.00103167,0.00348877
 ,0.00148668,0.33514333,0.00007426,-0.00004849,-0.00003745,0.00004791,-
 0.00000386,0.00009055,0.00008803,0.00001931,-0.00006766,0.00000523,0.0
 0001731,-0.00012711,0.00003820,0.00016854,-0.00001174,0.00009808,-0.00
 004861,0.00010267,-0.00018427,0.00009789,-0.00003621,-0.00002178,-0.00
 007002,0.00000999,0.00002923,0.00000854,-0.00001674,-0.00009994,0.0000
 9597,0.00000683,0.00010915,-0.00015559,0.00009661,0.00006465,0.0000478
 4,0.00024242,-0.00002687,-0.00009528,0.00000791,-0.00004687,-0.0000365
 4,-0.00001426,-0.00000326,-0.00000722,0.00000969,-0.00004738,-0.000017
 00,0.00002923,0.00002180,-0.00000997,0.00002261,0.00000504,0.00000019,
 0.00000684,-0.00001661,-0.00000964,0.00001994,0.00002359,-0.00000609,0
 .00000011,-0.00000621,-0.00000805,-0.00000719,0.00002447,-0.00000209,0
 .00001715,0.00000017,-0.00001457,-0.00002329,0.00018575,-0.00010079,-0
 .00000865,0.00017062,-0.00014450,-0.00009729,-0.00029960,0.00048604,-0
 .00037982,-0.00003520,0.00025135,-0.00032571,0.00069878,-0.00033768,-0
 .00001533,0.00069249,-0.00055727,-0.00371138,0.00006391,0.00001876,0.0
 0009152,0.00006128,0.00009122,0.00002319,0.00072940,0.00149308,0.00579
 705,-0.00007555,-0.00008669,0.00012136,0.00003159,-0.00050414,0.000262
 70,-0.00128373,0.00059382,0.00033933,-0.00022964,0.00004453,-0.0001613
 7,-0.09698695,-0.08920455,0.02507658,-0.03734705,-0.01511002,0.0171360
 2,0.12934364,0.10796235,-0.00008267,-0.00020828,-0.00020233,-0.0002107
 9,0.00015879,0.00013720,-0.00012036,0.00006383,0.00018676,0.00005042,-
 0.00007484,0.00013346,0.00005716,-0.00010790,-0.00018655,0.00015982,-0
 .00003247,-0.00013281,0.00012410,-0.00005740,0.00006173,0.00001117,0.0
 0005070,-0.00000375,-0.00001797,-0.00000769,0.00001088,0.00009645,-0.0
 0006967,0.00001644,-0.00014597,0.00007150,-0.00019631,-0.00005189,0.00
 007915,-0.00006738,0.00000040,0.00005296,0.00002348,-0.00003615,-0.000
 06831,-0.00002554,-0.00004102,0.00000721,0.00000129,0.00000817,0.00000
 462,0.00000814,-0.00002585,0.00001030,-0.00002660,-0.00000617,-0.00000
 304,-0.00000730,0.00001514,0.00001522,-0.00001443,-0.00002016,0.000005
 17,-0.00000112,0.00000925,0.00000753,0.00000187,-0.00001666,0.00000108
 ,-0.00001832,0.00000172,0.00000646,0.00001203,-0.00019720,0.00004244,-
 0.00003311,-0.00006264,0.00004835,0.00005536,0.00033031,-0.00032675,0.
 00025582,-0.00003432,-0.00027372,0.00025553,-0.00076425,0.00018202,-0.
 00007421,-0.00157468,-0.00085139,-0.00194224,-0.00005744,0.00000489,-0
 .00007299,0.00002343,-0.00002767,-0.00005852,0.00558574,0.00257999,-0.
 00027386,0.00009142,0.00008283,-0.00003062,0.00008449,0.00036669,-0.00
 030662,0.00114998,-0.00042968,-0.00003555,0.00024142,0.00001469,0.0003
 0994,0.15917347,0.05070901,-0.09634111,-0.01490120,-0.00795916,0.00655
 781,-0.14426885,-0.04452299,0.09863249,-0.00009261,-0.00019489,0.00001
 482,-0.00024060,0.00021266,0.00002435,-0.00004395,-0.00003832,0.000171
 51,0.00003343,-0.00004927,0.00010357,0.00007372,-0.00011023,-0.0000541
 0,0.00011844,-0.00006337,-0.00010636,0.00012048,0.00006510,0.00006917,
 0.00000685,0.00002573,-0.00000835,-0.00002801,0.00000435,-0.00000027,0
 .00014190,-0.00016722,-0.00000053,-0.00029435,0.00007404,-0.00000272,0
 .00025405,-0.00009639,-0.00011781,-0.00000396,0.00001824,0.00000105,-0
 .00000060,0.00003907,0.00000014,0.00002779,0.00003114,0.00001137,0.000
 02595,0.00002478,-0.00002642,-0.00000107,0.00000535,-0.00001779,-0.000
 01695,-0.00000835,-0.00000403,0.00001453,0.00000720,-0.00000530,-0.000
 03194,-0.00000559,0.00000131,0.00000709,0.00000174,0.00001634,-0.00000
 707,0.00000627,-0.00001603,0.00000841,0.00000338,0.00000279,-0.0001048
 2,0.00001563,0.00000727,0.00001847,-0.00002988,0.00001415,0.00030691,0
 .00000860,0.00008433,0.00028930,-0.00037443,0.00034853,-0.00053980,0.0
 0012561,0.00018558,-0.00052115,-0.00000217,0.00224756,-0.00009097,-0.0
 0000233,-0.00007857,0.00001412,-0.00003717,-0.00010375,0.00021944,-0.0
 0043799,-0.00347566,-0.00013810,0.00008150,-0.00024057,-0.00026808,0.0
 0074248,-0.00041700,0.00092869,-0.00030476,-0.00022958,0.00012230,0.00
 000399,-0.00000487,-0.01232720,-0.00819584,0.00860667,-0.00116636,0.00
 088369,0.00095415,-0.00488765,0.00416105,-0.00236399,0.49157943,-0.000
 11641,-0.00003433,-0.00000962,-0.00000159,-0.00004339,0.00007144,-0.00
 012262,0.00002242,0.00000270,0.00007973,-0.00006827,0.00002290,0.00005
 446,-0.00002821,0.00004470,0.00001912,-0.00000603,-0.00009319,0.000084
 43,-0.00017715,-0.00000663,0.00001764,0.00006026,0.00000208,-0.0000190
 8,-0.00001506,0.00000728,0.00004475,-0.00002349,-0.00001153,-0.0000269
 0,0.00015346,-0.00000845,-0.00001188,-0.00010564,-0.00001587,0.0000222
 4,0.00008340,-0.00002598,0.00004418,0.00003588,0.00002411,0.00000025,-
 0.00000195,-0.00001101,0.00000622,-0.00000863,0.00000533,-0.00001195,0
 .00001638,-0.00000472,0.00000565,0.00000380,-0.00000552,0.00000769,0.0
 0000546,-0.00001950,-0.00000785,0.00001033,-0.00000068,0.00000006,0.00
 000843,0.00000499,-0.00001218,-0.00000079,-0.00000827,-0.00000718,0.00
 001800,0.00002094,-0.00003749,0.00001342,0.00000150,-0.00008374,0.0000
 6929,0.00005592,0.00006986,-0.00014921,0.00004445,-0.00007096,0.000079
 05,0.00017762,-0.00019742,0.00021327,0.00001320,-0.00031623,0.00043615
 ,0.00074678,-0.00000099,-0.00001441,-0.00005512,-0.00005175,-0.0000574
 6,0.00000728,0.00012126,-0.00051829,-0.00135222,0.00004466,-0.00000022
 ,-0.00011504,0.00006709,-0.00010798,-0.00005939,0.00044672,-0.00027232
 ,-0.00006923,0.00002371,-0.00005159,0.00000847,-0.00824155,0.00061219,
 0.00283921,0.00065568,0.00044038,-0.00003329,0.00255058,-0.00441954,0.
 00261072,0.06731577,0.25153966,0.00017597,0.00012783,0.00019202,0.0000
 7980,-0.00009919,-0.00011941,0.00000019,-0.00004767,-0.00007155,-0.000
 01967,-0.00001796,-0.00007520,-0.00001506,0.00001783,0.00009027,-0.000
 10741,0.00009355,0.00000256,-0.00007469,-0.00002709,-0.00004752,-0.000
 00651,-0.00001101,-0.00000188,0.00000360,0.00000025,-0.00000937,-0.000
 07976,0.00004564,-0.00001571,0.00018573,-0.00001818,0.00026600,-0.0000
 2545,0.00002892,0.00000338,-0.00000959,-0.00001466,-0.00002450,0.00003
 376,0.00005020,0.00000738,0.00003884,-0.00000763,-0.00000064,-0.000033
 40,-0.00001909,0.00001311,0.00002473,0.00000236,0.00002821,0.00000856,
 0.00000360,0.00000496,-0.00000867,-0.00001166,0.00000845,0.00001339,0.
 00000099,0.00000338,-0.00001040,-0.00000146,0.00000490,0.00002055,-0.0
 0000199,0.00001956,-0.00000674,0.00000668,-0.00000739,0.00011711,-0.00
 001441,0.00001367,-0.00001199,0.00001741,-0.00002782,-0.00015063,0.000
 06351,-0.00014138,0.00012934,0.00034860,-0.00007399,0.00084242,-0.0001
 2520,0.00018306,0.00094253,0.00014319,-0.00065245,0.00000438,-0.000010
 31,0.00005113,-0.00004089,0.00001393,0.00003791,-0.00073466,-0.0001952
 5,0.00091723,-0.00016402,-0.00011426,-0.00014802,-0.00006981,-0.000517
 05,0.00024398,-0.00121540,0.00036277,0.00014342,-0.00034305,-0.0000454
 6,-0.00047688,0.00792949,0.00256842,0.00208481,0.00064308,-0.00029954,
 -0.00089531,-0.00338355,0.00159560,-0.00935175,0.17053034,-0.28779159,
 0.47285257,-0.00004869,-0.00000454,-0.00004861,0.00000724,-0.00000553,
 0.00004864,-0.00001011,0.00002287,-0.00001682,0.00002372,0.00000173,0.
 00001668,0.00000914,0.00000392,-0.00000594,0.00002079,-0.00001775,-0.0
 0000161,0.00001609,-0.00007107,-0.00000995,0.00000417,0.00001569,0.000
 00240,0.00000182,-0.00000564,0.00000543,-0.00001475,0.00003738,0.00000
 272,0.00004361,0.00003656,-0.00009468,-0.00007043,-0.00002067,0.000024
 96,0.00000025,0.00000837,-0.00000205,-0.00000221,-0.00002055,0.0000015
 1,-0.00002551,-0.00001337,-0.00000599,0.00000280,-0.00000477,0.0000007
 8,-0.00001243,0.00000240,-0.00000395,0.00000557,0.00000339,-0.00000171
 ,0.00000066,0.00000266,-0.00000723,0.00000493,0.00000479,-0.00000136,0
 .00000110,0.00000320,-0.00000601,-0.00000918,-0.00000183,-0.00000241,-
 0.00000364,0.00000190,0.00000771,-0.00004339,0.00001103,-0.00001307,-0
 .00003862,0.00003394,0.00003044,0.00001168,-0.00010253,0.00007427,-0.0
 0004286,0.00000438,-0.00001701,-0.00013257,0.00005833,-0.00010687,-0.0
 0013989,0.00009102,0.00012672,0.00000795,-0.00000541,0.00000239,-0.000
 01208,-0.00000989,0.00002278,0.00006143,-0.00008567,-0.00025248,0.0000
 4089,0.00000832,0.00003345,0.00002606,-0.00001607,0.00000177,0.0001931
 5,-0.00009098,-0.00000541,0.00008248,-0.00000729,0.00014838,-0.0038522
 2,-0.00052302,0.00046978,-0.00003115,0.00004758,0.00016439,0.00628777,
 -0.00066920,0.00068654,-0.05617613,-0.07046960,0.06368283,0.05019084,0
 .00002232,-0.00000915,-0.00001929,0.00000360,0.00002050,-0.00000176,0.
 00004238,0.00001162,0.00002183,-0.00002512,0.00002326,0.00000259,-0.00
 002410,0.00001349,-0.00002412,0.00000815,-0.00000681,0.00001860,-0.000
 02320,0.00007451,0.00001102,-0.00000760,-0.00002249,-0.00000205,0.0000
 0707,0.00000593,-0.00000316,-0.00001238,0.00000417,0.00000397,0.000004
 91,-0.00006710,0.00000251,0.00001916,0.00004386,-0.00000983,-0.0000018
 9,-0.00001779,0.00001243,-0.00002369,-0.00002893,-0.00000882,-0.000009
 95,0.00000619,0.00000662,-0.00000031,0.00000447,-0.00000542,0.00000259
 ,-0.00000411,-0.00000025,-0.00000369,-0.00000228,0.00000212,-0.0000022
 5,-0.00000239,0.00000670,0.00000151,-0.00000389,0.00000057,-0.00000016
 ,-0.00000362,-0.00000107,0.00000559,0.00000197,0.00000372,0.00000252,-
 0.00000719,-0.00000974,0.00000067,0.00000453,0.00000475,0.00002866,-0.
 00002544,-0.00002963,-0.00000706,0.00004162,0.00001828,0.00002051,-0.0
 0002924,-0.00003627,0.00006613,-0.00007426,0.00000826,0.00013066,-0.00
 010211,-0.00010734,-0.00000646,0.00000468,0.00001211,0.00001425,0.0000
 2086,-0.00000614,-0.00010685,0.00006096,0.00017052,-0.00000083,0.00000
 671,0.00002762,-0.00002155,0.00003281,0.00000276,-0.00014810,0.0000896
 8,0.00001170,-0.00000377,0.00002059,-0.00001580,0.00061205,0.00052139,
 -0.00031233,0.00011215,-0.00001749,0.00019302,-0.00089596,-0.00115809,
 0.00016249,-0.03830943,-0.22671104,0.27001048,0.04418206,0.22833623,-0
 .00004996,-0.00003991,-0.00006893,-0.00001368,0.00000711,0.00004171,-0
 .00000750,0.00002408,0.00001534,0.00001687,-0.00000254,0.00002578,-0.0
 0001373,-0.00000039,-0.00002310,0.00002559,-0.00002231,0.00000275,0.00
 002322,0.00002907,0.00002830,-0.00000052,-0.00000093,0.00000039,-0.000
 00013,0.00000115,0.00000209,0.00002835,-0.00001614,0.00001329,-0.00007
 842,-0.00001049,-0.00010373,0.00002244,0.00000684,0.00002704,0.0000061
 8,0.00000923,0.00000588,-0.00000518,-0.00001849,0.00000340,-0.00001885
 ,0.00000127,0.00000341,0.00000793,0.00000802,-0.00000400,-0.00000909,-
 0.00000139,-0.00001127,-0.00000407,-0.00000279,-0.00000048,0.00000230,
 0.00000337,-0.00000205,-0.00000523,-0.00000153,-0.00000038,0.00000368,
 -0.00000004,-0.00000249,-0.00000624,0.00000104,-0.00000758,0.00000309,
 -0.00000429,-0.00000129,-0.00005059,-0.00000115,-0.00001187,0.00003216
 ,-0.00002386,-0.00000030,0.00005017,0.00002381,0.00003307,-0.00004359,
 -0.00010239,0.00000889,-0.00024320,-0.00000040,-0.00006360,-0.00021677
 ,-0.00008127,0.00017833,0.00000449,0.00000364,-0.00001194,0.00002651,0
 .00000650,-0.00001657,0.00011275,0.00007625,-0.00018701,0.00005541,0.0
 0003294,0.00005382,0.00000374,0.00015222,-0.00005928,0.00030483,-0.000
 05955,-0.00003967,0.00011935,0.00002355,0.00016338,-0.00108171,-0.0003
 6918,0.00040715,0.00026270,0.00004120,0.00013183,0.00158538,0.00103947
 ,-0.00127601,0.02179031,0.25066828,-0.31047878,-0.03134181,-0.26815666
 ,0.32740388,0.00002026,0.00003476,0.00001122,0.00002487,-0.00001723,-0
 .00000613,0.00000961,0.00000860,-0.00001445,-0.00000158,0.00001175,-0.
 00000773,0.00000055,0.00000900,0.00000564,-0.00000764,0.00000101,0.000
 00114,-0.00001593,-0.00002632,-0.00001379,-0.00000115,-0.00000117,0.00
 000003,0.00000196,-0.00000018,-0.00000016,-0.00002947,0.00002383,0.000
 00007,0.00006807,0.00000799,0.00002876,-0.00001586,-0.00001529,0.00000
 944,-0.00000143,-0.00001141,0.00000246,-0.00000550,-0.00001040,0.00000
 009,-0.00000494,-0.00000518,0.00000024,-0.00000488,-0.00000611,0.00000
 365,0.00000093,0.00000179,0.00000460,0.00000410,0.00000215,0.00000154,
 -0.00000293,-0.00000222,0.00000018,0.00000609,0.00000130,0.00000130,-0
 .00000297,0.00000008,-0.00000217,0.00000153,-0.00000157,0.00000332,-0.
 00000302,0.00000178,0.00000122,0.00000900,0.00000288,0.00000327,-0.000
 02072,0.00001655,0.00000285,-0.00002448,-0.00001840,-0.00000560,-0.000
 01863,0.00012079,-0.00007552,0.00020810,-0.00001981,-0.00000467,0.0002
 7872,0.00011421,-0.00010991,0.00002557,-0.00000336,0.00002399,-0.00001
 567,-0.00000136,0.00002832,-0.00035079,-0.00015961,0.00006260,-0.00001
 189,-0.00002658,0.00000479,-0.00000400,-0.00019069,0.00010837,-0.00031
 468,0.00008793,0.00004113,-0.00005681,-0.00001402,-0.00007137,-0.00022
 648,-0.00037116,0.00105519,-0.00018853,-0.00007007,0.00007649,-0.00065
 946,0.00061179,-0.00290039,-0.41732996,0.00812563,-0.23889526,0.003621
 71,-0.00565261,0.00870285,0.41503835,0.00005874,-0.00002160,0.00002224
 ,-0.00007185,0.00007445,-0.00003871,0.00004653,-0.00003292,0.00001972,
 -0.00002010,0.00001311,0.00002064,-0.00000306,-0.00001531,-0.00003014,
 0.00000343,-0.00000258,0.00002584,-0.00001178,0.00006791,0.00000817,-0
 .00000455,-0.00001605,-0.00000129,0.00000406,0.00000602,-0.00000092,-0
 .00000122,-0.00000612,0.00000443,-0.00001854,-0.00004136,-0.00001420,0
 .00002409,0.00002255,-0.00001783,-0.00001488,-0.00004125,0.00000316,-0
 .00001396,0.00000187,-0.00000732,0.00000617,0.00000282,0.00000508,0.00
 000162,0.00000864,-0.00000882,0.00000276,-0.00000626,-0.00000098,-0.00
 000402,-0.00000221,0.00000079,-0.00000070,-0.00000025,0.00000622,-0.00
 000036,-0.00000397,0.00000016,0.00000107,-0.00000205,-0.00000128,0.000
 00177,0.00000069,0.00000093,0.00000319,-0.00000645,-0.00000598,-0.0000
 0812,-0.00000075,0.00000234,0.00001624,-0.00001579,-0.00000531,0.00001
 870,0.00001794,0.00000860,0.00014648,-0.00013101,-0.00002380,-0.000030
 80,-0.00006024,-0.00000607,0.00003165,-0.00021647,0.00019904,-0.000024
 37,0.00000793,0.00002175,0.00002379,0.00001834,-0.00001110,-0.00003750
 ,0.00013349,-0.00022226,-0.00008496,0.00001559,-0.00001417,-0.00011237
 ,0.00025327,-0.00005790,-0.00000090,0.00004674,-0.00000773,0.00003283,
 0.00001973,0.00003410,-0.00092364,-0.00071660,0.00135124,-0.00021481,0
 .00022187,-0.00021776,0.00160430,0.00075952,-0.00231767,-0.02542972,-0
 .02100624,0.01388888,0.02756382,-0.00105661,0.01675666,-0.00255905,0.0
 2170962,-0.00005688,-0.00000809,-0.00009569,0.00000680,0.00001065,0.00
 002856,0.00002086,0.00001631,-0.00000933,-0.00001566,0.00002499,-0.000
 00240,-0.00001086,0.00001546,-0.00003458,0.00002275,-0.00002565,0.0000
 4043,-0.00000003,0.00001463,0.00000087,0.00000186,-0.00000539,0.000005
 39,0.00000542,0.00000044,0.00000371,0.00000830,0.00001199,0.00000500,-
 0.00002916,-0.00001495,-0.00011795,-0.00003352,0.00000389,0.00002700,0
 .00000458,-0.00000551,0.00001806,-0.00001407,-0.00001775,-0.00000757,-
 0.00001098,0.00000120,-0.00000028,0.00001222,0.00000288,0.00000146,-0.
 00000650,-0.00000403,-0.00000836,-0.00000098,0.00000002,-0.00000247,0.
 00000048,0.00000429,-0.00000124,0.00000034,-0.00000008,-0.00000259,0.0
 0000454,-0.00000058,-0.00000537,-0.00000623,0.00000003,-0.00000569,0.0
 0000247,-0.00000556,0.00000289,-0.00000467,-0.00000481,-0.00000794,0.0
 0000433,-0.00000580,0.00000738,-0.00002386,-0.00000353,0.00001424,-0.0
 0018404,-0.00010431,-0.00008474,-0.00030784,0.00003666,-0.00013961,-0.
 00042841,-0.00006555,-0.00035428,0.00003294,0.00001605,-0.00000599,0.0
 0001964,0.00000155,0.00000708,0.00029903,0.00020594,0.00069170,0.00013
 199,0.00004488,0.00017841,0.00016242,0.00007491,0.00000154,0.00041867,
 -0.00012624,-0.00000867,0.00013181,0.00002526,0.00024119,0.00219900,0.
 00150002,-0.00232851,0.00006552,-0.00001621,-0.00001962,-0.00282351,-0
 .00258117,0.00401882,-0.19791162,0.03231693,-0.15455241,-0.03360959,-0
 .00196499,-0.01617940,0.23192244,-0.02936875,0.16868097\\0.00000160,0.
 00000159,0.00000114,0.00000019,0.00000005,-0.00000225,0.00000024,0.000
 00037,0.00000071,0.00000029,0.00000027,0.00000041,-0.00000001,-0.00000
 030,0.00000012,0.00000148,0.00000012,-0.00000036,-0.00000019,-0.000000
 09,-0.00000037,-0.00000009,-0.00000069,-0.00000013,0.00000004,-0.00000
 023,0.00000011,0.00000038,-0.00000013,0.00000011,-0.00000118,-0.000000
 03,0.00000076,-0.00000026,-0.00000011,-0.00000029,0.00000039,0.0000003
 5,-0.00000018,0.00000016,0.00000037,0.00000003,0.00000008,-0.00000011,
 -0.00000009,0.00000288,0.00000325,0.00000184,0.00000018,-0.00000031,0.
 00000009,0.00000016,-0.00000039,0.00000009,0.00000032,-0.00000054,0.00
 000013,-0.00000016,-0.00000058,0.00000010,-0.00000010,-0.00000046,0.00
 000043,-0.00000047,-0.00000041,0.00000013,-0.00000012,-0.00000024,0.00
 000028,-0.00000039,-0.00000020,0.00000018,-0.00000038,0.00000015,0.000
 00022,0.00000139,0.00000064,-0.00000004,0.00000022,-0.00000010,-0.0000
 0029,-0.00000028,-0.00000060,0.00000006,0.00000032,0.00000140,0.000000
 52,0.00000057,0.00000019,0.00000011,-0.00000011,-0.00000014,-0.0000000
 1,-0.00000187,-0.00000120,-0.00000026,0.00000048,0.00000046,0.00000004
 ,-0.00000269,-0.00000277,-0.00000276,-0.00000059,-0.00000069,-0.000000
 60,0.00000014,-0.00000048,0.00000011,0.00000136,0.00000152,-0.00000082
 ,-0.00000301,-0.00000252,0.00000145,-0.00000044,0.00000055,-0.00000032
 ,-0.00000003,0.00000056,-0.00000015,-0.00000041,0.00000079,-0.00000024
 ,-0.00000014,0.00000065,0.\\\@


 IT WAS A GAME, A VERY INTERESTING GAME ONE COULD
 PLAY.  WHENEVER ONE SOLVED ONE OF THE LITTLE PROBLEMS,
 ONE COULD WRITE A PAPER ABOUT IT.  IT WAS VERY EASY IN
 THOSE DAYS FOR ANY SECOND-RATE PHYSICIST TO DO
 FIRST-RATE WORK.  THERE HAS NOT BEEN SUCH A GLORIOUS
 TIME SINCE.  IT IS VERY DIFFICULT NOW FOR A FIRST-RATE
 PHYSICIST TO DO SECOND-RATE WORK.
     P.A.M. DIRAC, ON THE EARLY DAYS OF QUANTUM MECHANICS
                   DIRECTIONS IN PHYSICS, 1978, P. 7
 Job cpu time:       1 days 19 hours 27 minutes 56.1 seconds.
 Elapsed time:       0 days  1 hours 33 minutes 13.2 seconds.
 File lengths (MBytes):  RWF=   1620 Int=      0 D2E=      0 Chk=     36 Scr=      8
 Normal termination of Gaussian 16 at Thu Dec 29 07:55:37 2022.
