 Entering Gaussian System, Link 0=g16
 Input=Nic5h3bMidBInter.gjf
 Output=Nic5h3bMidBInter.log
 Initial command:
 /sw/contrib/gaussian/g16/A03/g16/l1.exe "/gscratch/scrubbed/gds001/Gau-18353.inp" -scrdir="/gscratch/scrubbed/gds001/"
 Entering Link 1 = /sw/contrib/gaussian/g16/A03/g16/l1.exe PID=     18354.
  
 Copyright (c) 1988,1990,1992,1993,1995,1998,2003,2009,2016,
            Gaussian, Inc.  All Rights Reserved.
  
 This is part of the Gaussian(R) 16 program.  It is based on
 the Gaussian(R) 09 system (copyright 2009, Gaussian, Inc.),
 the Gaussian(R) 03 system (copyright 2003, Gaussian, Inc.),
 the Gaussian(R) 98 system (copyright 1998, Gaussian, Inc.),
 the Gaussian(R) 94 system (copyright 1995, Gaussian, Inc.),
 the Gaussian 92(TM) system (copyright 1992, Gaussian, Inc.),
 the Gaussian 90(TM) system (copyright 1990, Gaussian, Inc.),
 the Gaussian 88(TM) system (copyright 1988, Gaussian, Inc.),
 the Gaussian 86(TM) system (copyright 1986, Carnegie Mellon
 University), and the Gaussian 82(TM) system (copyright 1983,
 Carnegie Mellon University). Gaussian is a federally registered
 trademark of Gaussian, Inc.
  
 This software contains proprietary and confidential information,
 including trade secrets, belonging to Gaussian, Inc.
  
 This software is provided under written license and may be
 used, copied, transmitted, or stored only in accord with that
 written license.
  
 The following legend is applicable only to US Government
 contracts under FAR:
  
                    RESTRICTED RIGHTS LEGEND
  
 Use, reproduction and disclosure by the US Government is
 subject to restrictions as set forth in subparagraphs (a)
 and (c) of the Commercial Computer Software - Restricted
 Rights clause in FAR 52.227-19.
  
 Gaussian, Inc.
 340 Quinnipiac St., Bldg. 40, Wallingford CT 06492
  
  
 ---------------------------------------------------------------
 Warning -- This program may not be used in any manner that
 competes with the business of Gaussian, Inc. or will provide
 assistance to any competitor of Gaussian, Inc.  The licensee
 of this program is prohibited from giving any competitor of
 Gaussian, Inc. access to this program.  By using this program,
 the user acknowledges that Gaussian, Inc. is engaged in the
 business of creating and licensing software in the field of
 computational chemistry and represents and warrants to the
 licensee that it is not a competitor of Gaussian, Inc. and that
 it will not use this program in any manner prohibited above.
 ---------------------------------------------------------------
  

 Cite this work as:
 Gaussian 16, Revision A.03,
 M. J. Frisch, G. W. Trucks, H. B. Schlegel, G. E. Scuseria, 
 M. A. Robb, J. R. Cheeseman, G. Scalmani, V. Barone, 
 G. A. Petersson, H. Nakatsuji, X. Li, M. Caricato, A. V. Marenich, 
 J. Bloino, B. G. Janesko, R. Gomperts, B. Mennucci, H. P. Hratchian, 
 J. V. Ortiz, A. F. Izmaylov, J. L. Sonnenberg, D. Williams-Young, 
 F. Ding, F. Lipparini, F. Egidi, J. Goings, B. Peng, A. Petrone, 
 T. Henderson, D. Ranasinghe, V. G. Zakrzewski, J. Gao, N. Rega, 
 G. Zheng, W. Liang, M. Hada, M. Ehara, K. Toyota, R. Fukuda, 
 J. Hasegawa, M. Ishida, T. Nakajima, Y. Honda, O. Kitao, H. Nakai, 
 T. Vreven, K. Throssell, J. A. Montgomery, Jr., J. E. Peralta, 
 F. Ogliaro, M. J. Bearpark, J. J. Heyd, E. N. Brothers, K. N. Kudin, 
 V. N. Staroverov, T. A. Keith, R. Kobayashi, J. Normand, 
 K. Raghavachari, A. P. Rendell, J. C. Burant, S. S. Iyengar, 
 J. Tomasi, M. Cossi, J. M. Millam, M. Klene, C. Adamo, R. Cammi, 
 J. W. Ochterski, R. L. Martin, K. Morokuma, O. Farkas, 
 J. B. Foresman, and D. J. Fox, Gaussian, Inc., Wallingford CT, 2016.
 
 ******************************************
 Gaussian 16:  ES64L-G16RevA.03 25-Dec-2016
                 8-Mar-2023 
 ******************************************
 %nprocshared=28
 Will use up to   28 processors via shared memory.
 %mem=41GB
 -----------------------------------------
 # wB97XD/aug-cc-pVDZ opt=(MaxStep=1) freq
 -----------------------------------------
 1/8=1,18=20,19=15,26=3,38=1/1,3;
 2/9=110,12=2,17=6,18=5,40=1/2;
 3/5=16,7=10,11=2,25=1,30=1,71=1,74=-58/1,2,3;
 4//1;
 5/5=2,38=5/2;
 6/7=2,8=2,9=2,10=2,28=1/1;
 7//1,2,3,16;
 1/8=1,18=20,19=15,26=3/3(2);
 2/9=110/2;
 99//99;
 2/9=110/2;
 3/5=16,7=10,11=2,25=1,30=1,71=1,74=-58/1,2,3;
 4/5=5,16=3,69=1/1;
 5/5=2,38=5/2;
 7//1,2,3,16;
 1/8=1,18=20,19=15,26=3/3(-5);
 2/9=110/2;
 6/7=2,8=2,9=2,10=2,19=2,28=1/1;
 99/9=1/99;
 ----
 blah
 ----
 Symbolic Z-matrix:
 Charge =  1 Multiplicity = 1
 N                     1.1252    1.92255   0.69628 
 C                     1.68095   2.48206  -0.38685 
 C                     1.09087   2.41839  -1.64484 
 C                    -0.12479   1.74844  -1.77712 
 C                    -0.72439   1.17298  -0.65794 
 C                    -0.04704   1.29711   0.55782 
 C                    -2.04337   0.4428   -0.75908 
 C                    -3.14609   0.90831   0.20776 
 C                    -4.02452  -0.34713   0.42789 
 C                    -3.33021  -1.44824  -0.3833 
 N                    -1.9301   -1.00176  -0.4704 
 C                    -1.15067  -1.74038  -1.4598 
 H                     2.63068   2.9956   -0.23462 
 H                     1.57235   2.88775  -2.50077 
 H                    -0.60841   1.6784   -2.75218 
 H                    -0.46139   0.86353   1.46897 
 H                    -2.4079    0.55752  -1.79767 
 H                    -3.70162   1.75074  -0.21662 
 H                    -2.71044   1.25021   1.15326 
 H                    -5.05523  -0.19867   0.09122 
 H                    -4.06146  -0.60976   1.49095 
 H                    -3.76257  -1.52637  -1.39654 
 H                    -3.38227  -2.4417    0.07953 
 H                    -1.57011  -1.62267  -2.47426 
 H                    -1.15802  -2.80636  -1.20294 
 H                    -0.11127  -1.39304  -1.45526 
 O                     2.35216   0.81602   2.83951 
 O                    -0.86904  -1.5404    1.90399 
 O                     1.63603  -1.38803   1.82186 
 H                     2.26744   1.15888   3.73242 
 H                    -1.30635  -2.30131   2.29339 
 H                     1.90828  -1.25792   0.85632 
 H                     1.95524   1.46333   2.20388 
 H                     1.92     -0.55642   2.34026 
 H                     0.61517  -1.50104   1.87481 
 H                    -1.30299  -1.34012   1.00177 
 O                     2.25274  -1.01116  -0.64585 
 H                     2.32929  -0.0931   -0.92456 
 H                     3.03169  -1.47846  -1.01584 
 O                     4.43083  -2.26545  -1.65075 
 H                     4.44755  -2.84359  -2.41804 
 H                     5.23066  -2.4577   -1.15397 
 
 Add virtual bond connecting atoms H35        and O28        Dist= 2.81D+00.
 Add virtual bond connecting atoms H34        and O27        Dist= 2.88D+00.
 Add virtual bond connecting atoms O37        and H32        Dist= 2.95D+00.
 Add virtual bond connecting atoms H33        and N1         Dist= 3.37D+00.
 Add virtual bond connecting atoms H36        and N11        Dist= 3.09D+00.
 Add virtual bond connecting atoms O40        and H39        Dist= 3.26D+00.

 GradGradGradGradGradGradGradGradGradGradGradGradGradGradGradGradGradGrad
 Berny optimization.
 Initialization pass.
                           ----------------------------
                           !    Initial Parameters    !
                           ! (Angstroms and Degrees)  !
 --------------------------                            --------------------------
 ! Name  Definition              Value          Derivative Info.                !
 --------------------------------------------------------------------------------
 ! R1    R(1,2)                  1.3398         estimate D2E/DX2                !
 ! R2    R(1,6)                  1.3358         estimate D2E/DX2                !
 ! R3    R(1,33)                 1.7812         estimate D2E/DX2                !
 ! R4    R(2,3)                  1.391          estimate D2E/DX2                !
 ! R5    R(2,13)                 1.0904         estimate D2E/DX2                !
 ! R6    R(3,4)                  1.3943         estimate D2E/DX2                !
 ! R7    R(3,14)                 1.0885         estimate D2E/DX2                !
 ! R8    R(4,5)                  1.394          estimate D2E/DX2                !
 ! R9    R(4,15)                 1.0907         estimate D2E/DX2                !
 ! R10   R(5,6)                  1.3972         estimate D2E/DX2                !
 ! R11   R(5,7)                  1.511          estimate D2E/DX2                !
 ! R12   R(6,16)                 1.0908         estimate D2E/DX2                !
 ! R13   R(7,8)                  1.5387         estimate D2E/DX2                !
 ! R14   R(7,11)                 1.4775         estimate D2E/DX2                !
 ! R15   R(7,17)                 1.1067         estimate D2E/DX2                !
 ! R16   R(8,9)                  1.548          estimate D2E/DX2                !
 ! R17   R(8,18)                 1.0947         estimate D2E/DX2                !
 ! R18   R(8,19)                 1.0957         estimate D2E/DX2                !
 ! R19   R(9,10)                 1.5338         estimate D2E/DX2                !
 ! R20   R(9,20)                 1.0944         estimate D2E/DX2                !
 ! R21   R(9,21)                 1.0957         estimate D2E/DX2                !
 ! R22   R(10,11)                1.4722         estimate D2E/DX2                !
 ! R23   R(10,22)                1.1044         estimate D2E/DX2                !
 ! R24   R(10,23)                1.0972         estimate D2E/DX2                !
 ! R25   R(11,12)                1.4601         estimate D2E/DX2                !
 ! R26   R(11,36)                1.6355         estimate D2E/DX2                !
 ! R27   R(12,24)                1.104          estimate D2E/DX2                !
 ! R28   R(12,25)                1.0965         estimate D2E/DX2                !
 ! R29   R(12,26)                1.0959         estimate D2E/DX2                !
 ! R30   R(27,30)                0.9602         estimate D2E/DX2                !
 ! R31   R(27,33)                0.9902         estimate D2E/DX2                !
 ! R32   R(27,34)                1.523          estimate D2E/DX2                !
 ! R33   R(28,31)                0.9601         estimate D2E/DX2                !
 ! R34   R(28,35)                1.485          estimate D2E/DX2                !
 ! R35   R(28,36)                1.021          estimate D2E/DX2                !
 ! R36   R(29,32)                1.0116         estimate D2E/DX2                !
 ! R37   R(29,34)                1.0203         estimate D2E/DX2                !
 ! R38   R(29,35)                1.0285         estimate D2E/DX2                !
 ! R39   R(32,37)                1.5608         estimate D2E/DX2                !
 ! R40   R(37,38)                0.9625         estimate D2E/DX2                !
 ! R41   R(37,39)                0.9808         estimate D2E/DX2                !
 ! R42   R(39,40)                1.7263         estimate D2E/DX2                !
 ! R43   R(40,41)                0.9609         estimate D2E/DX2                !
 ! R44   R(40,42)                0.961          estimate D2E/DX2                !
 ! A1    A(2,1,6)              118.4062         estimate D2E/DX2                !
 ! A2    A(2,1,33)             126.7708         estimate D2E/DX2                !
 ! A3    A(6,1,33)             112.0827         estimate D2E/DX2                !
 ! A4    A(1,2,3)              122.4157         estimate D2E/DX2                !
 ! A5    A(1,2,13)             116.4306         estimate D2E/DX2                !
 ! A6    A(3,2,13)             121.1537         estimate D2E/DX2                !
 ! A7    A(2,3,4)              118.5325         estimate D2E/DX2                !
 ! A8    A(2,3,14)             120.2518         estimate D2E/DX2                !
 ! A9    A(4,3,14)             121.2152         estimate D2E/DX2                !
 ! A10   A(3,4,5)              119.814          estimate D2E/DX2                !
 ! A11   A(3,4,15)             120.1505         estimate D2E/DX2                !
 ! A12   A(5,4,15)             120.0348         estimate D2E/DX2                !
 ! A13   A(4,5,6)              116.9614         estimate D2E/DX2                !
 ! A14   A(4,5,7)              121.4135         estimate D2E/DX2                !
 ! A15   A(6,5,7)              121.6244         estimate D2E/DX2                !
 ! A16   A(1,6,5)              123.8616         estimate D2E/DX2                !
 ! A17   A(1,6,16)             115.6488         estimate D2E/DX2                !
 ! A18   A(5,6,16)             120.4869         estimate D2E/DX2                !
 ! A19   A(5,7,8)              115.9341         estimate D2E/DX2                !
 ! A20   A(5,7,11)             113.1085         estimate D2E/DX2                !
 ! A21   A(5,7,17)             107.4734         estimate D2E/DX2                !
 ! A22   A(8,7,11)             103.178          estimate D2E/DX2                !
 ! A23   A(8,7,17)             108.8009         estimate D2E/DX2                !
 ! A24   A(11,7,17)            108.0578         estimate D2E/DX2                !
 ! A25   A(7,8,9)              104.5176         estimate D2E/DX2                !
 ! A26   A(7,8,18)             110.6661         estimate D2E/DX2                !
 ! A27   A(7,8,19)             110.5895         estimate D2E/DX2                !
 ! A28   A(9,8,18)             113.0332         estimate D2E/DX2                !
 ! A29   A(9,8,19)             110.8528         estimate D2E/DX2                !
 ! A30   A(18,8,19)            107.2267         estimate D2E/DX2                !
 ! A31   A(8,9,10)             104.486          estimate D2E/DX2                !
 ! A32   A(8,9,20)             112.3757         estimate D2E/DX2                !
 ! A33   A(8,9,21)             110.5797         estimate D2E/DX2                !
 ! A34   A(10,9,20)            111.1626         estimate D2E/DX2                !
 ! A35   A(10,9,21)            110.8746         estimate D2E/DX2                !
 ! A36   A(20,9,21)            107.4118         estimate D2E/DX2                !
 ! A37   A(9,10,11)            104.1277         estimate D2E/DX2                !
 ! A38   A(9,10,22)            111.0256         estimate D2E/DX2                !
 ! A39   A(9,10,23)            113.919          estimate D2E/DX2                !
 ! A40   A(11,10,22)           109.8467         estimate D2E/DX2                !
 ! A41   A(11,10,23)           110.1628         estimate D2E/DX2                !
 ! A42   A(22,10,23)           107.7207         estimate D2E/DX2                !
 ! A43   A(7,11,10)            103.6018         estimate D2E/DX2                !
 ! A44   A(7,11,12)            113.7732         estimate D2E/DX2                !
 ! A45   A(7,11,36)            114.0503         estimate D2E/DX2                !
 ! A46   A(10,11,12)           113.2255         estimate D2E/DX2                !
 ! A47   A(10,11,36)           104.3983         estimate D2E/DX2                !
 ! A48   A(12,11,36)           107.4936         estimate D2E/DX2                !
 ! A49   A(11,12,24)           111.4632         estimate D2E/DX2                !
 ! A50   A(11,12,25)           109.2363         estimate D2E/DX2                !
 ! A51   A(11,12,26)           110.0685         estimate D2E/DX2                !
 ! A52   A(24,12,25)           108.4417         estimate D2E/DX2                !
 ! A53   A(24,12,26)           109.2892         estimate D2E/DX2                !
 ! A54   A(25,12,26)           108.2704         estimate D2E/DX2                !
 ! A55   A(30,27,33)           109.1551         estimate D2E/DX2                !
 ! A56   A(30,27,34)           126.9808         estimate D2E/DX2                !
 ! A57   A(33,27,34)           105.3608         estimate D2E/DX2                !
 ! A58   A(31,28,35)           118.9594         estimate D2E/DX2                !
 ! A59   A(31,28,36)           108.6791         estimate D2E/DX2                !
 ! A60   A(35,28,36)           113.7178         estimate D2E/DX2                !
 ! A61   A(32,29,34)           107.7719         estimate D2E/DX2                !
 ! A62   A(32,29,35)           109.2939         estimate D2E/DX2                !
 ! A63   A(34,29,35)           109.8571         estimate D2E/DX2                !
 ! A64   A(1,33,27)            153.9766         estimate D2E/DX2                !
 ! A65   A(32,37,38)           116.555          estimate D2E/DX2                !
 ! A66   A(32,37,39)           117.5805         estimate D2E/DX2                !
 ! A67   A(38,37,39)           106.3825         estimate D2E/DX2                !
 ! A68   A(39,40,41)           125.5988         estimate D2E/DX2                !
 ! A69   A(39,40,42)           125.1454         estimate D2E/DX2                !
 ! A70   A(41,40,42)           106.138          estimate D2E/DX2                !
 ! A71   L(29,32,37,1,-1)      177.6577         estimate D2E/DX2                !
 ! A72   L(27,34,29,3,-1)      168.8642         estimate D2E/DX2                !
 ! A73   L(28,35,29,1,-1)      174.873          estimate D2E/DX2                !
 ! A74   L(11,36,28,1,-1)      178.0189         estimate D2E/DX2                !
 ! A75   L(37,39,40,14,-1)     179.2648         estimate D2E/DX2                !
 ! A76   L(29,32,37,1,-2)      182.3168         estimate D2E/DX2                !
 ! A77   L(27,34,29,3,-2)      177.2234         estimate D2E/DX2                !
 ! A78   L(28,35,29,1,-2)      180.1871         estimate D2E/DX2                !
 ! A79   L(11,36,28,1,-2)      181.7386         estimate D2E/DX2                !
 ! A80   L(37,39,40,14,-2)     178.3045         estimate D2E/DX2                !
 ! D1    D(6,1,2,3)             -0.8712         estimate D2E/DX2                !
 ! D2    D(6,1,2,13)           179.1976         estimate D2E/DX2                !
 ! D3    D(33,1,2,3)           158.8027         estimate D2E/DX2                !
 ! D4    D(33,1,2,13)          -21.1284         estimate D2E/DX2                !
 ! D5    D(2,1,6,5)              0.96           estimate D2E/DX2                !
 ! D6    D(2,1,6,16)          -179.6361         estimate D2E/DX2                !
 ! D7    D(33,1,6,5)          -161.5657         estimate D2E/DX2                !
 ! D8    D(33,1,6,16)           17.8382         estimate D2E/DX2                !
 ! D9    D(2,1,33,27)         -104.4527         estimate D2E/DX2                !
 ! D10   D(6,1,33,27)           56.2951         estimate D2E/DX2                !
 ! D11   D(1,2,3,4)              0.1172         estimate D2E/DX2                !
 ! D12   D(1,2,3,14)           179.8551         estimate D2E/DX2                !
 ! D13   D(13,2,3,4)          -179.9549         estimate D2E/DX2                !
 ! D14   D(13,2,3,14)           -0.217          estimate D2E/DX2                !
 ! D15   D(2,3,4,5)              0.5826         estimate D2E/DX2                !
 ! D16   D(2,3,4,15)          -179.7104         estimate D2E/DX2                !
 ! D17   D(14,3,4,5)          -179.1526         estimate D2E/DX2                !
 ! D18   D(14,3,4,15)            0.5544         estimate D2E/DX2                !
 ! D19   D(3,4,5,6)             -0.5069         estimate D2E/DX2                !
 ! D20   D(3,4,5,7)            179.7924         estimate D2E/DX2                !
 ! D21   D(15,4,5,6)           179.7858         estimate D2E/DX2                !
 ! D22   D(15,4,5,7)             0.0851         estimate D2E/DX2                !
 ! D23   D(4,5,6,1)             -0.2744         estimate D2E/DX2                !
 ! D24   D(4,5,6,16)          -179.6508         estimate D2E/DX2                !
 ! D25   D(7,5,6,1)            179.4256         estimate D2E/DX2                !
 ! D26   D(7,5,6,16)             0.0492         estimate D2E/DX2                !
 ! D27   D(4,5,7,8)           -126.8156         estimate D2E/DX2                !
 ! D28   D(4,5,7,11)           114.2941         estimate D2E/DX2                !
 ! D29   D(4,5,7,17)            -4.8918         estimate D2E/DX2                !
 ! D30   D(6,5,7,8)             53.4977         estimate D2E/DX2                !
 ! D31   D(6,5,7,11)           -65.3926         estimate D2E/DX2                !
 ! D32   D(6,5,7,17)           175.4215         estimate D2E/DX2                !
 ! D33   D(5,7,8,9)           -151.923          estimate D2E/DX2                !
 ! D34   D(5,7,8,18)            86.096          estimate D2E/DX2                !
 ! D35   D(5,7,8,19)           -32.5774         estimate D2E/DX2                !
 ! D36   D(11,7,8,9)           -27.7225         estimate D2E/DX2                !
 ! D37   D(11,7,8,18)         -149.7034         estimate D2E/DX2                !
 ! D38   D(11,7,8,19)           91.6231         estimate D2E/DX2                !
 ! D39   D(17,7,8,9)            86.8609         estimate D2E/DX2                !
 ! D40   D(17,7,8,18)          -35.1201         estimate D2E/DX2                !
 ! D41   D(17,7,8,19)         -153.7935         estimate D2E/DX2                !
 ! D42   D(5,7,11,10)          170.044          estimate D2E/DX2                !
 ! D43   D(5,7,11,12)          -66.5938         estimate D2E/DX2                !
 ! D44   D(5,7,11,36)           57.2052         estimate D2E/DX2                !
 ! D45   D(8,7,11,10)           44.0104         estimate D2E/DX2                !
 ! D46   D(8,7,11,12)          167.3726         estimate D2E/DX2                !
 ! D47   D(8,7,11,36)          -68.8284         estimate D2E/DX2                !
 ! D48   D(17,7,11,10)         -71.1077         estimate D2E/DX2                !
 ! D49   D(17,7,11,12)          52.2546         estimate D2E/DX2                !
 ! D50   D(17,7,11,36)         176.0536         estimate D2E/DX2                !
 ! D51   D(7,8,9,10)             2.1273         estimate D2E/DX2                !
 ! D52   D(7,8,9,20)          -118.5091         estimate D2E/DX2                !
 ! D53   D(7,8,9,21)           121.4755         estimate D2E/DX2                !
 ! D54   D(18,8,9,10)          122.5407         estimate D2E/DX2                !
 ! D55   D(18,8,9,20)            1.9042         estimate D2E/DX2                !
 ! D56   D(18,8,9,21)         -118.1111         estimate D2E/DX2                !
 ! D57   D(19,8,9,10)         -117.0405         estimate D2E/DX2                !
 ! D58   D(19,8,9,20)          122.323          estimate D2E/DX2                !
 ! D59   D(19,8,9,21)            2.3077         estimate D2E/DX2                !
 ! D60   D(8,9,10,11)           24.3886         estimate D2E/DX2                !
 ! D61   D(8,9,10,22)          -93.7634         estimate D2E/DX2                !
 ! D62   D(8,9,10,23)          144.4196         estimate D2E/DX2                !
 ! D63   D(20,9,10,11)         145.83           estimate D2E/DX2                !
 ! D64   D(20,9,10,22)          27.6781         estimate D2E/DX2                !
 ! D65   D(20,9,10,23)         -94.1389         estimate D2E/DX2                !
 ! D66   D(21,9,10,11)         -94.7604         estimate D2E/DX2                !
 ! D67   D(21,9,10,22)         147.0876         estimate D2E/DX2                !
 ! D68   D(21,9,10,23)          25.2707         estimate D2E/DX2                !
 ! D69   D(9,10,11,7)          -42.8806         estimate D2E/DX2                !
 ! D70   D(9,10,11,12)        -166.6021         estimate D2E/DX2                !
 ! D71   D(9,10,11,36)          76.79           estimate D2E/DX2                !
 ! D72   D(22,10,11,7)          76.0786         estimate D2E/DX2                !
 ! D73   D(22,10,11,12)        -47.6429         estimate D2E/DX2                !
 ! D74   D(22,10,11,36)       -164.2509         estimate D2E/DX2                !
 ! D75   D(23,10,11,7)        -165.415          estimate D2E/DX2                !
 ! D76   D(23,10,11,12)         70.8635         estimate D2E/DX2                !
 ! D77   D(23,10,11,36)        -45.7444         estimate D2E/DX2                !
 ! D78   D(7,11,12,24)         -57.277          estimate D2E/DX2                !
 ! D79   D(7,11,12,25)        -177.0923         estimate D2E/DX2                !
 ! D80   D(7,11,12,26)          64.1581         estimate D2E/DX2                !
 ! D81   D(10,11,12,24)         60.6709         estimate D2E/DX2                !
 ! D82   D(10,11,12,25)        -59.1444         estimate D2E/DX2                !
 ! D83   D(10,11,12,26)       -177.8941         estimate D2E/DX2                !
 ! D84   D(36,11,12,24)        175.44           estimate D2E/DX2                !
 ! D85   D(36,11,12,25)         55.6246         estimate D2E/DX2                !
 ! D86   D(36,11,12,26)        -63.125          estimate D2E/DX2                !
 ! D87   D(7,11,28,31)         142.4058         estimate D2E/DX2                !
 ! D88   D(7,11,28,35)         -82.8829         estimate D2E/DX2                !
 ! D89   D(10,11,28,31)         29.5683         estimate D2E/DX2                !
 ! D90   D(10,11,28,35)        164.2796         estimate D2E/DX2                !
 ! D91   D(12,11,28,31)        -91.1518         estimate D2E/DX2                !
 ! D92   D(12,11,28,35)         43.5595         estimate D2E/DX2                !
 ! D93   D(30,27,29,32)        177.7543         estimate D2E/DX2                !
 ! D94   D(30,27,29,35)         61.8758         estimate D2E/DX2                !
 ! D95   D(33,27,29,32)         49.2468         estimate D2E/DX2                !
 ! D96   D(33,27,29,35)        -66.6318         estimate D2E/DX2                !
 ! D97   D(30,27,33,1)        -150.0289         estimate D2E/DX2                !
 ! D98   D(34,27,33,1)         -10.9319         estimate D2E/DX2                !
 ! D99   D(31,28,29,32)        123.759          estimate D2E/DX2                !
 ! D100  D(31,28,29,34)       -119.9445         estimate D2E/DX2                !
 ! D101  D(36,28,29,32)         -7.1195         estimate D2E/DX2                !
 ! D102  D(36,28,29,34)        109.177          estimate D2E/DX2                !
 ! D103  D(34,29,37,38)        -23.9124         estimate D2E/DX2                !
 ! D104  D(34,29,37,39)        104.8118         estimate D2E/DX2                !
 ! D105  D(35,29,37,38)         94.4209         estimate D2E/DX2                !
 ! D106  D(35,29,37,39)       -136.8549         estimate D2E/DX2                !
 ! D107  D(32,37,40,41)        124.4327         estimate D2E/DX2                !
 ! D108  D(32,37,40,42)        -33.3136         estimate D2E/DX2                !
 ! D109  D(38,37,40,41)       -103.5244         estimate D2E/DX2                !
 ! D110  D(38,37,40,42)         98.7294         estimate D2E/DX2                !
 --------------------------------------------------------------------------------
 Trust Radius=1.00D-02 FncErr=1.00D-07 GrdErr=1.00D-06 EigMax=2.50D+02 EigMin=1.00D-04
 Number of steps in this run=    244 maximum allowed number of steps=    252.
 GradGradGradGradGradGradGradGradGradGradGradGradGradGradGradGradGradGrad

                          Input orientation:                          
 ---------------------------------------------------------------------
 Center     Atomic      Atomic             Coordinates (Angstroms)
 Number     Number       Type             X           Y           Z
 ---------------------------------------------------------------------
      1          7           0        1.125200    1.922551    0.696282
      2          6           0        1.680949    2.482060   -0.386853
      3          6           0        1.090874    2.418386   -1.644843
      4          6           0       -0.124791    1.748440   -1.777124
      5          6           0       -0.724386    1.172982   -0.657936
      6          6           0       -0.047035    1.297105    0.557815
      7          6           0       -2.043372    0.442801   -0.759079
      8          6           0       -3.146085    0.908313    0.207758
      9          6           0       -4.024518   -0.347129    0.427886
     10          6           0       -3.330205   -1.448243   -0.383296
     11          7           0       -1.930095   -1.001759   -0.470396
     12          6           0       -1.150674   -1.740378   -1.459800
     13          1           0        2.630675    2.995602   -0.234621
     14          1           0        1.572348    2.887754   -2.500772
     15          1           0       -0.608408    1.678395   -2.752180
     16          1           0       -0.461394    0.863531    1.468968
     17          1           0       -2.407902    0.557519   -1.797668
     18          1           0       -3.701621    1.750740   -0.216618
     19          1           0       -2.710435    1.250210    1.153260
     20          1           0       -5.055226   -0.198671    0.091219
     21          1           0       -4.061459   -0.609758    1.490954
     22          1           0       -3.762566   -1.526370   -1.396536
     23          1           0       -3.382266   -2.441699    0.079532
     24          1           0       -1.570114   -1.622673   -2.474264
     25          1           0       -1.158022   -2.806359   -1.202943
     26          1           0       -0.111267   -1.393036   -1.455261
     27          8           0        2.352163    0.816023    2.839513
     28          8           0       -0.869040   -1.540398    1.903987
     29          8           0        1.636033   -1.388029    1.821862
     30          1           0        2.267439    1.158881    3.732415
     31          1           0       -1.306345   -2.301307    2.293389
     32          1           0        1.908284   -1.257917    0.856322
     33          1           0        1.955236    1.463325    2.203879
     34          1           0        1.920000   -0.556423    2.340263
     35          1           0        0.615165   -1.501039    1.874809
     36          1           0       -1.302987   -1.340119    1.001769
     37          8           0        2.252741   -1.011156   -0.645852
     38          1           0        2.329289   -0.093103   -0.924562
     39          1           0        3.031693   -1.478456   -1.015835
     40          8           0        4.430828   -2.265454   -1.650750
     41          1           0        4.447550   -2.843586   -2.418035
     42          1           0        5.230664   -2.457698   -1.153975
 ---------------------------------------------------------------------
                    Distance matrix (angstroms):
                    1          2          3          4          5
     1  N    0.000000
     2  C    1.339809   0.000000
     3  C    2.393303   1.390964   0.000000
     4  C    2.776784   2.394107   1.394334   0.000000
     5  C    2.411789   2.751873   2.412506   1.394004   0.000000
     6  C    1.335848   2.298357   2.720994   2.379430   1.397233
     7  C    3.787821   4.262358   3.809332   2.534179   1.510999
     8  C    4.417150   5.111800   4.864594   3.711305   2.585363
     9  C    5.634100   6.420316   6.173452   4.945842   3.792179
    10  C    5.690200   6.368592   6.007351   4.736688   3.706284
    11  N    4.387203   5.018328   4.712003   3.539810   2.493673
    12  C    4.821342   5.195988   4.728012   3.650340   3.051618
    13  H    2.069897   1.090357   2.166308   3.395191   3.841559
    14  H    3.369379   2.155234   1.088457   2.168406   3.407561
    15  H    3.867415   3.388481   2.159014   1.090654   2.157487
    16  H    2.058117   3.263946   3.810896   3.381343   2.165328
    17  H    4.534965   4.734233   3.965806   2.575133   2.124149
    18  H    4.915395   5.434691   5.045155   3.902422   3.064718
    19  H    3.920838   4.813902   4.862506   3.939662   2.689012
    20  H    6.562267   7.265736   6.901988   5.620599   4.604220
    21  H    5.826279   6.786807   6.749031   5.633719   4.351086
    22  H    6.337602   6.835117   6.259284   4.909443   4.130686
    23  H    6.304309   7.077928   6.826630   5.622773   4.546878
    24  H    5.466781   5.636979   4.909069   3.733546   3.439475
    25  H    5.584152   6.057486   5.705328   4.705682   4.039830
    26  H    4.141389   4.401125   4.001003   3.157950   2.756101
    27  O    2.706156   3.692647   4.926243   5.321470   4.671694
    28  O    4.174633   5.284937   5.666342   4.992088   3.734542
    29  O    3.533811   4.456235   5.177262   5.088285   4.275483
    30  H    3.332567   4.366136   5.646730   6.035343   5.312852
    31  H    5.128756   6.244055   6.597866   5.862218   4.595615
    32  H    3.279361   3.947733   4.520972   4.484040   3.890141
    33  H    1.781207   2.797311   4.058562   4.500687   3.931241
    34  H    3.078911   4.089827   5.041628   5.142610   4.355780
    35  H    3.656505   4.702775   5.289248   4.944013   3.919130
    36  H    4.078533   5.043927   5.182807   4.318517   3.066770
    37  O    3.417500   3.549167   3.756285   3.814158   3.692410
    38  H    2.853038   2.709417   2.891376   3.184439   3.316473
    39  H    4.258275   4.231526   4.398614   4.577752   4.611545
    40  O    5.828818   5.630112   5.752711   6.072971   6.275727
    41  H    6.591892   6.335794   6.289153   6.511818   6.780832
    42  H    6.282107   6.131082   6.415217   6.838188   6.992175
                    6          7          8          9         10
     6  C    0.000000
     7  C    2.539568   0.000000
     8  C    3.142898   1.538652   0.000000
     9  C    4.305898   2.440864   1.547978   0.000000
    10  C    4.381989   2.318016   2.436514   1.533799   0.000000
    11  N    3.144504   1.477472   2.363662   2.371088   1.472156
    12  C    3.809868   2.460526   3.711870   3.709917   2.448379
    13  H    3.268482   5.351501   6.158200   7.476922   7.436528
    14  H    3.808874   4.699438   5.789467   7.096930   6.878924
    15  H    3.378844   2.749230   3.974175   5.087767   4.774480
    16  H    1.090816   2.764753   2.966517   3.904536   4.123743
    17  H    3.415989   1.106666   2.165572   2.895674   2.621864
    18  H    3.763181   2.180541   1.094714   2.218266   3.224783
    19  H    2.729552   2.180349   1.095746   2.191911   3.166507
    20  H    5.247574   3.194645   2.209935   1.094415   2.182268
    21  H    4.541198   3.200501   2.188388   1.095651   2.179588
    22  H    5.059315   2.690653   2.980183   2.188091   1.104398
    23  H    5.033009   3.288806   3.360774   2.218347   1.097212
    24  H    4.476424   2.726172   4.010339   4.009188   2.738703
    25  H    4.601410   3.396749   4.443114   4.113905   2.689736
    26  H    3.360574   2.754632   4.155955   4.466956   3.393187
    27  O    3.345704   5.692968   6.096342   6.915991   6.913950
    28  O    3.246428   3.521939   3.749442   3.682364   3.361174
    29  O    3.411814   4.852960   5.545013   5.921865   5.434139
    30  H    3.931155   6.266529   6.464691   7.264757   7.420902
    31  H    4.188872   4.170240   4.246900   3.832411   3.462423
    32  H    3.231179   4.595383   5.537132   6.017577   5.386524
    33  H    2.597353   5.080301   5.505998   6.495333   6.565561
    34  H    3.237578   5.129589   5.688431   6.248062   5.981452
    35  H    3.162687   4.217072   4.767708   4.995173   4.546182
    36  H    2.954566   2.612960   3.013787   2.953320   2.457582
    37  O    3.473594   4.536893   5.793128   6.402954   5.606181
    38  H    3.126825   4.408485   5.680203   6.501116   5.844591
    39  H    4.433811   5.432627   6.734893   7.290703   6.393338
    40  O    6.133583   7.074248   8.422378   8.915917   7.906194
    41  H    6.797227   7.462208   8.867628   9.279413   8.159695
    42  H    6.699468   7.840946   9.129856   9.623678   8.654561
                   11         12         13         14         15
    11  N    0.000000
    12  C    1.460129   0.000000
    13  H    6.069193   6.182974   0.000000
    14  H    5.614076   5.469742   2.503423   0.000000
    15  H    3.759870   3.694903   4.308688   2.506282   0.000000
    16  H    3.065538   3.979087   4.124177   4.898206   4.301594
    17  H    2.102688   2.641043   5.811594   4.665484   2.325002
    18  H    3.283132   4.498971   6.453524   5.858746   4.000284
    19  H    2.883844   4.266679   5.787924   5.863082   4.455819
    20  H    3.275180   4.475271   8.329623   7.756879   5.602007
    21  H    2.922887   4.296268   7.794927   7.739913   5.929873
    22  H    2.119175   2.621408   7.916553   7.011785   4.696488
    23  H    2.117699   2.800249   8.112854   7.720702   5.717347
    24  H    2.128522   1.104048   6.632578   5.497247   3.449517
    25  H    2.095066   1.096515   6.996758   6.446875   4.776529
    26  H    2.105040   1.095917   5.316799   4.717289   3.370881
    27  O    5.709428   6.106484   3.778681   5.780902   6.385585
    28  O    2.655874   3.381475   6.115304   6.706028   5.666432
    29  O    4.256867   4.319629   4.943142   6.080423   5.946624
    30  H    6.320702   6.859176   4.386668   6.505749   7.112690
    31  H    3.117114   3.798066   7.067404   7.628709   6.463970
    32  H    4.069269   3.867094   4.450217   5.345046   5.289324
    33  H    5.322047   5.773468   2.958103   4.930451   5.583999
    34  H    4.787626   5.027054   4.444319   5.951373   6.109029
    35  H    3.496801   3.780885   5.360201   6.270838   5.745864
    36  H    1.635549   2.498545   5.983380   6.197601   4.866826
    37  O    4.186525   3.574564   4.045498   4.370945   4.456061
    38  H    4.378844   3.887176   3.179143   3.455851   3.886960
    39  H    5.014388   4.214013   4.559419   4.837201   5.121615
    40  O    6.591775   5.609397   5.738003   5.953906   6.493150
    41  H    6.918091   5.785792   6.493416   6.412635   6.791368
    42  H    7.339176   6.428806   6.110944   6.615965   7.331868
                   16         17         18         19         20
    16  H    0.000000
    17  H    3.814898   0.000000
    18  H    3.758645   2.365841   0.000000
    19  H    2.303775   3.046198   1.763390   0.000000
    20  H    4.912205   3.338868   2.393160   2.953850   0.000000
    21  H    3.889927   3.861583   2.935513   2.323528   1.765170
    22  H    4.982015   2.517661   3.483586   3.913801   2.376377
    23  H    4.624562   3.669956   4.215001   3.903132   2.798233
    24  H    4.791612   2.431647   4.584779   4.765786   4.555819
    25  H    4.592656   3.637523   5.311298   4.941400   4.864472
    26  H    3.710229   3.032563   4.930335   4.532858   5.316092
    27  O    3.129977   6.650450   6.845578   5.353678   7.965685
    28  O    2.476750   4.524555   4.832398   3.426634   4.755051
    29  O    3.097298   5.765376   6.519035   5.128267   7.013034
    30  H    3.557661   7.266517   7.181562   5.607104   8.289914
    31  H    3.377841   5.111072   5.334470   3.985553   4.829569
    32  H    3.239020   5.382279   6.455560   5.264166   7.085045
    33  H    2.596141   5.989143   6.159663   4.787244   7.508138
    34  H    2.906280   6.090491   6.592667   5.110169   7.337572
    35  H    2.629615   5.183019   5.795065   4.376028   6.085285
    36  H    2.404709   3.557909   4.097721   2.951892   4.026326
    37  O    3.918347   5.050645   6.577746   5.743143   7.389844
    38  H    3.798953   4.860720   6.346087   5.614326   7.454798
    39  H    4.884752   5.860516   7.510258   6.717338   8.262063
    40  O    6.592194   7.399932   9.182771   8.439194   9.863634
    41  H    7.276623   7.677864   9.610570   8.986104  10.178147
    42  H    7.092948   8.237328   9.918433   9.062724  10.604397
                   21         22         23         24         25
    21  H    0.000000
    22  H    3.044193   0.000000
    23  H    2.410274   1.777985   0.000000
    24  H    4.791216   2.444917   3.236753   0.000000
    25  H    4.529027   2.908522   2.593257   1.785270   0.000000
    26  H    4.989762   3.654205   3.762276   1.794250   1.776750
    27  O    6.707161   7.798771   7.149400   7.040435   6.464093
    28  O    3.350855   4.389321   3.233772   4.434789   3.367370
    29  O    5.759915   6.286660   5.415649   5.365737   4.355209
    30  H    6.943139   8.359287   7.630655   7.809399   7.198241
    31  H    3.331050   4.499899   3.038144   4.822928   3.535734
    32  H    6.038270   6.107862   5.476738   4.829607   4.005056
    33  H    6.403636   7.388811   6.946293   6.620914   6.287210
    34  H    6.041690   6.869936   6.064585   6.041312   5.204877
    35  H    4.776247   5.465059   4.481887   4.868745   3.784258
    36  H    2.895151   3.440361   2.527331   3.497713   2.651722
    37  O    6.678037   6.083822   5.858834   4.281503   3.894407
    38  H    6.851519   6.275963   6.256674   4.466151   4.427256
    39  H    7.573073   6.805085   6.577730   4.829538   4.399096
    40  O    9.204921   8.230588   8.004335   6.091194   5.632793
    41  H    9.626703   8.377620   8.228327   6.140527   5.735876
    42  H    9.836365   9.044578   8.700825   6.977894   6.398380
                   26         27         28         29         30
    26  H    0.000000
    27  O    5.421578   0.000000
    28  O    3.446808   4.099278   0.000000
    29  O    3.713841   2.531067   2.511046   0.000000
    30  H    6.251600   0.960210   4.524020   3.245865   0.000000
    31  H    4.038012   4.837425   0.960131   3.116729   5.178381
    32  H    3.072501   2.903670   2.981766   1.011591   3.773833
    33  H    5.081195   0.990243   4.133863   2.894486   1.589522
    34  H    4.385427   1.523031   2.989530   1.020267   2.236307
    35  H    3.410093   3.052309   1.485013   1.028468   3.640863
    36  H    2.731299   4.624540   1.020989   3.051669   5.142895
    37  O    2.527748   3.936526   4.065377   2.571376   4.886563
    38  H    2.815632   3.872376   4.508288   3.114528   4.822730
    39  H    3.174679   4.537632   4.872875   3.163632   5.485026
    40  O    4.629250   5.829135   6.422652   4.543103   6.736823
    41  H    4.879943   6.739822   6.974547   5.291503   7.655107
    42  H    5.455319   5.911934   6.884690   4.787606   6.762925
                   31         32         33         34         35
    31  H    0.000000
    32  H    3.672555   0.000000
    33  H    4.981805   3.036984   0.000000
    34  H    3.668258   1.641436   2.024654   0.000000
    35  H    2.123167   1.663905   3.269791   1.676765   0.000000
    36  H    1.610024   3.215614   4.463226   3.576785   2.113623
    37  O    4.792778   1.560791   3.785833   3.038813   3.045550
    38  H    5.333780   2.169236   3.514189   3.322840   3.571692
    39  H    5.517846   2.194461   4.492148   3.653683   3.767750
    40  O    6.962232   3.696454   5.906819   5.015299   5.251017
    41  H    7.456466   4.436624   6.791406   5.853292   5.909155
    42  H    7.391973   4.064354   6.113758   5.175427   5.602817
                   36         37         38         39         40
    36  H    0.000000
    37  O    3.932693   0.000000
    38  H    4.296420   0.962476   0.000000
    39  H    4.783233   0.980828   1.555926   0.000000
    40  O    6.385040   2.706870   3.108524   1.726286   0.000000
    41  H    6.857416   3.363870   3.779239   2.415449   0.960855
    42  H    6.970281   3.349433   3.749922   2.411114   0.960979
                   41         42
    41  H    0.000000
    42  H    1.536237   0.000000
 Stoichiometry    C10H25N2O5(1+)
 Framework group  C1[X(C10H25N2O5)]
 Deg. of freedom   120
 Full point group                 C1      NOp   1
 Largest Abelian subgroup         C1      NOp   1
 Largest concise Abelian subgroup C1      NOp   1
                         Standard orientation:                         
 ---------------------------------------------------------------------
 Center     Atomic      Atomic             Coordinates (Angstroms)
 Number     Number       Type             X           Y           Z
 ---------------------------------------------------------------------
      1          7           0        1.133417    1.927900    0.785106
      2          6           0        1.677351    2.542538   -0.273877
      3          6           0        1.077438    2.536642   -1.528808
      4          6           0       -0.135651    1.866931   -1.683958
      5          6           0       -0.723051    1.234361   -0.589397
      6          6           0       -0.036532    1.303186    0.625599
      7          6           0       -2.038880    0.502381   -0.715565
      8          6           0       -3.136191    0.914041    0.281377
      9          6           0       -4.006065   -0.355641    0.447102
     10          6           0       -3.312463   -1.412050   -0.422067
     11          7           0       -1.915520   -0.953819   -0.498341
     12          6           0       -1.140203   -1.639022   -1.528563
     13          1           0        2.625514    3.053533   -0.104317
     14          1           0        1.549427    3.049785   -2.364660
     15          1           0       -0.626782    1.841544   -2.657443
     16          1           0       -0.441153    0.823498    1.517821
     17          1           0       -2.412435    0.665305   -1.744459
     18          1           0       -3.699662    1.772875   -0.097176
     19          1           0       -2.694723    1.212115    1.238935
     20          1           0       -5.040252   -0.196937    0.126145
     21          1           0       -4.032970   -0.669796    1.496404
     22          1           0       -3.752606   -1.443361   -1.434484
     23          1           0       -3.355439   -2.427094   -0.007684
     24          1           0       -1.568486   -1.474602   -2.532784
     25          1           0       -1.139751   -2.716244   -1.323777
     26          1           0       -0.102671   -1.286339   -1.515298
     27          8           0        2.383647    0.725664    2.862324
     28          8           0       -0.832360   -1.601025    1.838656
     29          8           0        1.671111   -1.430446    1.744387
     30          1           0        2.304333    1.024260    3.771474
     31          1           0       -1.262405   -2.382450    2.194028
     32          1           0        1.934817   -1.252033    0.784207
     33          1           0        1.978110    1.400779    2.262040
     34          1           0        1.954812   -0.623379    2.300356
     35          1           0        0.651327   -1.551762    1.799784
     36          1           0       -1.274681   -1.359665    0.950672
     37          8           0        2.265745   -0.930632   -0.706852
     38          1           0        2.335105    0.000298   -0.941198
     39          1           0        3.044164   -1.374926   -1.105212
     40          8           0        4.442301   -2.122102   -1.788588
     41          1           0        4.455896   -2.662183   -2.583176
     42          1           0        5.247161   -2.333643   -1.308034
 ---------------------------------------------------------------------
 Rotational constants (GHZ):           0.4544595           0.2712667           0.2548129
 Standard basis: Aug-CC-pVDZ (5D, 7F)
 There are   650 symmetry adapted cartesian basis functions of A   symmetry.
 There are   616 symmetry adapted basis functions of A   symmetry.
   616 basis functions,  1006 primitive gaussians,   650 cartesian basis functions
    69 alpha electrons       69 beta electrons
       nuclear repulsion energy      1413.2503828274 Hartrees.
 NAtoms=   42 NActive=   42 NUniq=   42 SFac= 1.00D+00 NAtFMM=   60 NAOKFM=F Big=F
 Integral buffers will be    131072 words long.
 Raffenetti 2 integral format.
 Two-electron integral symmetry is turned on.
 Nuclear repulsion after empirical dispersion term =     1413.2151283046 Hartrees.
 One-electron integrals computed using PRISM.
 NBasis=   616 RedAO= T EigKep=  1.82D-06  NBF=   616
 NBsUse=   616 1.00D-06 EigRej= -1.00D+00 NBFU=   616
 ExpMin= 2.97D-02 ExpMax= 1.17D+04 ExpMxC= 4.01D+02 IAcc=3 IRadAn=         5 AccDes= 0.00D+00
 Harris functional with IExCor= 4639 and IRadAn=       5 diagonalized for initial guess.
 HarFok:  IExCor= 4639 AccDes= 0.00D+00 IRadAn=         5 IDoV= 1 UseB2=F ITyADJ=14
 ICtDFT=  3500011 ScaDFX=  1.000000  1.000000  1.000000  1.000000
 FoFCou: FMM=F IPFlag=           0 FMFlag=      100000 FMFlg1=           0
         NFxFlg=           0 DoJE=T BraDBF=F KetDBF=T FulRan=T
         wScrn=  0.000000 ICntrl=       500 IOpCl=  0 I1Cent=   200000004 NGrid=           0
         NMat0=    1 NMatS0=      1 NMatT0=    0 NMatD0=    1 NMtDS0=    0 NMtDT0=    0
 Petite list used in FoFCou.
 Requested convergence on RMS density matrix=1.00D-08 within 128 cycles.
 Requested convergence on MAX density matrix=1.00D-06.
 Requested convergence on             energy=1.00D-06.
 No special actions if energy rises.
 SCF Done:  E(RwB97XD) =  -881.460484815     A.U. after   15 cycles
            NFock= 15  Conv=0.28D-08     -V/T= 2.0062

 **********************************************************************

            Population analysis using the SCF density.

 **********************************************************************

 Orbital symmetries:
       Occupied  (A) (A) (A) (A) (A) (A) (A) (A) (A) (A) (A) (A)
                 (A) (A) (A) (A) (A) (A) (A) (A) (A) (A) (A) (A)
                 (A) (A) (A) (A) (A) (A) (A) (A) (A) (A) (A) (A)
                 (A) (A) (A) (A) (A) (A) (A) (A) (A) (A) (A) (A)
                 (A) (A) (A) (A) (A) (A) (A) (A) (A) (A) (A) (A)
                 (A) (A) (A) (A) (A) (A) (A) (A) (A)
       Virtual   (A) (A) (A) (A) (A) (A) (A) (A) (A) (A) (A) (A)
                 (A) (A) (A) (A) (A) (A) (A) (A) (A) (A) (A) (A)
                 (A) (A) (A) (A) (A) (A) (A) (A) (A) (A) (A) (A)
                 (A) (A) (A) (A) (A) (A) (A) (A) (A) (A) (A) (A)
                 (A) (A) (A) (A) (A) (A) (A) (A) (A) (A) (A) (A)
                 (A) (A) (A) (A) (A) (A) (A) (A) (A) (A) (A) (A)
                 (A) (A) (A) (A) (A) (A) (A) (A) (A) (A) (A) (A)
                 (A) (A) (A) (A) (A) (A) (A) (A) (A) (A) (A) (A)
                 (A) (A) (A) (A) (A) (A) (A) (A) (A) (A) (A) (A)
                 (A) (A) (A) (A) (A) (A) (A) (A) (A) (A) (A) (A)
                 (A) (A) (A) (A) (A) (A) (A) (A) (A) (A) (A) (A)
                 (A) (A) (A) (A) (A) (A) (A) (A) (A) (A) (A) (A)
                 (A) (A) (A) (A) (A) (A) (A) (A) (A) (A) (A) (A)
                 (A) (A) (A) (A) (A) (A) (A) (A) (A) (A) (A) (A)
                 (A) (A) (A) (A) (A) (A) (A) (A) (A) (A) (A) (A)
                 (A) (A) (A) (A) (A) (A) (A) (A) (A) (A) (A) (A)
                 (A) (A) (A) (A) (A) (A) (A) (A) (A) (A) (A) (A)
                 (A) (A) (A) (A) (A) (A) (A) (A) (A) (A) (A) (A)
                 (A) (A) (A) (A) (A) (A) (A) (A) (A) (A) (A) (A)
                 (A) (A) (A) (A) (A) (A) (A) (A) (A) (A) (A) (A)
                 (A) (A) (A) (A) (A) (A) (A) (A) (A) (A) (A) (A)
                 (A) (A) (A) (A) (A) (A) (A) (A) (A) (A) (A) (A)
                 (A) (A) (A) (A) (A) (A) (A) (A) (A) (A) (A) (A)
                 (A) (A) (A) (A) (A) (A) (A) (A) (A) (A) (A) (A)
                 (A) (A) (A) (A) (A) (A) (A) (A) (A) (A) (A) (A)
                 (A) (A) (A) (A) (A) (A) (A) (A) (A) (A) (A) (A)
                 (A) (A) (A) (A) (A) (A) (A) (A) (A) (A) (A) (A)
                 (A) (A) (A) (A) (A) (A) (A) (A) (A) (A) (A) (A)
                 (A) (A) (A) (A) (A) (A) (A) (A) (A) (A) (A) (A)
                 (A) (A) (A) (A) (A) (A) (A) (A) (A) (A) (A) (A)
                 (A) (A) (A) (A) (A) (A) (A) (A) (A) (A) (A) (A)
                 (A) (A) (A) (A) (A) (A) (A) (A) (A) (A) (A) (A)
                 (A) (A) (A) (A) (A) (A) (A) (A) (A) (A) (A) (A)
                 (A) (A) (A) (A) (A) (A) (A) (A) (A) (A) (A) (A)
                 (A) (A) (A) (A) (A) (A) (A) (A) (A) (A) (A) (A)
                 (A) (A) (A) (A) (A) (A) (A) (A) (A) (A) (A) (A)
                 (A) (A) (A) (A) (A) (A) (A) (A) (A) (A) (A) (A)
                 (A) (A) (A) (A) (A) (A) (A) (A) (A) (A) (A) (A)
                 (A) (A) (A) (A) (A) (A) (A) (A) (A) (A) (A) (A)
                 (A) (A) (A) (A) (A) (A) (A) (A) (A) (A) (A) (A)
                 (A) (A) (A) (A) (A) (A) (A) (A) (A) (A) (A) (A)
                 (A) (A) (A) (A) (A) (A) (A) (A) (A) (A) (A) (A)
                 (A) (A) (A) (A) (A) (A) (A) (A) (A) (A) (A) (A)
                 (A) (A) (A) (A) (A) (A) (A) (A) (A) (A) (A) (A)
                 (A) (A) (A) (A) (A) (A) (A) (A) (A) (A) (A) (A)
                 (A) (A) (A) (A) (A) (A) (A)
 The electronic state is 1-A.
 Alpha  occ. eigenvalues --  -19.44474 -19.41374 -19.40885 -19.39706 -19.39688
 Alpha  occ. eigenvalues --  -14.58811 -14.58187 -10.46294 -10.46227 -10.45309
 Alpha  occ. eigenvalues --  -10.44429 -10.44120 -10.43535 -10.43335 -10.42829
 Alpha  occ. eigenvalues --  -10.40655 -10.40196  -1.30848  -1.26094  -1.24748
 Alpha  occ. eigenvalues --   -1.24075  -1.23581  -1.18407  -1.16989  -1.04398
 Alpha  occ. eigenvalues --   -1.00851  -0.99635  -0.93894  -0.89049  -0.86057
 Alpha  occ. eigenvalues --   -0.84869  -0.79831  -0.79635  -0.79372  -0.79187
 Alpha  occ. eigenvalues --   -0.76559  -0.76404  -0.76152  -0.74782  -0.73056
 Alpha  occ. eigenvalues --   -0.71163  -0.70089  -0.68790  -0.66238  -0.65663
 Alpha  occ. eigenvalues --   -0.65222  -0.64217  -0.63511  -0.62205  -0.61856
 Alpha  occ. eigenvalues --   -0.61540  -0.60043  -0.59827  -0.59483  -0.59039
 Alpha  occ. eigenvalues --   -0.58248  -0.56569  -0.55651  -0.54545  -0.54489
 Alpha  occ. eigenvalues --   -0.54400  -0.53762  -0.53448  -0.53359  -0.51690
 Alpha  occ. eigenvalues --   -0.49505  -0.48311  -0.46290  -0.44761
 Alpha virt. eigenvalues --   -0.09498  -0.08172  -0.06661  -0.05445  -0.04628
 Alpha virt. eigenvalues --   -0.04596  -0.03343  -0.03062  -0.02747  -0.02325
 Alpha virt. eigenvalues --   -0.01942  -0.01492  -0.01086  -0.00892  -0.00552
 Alpha virt. eigenvalues --   -0.00247   0.00442   0.00601   0.01233   0.01621
 Alpha virt. eigenvalues --    0.01679   0.02278   0.02341   0.02566   0.02995
 Alpha virt. eigenvalues --    0.03497   0.03726   0.04188   0.04372   0.04836
 Alpha virt. eigenvalues --    0.05001   0.05129   0.05430   0.05939   0.06375
 Alpha virt. eigenvalues --    0.06599   0.06925   0.07220   0.07235   0.07532
 Alpha virt. eigenvalues --    0.07673   0.07897   0.08127   0.08418   0.08513
 Alpha virt. eigenvalues --    0.09010   0.09039   0.09301   0.09722   0.09942
 Alpha virt. eigenvalues --    0.10665   0.10732   0.10969   0.11352   0.12066
 Alpha virt. eigenvalues --    0.12129   0.12197   0.12291   0.12496   0.12701
 Alpha virt. eigenvalues --    0.12848   0.13532   0.13906   0.14190   0.14448
 Alpha virt. eigenvalues --    0.15090   0.15248   0.15405   0.15694   0.15936
 Alpha virt. eigenvalues --    0.16159   0.16309   0.16696   0.16770   0.17189
 Alpha virt. eigenvalues --    0.17203   0.17432   0.17916   0.18006   0.18349
 Alpha virt. eigenvalues --    0.18729   0.18827   0.19321   0.19477   0.19653
 Alpha virt. eigenvalues --    0.19809   0.20062   0.20365   0.20820   0.21059
 Alpha virt. eigenvalues --    0.21144   0.21385   0.21863   0.22273   0.22411
 Alpha virt. eigenvalues --    0.22824   0.23073   0.23412   0.23935   0.24351
 Alpha virt. eigenvalues --    0.24634   0.25125   0.25333   0.25618   0.25653
 Alpha virt. eigenvalues --    0.26318   0.26334   0.26784   0.27224   0.27572
 Alpha virt. eigenvalues --    0.27871   0.28271   0.28585   0.28860   0.29183
 Alpha virt. eigenvalues --    0.29425   0.29603   0.29899   0.30284   0.30573
 Alpha virt. eigenvalues --    0.30927   0.31376   0.32013   0.32187   0.32451
 Alpha virt. eigenvalues --    0.32645   0.33376   0.33642   0.34281   0.34595
 Alpha virt. eigenvalues --    0.35166   0.35436   0.35840   0.36310   0.36949
 Alpha virt. eigenvalues --    0.37443   0.37832   0.37971   0.38316   0.38641
 Alpha virt. eigenvalues --    0.38979   0.39683   0.39773   0.40155   0.40503
 Alpha virt. eigenvalues --    0.40828   0.41394   0.41541   0.41892   0.42402
 Alpha virt. eigenvalues --    0.42800   0.43273   0.43930   0.44226   0.44503
 Alpha virt. eigenvalues --    0.44739   0.45032   0.45382   0.45610   0.45889
 Alpha virt. eigenvalues --    0.46088   0.46763   0.47461   0.47684   0.47788
 Alpha virt. eigenvalues --    0.48138   0.48181   0.48827   0.49345   0.49445
 Alpha virt. eigenvalues --    0.50245   0.50541   0.50707   0.51015   0.51358
 Alpha virt. eigenvalues --    0.51645   0.52057   0.52310   0.52552   0.52944
 Alpha virt. eigenvalues --    0.53357   0.53923   0.54136   0.54661   0.54979
 Alpha virt. eigenvalues --    0.55395   0.55516   0.56012   0.56350   0.56582
 Alpha virt. eigenvalues --    0.57118   0.57515   0.58440   0.58901   0.59179
 Alpha virt. eigenvalues --    0.59513   0.60052   0.60111   0.60340   0.60791
 Alpha virt. eigenvalues --    0.61082   0.61752   0.62424   0.62642   0.62728
 Alpha virt. eigenvalues --    0.63099   0.63787   0.63974   0.64409   0.64716
 Alpha virt. eigenvalues --    0.65554   0.65941   0.66751   0.66958   0.67021
 Alpha virt. eigenvalues --    0.67400   0.68018   0.68660   0.69107   0.69301
 Alpha virt. eigenvalues --    0.70034   0.70185   0.70358   0.70870   0.71276
 Alpha virt. eigenvalues --    0.71583   0.71698   0.72611   0.72897   0.73308
 Alpha virt. eigenvalues --    0.74081   0.74265   0.74440   0.74854   0.75731
 Alpha virt. eigenvalues --    0.76284   0.76386   0.76720   0.77669   0.77996
 Alpha virt. eigenvalues --    0.78604   0.79031   0.79483   0.79653   0.80511
 Alpha virt. eigenvalues --    0.81377   0.81523   0.82623   0.82986   0.83341
 Alpha virt. eigenvalues --    0.83838   0.84400   0.85555   0.85923   0.86266
 Alpha virt. eigenvalues --    0.87212   0.87747   0.87953   0.88689   0.89133
 Alpha virt. eigenvalues --    0.89722   0.90502   0.91063   0.91596   0.91838
 Alpha virt. eigenvalues --    0.92321   0.92930   0.93451   0.94150   0.94676
 Alpha virt. eigenvalues --    0.95270   0.95776   0.97713   0.98026   0.98618
 Alpha virt. eigenvalues --    0.99314   1.00483   1.00943   1.01494   1.02418
 Alpha virt. eigenvalues --    1.03035   1.03400   1.04478   1.05071   1.05520
 Alpha virt. eigenvalues --    1.06039   1.07035   1.07804   1.08553   1.09004
 Alpha virt. eigenvalues --    1.09932   1.10229   1.11604   1.12195   1.12248
 Alpha virt. eigenvalues --    1.13144   1.14205   1.14891   1.15532   1.16353
 Alpha virt. eigenvalues --    1.16812   1.17234   1.18800   1.19284   1.19862
 Alpha virt. eigenvalues --    1.20076   1.20939   1.21601   1.22108   1.22681
 Alpha virt. eigenvalues --    1.23763   1.24231   1.24828   1.25644   1.26831
 Alpha virt. eigenvalues --    1.27908   1.28680   1.29146   1.30634   1.31168
 Alpha virt. eigenvalues --    1.32002   1.32880   1.33004   1.34088   1.34683
 Alpha virt. eigenvalues --    1.35341   1.36245   1.37242   1.37666   1.38493
 Alpha virt. eigenvalues --    1.39092   1.40683   1.41777   1.42090   1.43883
 Alpha virt. eigenvalues --    1.44094   1.44528   1.45972   1.46687   1.47814
 Alpha virt. eigenvalues --    1.48577   1.49722   1.50117   1.50382   1.51730
 Alpha virt. eigenvalues --    1.53423   1.53743   1.54308   1.54527   1.55245
 Alpha virt. eigenvalues --    1.56312   1.57802   1.59222   1.59694   1.60098
 Alpha virt. eigenvalues --    1.61188   1.61920   1.63203   1.63659   1.64179
 Alpha virt. eigenvalues --    1.64426   1.65623   1.65772   1.66683   1.67928
 Alpha virt. eigenvalues --    1.69130   1.69774   1.70141   1.71161   1.71815
 Alpha virt. eigenvalues --    1.72448   1.73111   1.74023   1.74532   1.75064
 Alpha virt. eigenvalues --    1.75398   1.75924   1.76427   1.78298   1.78461
 Alpha virt. eigenvalues --    1.79048   1.79978   1.80874   1.81144   1.81926
 Alpha virt. eigenvalues --    1.82696   1.83607   1.84079   1.84688   1.85824
 Alpha virt. eigenvalues --    1.86497   1.86733   1.87419   1.88049   1.88743
 Alpha virt. eigenvalues --    1.89131   1.90041   1.91000   1.91288   1.91426
 Alpha virt. eigenvalues --    1.93111   1.93860   1.94429   1.94845   1.95914
 Alpha virt. eigenvalues --    1.96459   1.97500   1.98772   1.98820   2.00061
 Alpha virt. eigenvalues --    2.00572   2.01514   2.02186   2.02988   2.03410
 Alpha virt. eigenvalues --    2.04875   2.05930   2.06322   2.07358   2.07932
 Alpha virt. eigenvalues --    2.09313   2.10503   2.12148   2.12618   2.13704
 Alpha virt. eigenvalues --    2.14372   2.14993   2.15496   2.16055   2.16623
 Alpha virt. eigenvalues --    2.17753   2.18265   2.18614   2.20940   2.21497
 Alpha virt. eigenvalues --    2.21799   2.22560   2.24261   2.24676   2.25212
 Alpha virt. eigenvalues --    2.26703   2.28492   2.28951   2.29092   2.30360
 Alpha virt. eigenvalues --    2.31671   2.32659   2.32909   2.33916   2.34662
 Alpha virt. eigenvalues --    2.36759   2.37844   2.38258   2.39138   2.39493
 Alpha virt. eigenvalues --    2.41027   2.41751   2.43447   2.44293   2.45822
 Alpha virt. eigenvalues --    2.46305   2.47475   2.48080   2.49703   2.52150
 Alpha virt. eigenvalues --    2.52480   2.53547   2.54898   2.56595   2.57160
 Alpha virt. eigenvalues --    2.57927   2.59038   2.59923   2.60867   2.61119
 Alpha virt. eigenvalues --    2.62477   2.63804   2.65543   2.66395   2.68003
 Alpha virt. eigenvalues --    2.68317   2.68612   2.70123   2.70865   2.71949
 Alpha virt. eigenvalues --    2.73756   2.74310   2.75759   2.77392   2.78281
 Alpha virt. eigenvalues --    2.78495   2.80161   2.81202   2.81941   2.83431
 Alpha virt. eigenvalues --    2.85504   2.86701   2.87358   2.88751   2.89087
 Alpha virt. eigenvalues --    2.90805   2.91870   2.93791   2.94029   2.96007
 Alpha virt. eigenvalues --    2.98269   2.98989   3.01642   3.04212   3.05320
 Alpha virt. eigenvalues --    3.10049   3.12258   3.16169   3.18659   3.24913
 Alpha virt. eigenvalues --    3.27611   3.30974   3.33352   3.35497   3.37224
 Alpha virt. eigenvalues --    3.38829   3.39655   3.41601   3.42875   3.43168
 Alpha virt. eigenvalues --    3.43882   3.47287   3.47983   3.48979   3.53934
 Alpha virt. eigenvalues --    3.55204   3.61975   3.66822   3.67384   3.71516
 Alpha virt. eigenvalues --    3.81003   3.84595   3.87074   3.90336   3.92767
 Alpha virt. eigenvalues --    4.01279   4.08546   4.09258   4.11943   4.13312
 Alpha virt. eigenvalues --    4.34298   5.02294
          Condensed to atoms (all electrons):
               1          2          3          4          5          6
     1  N    8.445787   0.119273   0.548569  -0.931049   0.422536  -1.072473
     2  C    0.119273  10.132391  -2.826915   1.425291  -0.871227  -1.144614
     3  C    0.548569  -2.826915  11.989757  -3.987481   0.158406  -0.720112
     4  C   -0.931049   1.425291  -3.987481  24.376802 -11.245592  -1.143019
     5  C    0.422536  -0.871227   0.158406 -11.245592  28.570996  -5.299698
     6  C   -1.072473  -1.144614  -0.720112  -1.143019  -5.299698  18.890581
     7  C    0.253598  -0.833926   0.735588  -0.826327 -11.017359  -1.714219
     8  C   -0.051146  -0.036927  -0.114766   0.545952  -0.236229  -0.733231
     9  C    0.001023   0.028395  -0.052806  -0.118495   0.374891   0.043106
    10  C    0.003649  -0.041966   0.025787   0.276633  -0.883221  -0.120375
    11  N    0.056740   0.013144  -0.005650  -1.071143   2.925125   0.138142
    12  C    0.027089  -0.047759   0.089463  -0.317250   0.604493  -0.316162
    13  H   -0.238014  -0.566260   0.078439   0.208451  -0.014028   0.132787
    14  H   -0.079935   0.397348  -1.289146   0.561731   0.110516   0.005589
    15  H   -0.011586  -0.262516   0.687860  -2.627419   1.293622   0.067934
    16  H   -0.102477   0.093833   0.013024  -0.255603  -0.479500  -1.536555
    17  H   -0.008222   0.037979  -0.023998   0.122853   0.912693  -0.164739
    18  H   -0.009976   0.004227  -0.000475  -0.069627   0.357138   0.249460
    19  H    0.016748   0.001370  -0.028589   0.078828  -0.046738  -0.076710
    20  H   -0.002274   0.002846  -0.003788  -0.003185   0.012546   0.041589
    21  H    0.002647  -0.000471  -0.000253   0.004304  -0.101364  -0.044384
    22  H   -0.001295  -0.002020   0.002129   0.028132   0.262339   0.023933
    23  H   -0.001770  -0.001448   0.000751   0.050361  -0.290274  -0.003344
    24  H   -0.001454   0.015518  -0.044756   0.037918   0.101414   0.025241
    25  H    0.004372  -0.002088   0.008594  -0.092079   0.119569  -0.059855
    26  H   -0.020499  -0.060692   0.103297   0.115649  -0.379269   0.057150
    27  O   -0.013793   0.032167  -0.008117  -0.000595  -0.086942   0.016881
    28  O    0.032373   0.011097   0.001254  -0.028259  -0.056250  -0.067828
    29  O    0.007895   0.021772  -0.004817  -0.001680  -0.001173  -0.116901
    30  H   -0.006320  -0.014289   0.009447  -0.006057   0.011362  -0.000463
    31  H   -0.006468  -0.000353   0.000056   0.010009   0.013920   0.031364
    32  H   -0.001615  -0.020786   0.013513   0.008953  -0.042780   0.060853
    33  H    0.144142   0.083532  -0.069350   0.019607  -0.012679  -0.084026
    34  H    0.027368   0.006800   0.006040  -0.015143   0.035507  -0.065521
    35  H   -0.021024   0.004156  -0.010390   0.016647  -0.015261   0.020090
    36  H    0.053329   0.019417  -0.008004  -0.125246  -0.016798  -0.206183
    37  O    0.056467  -0.074221   0.074768  -0.220258   0.269506  -0.114878
    38  H    0.020673  -0.029309   0.027936  -0.011491   0.036678  -0.047870
    39  H   -0.003376   0.025641  -0.025860   0.022104  -0.026192   0.028624
    40  O   -0.000006  -0.000958   0.000396  -0.001070   0.004619  -0.001641
    41  H   -0.000099   0.000256  -0.000381   0.000292  -0.000911   0.000695
    42  H    0.000137  -0.000969   0.000571  -0.000244   0.000464   0.000119
               7          8          9         10         11         12
     1  N    0.253598  -0.051146   0.001023   0.003649   0.056740   0.027089
     2  C   -0.833926  -0.036927   0.028395  -0.041966   0.013144  -0.047759
     3  C    0.735588  -0.114766  -0.052806   0.025787  -0.005650   0.089463
     4  C   -0.826327   0.545952  -0.118495   0.276633  -1.071143  -0.317250
     5  C  -11.017359  -0.236229   0.374891  -0.883221   2.925125   0.604493
     6  C   -1.714219  -0.733231   0.043106  -0.120375   0.138142  -0.316162
     7  C   28.921128  -1.905403  -0.053247  -0.159877  -7.103981  -0.818852
     8  C   -1.905403   8.817356  -0.948952   0.798497  -1.023899  -0.262448
     9  C   -0.053247  -0.948952   6.326906   0.030753  -0.428439   0.074043
    10  C   -0.159877   0.798497   0.030753   6.054360  -0.580568  -0.213786
    11  N   -7.103981  -1.023899  -0.428439  -0.580568  18.699381   1.051808
    12  C   -0.818852  -0.262448   0.074043  -0.213786   1.051808   4.903141
    13  H    0.008860   0.004954   0.000934  -0.000383   0.001937   0.002779
    14  H   -0.008563   0.005717   0.000572  -0.001566   0.000011  -0.010431
    15  H   -0.030761  -0.113268  -0.004996   0.009242   0.028085   0.056790
    16  H    0.251738   0.087997   0.009681   0.026606  -0.281555   0.037686
    17  H   -2.844845   0.876506  -0.054776   0.138735  -0.403660  -0.148334
    18  H    0.214504  -1.184104   0.192135  -0.256287   0.388549   0.082820
    19  H   -0.254438  -0.086626   0.303491   0.073027  -0.103370  -0.065414
    20  H   -0.046141   0.211980  -0.264988   0.181940  -0.154213  -0.032427
    21  H    0.295880   0.215086  -0.407272  -0.094001   0.115971   0.020481
    22  H    0.095767   0.025275  -0.029631  -0.342637  -0.422129  -0.067590
    23  H    0.691694   0.095892   0.090019  -0.045342  -1.343926  -0.141635
    24  H   -0.165994   0.051710   0.043985   0.069269  -0.716912   0.144409
    25  H    0.121739  -0.089360   0.068129  -0.067089  -0.439023   0.111381
    26  H    0.348459   0.101154  -0.047223   0.027497  -0.032355   0.094936
    27  O   -0.017864  -0.002422  -0.000930  -0.002030   0.005595   0.002850
    28  O    0.119949  -0.026015   0.030319   0.013017  -0.096837  -0.026407
    29  O    0.043888   0.001966   0.002003   0.001724  -0.053790  -0.025042
    30  H   -0.003662   0.001443   0.000029   0.000361   0.001461   0.000268
    31  H   -0.059198   0.029007  -0.017984   0.040349  -0.042817   0.016377
    32  H   -0.019629   0.002314  -0.001855   0.012282   0.025944  -0.008305
    33  H    0.019470  -0.010319   0.000196  -0.002580  -0.003637  -0.002625
    34  H   -0.016803  -0.000571  -0.002202  -0.005799   0.005650   0.010263
    35  H    0.036819   0.002517   0.012422   0.006346  -0.060763  -0.017179
    36  H    0.588652  -0.066981  -0.032444  -0.267652  -0.267481  -0.129797
    37  O   -0.107266  -0.004175   0.003765  -0.016312   0.016675  -0.005595
    38  H    0.004516   0.009055  -0.002249   0.007767  -0.010929  -0.002354
    39  H    0.009374  -0.005085   0.000414  -0.005191   0.013151  -0.002774
    40  O    0.000190   0.000011   0.000026  -0.000008  -0.001509   0.000841
    41  H   -0.000276   0.000050  -0.000000   0.000071  -0.000116   0.000495
    42  H    0.000415   0.000015   0.000001   0.000024  -0.000073  -0.000314
              13         14         15         16         17         18
     1  N   -0.238014  -0.079935  -0.011586  -0.102477  -0.008222  -0.009976
     2  C   -0.566260   0.397348  -0.262516   0.093833   0.037979   0.004227
     3  C    0.078439  -1.289146   0.687860   0.013024  -0.023998  -0.000475
     4  C    0.208451   0.561731  -2.627419  -0.255603   0.122853  -0.069627
     5  C   -0.014028   0.110516   1.293622  -0.479500   0.912693   0.357138
     6  C    0.132787   0.005589   0.067934  -1.536555  -0.164739   0.249460
     7  C    0.008860  -0.008563  -0.030761   0.251738  -2.844845   0.214504
     8  C    0.004954   0.005717  -0.113268   0.087997   0.876506  -1.184104
     9  C    0.000934   0.000572  -0.004996   0.009681  -0.054776   0.192135
    10  C   -0.000383  -0.001566   0.009242   0.026606   0.138735  -0.256287
    11  N    0.001937   0.000011   0.028085  -0.281555  -0.403660   0.388549
    12  C    0.002779  -0.010431   0.056790   0.037686  -0.148334   0.082820
    13  H    2.185088  -0.117946  -0.007175   0.025173   0.000031   0.001577
    14  H   -0.117946   2.203248  -0.146277  -0.010982   0.001755  -0.002253
    15  H   -0.007175  -0.146277   3.160589  -0.012221  -0.165986   0.008908
    16  H    0.025173  -0.010982  -0.012221   4.493364  -0.037375   0.067706
    17  H    0.000031   0.001755  -0.165986  -0.037375   3.588122  -0.372235
    18  H    0.001577  -0.002253   0.008908   0.067706  -0.372235   2.641638
    19  H   -0.001117   0.000708  -0.010927  -0.222207   0.241702  -0.682765
    20  H    0.000076  -0.000028   0.002562  -0.005077   0.063977  -0.312686
    21  H    0.000055   0.000009  -0.000390   0.024429  -0.062751   0.190139
    22  H    0.000133  -0.000588   0.004413   0.013142  -0.083370   0.068200
    23  H   -0.000006   0.000021  -0.002883  -0.009693   0.107220  -0.045684
    24  H    0.000230   0.000552   0.006257   0.009002   0.082821   0.007663
    25  H    0.000426  -0.001563   0.001884  -0.011513   0.007573   0.002073
    26  H    0.002030  -0.005927   0.005276   0.034936   0.004972   0.000935
    27  O    0.000426   0.000160  -0.000027  -0.022668  -0.000143   0.000127
    28  O   -0.000028   0.000108  -0.001319   0.035469   0.002846  -0.001456
    29  O   -0.001464   0.000391  -0.000145   0.084484   0.001829   0.000265
    30  H    0.003532  -0.000377   0.000181   0.005047  -0.000097   0.000065
    31  H    0.000311  -0.000159   0.000992   0.010611  -0.000885   0.002732
    32  H    0.006280  -0.001964   0.006139   0.009271  -0.002291   0.001791
    33  H   -0.067653   0.008534  -0.002434  -0.034812  -0.000275  -0.000528
    34  H   -0.000810   0.000085  -0.001233  -0.017197  -0.000292  -0.000268
    35  H   -0.002359   0.001060  -0.001336   0.011864   0.003025  -0.002030
    36  H   -0.004351   0.002535  -0.011219  -0.050443   0.007329  -0.022300
    37  O    0.004858  -0.001202   0.001341  -0.005601  -0.000524   0.000045
    38  H    0.003288  -0.005669   0.007970   0.008305  -0.001084   0.000817
    39  H   -0.006100   0.002536  -0.002952  -0.005033   0.000949  -0.000459
    40  O    0.000445  -0.000160  -0.000242   0.000669  -0.000008   0.000006
    41  H    0.000010  -0.000012   0.000122   0.000111  -0.000044   0.000003
    42  H    0.000089  -0.000061  -0.000016  -0.000015   0.000017   0.000001
              19         20         21         22         23         24
     1  N    0.016748  -0.002274   0.002647  -0.001295  -0.001770  -0.001454
     2  C    0.001370   0.002846  -0.000471  -0.002020  -0.001448   0.015518
     3  C   -0.028589  -0.003788  -0.000253   0.002129   0.000751  -0.044756
     4  C    0.078828  -0.003185   0.004304   0.028132   0.050361   0.037918
     5  C   -0.046738   0.012546  -0.101364   0.262339  -0.290274   0.101414
     6  C   -0.076710   0.041589  -0.044384   0.023933  -0.003344   0.025241
     7  C   -0.254438  -0.046141   0.295880   0.095767   0.691694  -0.165994
     8  C   -0.086626   0.211980   0.215086   0.025275   0.095892   0.051710
     9  C    0.303491  -0.264988  -0.407272  -0.029631   0.090019   0.043985
    10  C    0.073027   0.181940  -0.094001  -0.342637  -0.045342   0.069269
    11  N   -0.103370  -0.154213   0.115971  -0.422129  -1.343926  -0.716912
    12  C   -0.065414  -0.032427   0.020481  -0.067590  -0.141635   0.144409
    13  H   -0.001117   0.000076   0.000055   0.000133  -0.000006   0.000230
    14  H    0.000708  -0.000028   0.000009  -0.000588   0.000021   0.000552
    15  H   -0.010927   0.002562  -0.000390   0.004413  -0.002883   0.006257
    16  H   -0.222207  -0.005077   0.024429   0.013142  -0.009693   0.009002
    17  H    0.241702   0.063977  -0.062751  -0.083370   0.107220   0.082821
    18  H   -0.682765  -0.312686   0.190139   0.068200  -0.045684   0.007663
    19  H    2.352558   0.201629  -0.441380  -0.058616   0.060068   0.004511
    20  H    0.201629   2.130275  -0.619618  -0.246101   0.123390   0.004999
    21  H   -0.441380  -0.619618   2.280785   0.191440  -0.324750  -0.002887
    22  H   -0.058616  -0.246101   0.191440   2.551501  -0.564568   0.019971
    23  H    0.060068   0.123390  -0.324750  -0.564568   2.991771   0.031614
    24  H    0.004511   0.004999  -0.002887   0.019971   0.031614   2.325799
    25  H   -0.011272  -0.002106   0.010972   0.006536  -0.019456  -0.371328
    26  H    0.004404  -0.006103  -0.003845   0.032408   0.024139  -0.482525
    27  O    0.001045  -0.000075  -0.000098  -0.000045  -0.000354   0.000319
    28  O   -0.001384  -0.003290   0.001707  -0.003627   0.050325  -0.003848
    29  O   -0.000147  -0.000114   0.001134   0.000088   0.001573  -0.003137
    30  H    0.000508  -0.000004   0.000008   0.000026  -0.000019  -0.000042
    31  H   -0.000233  -0.001159   0.004022   0.004313  -0.001413   0.005604
    32  H   -0.003383  -0.000393   0.000426   0.001335  -0.000605  -0.000679
    33  H    0.000249   0.000033  -0.000081  -0.000197   0.000152   0.000089
    34  H    0.000343  -0.000010   0.000065  -0.000267  -0.000696   0.000707
    35  H    0.006053   0.000088  -0.002927  -0.000822   0.005137  -0.002419
    36  H    0.035264   0.006658   0.046717   0.019681   0.036596  -0.062080
    37  O   -0.002447   0.000030   0.000583  -0.000519  -0.003234   0.029754
    38  H    0.000412  -0.000204   0.000100   0.000484   0.000157   0.002747
    39  H    0.000350   0.000141  -0.000199  -0.000559  -0.000187  -0.001704
    40  O   -0.000044  -0.000001   0.000012   0.000013   0.000013   0.000040
    41  H    0.000005  -0.000000   0.000002   0.000009  -0.000001   0.000206
    42  H   -0.000001  -0.000001   0.000002   0.000004   0.000014  -0.000103
              25         26         27         28         29         30
     1  N    0.004372  -0.020499  -0.013793   0.032373   0.007895  -0.006320
     2  C   -0.002088  -0.060692   0.032167   0.011097   0.021772  -0.014289
     3  C    0.008594   0.103297  -0.008117   0.001254  -0.004817   0.009447
     4  C   -0.092079   0.115649  -0.000595  -0.028259  -0.001680  -0.006057
     5  C    0.119569  -0.379269  -0.086942  -0.056250  -0.001173   0.011362
     6  C   -0.059855   0.057150   0.016881  -0.067828  -0.116901  -0.000463
     7  C    0.121739   0.348459  -0.017864   0.119949   0.043888  -0.003662
     8  C   -0.089360   0.101154  -0.002422  -0.026015   0.001966   0.001443
     9  C    0.068129  -0.047223  -0.000930   0.030319   0.002003   0.000029
    10  C   -0.067089   0.027497  -0.002030   0.013017   0.001724   0.000361
    11  N   -0.439023  -0.032355   0.005595  -0.096837  -0.053790   0.001461
    12  C    0.111381   0.094936   0.002850  -0.026407  -0.025042   0.000268
    13  H    0.000426   0.002030   0.000426  -0.000028  -0.001464   0.003532
    14  H   -0.001563  -0.005927   0.000160   0.000108   0.000391  -0.000377
    15  H    0.001884   0.005276  -0.000027  -0.001319  -0.000145   0.000181
    16  H   -0.011513   0.034936  -0.022668   0.035469   0.084484   0.005047
    17  H    0.007573   0.004972  -0.000143   0.002846   0.001829  -0.000097
    18  H    0.002073   0.000935   0.000127  -0.001456   0.000265   0.000065
    19  H   -0.011272   0.004404   0.001045  -0.001384  -0.000147   0.000508
    20  H   -0.002106  -0.006103  -0.000075  -0.003290  -0.000114  -0.000004
    21  H    0.010972  -0.003845  -0.000098   0.001707   0.001134   0.000008
    22  H    0.006536   0.032408  -0.000045  -0.003627   0.000088   0.000026
    23  H   -0.019456   0.024139  -0.000354   0.050325   0.001573  -0.000019
    24  H   -0.371328  -0.482525   0.000319  -0.003848  -0.003137  -0.000042
    25  H    2.435375  -0.695831  -0.000044   0.017689  -0.000964   0.000060
    26  H   -0.695831   2.219959  -0.002853  -0.012083   0.007363   0.000418
    27  O   -0.000044  -0.002853   7.985842   0.001426  -0.126569   0.356857
    28  O    0.017689  -0.012083   0.001426   8.102839  -0.084508  -0.001026
    29  O   -0.000964   0.007363  -0.126569  -0.084508   8.491087   0.014820
    30  H    0.000060   0.000418   0.356857  -0.001026   0.014820   0.551398
    31  H   -0.007435   0.012900   0.000823   0.384045   0.009558   0.000613
    32  H   -0.008498   0.017087  -0.006398  -0.010492   0.146289   0.006701
    33  H   -0.000474  -0.001107   0.270098  -0.000793  -0.036860  -0.108374
    34  H    0.001692  -0.004552   0.040158   0.001634   0.155560  -0.011471
    35  H    0.001021   0.012575  -0.013091   0.052895   0.164333  -0.001407
    36  H    0.165280  -0.089112   0.005624   0.021659  -0.067368  -0.003086
    37  O    0.007489  -0.137126  -0.000082   0.004026  -0.086542   0.000670
    38  H   -0.007220   0.021600  -0.007595  -0.003971   0.003898   0.002997
    39  H    0.006700  -0.002977   0.005784   0.002727  -0.012392  -0.002030
    40  O    0.000168   0.003230  -0.000200  -0.000066   0.001225   0.000030
    41  H    0.000125  -0.002730  -0.000053  -0.000024   0.000264   0.000010
    42  H   -0.000053   0.001796  -0.000096  -0.000079   0.000048  -0.000009
              31         32         33         34         35         36
     1  N   -0.006468  -0.001615   0.144142   0.027368  -0.021024   0.053329
     2  C   -0.000353  -0.020786   0.083532   0.006800   0.004156   0.019417
     3  C    0.000056   0.013513  -0.069350   0.006040  -0.010390  -0.008004
     4  C    0.010009   0.008953   0.019607  -0.015143   0.016647  -0.125246
     5  C    0.013920  -0.042780  -0.012679   0.035507  -0.015261  -0.016798
     6  C    0.031364   0.060853  -0.084026  -0.065521   0.020090  -0.206183
     7  C   -0.059198  -0.019629   0.019470  -0.016803   0.036819   0.588652
     8  C    0.029007   0.002314  -0.010319  -0.000571   0.002517  -0.066981
     9  C   -0.017984  -0.001855   0.000196  -0.002202   0.012422  -0.032444
    10  C    0.040349   0.012282  -0.002580  -0.005799   0.006346  -0.267652
    11  N   -0.042817   0.025944  -0.003637   0.005650  -0.060763  -0.267481
    12  C    0.016377  -0.008305  -0.002625   0.010263  -0.017179  -0.129797
    13  H    0.000311   0.006280  -0.067653  -0.000810  -0.002359  -0.004351
    14  H   -0.000159  -0.001964   0.008534   0.000085   0.001060   0.002535
[...]
 303,0.00033231,-0.00005838,-0.00014474,0.00007572,-0.00005701,-0.00001
 181,0.00000119,-0.00001931,-0.00005812,-0.00002062,-0.00003137,0.00000
 084,-0.00000394,-0.00000779,0.00000932,-0.00000833,-0.00001975,-0.0000
 0061,-0.00001248,-0.00000628,0.00000382,-0.00000635,-0.00000794,-0.000
 01395,0.00000405,-0.00001032,-0.00000840,-0.00000380,0.00000355,-0.000
 04037,-0.00000082,-0.00003749,0.00010838,0.00003944,-0.00003568,-0.000
 09633,-0.00017897,0.00020585,-0.00023234,-0.00034223,0.00041097,-0.000
 09764,-0.00005360,-0.00009510,0.00097070,-0.00182099,-0.00449631,-0.00
 008280,0.00002298,-0.00006369,-0.00001158,0.00001008,0.00000308,-0.001
 49528,0.00722789,0.00522867,0.00023827,-0.00028652,-0.00050650,0.00065
 745,0.00113118,-0.00073481,0.00017624,0.00006625,-0.00015445,0.0001089
 3,-0.00000291,0.00017072,0.02346491,0.15435495,-0.06926803,-0.02299094
 ,-0.14222147,0.06344500,0.00022390,-0.00066964,0.00001531,0.00068067,0
 .00026572,-0.00017103,0.00015720,-0.00008242,-0.00029572,-0.00017719,-
 0.00008257,-0.00017406,-0.00018663,-0.00007316,0.00005609,-0.00042831,
 -0.00020222,0.00011678,-0.00018366,0.00004924,-0.00015774,-0.00000683,
 0.00007607,0.00000961,0.00005284,-0.00002031,0.00000769,-0.00027439,-0
 .00019516,-0.00004388,0.00058720,0.00008729,0.00012119,-0.00043065,-0.
 00017729,-0.00008838,-0.00000980,0.00000949,-0.00001383,0.00003384,0.0
 0001797,0.00000996,0.00000489,0.00004138,-0.00000907,-0.00004235,0.000
 03965,0.00003149,0.00002943,0.00001198,0.00004479,0.00002500,-0.000017
 85,0.00001143,-0.00002643,0.00001637,0.00001873,0.00005064,-0.00001089
 ,-0.00000106,-0.00001252,0.00001157,-0.00002218,0.00003777,0.00000058,
 0.00005022,-0.00000075,0.00002359,-0.00001389,0.00019799,-0.00004447,0
 .00004236,-0.00000919,-0.00002050,-0.00004654,-0.00043752,0.00015088,-
 0.00003890,-0.00055303,-0.00055531,-0.00075029,0.00080359,0.00009534,-
 0.00020216,0.00188959,0.00105241,-0.00594436,0.00011537,-0.00004636,0.
 00015642,-0.00001470,-0.00009931,0.00014922,-0.00215773,-0.00321475,0.
 00882653,0.00021459,0.00007633,0.00050636,0.00069716,0.00125770,0.0011
 5524,-0.00146865,-0.00026013,0.00009116,-0.00020506,0.00004740,-0.0000
 2423,-0.28599181,0.16295862,0.14154915,0.00404453,-0.00599805,-0.00201
 756,0.28459925,-0.00013422,0.00001984,-0.00002638,-0.00014121,-0.00002
 941,-0.00006633,-0.00014239,0.00006149,0.00010889,0.00003534,0.0000080
 7,0.00017877,0.00010159,0.00016425,0.00004451,-0.00001053,0.00003393,-
 0.00017014,0.00022174,0.00005503,0.00010217,0.00000559,-0.00008878,-0.
 00001353,-0.00003417,0.00002438,0.00001222,0.00017415,0.00008652,0.000
 00504,-0.00028002,-0.00014308,-0.00014269,0.00015252,0.00013960,-0.000
 12335,-0.00000265,-0.00010959,-0.00001870,0.00003398,-0.00006071,0.000
 01154,-0.00000005,-0.00000954,-0.00001371,0.00006035,-0.00003132,-0.00
 003381,-0.00003058,-0.00000801,-0.00003640,-0.00001083,0.00000523,-0.0
 0001062,0.00002045,-0.00001803,-0.00002485,-0.00003441,-0.00000231,-0.
 00000254,0.00000856,-0.00001260,0.00000920,-0.00003892,0.00000097,-0.0
 0003792,-0.00000654,-0.00002511,0.00002454,-0.00018037,-0.00002657,-0.
 00002831,-0.00013759,-0.00008807,0.00007484,0.00016234,0.00030130,0.00
 032853,0.00018198,0.00043596,0.00050950,-0.00074886,-0.00022436,0.0000
 4798,-0.00138039,-0.00103259,0.00617472,-0.00006875,0.00004741,-0.0001
 3647,-0.00005562,0.00013369,-0.00005395,-0.00025602,0.00348434,-0.0094
 8221,0.00003312,-0.00011889,-0.00018807,-0.00029996,-0.00095006,-0.000
 63384,0.00149357,0.00047436,-0.00029279,0.00023225,-0.00001749,0.00011
 999,0.12273514,-0.12752917,-0.04583001,0.03367056,-0.01872822,-0.01770
 870,-0.15084048,0.14785940,-0.00009722,0.00025165,-0.00017644,-0.00026
 739,-0.00009757,0.00011711,-0.00010533,-0.00004972,0.00019046,0.000006
 37,0.00001479,0.00017213,0.00010437,0.00012955,-0.00007778,0.00021534,
 0.00004804,-0.00022404,0.00018438,0.00004736,0.00009028,-0.00000379,-0
 .00006351,-0.00000690,-0.00001654,0.00001895,0.00000897,0.00011869,0.0
 0003370,0.00002095,-0.00016449,-0.00005539,-0.00018611,0.00003182,-0.0
 0001958,-0.00007445,-0.00001465,-0.00007574,0.00001153,-0.00001675,0.0
 0008446,-0.00002003,-0.00004675,0.00001081,-0.00000770,0.00001338,-0.0
 0000687,0.00001001,-0.00003291,-0.00000882,-0.00003690,-0.00000648,0.0
 0000467,-0.00000849,0.00001276,-0.00001964,-0.00001901,-0.00002342,-0.
 00000418,-0.00000287,0.00000739,-0.00001050,0.00000132,-0.00002565,0.0
 0000301,-0.00002993,-0.00000467,-0.00001456,0.00001359,-0.00020164,-0.
 00000136,-0.00006102,-0.00006538,-0.00003750,0.00004612,0.00008515,0.0
 0031470,0.00033505,-0.00001572,0.00027489,0.00031450,-0.00053622,-0.00
 003515,-0.00003441,-0.00085577,0.00138407,-0.00266743,-0.00005095,0.00
 000559,-0.00009753,0.00002133,0.00004135,-0.00005063,0.00537337,-0.004
 18627,0.00027740,0.00008365,-0.00009832,-0.00005227,0.00005613,-0.0003
 8179,-0.00036345,0.00086862,0.00024495,0.00002294,0.00017469,-0.000061
 08,0.00018563,0.15056340,-0.07313056,-0.10071391,-0.01234645,0.0085230
 0,0.00646796,-0.13851195,0.06684877,0.10378202,-0.00007651,0.00023089,
 0.00000720,-0.00030795,-0.00014902,-0.00000724,-0.00002361,0.00002385,
 0.00017404,0.00000831,0.00002006,0.00010021,0.00009094,0.00008674,-0.0
 0003972,0.00017958,0.00006769,-0.00006064,0.00007195,-0.00011629,0.000
 07879,0.00000534,-0.00002201,-0.00000486,-0.00002648,0.00000418,-0.000
 00440,0.00017115,0.00012651,0.00002506,-0.00033441,0.00003589,-0.00004
 136,0.00032718,0.00003763,-0.00005629,-0.00000662,-0.00000294,0.000010
 83,-0.00002053,-0.00001889,-0.00001123,0.00001417,-0.00003690,0.000011
 25,0.00002642,-0.00003028,-0.00002982,-0.00000458,0.00000031,-0.000026
 62,-0.00001752,0.00001408,-0.00000610,0.00001184,-0.00000750,-0.000000
 15,-0.00003163,0.00001231,0.00000017,0.00000865,-0.00000384,0.00001399
 ,-0.00001679,-0.00000493,-0.00002757,0.00000939,-0.00000613,0.00000152
 ,-0.00010567,0.00001445,-0.00000230,0.00004353,0.00003528,0.00001017,0
 .00011374,-0.00010477,0.00007940,0.00033281,0.00041396,0.00040741,-0.0
 0045826,0.00000583,0.00015449,-0.00066022,0.00002828,0.00252819,-0.000
 07428,0.00001797,-0.00009303,0.00003059,0.00003781,-0.00010318,0.00063
 064,0.00077115,-0.00390733,-0.00012136,-0.00005156,-0.00021833,-0.0004
 1933,-0.00089969,-0.00061885,0.00079445,0.00011352,-0.00014687,0.00013
 288,-0.00005539,0.00000138,-0.01000300,0.01027546,0.00943056,-0.001429
 55,-0.00071116,0.00102676,-0.00736361,-0.00381356,-0.00281176,0.486754
 85,0.00010737,-0.00009736,-0.00000704,0.00006384,-0.00001920,-0.000067
 45,0.00012913,-0.00002932,-0.00002331,-0.00009154,-0.00004929,-0.00005
 556,-0.00008964,-0.00003186,-0.00006813,-0.00005342,-0.00001828,0.0001
 1824,-0.00013401,-0.00012721,-0.00004179,-0.00000294,0.00006379,0.0000
 0471,0.00001968,-0.00002204,-0.00000245,-0.00008098,-0.00003333,0.0000
 0828,0.00012635,0.00015303,0.00001444,-0.00009023,-0.00010988,0.000007
 78,-0.00000420,0.00008825,0.00004054,-0.00003339,0.00006461,-0.0000222
 9,-0.00001060,0.00000269,0.00000740,-0.00001109,-0.00000049,-0.0000014
 9,0.00001579,0.00001730,0.00000683,0.00000030,0.00000210,0.00000549,-0
 .00000997,0.00000990,0.00002040,0.00001659,0.00000716,0.00000083,0.000
 00050,0.00000852,-0.00000805,0.00001634,-0.00000152,0.00001646,0.00001
 171,0.00002308,-0.00001732,0.00004788,0.00000382,0.00000855,0.00008025
 ,0.00005278,-0.00004115,-0.00004738,-0.00009521,-0.00005490,0.00000059
 ,0.00002942,-0.00024927,0.00020118,0.00018357,-0.00005673,0.00051575,0
 .00045411,-0.00134021,0.00001383,-0.00002307,0.00007051,0.00004567,-0.
 00007984,0.00001516,-0.00042168,-0.00086227,0.00236217,-0.00000199,-0.
 00001647,0.00019263,0.00000026,0.00004577,0.00015575,-0.00048337,-0.00
 022061,0.00004790,-0.00003428,-0.00006335,0.00003754,0.01038072,-0.002
 37545,-0.00504260,-0.00035896,0.00068953,-0.00009615,-0.00190379,-0.00
 381394,-0.00253575,-0.09371603,0.27829202,0.00016733,-0.00019860,0.000
 21737,0.00011404,0.00007262,-0.00012233,0.00002462,0.00005619,-0.00006
 190,-0.00001208,0.00002731,-0.00007632,-0.00003421,-0.00002173,0.00006
 653,-0.00015113,-0.00007750,0.00000334,-0.00007776,0.00001973,-0.00006
 178,-0.00000340,0.00002288,-0.00000245,0.00000492,-0.00000536,-0.00001
 130,-0.00008463,-0.00001399,-0.00002846,0.00013846,-0.00001972,0.00023
 276,-0.00005069,-0.00003047,-0.00002391,-0.00000404,0.00003583,-0.0000
 1888,0.00001730,-0.00005816,-0.00000017,0.00004447,-0.00000609,0.00000
 561,-0.00003054,0.00002377,0.00000859,0.00002563,-0.00000626,0.0000370
 2,0.00000678,-0.00000592,0.00000652,-0.00000721,0.00001310,0.00001108,
 0.00001284,-0.00000130,0.00000437,-0.00000944,0.00000457,0.00000671,0.
 00002285,-0.00000401,0.00002891,-0.00000522,-0.00000139,-0.00000968,0.
 00011175,-0.00001789,0.00003330,-0.00000688,-0.00000821,-0.00003103,-0
 .00006265,-0.00003808,-0.00016074,0.00007448,-0.00042992,-0.00011137,0
 .00062200,-0.00005773,0.00016053,0.00079037,-0.00024419,-0.00080852,-0
 .00000048,0.00000391,0.00006483,-0.00003761,-0.00001677,0.00002668,-0.
 00080987,0.00014757,0.00126239,-0.00015260,0.00018160,-0.00017871,0.00
 003284,0.00062535,0.00036214,-0.00099940,-0.00012754,0.00004598,-0.000
 20877,0.00013178,-0.00032702,0.00819601,-0.00436868,0.00146667,0.00069
 391,0.00035413,-0.00094999,-0.00312479,-0.00137146,-0.01017627,0.21630
 151,0.25775058,0.45575301,-0.00005071,0.00001796,-0.00004857,-0.000000
 12,0.00000532,0.00004963,-0.00001608,-0.00000766,-0.00002596,0.0000236
 4,-0.00000578,0.00001550,0.00002040,-0.00000238,0.00000872,0.00002524,
 0.00001334,-0.00000715,0.00004558,0.00008443,-0.00000127,-0.00000097,-
 0.00001990,0.00000012,0.00000314,0.00000644,0.00000663,-0.00002510,-0.
 00004123,-0.00000530,0.00006270,-0.00006703,-0.00007849,-0.00008219,0.
 00004091,0.00002405,-0.00000220,-0.00001284,-0.00000742,0.00000567,0.0
 0000873,0.00000539,-0.00001616,0.00002166,-0.00000845,0.00000398,0.000
 00472,0.00000459,-0.00001226,-0.00000216,-0.00000254,0.00000585,-0.000
 00572,-0.00000127,0.00000113,-0.00000435,-0.00001029,0.00000492,-0.000
 00750,-0.00000177,-0.00000016,-0.00000319,-0.00000646,-0.00000741,0.00
 000473,-0.00000197,-0.00000645,-0.00000362,0.00000846,-0.00003249,-0.0
 0000238,-0.00002400,-0.00005419,-0.00003566,0.00002866,0.00001993,0.00
 010955,0.00007280,-0.00004725,-0.00000170,-0.00001687,-0.00009113,-0.0
 0003943,-0.00009819,-0.00016730,-0.00010702,0.00016608,0.00000984,0.00
 000492,0.00000147,-0.00001770,0.00001659,0.00002725,0.00011718,0.00014
 298,-0.00034075,0.00003739,-0.00001898,0.00003169,0.00003695,0.0000241
 7,0.00000773,0.00018022,0.00006883,0.00001817,0.00003724,-0.00000228,0
 .00010590,-0.00396791,0.00124349,0.00072320,-0.00003275,-0.00006266,0.
 00012357,0.00674804,-0.00049785,0.00055786,-0.04432721,0.02450951,0.00
 167385,0.04320861,-0.00001090,-0.00000982,0.00003577,-0.00000793,0.000
 01879,-0.00001102,-0.00003107,0.00002983,-0.00001344,0.00002064,0.0000
 1805,-0.00000133,0.00003049,0.00001151,0.00002924,-0.00001317,-0.00000
 651,-0.00002621,0.00003169,0.00005029,-0.00000126,0.00000222,-0.000018
 89,-0.00000040,-0.00000696,0.00000667,0.00000078,0.00001975,0.00001266
 ,-0.00000552,-0.00003602,-0.00006443,0.00002317,0.00001777,0.00004350,
 0.00000092,-0.00000031,-0.00001296,-0.00001244,0.00001269,-0.00004032,
 0.00000462,0.00001937,-0.00000196,-0.00000258,-0.00000012,0.00000369,0
 .00000583,0.00000004,-0.00000534,0.00000385,0.00000123,-0.00000192,-0.
 00000120,0.00000196,-0.00000262,-0.00000516,-0.00000386,-0.00000219,-0
 .00000013,-0.00000127,-0.00000247,0.00000293,-0.00000363,0.00000151,-0
 .00000371,-0.00000419,-0.00000928,0.00000714,0.00001155,0.00000113,0.0
 0000106,-0.00002910,-0.00002035,0.00002027,0.00000632,0.00001881,-0.00
 003577,-0.00001261,-0.00003932,0.00004286,-0.00001766,-0.00006321,0.00
 002120,-0.00010973,-0.00008971,0.00009680,0.00000400,0.00000433,-0.000
 01211,-0.00001345,0.00002469,0.00000085,0.00013245,0.00006525,-0.00016
 870,-0.00001079,0.00001889,-0.00004858,0.00002281,0.00003838,0.0000026
 5,0.00008349,0.00005794,0.00000094,-0.00001486,0.00003345,-0.00003115,
 0.00010324,0.00039776,0.00023850,-0.00011527,0.00000345,-0.00021727,-0
 .00039582,-0.00125350,-0.00033530,-0.00835660,-0.23586450,-0.27606555,
 0.00288703,0.23365629,-0.00004548,0.00005947,-0.00007667,-0.00001793,-
 0.00000164,0.00004355,-0.00001958,-0.00002095,0.00000786,0.00001882,-0
 .00000225,0.00002920,-0.00000453,0.00000310,-0.00002074,0.00003209,0.0
 0001705,0.00000478,0.00001959,-0.00002298,0.00003263,0.00000011,-0.000
 00356,0.00000065,-0.00000098,0.00000061,0.00000362,0.00002978,0.000003
 76,0.00001925,-0.00005836,0.00002639,-0.00010306,0.00002106,-0.0000065
 1,0.00004033,0.00000263,-0.00001564,0.00000200,0.00000154,0.00001681,0
 .00000643,-0.00001958,0.00000508,0.00000036,0.00000643,-0.00000837,-0.
 00000203,-0.00000915,0.00000399,-0.00001595,-0.00000302,0.00000352,-0.
 00000124,0.00000190,-0.00000373,-0.00000333,-0.00000467,0.00000163,-0.
 00000090,0.00000358,-0.00000117,-0.00000373,-0.00000753,0.00000148,-0.
 00001141,0.00000335,0.00000300,0.00000023,-0.00005295,0.00001610,-0.00
 002320,0.00003102,0.00001583,0.00000636,0.00002508,-0.00002862,0.00003
 869,-0.00002475,0.00013562,0.00001635,-0.00019098,0.00005822,-0.000059
 88,-0.00017989,0.00012042,0.00020574,0.00000571,-0.00000323,-0.0000145
 3,0.00002658,-0.00000937,-0.00001228,0.00012646,-0.00008530,-0.0002273
 8,0.00005129,-0.00005675,0.00006888,-0.00002851,-0.00019177,-0.0000986
 6,0.00026016,-0.00000693,-0.00001890,0.00007808,-0.00005982,0.00012647
 ,-0.00085287,0.00050118,0.00041973,0.00026039,-0.00010115,0.00013257,0
 .00116444,-0.00139136,-0.00144929,-0.03615646,-0.25142846,-0.31361680,
 0.03065421,0.26878518,0.32928367,0.00000605,-0.00004215,0.00000751,0.0
 0004673,0.00001746,0.00000522,0.00000359,-0.00001251,-0.00002129,0.000
 00034,-0.00000900,-0.00001145,-0.00000616,-0.00001190,0.00000938,-0.00
 001077,-0.00000015,-0.00000002,-0.00000384,0.00003429,-0.00001332,-0.0
 0000174,0.00000149,-0.00000030,0.00000233,-0.00000036,-0.00000037,-0.0
 0003389,-0.00001774,-0.00000562,0.00006594,-0.00003241,0.00001729,-0.0
 0002472,0.00001927,0.00001094,0.00000143,0.00000662,0.00000144,0.00000
 049,0.00001211,0.00000222,-0.00000495,0.00000803,-0.00000079,-0.000003
 93,0.00000688,0.00000340,-0.00000032,-0.00000289,0.00000593,0.00000438
 ,-0.00000385,0.00000196,-0.00000229,0.00000163,-0.00000134,0.00000626,
 -0.00000293,0.00000137,-0.00000266,0.00000043,-0.00000202,0.00000272,0
 .00000132,0.00000546,-0.00000376,-0.00000102,0.00000161,0.00000820,-0.
 00000531,0.00000189,-0.00002260,-0.00001373,0.00000019,-0.00000626,0.0
 0002357,-0.00000333,-0.00005352,-0.00014356,-0.00008796,0.00014425,-0.
 00003378,-0.00000761,0.00017689,-0.00017771,-0.00014255,0.00002312,0.0
 0000064,0.00002570,-0.00001920,0.00000455,0.00002611,-0.00030281,0.000
 20832,0.00012064,0.00000204,0.00003161,0.00000315,0.00005068,0.0002483
 4,0.00015333,-0.00022727,-0.00001308,0.00001815,-0.00003635,0.00003274
 ,-0.00004141,0.00004621,0.00019914,0.00071050,-0.00013982,0.00014347,0
 .00012437,-0.00121267,-0.00017724,-0.00225685,-0.42392925,0.06127625,-
 0.22320257,-0.00163993,0.00578656,0.00485288,0.42709707,-0.00004376,-0
 .00000906,-0.00001333,0.00008548,0.00005827,0.00004716,-0.00005506,-0.
 00001077,-0.00002809,0.00003076,0.00001346,-0.00001150,0.00000133,-0.0
 0001438,0.00003732,-0.00001789,-0.00000861,-0.00003590,0.00002611,0.00
 005541,0.00000466,0.00000010,-0.00001527,-0.00000049,-0.00000272,0.000
 00732,-0.00000059,0.00000540,-0.00000388,-0.00000580,-0.00000125,-0.00
 004542,0.00001342,-0.00002031,0.00001941,0.00001071,0.00000481,-0.0000
 4913,-0.00001561,0.00001744,-0.00001047,0.00001220,-0.00000240,0.00000
 407,-0.00000547,-0.00000264,0.00000604,0.00000736,-0.00000366,-0.00000
 636,0.00000202,0.00000205,-0.00000235,-0.00000039,0.00000158,-0.000001
 41,-0.00000643,-0.00000178,-0.00000361,-0.00000021,-0.00000152,-0.0000
 0178,0.00000211,-0.00000141,0.00000068,-0.00000099,-0.00000469,-0.0000
 0701,0.00000407,0.00000724,-0.00000258,-0.00000165,-0.00001175,-0.0000
 1166,0.00000244,-0.00000837,0.00001601,-0.00000820,-0.00012477,-0.0001
 2010,0.00001484,0.00002944,-0.00006061,0.00001721,-0.00002665,-0.00015
 922,-0.00023329,0.00001469,0.00000695,-0.00001850,-0.00001808,0.000019
 72,0.00000323,0.00005685,0.00005045,0.00025552,0.00006129,0.00001245,-
 0.00000974,0.00013120,0.00023796,0.00008851,-0.00001305,0.00004092,0.0
 0000565,-0.00002399,0.00003400,-0.00003709,0.00091273,-0.00085676,-0.0
 0160232,0.00027015,0.00017531,0.00018710,-0.00137911,0.00098559,0.0029
 4487,0.09573362,-0.03623694,0.02372559,-0.02826400,0.00299243,-0.01632
 886,-0.06736341,0.03290093,-0.00005009,0.00002192,-0.00010510,0.000017
 01,-0.00000306,0.00003159,0.00000959,-0.00002666,-0.00001207,-0.000016
 29,-0.00001893,-0.00000860,-0.00001331,-0.00000914,-0.00003415,0.00002
 181,0.00001223,0.00003334,-0.00000077,-0.00000377,0.00000009,0.0000016
 5,0.00000267,0.00000529,0.00000457,-0.00000158,0.00000475,0.00000018,-
 0.00001606,0.00000705,0.00001033,0.00001752,-0.00007899,-0.00003920,0.
 00000030,0.00002527,0.00000455,-0.00000510,0.00001921,-0.00000776,0.00
 002178,-0.00000405,-0.00001196,0.00000190,-0.00000094,0.00000832,-0.00
 000322,0.00000522,-0.00000490,0.00000369,-0.00000817,0.00000033,-0.000
 00003,-0.00000201,-0.00000070,-0.00000337,-0.00000192,0.00000130,-0.00
 000046,-0.00000220,0.00000352,-0.00000020,-0.00000554,-0.00000353,0.00
 000183,-0.00000589,0.00000239,0.00000428,0.00000314,-0.00000033,0.0000
 0619,-0.00000932,0.00000100,0.00000194,0.00000608,-0.00000961,0.000008
 46,0.00001241,-0.00016877,0.00012572,-0.00009878,-0.00017460,0.0000357
 9,-0.00011595,-0.00023260,0.00013500,-0.00046431,0.00003110,-0.0000181
 3,-0.00000494,0.00001569,-0.00000612,0.00001287,0.00017726,-0.00032032
 ,0.00082555,0.00012156,-0.00009257,0.00019966,0.00015179,-0.00005965,0
 .00002224,0.00026844,0.00003016,0.00002973,0.00005167,-0.00005136,0.00
 014775,0.00213676,-0.00195461,-0.00261285,0.00010561,0.00000542,-0.000
 03590,-0.00248254,0.00323692,0.00446886,-0.18598883,0.00026793,-0.1330
 2673,-0.03362881,0.00767425,-0.01472938,0.21968817,-0.00902154,0.14550
 767\\0.00001486,-0.00000330,-0.00000593,-0.00000381,0.00000843,0.00000
 098,-0.00000190,0.00000191,0.00000094,0.00000064,0.00000077,0.00000029
 ,-0.00000202,0.00000643,-0.00000090,0.00000071,-0.00000314,0.00000507,
 -0.00000727,0.00002166,-0.00001817,0.00000671,-0.00000208,0.00000535,0
 .00000160,-0.00000170,-0.00000306,-0.00002182,0.00000072,-0.00000635,0
 .00001420,-0.00001418,0.00003596,0.00000499,-0.00000610,-0.00001997,0.
 00000278,-0.00000511,-0.00000199,0.00000045,0.00000117,0.00000123,0.00
 000076,-0.00000008,0.00000019,0.00000144,0.00000032,-0.00000095,0.0000
 0586,-0.00000620,0.00000319,-0.00000271,0.00000294,0.00000099,0.000000
 50,-0.00000002,-0.00000161,-0.00000120,0.00000249,0.00000091,0.0000009
 2,0.00000047,-0.00000025,0.00000493,-0.00000028,0.00000292,0.00000110,
 0.00000204,0.00000302,0.00000067,0.00000201,0.00000250,0.00000163,0.00
 000019,-0.00000039,-0.00000228,-0.00000018,0.00000057,-0.00001704,-0.0
 0001150,0.00000287,0.00000809,0.00000003,-0.00000670,-0.00002964,-0.00
 003462,0.00000361,0.00000700,0.00000844,0.00000433,-0.00001739,-0.0000
 0035,-0.00000637,-0.00000870,0.00001304,-0.00001054,-0.00000332,-0.000
 00753,0.00000439,0.00000662,0.00002288,0.00000166,0.00002641,0.0000173
 9,0.00000070,-0.00000083,-0.00000914,0.00000639,0.00001145,-0.00000889
 ,-0.00000874,-0.00000333,0.00000711,0.00000888,0.00000214,-0.00000538,
 -0.00000408,-0.00000970,0.00000251,0.00000104,0.00000432,-0.00000221,-
 0.00000014,0.00000217,-0.00000096,-0.00000187\\\@


 CONTRAIWISE...CONTINUED TWEEDLEDEE, IF IT WAS SO, IT MIGHT BE,
 AND IF IT WERE SO, IT WOULD BE.....
 BUT AS IT ISN'T, IT AIN'T....
 THAT'S LOGIC.....
 ALICE THROUGH THE LOOKING GLASS
 Job cpu time:       1 days 19 hours  6 minutes  0.6 seconds.
 Elapsed time:       0 days  1 hours 32 minutes 28.6 seconds.
 File lengths (MBytes):  RWF=   1440 Int=      0 D2E=      0 Chk=     36 Scr=      8
 Normal termination of Gaussian 16 at Wed Mar  8 21:15:38 2023.
