 Entering Gaussian System, Link 0=g16
 Input=Nic5h3bMidBTS2_3.gjf
 Output=Nic5h3bMidBTS2_3.log
 Initial command:
 /sw/contrib/gaussian/g16/A03/g16/l1.exe "/gscratch/scrubbed/gds001/Gau-17318.inp" -scrdir="/gscratch/scrubbed/gds001/"
 Entering Link 1 = /sw/contrib/gaussian/g16/A03/g16/l1.exe PID=     17319.
  
 Copyright (c) 1988,1990,1992,1993,1995,1998,2003,2009,2016,
            Gaussian, Inc.  All Rights Reserved.
  
 This is part of the Gaussian(R) 16 program.  It is based on
 the Gaussian(R) 09 system (copyright 2009, Gaussian, Inc.),
 the Gaussian(R) 03 system (copyright 2003, Gaussian, Inc.),
 the Gaussian(R) 98 system (copyright 1998, Gaussian, Inc.),
 the Gaussian(R) 94 system (copyright 1995, Gaussian, Inc.),
 the Gaussian 92(TM) system (copyright 1992, Gaussian, Inc.),
 the Gaussian 90(TM) system (copyright 1990, Gaussian, Inc.),
 the Gaussian 88(TM) system (copyright 1988, Gaussian, Inc.),
 the Gaussian 86(TM) system (copyright 1986, Carnegie Mellon
 University), and the Gaussian 82(TM) system (copyright 1983,
 Carnegie Mellon University). Gaussian is a federally registered
 trademark of Gaussian, Inc.
  
 This software contains proprietary and confidential information,
 including trade secrets, belonging to Gaussian, Inc.
  
 This software is provided under written license and may be
 used, copied, transmitted, or stored only in accord with that
 written license.
  
 The following legend is applicable only to US Government
 contracts under FAR:
  
                    RESTRICTED RIGHTS LEGEND
  
 Use, reproduction and disclosure by the US Government is
 subject to restrictions as set forth in subparagraphs (a)
 and (c) of the Commercial Computer Software - Restricted
 Rights clause in FAR 52.227-19.
  
 Gaussian, Inc.
 340 Quinnipiac St., Bldg. 40, Wallingford CT 06492
  
  
 ---------------------------------------------------------------
 Warning -- This program may not be used in any manner that
 competes with the business of Gaussian, Inc. or will provide
 assistance to any competitor of Gaussian, Inc.  The licensee
 of this program is prohibited from giving any competitor of
 Gaussian, Inc. access to this program.  By using this program,
 the user acknowledges that Gaussian, Inc. is engaged in the
 business of creating and licensing software in the field of
 computational chemistry and represents and warrants to the
 licensee that it is not a competitor of Gaussian, Inc. and that
 it will not use this program in any manner prohibited above.
 ---------------------------------------------------------------
  

 Cite this work as:
 Gaussian 16, Revision A.03,
 M. J. Frisch, G. W. Trucks, H. B. Schlegel, G. E. Scuseria, 
 M. A. Robb, J. R. Cheeseman, G. Scalmani, V. Barone, 
 G. A. Petersson, H. Nakatsuji, X. Li, M. Caricato, A. V. Marenich, 
 J. Bloino, B. G. Janesko, R. Gomperts, B. Mennucci, H. P. Hratchian, 
 J. V. Ortiz, A. F. Izmaylov, J. L. Sonnenberg, D. Williams-Young, 
 F. Ding, F. Lipparini, F. Egidi, J. Goings, B. Peng, A. Petrone, 
 T. Henderson, D. Ranasinghe, V. G. Zakrzewski, J. Gao, N. Rega, 
 G. Zheng, W. Liang, M. Hada, M. Ehara, K. Toyota, R. Fukuda, 
 J. Hasegawa, M. Ishida, T. Nakajima, Y. Honda, O. Kitao, H. Nakai, 
 T. Vreven, K. Throssell, J. A. Montgomery, Jr., J. E. Peralta, 
 F. Ogliaro, M. J. Bearpark, J. J. Heyd, E. N. Brothers, K. N. Kudin, 
 V. N. Staroverov, T. A. Keith, R. Kobayashi, J. Normand, 
 K. Raghavachari, A. P. Rendell, J. C. Burant, S. S. Iyengar, 
 J. Tomasi, M. Cossi, J. M. Millam, M. Klene, C. Adamo, R. Cammi, 
 J. W. Ochterski, R. L. Martin, K. Morokuma, O. Farkas, 
 J. B. Foresman, and D. J. Fox, Gaussian, Inc., Wallingford CT, 2016.
 
 ******************************************
 Gaussian 16:  ES64L-G16RevA.03 25-Dec-2016
                11-Mar-2023 
 ******************************************
 %nprocshared=28
 Will use up to   28 processors via shared memory.
 %mem=41GB
 ----------------------------------------------------------------
 # wB97XD/aug-cc-pVDZ opt=(TS,CalcAll,MaxStep=5,NoEigenTest) freq
 ----------------------------------------------------------------
 1/5=1,8=5,10=4,11=1,18=20,26=3,38=1/1,3;
 2/9=110,12=2,17=6,18=5,40=1/2;
 3/5=16,7=10,11=2,25=1,30=1,71=2,74=-58,140=1/1,2,3;
 4//1;
 5/5=2,38=5/2;
 8/6=4,10=90,11=11/1;
 11/6=1,8=1,9=11,15=111,16=1/1,2,10;
 10/6=1/2;
 6/7=2,8=2,9=2,10=2,18=1,28=1/1;
 7/10=1,25=1/1,2,3,16;
 1/5=1,8=5,10=4,11=1,18=20,26=3/3(3);
 2/9=110/2;
 7/8=1,9=1,25=1,44=-1/16;
 99//99;
 2/9=110/2;
 3/5=16,7=10,11=2,25=1,30=1,71=2,74=-58,140=1/1,2,3;
 4/5=5,16=3,69=1/1;
 5/5=2,38=5/2;
 8/6=4,10=90,11=11/1;
 11/6=1,8=1,9=11,15=111,16=1/1,2,10;
 10/6=1/2;
 7/10=1,25=1/1,2,3,16;
 1/5=1,8=5,10=4,11=1,18=20,26=3/3(-8);
 2/9=110/2;
 6/7=2,8=2,9=2,10=2,18=1,19=2,28=1/1;
 7/8=1,9=1,25=1,44=-1/16;
 99//99;
 ----
 blah
 ----
 Symbolic Z-matrix:
 Charge =  1 Multiplicity = 1
 N                     0.40108   2.33942   0.47098 
 C                     0.42476   3.20492  -0.5512 
 C                    -0.41036   3.05457  -1.64881 
 C                    -1.27629   1.96255  -1.68664 
 C                    -1.31103   1.06148  -0.62278 
 C                    -0.44964   1.3085    0.44382 
 C                    -2.23842  -0.12909  -0.61067 
 C                    -3.31842  -0.10018   0.4863 
 C                    -3.61942  -1.59202   0.76686 
 C                    -2.64598  -2.35478  -0.14131 
 N                    -1.54558  -1.40548  -0.3646 
 C                    -0.6478   -1.80632  -1.44194 
 H                     1.13432   4.02806  -0.47664 
 H                    -0.37394   3.7738   -2.46441 
 H                    -1.92753   1.81278  -2.54851 
 H                    -0.42501   0.65021   1.31139 
 H                    -2.73371  -0.17798  -1.60023 
 H                    -4.19773   0.46152   0.15429 
 H                    -2.93107   0.3973    1.38346 
 H                    -4.6582   -1.85618   0.54519 
 H                    -3.43779  -1.8292    1.82098 
 H                    -3.12482  -2.61295  -1.10353 
 H                    -2.26231  -3.28328   0.29976 
 H                    -1.17474  -1.8678   -2.41117 
 H                    -0.22406  -2.79103  -1.21272 
 H                     0.18202  -1.09498  -1.52781 
 O                     2.15064   1.93551   2.20452 
 O                    -0.07864  -1.49868   1.9587 
 O                     2.3391   -0.42637   1.75306 
 H                     1.9747    2.19525   3.11401 
 H                    -0.23966  -2.31962   2.42881 
 H                     2.62502  -0.53469   0.81154 
 H                     1.36063   2.2499    1.51255 
 H                     2.25874   0.80742   2.06248 
 H                     1.47244  -0.896     1.84836 
 H                    -0.62586  -1.51103   1.12324 
 O                     2.99191  -0.67104  -0.81471 
 H                     3.14589   0.12928  -1.32229 
 H                     3.74464  -1.25869  -1.02664 
 O                     5.13834  -2.25493  -1.41783 
 H                     5.15549  -2.99282  -2.03266 
 H                     5.9189   -2.35048  -0.86584 
 
 Add virtual bond connecting atoms H34        and O27        Dist= 2.16D+00.
 Add virtual bond connecting atoms H34        and O29        Dist= 2.41D+00.
 Add virtual bond connecting atoms H33        and N1         Dist= 2.68D+00.
 Add virtual bond connecting atoms N11        and H36        Dist= 3.31D+00.
 Add virtual bond connecting atoms H35        and O28        Dist= 3.15D+00.
 Add virtual bond connecting atoms O37        and H32        Dist= 3.16D+00.
 Add virtual bond connecting atoms O40        and H39        Dist= 3.32D+00.

 GradGradGradGradGradGradGradGradGradGradGradGradGradGradGradGradGradGrad
 Berny optimization.
 Initialization pass.
                           ----------------------------
                           !    Initial Parameters    !
                           ! (Angstroms and Degrees)  !
 --------------------------                            --------------------------
 ! Name  Definition              Value          Derivative Info.                !
 --------------------------------------------------------------------------------
 ! R1    R(1,2)                  1.3396         calculate D2E/DX2 analytically  !
 ! R2    R(1,6)                  1.3369         calculate D2E/DX2 analytically  !
 ! R3    R(1,33)                 1.419          calculate D2E/DX2 analytically  !
 ! R4    R(2,3)                  1.3874         calculate D2E/DX2 analytically  !
 ! R5    R(2,13)                 1.0893         calculate D2E/DX2 analytically  !
 ! R6    R(3,4)                  1.3942         calculate D2E/DX2 analytically  !
 ! R7    R(3,14)                 1.088          calculate D2E/DX2 analytically  !
 ! R8    R(4,5)                  1.3946         calculate D2E/DX2 analytically  !
 ! R9    R(4,15)                 1.0906         calculate D2E/DX2 analytically  !
 ! R10   R(5,6)                  1.3931         calculate D2E/DX2 analytically  !
 ! R11   R(5,7)                  1.5092         calculate D2E/DX2 analytically  !
 ! R12   R(6,16)                 1.0893         calculate D2E/DX2 analytically  !
 ! R13   R(7,8)                  1.5397         calculate D2E/DX2 analytically  !
 ! R14   R(7,11)                 1.473          calculate D2E/DX2 analytically  !
 ! R15   R(7,17)                 1.1077         calculate D2E/DX2 analytically  !
 ! R16   R(8,9)                  1.5476         calculate D2E/DX2 analytically  !
 ! R17   R(8,18)                 1.095          calculate D2E/DX2 analytically  !
 ! R18   R(8,19)                 1.0965         calculate D2E/DX2 analytically  !
 ! R19   R(9,10)                 1.5343         calculate D2E/DX2 analytically  !
 ! R20   R(9,20)                 1.0945         calculate D2E/DX2 analytically  !
 ! R21   R(9,21)                 1.0956         calculate D2E/DX2 analytically  !
 ! R22   R(10,11)                1.4703         calculate D2E/DX2 analytically  !
 ! R23   R(10,22)                1.1054         calculate D2E/DX2 analytically  !
 ! R24   R(10,23)                1.0972         calculate D2E/DX2 analytically  !
 ! R25   R(11,12)                1.4585         calculate D2E/DX2 analytically  !
 ! R26   R(11,36)                1.7523         calculate D2E/DX2 analytically  !
 ! R27   R(12,24)                1.1049         calculate D2E/DX2 analytically  !
 ! R28   R(12,25)                1.0962         calculate D2E/DX2 analytically  !
 ! R29   R(12,26)                1.0964         calculate D2E/DX2 analytically  !
 ! R30   R(27,30)                0.9621         calculate D2E/DX2 analytically  !
 ! R31   R(27,33)                1.0963         calculate D2E/DX2 analytically  !
 ! R32   R(27,34)                1.1421         calculate D2E/DX2 analytically  !
 ! R33   R(28,31)                0.9596         calculate D2E/DX2 analytically  !
 ! R34   R(28,35)                1.6677         calculate D2E/DX2 analytically  !
 ! R35   R(28,36)                0.9988         calculate D2E/DX2 analytically  !
 ! R36   R(29,32)                0.9899         calculate D2E/DX2 analytically  !
 ! R37   R(29,34)                1.2745         calculate D2E/DX2 analytically  !
 ! R38   R(29,35)                0.9903         calculate D2E/DX2 analytically  !
 ! R39   R(32,37)                1.6727         calculate D2E/DX2 analytically  !
 ! R40   R(37,38)                0.9601         calculate D2E/DX2 analytically  !
 ! R41   R(37,39)                0.9782         calculate D2E/DX2 analytically  !
 ! R42   R(39,40)                1.7573         calculate D2E/DX2 analytically  !
 ! R43   R(40,41)                0.9606         calculate D2E/DX2 analytically  !
 ! R44   R(40,42)                0.9608         calculate D2E/DX2 analytically  !
 ! A1    A(2,1,6)              119.602          calculate D2E/DX2 analytically  !
 ! A2    A(2,1,33)             126.0786         calculate D2E/DX2 analytically  !
 ! A3    A(6,1,33)             113.3635         calculate D2E/DX2 analytically  !
 ! A4    A(1,2,3)              121.536          calculate D2E/DX2 analytically  !
 ! A5    A(1,2,13)             116.5841         calculate D2E/DX2 analytically  !
 ! A6    A(3,2,13)             121.8796         calculate D2E/DX2 analytically  !
 ! A7    A(2,3,4)              118.6997         calculate D2E/DX2 analytically  !
 ! A8    A(2,3,14)             120.0838         calculate D2E/DX2 analytically  !
 ! A9    A(4,3,14)             121.2124         calculate D2E/DX2 analytically  !
 ! A10   A(3,4,5)              120.0558         calculate D2E/DX2 analytically  !
 ! A11   A(3,4,15)             119.9936         calculate D2E/DX2 analytically  !
 ! A12   A(5,4,15)             119.9506         calculate D2E/DX2 analytically  !
 ! A13   A(4,5,6)              117.0064         calculate D2E/DX2 analytically  !
 ! A14   A(4,5,7)              122.0817         calculate D2E/DX2 analytically  !
 ! A15   A(6,5,7)              120.9115         calculate D2E/DX2 analytically  !
 ! A16   A(1,6,5)              123.0774         calculate D2E/DX2 analytically  !
 ! A17   A(1,6,16)             115.8131         calculate D2E/DX2 analytically  !
 ! A18   A(5,6,16)             121.1049         calculate D2E/DX2 analytically  !
 ! A19   A(5,7,8)              114.9569         calculate D2E/DX2 analytically  !
 ! A20   A(5,7,11)             113.3214         calculate D2E/DX2 analytically  !
 ! A21   A(5,7,17)             107.6034         calculate D2E/DX2 analytically  !
 ! A22   A(8,7,11)             103.1312         calculate D2E/DX2 analytically  !
 ! A23   A(8,7,17)             108.8856         calculate D2E/DX2 analytically  !
 ! A24   A(11,7,17)            108.7423         calculate D2E/DX2 analytically  !
 ! A25   A(7,8,9)              104.3293         calculate D2E/DX2 analytically  !
 ! A26   A(7,8,18)             110.9105         calculate D2E/DX2 analytically  !
 ! A27   A(7,8,19)             110.1002         calculate D2E/DX2 analytically  !
 ! A28   A(9,8,18)             113.1598         calculate D2E/DX2 analytically  !
 ! A29   A(9,8,19)             110.9604         calculate D2E/DX2 analytically  !
 ! A30   A(18,8,19)            107.3988         calculate D2E/DX2 analytically  !
 ! A31   A(8,9,10)             104.3906         calculate D2E/DX2 analytically  !
 ! A32   A(8,9,20)             112.367          calculate D2E/DX2 analytically  !
 ! A33   A(8,9,21)             110.5401         calculate D2E/DX2 analytically  !
 ! A34   A(10,9,20)            111.2399         calculate D2E/DX2 analytically  !
 ! A35   A(10,9,21)            110.8969         calculate D2E/DX2 analytically  !
 ! A36   A(20,9,21)            107.4535         calculate D2E/DX2 analytically  !
 ! A37   A(9,10,11)            104.1072         calculate D2E/DX2 analytically  !
 ! A38   A(9,10,22)            110.8871         calculate D2E/DX2 analytically  !
 ! A39   A(9,10,23)            113.8665         calculate D2E/DX2 analytically  !
 ! A40   A(11,10,22)           110.0475         calculate D2E/DX2 analytically  !
 ! A41   A(11,10,23)           110.2253         calculate D2E/DX2 analytically  !
 ! A42   A(22,10,23)           107.684          calculate D2E/DX2 analytically  !
 ! A43   A(7,11,10)            103.4627         calculate D2E/DX2 analytically  !
 ! A44   A(7,11,12)            113.845          calculate D2E/DX2 analytically  !
 ! A45   A(7,11,36)            116.1614         calculate D2E/DX2 analytically  !
 ! A46   A(10,11,12)           113.2911         calculate D2E/DX2 analytically  !
 ! A47   A(10,11,36)           103.0009         calculate D2E/DX2 analytically  !
 ! A48   A(12,11,36)           106.7102         calculate D2E/DX2 analytically  !
 ! A49   A(11,12,24)           111.6955         calculate D2E/DX2 analytically  !
 ! A50   A(11,12,25)           109.2896         calculate D2E/DX2 analytically  !
 ! A51   A(11,12,26)           110.2085         calculate D2E/DX2 analytically  !
 ! A52   A(24,12,25)           108.5283         calculate D2E/DX2 analytically  !
 ! A53   A(24,12,26)           109.1694         calculate D2E/DX2 analytically  !
 ! A54   A(25,12,26)           107.8558         calculate D2E/DX2 analytically  !
 ! A55   A(30,27,33)           112.799          calculate D2E/DX2 analytically  !
 ! A56   A(30,27,34)           113.6742         calculate D2E/DX2 analytically  !
 ! A57   A(33,27,34)           105.8413         calculate D2E/DX2 analytically  !
 ! A58   A(31,28,35)           119.8429         calculate D2E/DX2 analytically  !
 ! A59   A(31,28,36)           107.8953         calculate D2E/DX2 analytically  !
 ! A60   A(35,28,36)           117.3026         calculate D2E/DX2 analytically  !
 ! A61   A(32,29,34)           110.7957         calculate D2E/DX2 analytically  !
 ! A62   A(32,29,35)           107.0025         calculate D2E/DX2 analytically  !
 ! A63   A(34,29,35)           112.3662         calculate D2E/DX2 analytically  !
 ! A64   A(32,37,38)           118.7645         calculate D2E/DX2 analytically  !
 ! A65   A(32,37,39)           115.3659         calculate D2E/DX2 analytically  !
 ! A66   A(38,37,39)           105.2371         calculate D2E/DX2 analytically  !
 ! A67   A(39,40,41)           126.3077         calculate D2E/DX2 analytically  !
 ! A68   A(39,40,42)           124.9478         calculate D2E/DX2 analytically  !
 ! A69   A(41,40,42)           106.0704         calculate D2E/DX2 analytically  !
 ! A70   L(29,32,37,1,-1)      176.1632         calculate D2E/DX2 analytically  !
 ! A71   L(1,33,27,28,-1)      169.6506         calculate D2E/DX2 analytically  !
 ! A72   L(27,34,29,4,-1)      173.6617         calculate D2E/DX2 analytically  !
 ! A73   L(28,35,29,1,-1)      172.6742         calculate D2E/DX2 analytically  !
 ! A74   L(11,36,28,1,-1)      175.5798         calculate D2E/DX2 analytically  !
 ! A75   L(37,39,40,25,-1)     182.2569         calculate D2E/DX2 analytically  !
 ! A76   L(29,32,37,1,-2)      182.2963         calculate D2E/DX2 analytically  !
 ! A77   L(1,33,27,28,-2)      170.0151         calculate D2E/DX2 analytically  !
 ! A78   L(27,34,29,4,-2)      176.7313         calculate D2E/DX2 analytically  !
 ! A79   L(28,35,29,1,-2)      178.9478         calculate D2E/DX2 analytically  !
 ! A80   L(11,36,28,1,-2)      180.177          calculate D2E/DX2 analytically  !
 ! A81   L(37,39,40,25,-2)     179.0925         calculate D2E/DX2 analytically  !
 ! D1    D(6,1,2,3)             -0.3904         calculate D2E/DX2 analytically  !
 ! D2    D(6,1,2,13)           179.8115         calculate D2E/DX2 analytically  !
 ! D3    D(33,1,2,3)           167.6473         calculate D2E/DX2 analytically  !
 ! D4    D(33,1,2,13)          -12.1508         calculate D2E/DX2 analytically  !
 ! D5    D(2,1,6,5)              1.4595         calculate D2E/DX2 analytically  !
 ! D6    D(2,1,6,16)          -179.3165         calculate D2E/DX2 analytically  !
 ! D7    D(33,1,6,5)          -168.0264         calculate D2E/DX2 analytically  !
 ! D8    D(33,1,6,16)           11.1976         calculate D2E/DX2 analytically  !
 ! D9    D(2,1,27,30)          111.2846         calculate D2E/DX2 analytically  !
 ! D10   D(2,1,27,34)         -125.9038         calculate D2E/DX2 analytically  !
 ! D11   D(6,1,27,30)          -86.4139         calculate D2E/DX2 analytically  !
 ! D12   D(6,1,27,34)           36.3977         calculate D2E/DX2 analytically  !
 ! D13   D(1,2,3,4)             -0.9489         calculate D2E/DX2 analytically  !
 ! D14   D(1,2,3,14)           179.7751         calculate D2E/DX2 analytically  !
 ! D15   D(13,2,3,4)           178.8385         calculate D2E/DX2 analytically  !
 ! D16   D(13,2,3,14)           -0.4375         calculate D2E/DX2 analytically  !
 ! D17   D(2,3,4,5)              1.2636         calculate D2E/DX2 analytically  !
 ! D18   D(2,3,4,15)          -178.7646         calculate D2E/DX2 analytically  !
 ! D19   D(14,3,4,5)          -179.4689         calculate D2E/DX2 analytically  !
 ! D20   D(14,3,4,15)            0.5028         calculate D2E/DX2 analytically  !
 ! D21   D(3,4,5,6)             -0.2857         calculate D2E/DX2 analytically  !
 ! D22   D(3,4,5,7)            179.4771         calculate D2E/DX2 analytically  !
 ! D23   D(15,4,5,6)           179.7426         calculate D2E/DX2 analytically  !
 ! D24   D(15,4,5,7)            -0.4946         calculate D2E/DX2 analytically  !
 ! D25   D(4,5,6,1)             -1.1054         calculate D2E/DX2 analytically  !
 ! D26   D(4,5,6,16)           179.7105         calculate D2E/DX2 analytically  !
 ! D27   D(7,5,6,1)            179.1289         calculate D2E/DX2 analytically  !
 ! D28   D(7,5,6,16)            -0.0552         calculate D2E/DX2 analytically  !
 ! D29   D(4,5,7,8)           -115.0073         calculate D2E/DX2 analytically  !
 ! D30   D(4,5,7,11)           126.7304         calculate D2E/DX2 analytically  !
 ! D31   D(4,5,7,17)             6.4737         calculate D2E/DX2 analytically  !
 ! D32   D(6,5,7,8)             64.7463         calculate D2E/DX2 analytically  !
 ! D33   D(6,5,7,11)           -53.516          calculate D2E/DX2 analytically  !
 ! D34   D(6,5,7,17)          -173.7726         calculate D2E/DX2 analytically  !
 ! D35   D(5,7,8,9)           -152.1994         calculate D2E/DX2 analytically  !
 ! D36   D(5,7,8,18)            85.6503         calculate D2E/DX2 analytically  !
 ! D37   D(5,7,8,19)           -33.0798         calculate D2E/DX2 analytically  !
 ! D38   D(11,7,8,9)           -28.354          calculate D2E/DX2 analytically  !
 ! D39   D(11,7,8,18)         -150.5044         calculate D2E/DX2 analytically  !
 ! D40   D(11,7,8,19)           90.7655         calculate D2E/DX2 analytically  !
 ! D41   D(17,7,8,9)            87.0194         calculate D2E/DX2 analytically  !
 ! D42   D(17,7,8,18)          -35.1309         calculate D2E/DX2 analytically  !
 ! D43   D(17,7,8,19)         -153.8611         calculate D2E/DX2 analytically  !
 ! D44   D(5,7,11,10)          169.5535         calculate D2E/DX2 analytically  !
 ! D45   D(5,7,11,12)          -67.0571         calculate D2E/DX2 analytically  !
 ! D46   D(5,7,11,36)           57.5094         calculate D2E/DX2 analytically  !
 ! D47   D(8,7,11,10)           44.6369         calculate D2E/DX2 analytically  !
 ! D48   D(8,7,11,12)          168.0263         calculate D2E/DX2 analytically  !
 ! D49   D(8,7,11,36)          -67.4072         calculate D2E/DX2 analytically  !
 ! D50   D(17,7,11,10)         -70.8393         calculate D2E/DX2 analytically  !
 ! D51   D(17,7,11,12)          52.5502         calculate D2E/DX2 analytically  !
 ! D52   D(17,7,11,36)         177.1167         calculate D2E/DX2 analytically  !
 ! D53   D(7,8,9,10)             2.5147         calculate D2E/DX2 analytically  !
 ! D54   D(7,8,9,20)          -118.1504         calculate D2E/DX2 analytically  !
 ! D55   D(7,8,9,21)           121.8144         calculate D2E/DX2 analytically  !
 ! D56   D(18,8,9,10)          123.1738         calculate D2E/DX2 analytically  !
 ! D57   D(18,8,9,20)            2.5087         calculate D2E/DX2 analytically  !
 ! D58   D(18,8,9,21)         -117.5266         calculate D2E/DX2 analytically  !
 ! D59   D(19,8,9,10)         -116.0195         calculate D2E/DX2 analytically  !
 ! D60   D(19,8,9,20)          123.3154         calculate D2E/DX2 analytically  !
 ! D61   D(19,8,9,21)            3.2801         calculate D2E/DX2 analytically  !
 ! D62   D(8,9,10,11)           24.3177         calculate D2E/DX2 analytically  !
 ! D63   D(8,9,10,22)          -93.991          calculate D2E/DX2 analytically  !
 ! D64   D(8,9,10,23)          144.383          calculate D2E/DX2 analytically  !
 ! D65   D(20,9,10,11)         145.7321         calculate D2E/DX2 analytically  !
 ! D66   D(20,9,10,22)          27.4233         calculate D2E/DX2 analytically  !
 ! D67   D(20,9,10,23)         -94.2026         calculate D2E/DX2 analytically  !
 ! D68   D(21,9,10,11)         -94.7403         calculate D2E/DX2 analytically  !
 ! D69   D(21,9,10,22)         146.951          calculate D2E/DX2 analytically  !
 ! D70   D(21,9,10,23)          25.325          calculate D2E/DX2 analytically  !
 ! D71   D(9,10,11,7)          -43.2447         calculate D2E/DX2 analytically  !
 ! D72   D(9,10,11,12)        -166.9982         calculate D2E/DX2 analytically  !
 ! D73   D(9,10,11,36)          78.1249         calculate D2E/DX2 analytically  !
 ! D74   D(22,10,11,7)          75.6389         calculate D2E/DX2 analytically  !
 ! D75   D(22,10,11,12)        -48.1146         calculate D2E/DX2 analytically  !
 ! D76   D(22,10,11,36)       -162.9915         calculate D2E/DX2 analytically  !
 ! D77   D(23,10,11,7)        -165.7377         calculate D2E/DX2 analytically  !
 ! D78   D(23,10,11,12)         70.5089         calculate D2E/DX2 analytically  !
 ! D79   D(23,10,11,36)        -44.3681         calculate D2E/DX2 analytically  !
 ! D80   D(7,11,12,24)         -56.2554         calculate D2E/DX2 analytically  !
 ! D81   D(7,11,12,25)        -176.3606         calculate D2E/DX2 analytically  !
 ! D82   D(7,11,12,26)          65.2801         calculate D2E/DX2 analytically  !
 ! D83   D(10,11,12,24)         61.6097         calculate D2E/DX2 analytically  !
 ! D84   D(10,11,12,25)        -58.4954         calculate D2E/DX2 analytically  !
 ! D85   D(10,11,12,26)       -176.8547         calculate D2E/DX2 analytically  !
 ! D86   D(36,11,12,24)        174.251          calculate D2E/DX2 analytically  !
 ! D87   D(36,11,12,25)         54.1459         calculate D2E/DX2 analytically  !
 ! D88   D(36,11,12,26)        -64.2134         calculate D2E/DX2 analytically  !
 ! D89   D(7,11,28,31)         134.5615         calculate D2E/DX2 analytically  !
 ! D90   D(7,11,28,35)         -85.2972         calculate D2E/DX2 analytically  !
 ! D91   D(10,11,28,31)         21.9393         calculate D2E/DX2 analytically  !
 ! D92   D(10,11,28,35)        162.0806         calculate D2E/DX2 analytically  !
 ! D93   D(12,11,28,31)        -98.2614         calculate D2E/DX2 analytically  !
 ! D94   D(12,11,28,35)         41.8799         calculate D2E/DX2 analytically  !
 ! D95   D(30,27,29,32)       -173.3426         calculate D2E/DX2 analytically  !
 ! D96   D(30,27,29,35)         69.0121         calculate D2E/DX2 analytically  !
 ! D97   D(33,27,29,32)         62.5327         calculate D2E/DX2 analytically  !
 ! D98   D(33,27,29,35)        -55.1126         calculate D2E/DX2 analytically  !
 ! D99   D(31,28,29,32)        109.0763         calculate D2E/DX2 analytically  !
 ! D100  D(31,28,29,34)       -131.3966         calculate D2E/DX2 analytically  !
 ! D101  D(36,28,29,32)        -26.6995         calculate D2E/DX2 analytically  !
 ! D102  D(36,28,29,34)         92.8276         calculate D2E/DX2 analytically  !
 ! D103  D(34,29,37,38)          1.7152         calculate D2E/DX2 analytically  !
 ! D104  D(34,29,37,39)        129.1169         calculate D2E/DX2 analytically  !
 ! D105  D(35,29,37,38)        122.9042         calculate D2E/DX2 analytically  !
 ! D106  D(35,29,37,39)       -109.6941         calculate D2E/DX2 analytically  !
 ! D107  D(32,37,40,41)        126.4778         calculate D2E/DX2 analytically  !
 ! D108  D(32,37,40,42)        -33.3949         calculate D2E/DX2 analytically  !
 ! D109  D(38,37,40,41)       -101.5046         calculate D2E/DX2 analytically  !
 ! D110  D(38,37,40,42)         98.6226         calculate D2E/DX2 analytically  !
 --------------------------------------------------------------------------------
 Trust Radius=5.00D-02 FncErr=1.00D-07 GrdErr=1.00D-06 EigMax=2.50D+02 EigMin=1.00D-04
 Number of steps in this run=    245 maximum allowed number of steps=    252.
 Search for a saddle point of order  1.
 GradGradGradGradGradGradGradGradGradGradGradGradGradGradGradGradGradGrad

                          Input orientation:                          
 ---------------------------------------------------------------------
 Center     Atomic      Atomic             Coordinates (Angstroms)
 Number     Number       Type             X           Y           Z
 ---------------------------------------------------------------------
      1          7           0        0.401080    2.339418    0.470981
      2          6           0        0.424758    3.204915   -0.551197
      3          6           0       -0.410358    3.054569   -1.648805
      4          6           0       -1.276294    1.962554   -1.686638
      5          6           0       -1.311030    1.061476   -0.622776
      6          6           0       -0.449639    1.308499    0.443822
      7          6           0       -2.238419   -0.129090   -0.610672
      8          6           0       -3.318416   -0.100176    0.486297
      9          6           0       -3.619415   -1.592021    0.766857
     10          6           0       -2.645981   -2.354780   -0.141305
     11          7           0       -1.545583   -1.405479   -0.364599
     12          6           0       -0.647802   -1.806317   -1.441938
     13          1           0        1.134324    4.028059   -0.476644
     14          1           0       -0.373936    3.773802   -2.464407
     15          1           0       -1.927526    1.812775   -2.548514
     16          1           0       -0.425009    0.650210    1.311394
     17          1           0       -2.733709   -0.177982   -1.600228
     18          1           0       -4.197733    0.461524    0.154292
     19          1           0       -2.931072    0.397302    1.383460
     20          1           0       -4.658196   -1.856182    0.545190
     21          1           0       -3.437792   -1.829197    1.820984
     22          1           0       -3.124821   -2.612950   -1.103532
     23          1           0       -2.262312   -3.283282    0.299761
     24          1           0       -1.174743   -1.867797   -2.411171
     25          1           0       -0.224063   -2.791030   -1.212723
     26          1           0        0.182024   -1.094975   -1.527808
     27          8           0        2.150638    1.935506    2.204516
     28          8           0       -0.078644   -1.498684    1.958697
     29          8           0        2.339097   -0.426372    1.753055
     30          1           0        1.974703    2.195248    3.114008
     31          1           0       -0.239658   -2.319617    2.428807
     32          1           0        2.625024   -0.534688    0.811540
     33          1           0        1.360627    2.249896    1.512545
     34          1           0        2.258743    0.807417    2.062481
     35          1           0        1.472440   -0.896003    1.848360
     36          1           0       -0.625864   -1.511028    1.123236
     37          8           0        2.991912   -0.671036   -0.814708
     38          1           0        3.145894    0.129278   -1.322288
     39          1           0        3.744635   -1.258691   -1.026638
     40          8           0        5.138339   -2.254929   -1.417830
     41          1           0        5.155488   -2.992822   -2.032661
     42          1           0        5.918900   -2.350483   -0.865835
 ---------------------------------------------------------------------
                    Distance matrix (angstroms):
                    1          2          3          4          5
     1  N    0.000000
     2  C    1.339587   0.000000
     3  C    2.379783   1.387359   0.000000
     4  C    2.758791   2.392962   1.394193   0.000000
     5  C    2.400158   2.759060   2.415857   1.394615   0.000000
     6  C    1.336882   2.313229   2.725691   2.376974   1.393071
     7  C    3.772328   4.267510   3.815129   2.541331   1.509187
     8  C    4.448202   5.100134   4.792481   3.625847   2.570812
     9  C    5.630998   6.411177   6.142008   4.913742   3.781636
    10  C    5.629829   6.364563   6.044140   4.785757   3.699286
    11  N    4.302551   5.017250   4.778070   3.628216   2.491493
    12  C    4.684713   5.201562   4.871077   3.828742   3.055345
    13  H    2.070543   1.089315   2.169720   3.397275   3.847301
    14  H    3.357769   2.149864   1.088039   2.167901   3.409760
    15  H    3.849300   3.385346   2.157157   1.090581   2.157078
    16  H    2.059646   3.273815   3.813651   3.381587   2.166838
    17  H    4.522622   4.745563   3.981169   2.591027   2.125014
    18  H    4.977535   5.421377   4.931455   3.765225   3.049071
    19  H    3.963290   4.784055   4.754966   3.822801   2.662827
    20  H    6.573039   7.256252   6.853701   5.567860   4.591339
    21  H    5.825530   6.774129   6.712374   5.599363   4.341782
    22  H    6.279890   6.837554   6.307646   4.969135   4.125818
    23  H    6.223964   7.073979   6.884403   5.695332   4.542349
    24  H    5.337666   5.634742   5.039362   3.899596   3.434759
    25  H    5.435730   6.067120   5.864802   4.891661   4.046151
    26  H    3.979723   4.416078   4.193360   3.391224   2.774630
    27  O    2.495845   3.490561   4.760156   5.185140   4.554191
    28  O    4.144208   5.355075   5.818610   5.167495   3.838906
    29  O    3.612370   4.707496   5.590090   5.532586   4.602357
    30  H    3.079394   4.105543   5.395492   5.802528   5.103434
    31  H    5.094137   6.312078   6.748180   6.028971   4.678866
    32  H    3.649985   4.547840   5.305620   5.262831   4.483026
    33  H    1.419014   2.459053   3.711876   4.155802   3.620730
    34  H    2.886314   3.992845   5.093863   5.280788   4.474196
    35  H    3.675994   4.865495   5.601974   5.312542   4.205466
    36  H    4.038067   5.113477   5.345590   4.514889   3.183675
    37  O    4.174714   4.656470   5.113833   5.090544   4.642601
    38  H    3.954053   4.178362   4.616370   4.800979   4.606786
    39  H    5.135038   5.583136   6.021235   6.001812   5.577278
    40  O    6.864201   7.264902   7.683239   7.681597   7.295548
    41  H    7.570033   7.936403   8.227814   8.126703   7.761505
    42  H    7.364006   7.819657   8.359853   8.428928   7.998277
                    6          7          8          9         10
     6  C    0.000000
     7  C    2.525540   0.000000
     8  C    3.196256   1.539666   0.000000
     9  C    4.308694   2.438217   1.547552   0.000000
    10  C    4.311137   2.310867   2.435014   1.534319   0.000000
    11  N    3.036497   1.473005   2.360249   2.369762   1.470343
    12  C    3.646565   2.456452   3.709607   3.708798   2.446462
    13  H    3.279055   5.354927   6.147884   7.465228   7.425887
    14  H    3.813299   4.705868   5.690722   7.054520   6.936751
    15  H    3.375281   2.760928   3.847601   5.044483   4.866143
    16  H    1.089326   2.755014   3.100914   3.940603   4.009117
    17  H    3.406573   1.107666   2.168299   2.896044   2.621946
    18  H    3.853492   2.184698   1.094958   2.219625   3.229068
    19  H    2.805478   2.175642   1.096550   2.193495   3.159136
    20  H    5.266634   3.189700   2.209533   1.094524   2.183778
    21  H    4.546512   3.200283   2.187499   1.095638   2.180317
    22  H    4.992861   2.682942   2.979777   2.187527   1.105360
    23  H    4.938723   3.283045   3.358916   2.218168   1.097204
    24  H    4.331930   2.719615   4.014367   4.018997   2.748451
    25  H    4.427320   3.392052   4.438737   4.109109   2.684015
    26  H    3.172225   2.762719   4.159246   4.468051   3.392213
    27  O    3.202284   5.608178   6.083324   6.914031   6.849597
    28  O    3.211349   3.625200   3.823599   3.737145   3.425511
    29  O    3.535664   5.160352   5.806766   6.151032   5.670834
    30  H    3.713981   6.084915   6.339633   7.151691   7.256069
    31  H    4.140952   4.246397   4.263568   3.835913   3.520952
    32  H    3.603624   5.083333   5.968171   6.333480   5.657220
    33  H    2.303358   4.808405   5.335679   6.333814   6.323857
    34  H    3.194757   5.314815   5.866241   6.479868   6.237987
    35  H    3.244525   4.517241   5.043893   5.251769   4.800853
    36  H    2.905579   2.741628   3.105806   3.015777   2.528212
    37  O    4.164941   5.262290   6.468287   6.859971   5.922356
    38  H    4.175831   5.437277   6.716467   7.286755   6.411792
    39  H    5.132704   6.102947   7.315587   7.586631   6.544096
    40  O    6.883986   7.719278   8.932265   9.050445   7.888924
    41  H    7.486774   8.055611   9.301591   9.316569   8.052779
    42  H    7.460673   8.458224   9.603132   9.706719   8.595473
                   11         12         13         14         15
    11  N    0.000000
    12  C    1.458541   0.000000
    13  H    6.059521   6.176383   0.000000
    14  H    5.710245   5.679628   2.508126   0.000000
    15  H    3.908008   3.995001   4.309879   2.503266   0.000000
    16  H    2.879322   3.696620   4.127767   4.900623   4.302093
    17  H    2.108357   2.650951   5.823650   4.683154   2.347827
    18  H    3.284638   4.504782   6.445858   5.696507   3.779534
    19  H    2.867980   4.248780   5.759325   5.722393   4.297800
    20  H    3.274020   4.475983   8.319959   7.688256   5.521667
    21  H    2.921774   4.293161   7.777582   7.690604   5.885353
    22  H    2.120849   2.626937   7.914310   7.085898   4.807133
    23  H    2.116889   2.796709   8.099114   7.810827   5.847611
    24  H    2.130661   1.104925   6.620823   5.698400   3.759276
    25  H    2.094154   1.096245   6.991924   6.684773   5.087351
    26  H    2.105729   1.096354   5.315759   4.989118   3.734575
    27  O    5.605763   5.926983   3.549689   5.617085   6.264007
    28  O    2.749237   3.461632   6.160119   6.888407   5.890592
    29  O    4.531429   4.586261   5.124938   6.541330   6.459206
    30  H    6.120323   6.606565   4.118035   6.255130   6.887513
    31  H    3.216241   3.925904   7.114946   7.816094   6.685752
    32  H    4.419903   4.172121   4.969936   6.187784   6.125868
    33  H    5.033040   5.405148   2.677676   4.598603   5.243589
    34  H    5.025985   5.249815   4.252530   6.018567   6.308476
    35  H    3.776932   4.018726   5.455855   6.619376   6.183021
    36  H    1.752335   2.582207   6.028214   6.392502   5.120912
    37  O    4.618535   3.863910   5.064229   5.814381   5.777220
    38  H    5.028181   4.260631   4.467888   5.193861   5.484285
    39  H    5.333502   4.445882   5.921650   6.660014   6.627475
    40  O    6.819507   5.803556   7.509588   8.235660   8.231106
    41  H    7.085650   5.952724   8.239158   8.749179   8.574903
    42  H    7.540741   6.614347   7.983072   8.925362   9.040494
                   16         17         18         19         20
    16  H    0.000000
    17  H    3.807038   0.000000
    18  H    3.950688   2.372904   0.000000
    19  H    2.519823   3.045045   1.766185   0.000000
    20  H    4.978849   3.335090   2.395118   2.960379   0.000000
    21  H    3.934972   3.863539   2.933049   2.324971   1.765719
    22  H    4.875353   2.515700   3.490795   3.909512   2.375336
    23  H    4.457740   3.670839   4.217889   3.894656   2.799484
    24  H    4.556309   2.437925   4.598457   4.755480   4.568878
    25  H    4.272432   3.643694   5.313934   4.922756   4.860631
    26  H    3.387511   3.057388   4.943119   4.515943   5.320196
    27  O    3.013903   6.542152   6.832119   5.372521   7.968091
    28  O    2.270840   4.632448   4.905628   3.473040   4.806049
    29  O    2.999062   6.086014   6.787824   5.346936   7.243301
    30  H    3.375674   7.072863   7.061493   5.504002   8.185857
    31  H    3.178496   5.200001   5.345514   3.964607   4.825584
    32  H    3.310066   5.887265   6.926357   5.662676   7.406928
    33  H    2.405816   5.687489   5.994872   4.676264   7.349958
    34  H    2.791303   6.269851   6.741432   5.250090   7.565777
    35  H    2.505877   5.486347   6.071541   4.612991   6.340733
    36  H    2.178691   3.692869   4.193812   3.003901   4.088150
    37  O    4.235723   5.800248   7.342523   6.407420   7.859901
    38  H    4.467550   5.894183   7.497969   6.657509   8.266399
    39  H    5.147449   6.592866   8.211878   7.288069   8.569434
    40  O    6.843927   8.143471   9.849514   8.944101   9.999227
    41  H    7.456295   8.387476  10.207743   9.410381  10.210076
    42  H    7.347766   8.951354  10.549612   9.535809  10.682242
                   21         22         23         24         25
    21  H    0.000000
    22  H    3.043848   0.000000
    23  H    2.410443   1.778341   0.000000
    24  H    4.799377   2.463326   3.245852   0.000000
    25  H    4.522892   2.908270   2.585417   1.786737   0.000000
    26  H    4.985635   3.663261   3.755459   1.793990   1.772227
    27  O    6.749121   7.711167   7.094925   6.843087   6.297370
    28  O    3.378177   4.460721   3.271890   4.520334   3.427712
    29  O    5.945164   6.541836   5.607759   5.636094   4.577907
    30  H    6.867545   8.179948   7.475732   7.546850   6.958315
    31  H    3.292115   4.570299   3.090731   4.950143   3.671950
    32  H    6.281120   6.406824   5.630519   5.157642   4.160050
    33  H    6.305471   7.114097   6.724031   6.227282   5.945525
    34  H    6.281764   7.120766   6.346727   6.241727   5.462610
    35  H    4.998198   5.726813   4.695278   5.108382   3.979884
    36  H    2.914622   3.523849   2.548913   3.594522   2.693799
    37  O    7.044807   6.424085   5.972666   4.619734   3.872375
    38  H    7.553854   6.847593   6.597371   4.882815   4.460584
    39  H    7.747366   7.002097   6.476242   5.146671   4.258316
    40  O    9.177210   8.276882   7.666633   6.402468   5.393035
    41  H    9.489419   8.340929   7.781280   6.440557   5.445419
    42  H    9.748765   9.050651   8.316307   7.276044   6.168501
                   26         27         28         29         30
    26  H    0.000000
    27  O    5.195142   0.000000
    28  O    3.519467   4.101681   0.000000
    29  O    3.982971   2.412012   2.652850   0.000000
    30  H    5.965377   0.962078   4.381337   2.976217   0.000000
    31  H    4.163216   4.885682   0.959614   3.269709   5.075126
    32  H    3.428516   2.875288   3.091129   0.989918   3.629990
    33  H    4.671297   1.096258   4.040100   2.859661   1.716030
    34  H    4.563117   1.142123   3.285156   1.274534   1.764217
    35  H    3.619844   2.933299   1.667711   0.990318   3.377864
    36  H    2.802466   4.555955   0.998798   3.219339   4.945968
    37  O    2.929796   4.076459   4.219608   2.660721   4.968411
    38  H    3.213341   4.085504   4.879833   3.227600   5.031962
    39  H    3.601412   4.814985   4.856674   3.224125   5.675148
    40  O    5.091429   6.293448   6.260172   4.608024   7.095789
    41  H    5.347153   7.160392   6.749780   5.371254   7.970048
    42  H    5.909844   6.480475   6.683867   4.834850   7.215228
                   31         32         33         34         35
    31  H    0.000000
    32  H    3.742717   0.000000
    33  H    4.927565   3.137517   0.000000
    34  H    4.019272   1.870898   1.785998   0.000000
    35  H    2.301060   1.591852   3.165747   1.888322   0.000000
    36  H    1.583505   3.408617   4.271096   3.818157   2.303680
    37  O    4.866339   1.672687   4.075419   3.316862   3.074303
    38  H    5.615137   2.294641   3.964906   3.564207   3.728895
    39  H    5.379615   2.270816   4.943797   4.002416   3.682394
    40  O    6.612386   3.774397   6.568992   5.457344   5.094457
    41  H    7.033172   4.531573   7.379400   6.293102   5.746635
    42  H    6.984515   4.118291   6.899133   5.651913   5.408639
                   36         37         38         39         40
    36  H    0.000000
    37  O    4.189214   0.000000
    38  H    4.785118   0.960130   0.000000
    39  H    4.877181   0.978184   1.540246   0.000000
    40  O    6.343220   2.734890   3.108602   1.757251   0.000000
    41  H    6.751254   3.399288   3.780292   2.451489   0.960623
    42  H    6.891663   3.374969   3.747950   2.438298   0.960783
                   41         42
    41  H    0.000000
    42  H    1.535213   0.000000
 Stoichiometry    C10H25N2O5(1+)
 Framework group  C1[X(C10H25N2O5)]
 Deg. of freedom   120
 Full point group                 C1      NOp   1
 Largest Abelian subgroup         C1      NOp   1
 Largest concise Abelian subgroup C1      NOp   1
                         Standard orientation:                         
 ---------------------------------------------------------------------
 Center     Atomic      Atomic             Coordinates (Angstroms)
 Number     Number       Type             X           Y           Z
 ---------------------------------------------------------------------
      1          7           0        0.401080    2.339418    0.470981
      2          6           0        0.424758    3.204915   -0.551197
      3          6           0       -0.410358    3.054569   -1.648805
      4          6           0       -1.276294    1.962554   -1.686638
      5          6           0       -1.311030    1.061476   -0.622776
      6          6           0       -0.449639    1.308499    0.443822
      7          6           0       -2.238419   -0.129090   -0.610672
      8          6           0       -3.318416   -0.100176    0.486297
      9          6           0       -3.619415   -1.592021    0.766857
     10          6           0       -2.645981   -2.354780   -0.141305
     11          7           0       -1.545583   -1.405479   -0.364599
     12          6           0       -0.647802   -1.806317   -1.441938
     13          1           0        1.134324    4.028059   -0.476644
     14          1           0       -0.373936    3.773802   -2.464407
     15          1           0       -1.927526    1.812775   -2.548514
     16          1           0       -0.425009    0.650210    1.311394
     17          1           0       -2.733709   -0.177982   -1.600228
     18          1           0       -4.197733    0.461524    0.154292
     19          1           0       -2.931072    0.397302    1.383460
     20          1           0       -4.658196   -1.856182    0.545190
     21          1           0       -3.437792   -1.829197    1.820984
     22          1           0       -3.124821   -2.612950   -1.103532
     23          1           0       -2.262312   -3.283282    0.299761
     24          1           0       -1.174743   -1.867797   -2.411171
     25          1           0       -0.224063   -2.791030   -1.212723
     26          1           0        0.182024   -1.094975   -1.527808
     27          8           0        2.150638    1.935506    2.204516
     28          8           0       -0.078644   -1.498684    1.958697
     29          8           0        2.339097   -0.426372    1.753055
     30          1           0        1.974703    2.195248    3.114008
     31          1           0       -0.239658   -2.319617    2.428807
     32          1           0        2.625024   -0.534688    0.811540
     33          1           0        1.360627    2.249896    1.512545
     34          1           0        2.258743    0.807417    2.062481
     35          1           0        1.472440   -0.896003    1.848360
     36          1           0       -0.625864   -1.511028    1.123236
     37          8           0        2.991912   -0.671036   -0.814708
     38          1           0        3.145894    0.129278   -1.322288
     39          1           0        3.744635   -1.258691   -1.026638
     40          8           0        5.138339   -2.254929   -1.417830
     41          1           0        5.155488   -2.992822   -2.032661
     42          1           0        5.918900   -2.350483   -0.865835
 ---------------------------------------------------------------------
 Rotational constants (GHZ):           0.3970367           0.2707522           0.2201917
 Standard basis: Aug-CC-pVDZ (5D, 7F)
 There are   650 symmetry adapted cartesian basis functions of A   symmetry.
 There are   616 symmetry adapted basis functions of A   symmetry.
   616 basis functions,  1006 primitive gaussians,   650 cartesian basis functions
    69 alpha electrons       69 beta electrons
       nuclear repulsion energy      1381.9495563634 Hartrees.
 NAtoms=   42 NActive=   42 NUniq=   42 SFac= 1.00D+00 NAtFMM=   60 NAOKFM=F Big=F
 Integral buffers will be    131072 words long.
 Raffenetti 2 integral format.
 Two-electron integral symmetry is turned on.
 Nuclear repulsion after empirical dispersion term =     1381.9170897754 Hartrees.
 One-electron integrals computed using PRISM.
 NBasis=   616 RedAO= T EigKep=  1.84D-06  NBF=   616
 NBsUse=   616 1.00D-06 EigRej= -1.00D+00 NBFU=   616
 ExpMin= 2.97D-02 ExpMax= 1.17D+04 ExpMxC= 4.01D+02 IAcc=3 IRadAn=         5 AccDes= 0.00D+00
 Harris functional with IExCor= 4639 and IRadAn=       5 diagonalized for initial guess.
 HarFok:  IExCor= 4639 AccDes= 0.00D+00 IRadAn=         5 IDoV= 1 UseB2=F ITyADJ=14
 ICtDFT=  3500011 ScaDFX=  1.000000  1.000000  1.000000  1.000000
 FoFCou: FMM=F IPFlag=           0 FMFlag=      100000 FMFlg1=           0
         NFxFlg=           0 DoJE=T BraDBF=F KetDBF=T FulRan=T
         wScrn=  0.000000 ICntrl=       500 IOpCl=  0 I1Cent=   200000004 NGrid=           0
         NMat0=    1 NMatS0=      1 NMatT0=    0 NMatD0=    1 NMtDS0=    0 NMtDT0=    0
 Petite list used in FoFCou.
 Requested convergence on RMS density matrix=1.00D-08 within 128 cycles.
 Requested convergence on MAX density matrix=1.00D-06.
 Requested convergence on             energy=1.00D-06.
 No special actions if energy rises.
 SCF Done:  E(RwB97XD) =  -881.455571538     A.U. after   16 cycles
            NFock= 16  Conv=0.14D-08     -V/T= 2.0062
 DoSCS=F DFT=T ScalE2(SS,OS)=  1.000000  1.000000
 Range of M.O.s used for correlation:     1   616
 NBasis=   616 NAE=    69 NBE=    69 NFC=     0 NFV=     0
 NROrb=    616 NOA=    69 NOB=    69 NVA=   547 NVB=   547

 **** Warning!!: The largest alpha MO coefficient is  0.10654254D+03

 Symmetrizing basis deriv contribution to polar:
 IMax=3 JMax=2 DiffMx= 0.00D+00
 G2DrvN: will do    43 centers at a time, making    1 passes.
 Calling FoFCou, ICntrl=  3107 FMM=F I1Cent=   0 AccDes= 0.00D+00.
 End of G2Drv F.D. properties file   721 does not exist.
 End of G2Drv F.D. properties file   722 does not exist.
 End of G2Drv F.D. properties file   788 does not exist.
          IDoAtm=111111111111111111111111111111111111111111
          Differentiating once with respect to electric field.
                with respect to dipole field.
          Differentiating once with respect to nuclear coordinates.
 CalDSu exits because no D1Ps are significant.
          There are   129 degrees of freedom in the 1st order CPHF.  IDoFFX=6 NUNeed=     3.
    126 vectors produced by pass  0 Test12= 3.77D-14 1.00D-09 XBig12= 7.04D+01 2.99D+00.
 AX will form   126 AO Fock derivatives at one time.
    126 vectors produced by pass  1 Test12= 3.77D-14 1.00D-09 XBig12= 9.23D+00 5.27D-01.
    126 vectors produced by pass  2 Test12= 3.77D-14 1.00D-09 XBig12= 2.11D-01 6.18D-02.
    126 vectors produced by pass  3 Test12= 3.77D-14 1.00D-09 XBig12= 1.96D-03 5.10D-03.
    126 vectors produced by pass  4 Test12= 3.77D-14 1.00D-09 XBig12= 1.78D-05 3.61D-04.
    126 vectors produced by pass  5 Test12= 3.77D-14 1.00D-09 XBig12= 1.14D-07 2.29D-05.
    125 vectors produced by pass  6 Test12= 3.77D-14 1.00D-09 XBig12= 6.19D-10 1.57D-06.
     47 vectors produced by pass  7 Test12= 3.77D-14 1.00D-09 XBig12= 3.13D-12 1.16D-07.
      3 vectors produced by pass  8 Test12= 3.77D-14 1.00D-09 XBig12= 1.80D-14 1.02D-08.
      3 vectors produced by pass  9 Test12= 3.77D-14 1.00D-09 XBig12= 1.43D-15 2.63D-09.
 InvSVY:  IOpt=1 It=  1 EMax= 1.60D-14
 Solved reduced A of dimension   934 with   129 vectors.
 Isotropic polarizability for W=    0.000000      172.30 Bohr**3.
 End of Minotr F.D. properties file   721 does not exist.
 End of Minotr F.D. properties file   722 does not exist.
 End of Minotr F.D. properties file   788 does not exist.

 **********************************************************************

            Population analysis using the SCF density.

 **********************************************************************

 Orbital symmetries:
       Occupied  (A) (A) (A) (A) (A) (A) (A) (A) (A) (A) (A) (A)
                 (A) (A) (A) (A) (A) (A) (A) (A) (A) (A) (A) (A)
                 (A) (A) (A) (A) (A) (A) (A) (A) (A) (A) (A) (A)
                 (A) (A) (A) (A) (A) (A) (A) (A) (A) (A) (A) (A)
                 (A) (A) (A) (A) (A) (A) (A) (A) (A) (A) (A) (A)
                 (A) (A) (A) (A) (A) (A) (A) (A) (A)
       Virtual   (A) (A) (A) (A) (A) (A) (A) (A) (A) (A) (A) (A)
                 (A) (A) (A) (A) (A) (A) (A) (A) (A) (A) (A) (A)
                 (A) (A) (A) (A) (A) (A) (A) (A) (A) (A) (A) (A)
                 (A) (A) (A) (A) (A) (A) (A) (A) (A) (A) (A) (A)
                 (A) (A) (A) (A) (A) (A) (A) (A) (A) (A) (A) (A)
                 (A) (A) (A) (A) (A) (A) (A) (A) (A) (A) (A) (A)
                 (A) (A) (A) (A) (A) (A) (A) (A) (A) (A) (A) (A)
                 (A) (A) (A) (A) (A) (A) (A) (A) (A) (A) (A) (A)
                 (A) (A) (A) (A) (A) (A) (A) (A) (A) (A) (A) (A)
                 (A) (A) (A) (A) (A) (A) (A) (A) (A) (A) (A) (A)
                 (A) (A) (A) (A) (A) (A) (A) (A) (A) (A) (A) (A)
                 (A) (A) (A) (A) (A) (A) (A) (A) (A) (A) (A) (A)
                 (A) (A) (A) (A) (A) (A) (A) (A) (A) (A) (A) (A)
                 (A) (A) (A) (A) (A) (A) (A) (A) (A) (A) (A) (A)
                 (A) (A) (A) (A) (A) (A) (A) (A) (A) (A) (A) (A)
                 (A) (A) (A) (A) (A) (A) (A) (A) (A) (A) (A) (A)
                 (A) (A) (A) (A) (A) (A) (A) (A) (A) (A) (A) (A)
                 (A) (A) (A) (A) (A) (A) (A) (A) (A) (A) (A) (A)
                 (A) (A) (A) (A) (A) (A) (A) (A) (A) (A) (A) (A)
                 (A) (A) (A) (A) (A) (A) (A) (A) (A) (A) (A) (A)
                 (A) (A) (A) (A) (A) (A) (A) (A) (A) (A) (A) (A)
                 (A) (A) (A) (A) (A) (A) (A) (A) (A) (A) (A) (A)
                 (A) (A) (A) (A) (A) (A) (A) (A) (A) (A) (A) (A)
                 (A) (A) (A) (A) (A) (A) (A) (A) (A) (A) (A) (A)
                 (A) (A) (A) (A) (A) (A) (A) (A) (A) (A) (A) (A)
                 (A) (A) (A) (A) (A) (A) (A) (A) (A) (A) (A) (A)
                 (A) (A) (A) (A) (A) (A) (A) (A) (A) (A) (A) (A)
                 (A) (A) (A) (A) (A) (A) (A) (A) (A) (A) (A) (A)
                 (A) (A) (A) (A) (A) (A) (A) (A) (A) (A) (A) (A)
                 (A) (A) (A) (A) (A) (A) (A) (A) (A) (A) (A) (A)
                 (A) (A) (A) (A) (A) (A) (A) (A) (A) (A) (A) (A)
                 (A) (A) (A) (A) (A) (A) (A) (A) (A) (A) (A) (A)
                 (A) (A) (A) (A) (A) (A) (A) (A) (A) (A) (A) (A)
                 (A) (A) (A) (A) (A) (A) (A) (A) (A) (A) (A) (A)
                 (A) (A) (A) (A) (A) (A) (A) (A) (A) (A) (A) (A)
                 (A) (A) (A) (A) (A) (A) (A) (A) (A) (A) (A) (A)
                 (A) (A) (A) (A) (A) (A) (A) (A) (A) (A) (A) (A)
                 (A) (A) (A) (A) (A) (A) (A) (A) (A) (A) (A) (A)
                 (A) (A) (A) (A) (A) (A) (A) (A) (A) (A) (A) (A)
                 (A) (A) (A) (A) (A) (A) (A) (A) (A) (A) (A) (A)
                 (A) (A) (A) (A) (A) (A) (A) (A) (A) (A) (A) (A)
                 (A) (A) (A) (A) (A) (A) (A) (A) (A) (A) (A) (A)
                 (A) (A) (A) (A) (A) (A) (A) (A) (A) (A) (A) (A)
                 (A) (A) (A) (A) (A) (A) (A) (A) (A) (A) (A) (A)
                 (A) (A) (A) (A) (A) (A) (A) (A) (A) (A) (A) (A)
                 (A) (A) (A) (A) (A) (A) (A)
 The electronic state is 1-A.
 Alpha  occ. eigenvalues --  -19.42279 -19.40251 -19.39479 -19.38944 -19.38409
 Alpha  occ. eigenvalues --  -14.60725 -14.57394 -10.47173 -10.46926 -10.45076
 Alpha  occ. eigenvalues --  -10.44867 -10.44480 -10.43910 -10.42839 -10.42352
 Alpha  occ. eigenvalues --  -10.40477 -10.39878  -1.27929  -1.24855  -1.24250
 Alpha  occ. eigenvalues --   -1.22881  -1.22074  -1.19791  -1.16557  -1.04956
 Alpha  occ. eigenvalues --   -1.01249  -0.99526  -0.93970  -0.88604  -0.86690
 Alpha  occ. eigenvalues --   -0.85726  -0.79912  -0.78918  -0.78540  -0.77197
 Alpha  occ. eigenvalues --   -0.75407  -0.75037  -0.74464  -0.74229  -0.72719
 Alpha  occ. eigenvalues --   -0.71692  -0.70020  -0.68621  -0.66082  -0.65004
 Alpha  occ. eigenvalues --   -0.64825  -0.63559  -0.63189  -0.62884  -0.61738
 Alpha  occ. eigenvalues --   -0.61511  -0.59949  -0.58933  -0.58562  -0.57909
 Alpha  occ. eigenvalues --   -0.56948  -0.56220  -0.55133  -0.54618  -0.53464
 Alpha  occ. eigenvalues --   -0.53262  -0.53185  -0.52423  -0.52173  -0.51595
 Alpha  occ. eigenvalues --   -0.50252  -0.50012  -0.46565  -0.43872
 Alpha virt. eigenvalues --   -0.10257  -0.08404  -0.06361  -0.05172  -0.04783
 Alpha virt. eigenvalues --   -0.04510  -0.03432  -0.02948  -0.02572  -0.02450
 Alpha virt. eigenvalues --   -0.02326  -0.01478  -0.00882  -0.00823  -0.00340
 Alpha virt. eigenvalues --   -0.00004   0.00635   0.00835   0.01228   0.01641
 Alpha virt. eigenvalues --    0.01955   0.02078   0.02384   0.02450   0.02988
 Alpha virt. eigenvalues --    0.03332   0.03575   0.04020   0.04382   0.04661
 Alpha virt. eigenvalues --    0.05113   0.05299   0.05643   0.05813   0.06168
 Alpha virt. eigenvalues --    0.06618   0.06801   0.07202   0.07370   0.07463
 Alpha virt. eigenvalues --    0.07644   0.08048   0.08171   0.08246   0.08633
 Alpha virt. eigenvalues --    0.08954   0.09112   0.09420   0.09941   0.10212
 Alpha virt. eigenvalues --    0.10285   0.10918   0.11235   0.11527   0.11704
 Alpha virt. eigenvalues --    0.11749   0.12132   0.12561   0.12667   0.12694
 Alpha virt. eigenvalues --    0.12883   0.13492   0.13683   0.14028   0.14482
 Alpha virt. eigenvalues --    0.14677   0.15351   0.15502   0.15722   0.16130
 Alpha virt. eigenvalues --    0.16146   0.16388   0.16598   0.16936   0.17060
 Alpha virt. eigenvalues --    0.17381   0.17567   0.17767   0.17909   0.18142
 Alpha virt. eigenvalues --    0.18735   0.18970   0.19230   0.19408   0.19775
 Alpha virt. eigenvalues --    0.19818   0.20076   0.20466   0.20707   0.21102
 Alpha virt. eigenvalues --    0.21413   0.21761   0.22100   0.22212   0.22727
 Alpha virt. eigenvalues --    0.22846   0.23350   0.23723   0.23992   0.24747
 Alpha virt. eigenvalues --    0.24819   0.25223   0.25618   0.25849   0.26102
 Alpha virt. eigenvalues --    0.26658   0.26857   0.27105   0.27185   0.27562
 Alpha virt. eigenvalues --    0.27719   0.28211   0.28362   0.28539   0.29012
 Alpha virt. eigenvalues --    0.29185   0.29524   0.29934   0.30103   0.30406
 Alpha virt. eigenvalues --    0.30590   0.31304   0.31973   0.32337   0.32423
 Alpha virt. eigenvalues --    0.32583   0.33088   0.33922   0.34174   0.34305
 Alpha virt. eigenvalues --    0.34409   0.35331   0.35993   0.36029   0.36412
 Alpha virt. eigenvalues --    0.37032   0.37457   0.37635   0.38354   0.38525
 Alpha virt. eigenvalues --    0.38685   0.39151   0.39239   0.40136   0.40278
 Alpha virt. eigenvalues --    0.40357   0.40947   0.41020   0.41401   0.41946
 Alpha virt. eigenvalues --    0.42714   0.43014   0.43437   0.43906   0.44239
 Alpha virt. eigenvalues --    0.44529   0.44662   0.45032   0.45211   0.45726
 Alpha virt. eigenvalues --    0.46149   0.46507   0.46913   0.47004   0.47435
 Alpha virt. eigenvalues --    0.47580   0.48717   0.48869   0.49175   0.49336
 Alpha virt. eigenvalues --    0.49960   0.50073   0.50158   0.50892   0.50979
 Alpha virt. eigenvalues --    0.51447   0.51595   0.52053   0.52327   0.53039
 Alpha virt. eigenvalues --    0.53128   0.53202   0.53359   0.53993   0.54363
 Alpha virt. eigenvalues --    0.54875   0.55394   0.55611   0.55988   0.56636
 Alpha virt. eigenvalues --    0.57082   0.57465   0.58139   0.58426   0.58775
 Alpha virt. eigenvalues --    0.59114   0.59811   0.59872   0.60259   0.60368
 Alpha virt. eigenvalues --    0.60813   0.61226   0.61378   0.62123   0.62695
 Alpha virt. eigenvalues --    0.63007   0.63337   0.63659   0.64319   0.64783
 Alpha virt. eigenvalues --    0.65151   0.65410   0.65689   0.66004   0.67230
 Alpha virt. eigenvalues --    0.67458   0.67727   0.68254   0.68634   0.69166
 Alpha virt. eigenvalues --    0.69393   0.70464   0.70624   0.70748   0.70813
 Alpha virt. eigenvalues --    0.71419   0.71869   0.72499   0.72655   0.72800
 Alpha virt. eigenvalues --    0.73260   0.74172   0.74236   0.74369   0.74642
 Alpha virt. eigenvalues --    0.75885   0.76007   0.76706   0.77009   0.77280
 Alpha virt. eigenvalues --    0.78740   0.78930   0.79156   0.79437   0.80183
 Alpha virt. eigenvalues --    0.80914   0.81479   0.82336   0.82648   0.83064
 Alpha virt. eigenvalues --    0.83705   0.84168   0.84851   0.85244   0.85717
 Alpha virt. eigenvalues --    0.86178   0.86824   0.87092   0.88018   0.88681
 Alpha virt. eigenvalues --    0.89131   0.89428   0.89961   0.90786   0.90878
 Alpha virt. eigenvalues --    0.92015   0.92362   0.92505   0.93089   0.94218
 Alpha virt. eigenvalues --    0.95017   0.96229   0.96425   0.97295   0.97689
 Alpha virt. eigenvalues --    0.98029   0.99148   0.99500   1.00237   1.02003
 Alpha virt. eigenvalues --    1.02459   1.03081   1.04232   1.04472   1.04755
 Alpha virt. eigenvalues --    1.05909   1.06351   1.06679   1.07375   1.08053
 Alpha virt. eigenvalues --    1.08586   1.09826   1.11339   1.11473   1.11923
 Alpha virt. eigenvalues --    1.12572   1.13046   1.13598   1.14679   1.14880
 Alpha virt. eigenvalues --    1.15588   1.16356   1.16904   1.17494   1.19266
 Alpha virt. eigenvalues --    1.19470   1.19878   1.20351   1.21363   1.22426
 Alpha virt. eigenvalues --    1.23258   1.24017   1.24357   1.25618   1.26001
 Alpha virt. eigenvalues --    1.27484   1.28578   1.29717   1.30429   1.30617
 Alpha virt. eigenvalues --    1.30952   1.32210   1.33463   1.33779   1.34515
 Alpha virt. eigenvalues --    1.34979   1.35421   1.35672   1.36708   1.37001
 Alpha virt. eigenvalues --    1.37966   1.39517   1.40420   1.40977   1.42293
 Alpha virt. eigenvalues --    1.43041   1.43841   1.44470   1.45976   1.46964
 Alpha virt. eigenvalues --    1.47604   1.48563   1.49179   1.49401   1.50690
 Alpha virt. eigenvalues --    1.51114   1.51634   1.53357   1.54374   1.55276
 Alpha virt. eigenvalues --    1.56015   1.57215   1.58003   1.58721   1.59550
 Alpha virt. eigenvalues --    1.60774   1.61844   1.62830   1.63744   1.64286
 Alpha virt. eigenvalues --    1.64372   1.65305   1.65647   1.66224   1.67613
 Alpha virt. eigenvalues --    1.68634   1.69511   1.69846   1.70776   1.71853
 Alpha virt. eigenvalues --    1.72628   1.73042   1.73621   1.74208   1.74347
 Alpha virt. eigenvalues --    1.75148   1.75666   1.76716   1.76871   1.78061
 Alpha virt. eigenvalues --    1.78280   1.79818   1.80740   1.81739   1.82020
 Alpha virt. eigenvalues --    1.82534   1.83278   1.83985   1.84388   1.85134
 Alpha virt. eigenvalues --    1.85308   1.86248   1.86625   1.87101   1.88449
 Alpha virt. eigenvalues --    1.88662   1.89463   1.90678   1.91063   1.91661
 Alpha virt. eigenvalues --    1.92217   1.92745   1.94058   1.95246   1.96025
 Alpha virt. eigenvalues --    1.96616   1.96688   1.97771   1.98550   1.99326
 Alpha virt. eigenvalues --    2.00503   2.01173   2.01629   2.02201   2.02496
 Alpha virt. eigenvalues --    2.03987   2.04965   2.07150   2.07566   2.07795
 Alpha virt. eigenvalues --    2.08556   2.10502   2.10948   2.11853   2.12414
 Alpha virt. eigenvalues --    2.13399   2.14767   2.14885   2.15238   2.15775
 Alpha virt. eigenvalues --    2.17714   2.18079   2.19083   2.19689   2.20611
 Alpha virt. eigenvalues --    2.21273   2.21718   2.22558   2.24140   2.24618
 Alpha virt. eigenvalues --    2.24999   2.25800   2.27622   2.28094   2.28449
 Alpha virt. eigenvalues --    2.30483   2.30558   2.30739   2.32540   2.34257
 Alpha virt. eigenvalues --    2.34455   2.35925   2.37404   2.38727   2.40364
 Alpha virt. eigenvalues --    2.40742   2.42146   2.43108   2.43634   2.45126
 Alpha virt. eigenvalues --    2.46587   2.47728   2.48080   2.49371   2.51570
 Alpha virt. eigenvalues --    2.52236   2.53072   2.54130   2.56083   2.56774
 Alpha virt. eigenvalues --    2.57249   2.58116   2.58861   2.59533   2.60449
 Alpha virt. eigenvalues --    2.62065   2.62967   2.63703   2.64473   2.65826
 Alpha virt. eigenvalues --    2.66998   2.67470   2.67882   2.69129   2.70443
 Alpha virt. eigenvalues --    2.70720   2.72011   2.74068   2.74781   2.76601
 Alpha virt. eigenvalues --    2.76894   2.78608   2.80515   2.80863   2.82119
 Alpha virt. eigenvalues --    2.83642   2.84397   2.85335   2.87044   2.88240
 Alpha virt. eigenvalues --    2.89582   2.92293   2.92806   2.93548   2.94970
 Alpha virt. eigenvalues --    2.95455   3.00643   3.01210   3.04086   3.05990
 Alpha virt. eigenvalues --    3.08548   3.11352   3.15541   3.17859   3.26045
 Alpha virt. eigenvalues --    3.28425   3.31336   3.34577   3.35235   3.37162
 Alpha virt. eigenvalues --    3.38875   3.40005   3.41595   3.43301   3.43953
 Alpha virt. eigenvalues --    3.45597   3.46860   3.47437   3.48251   3.52369
 Alpha virt. eigenvalues --    3.54241   3.65589   3.67458   3.67661   3.72170
 Alpha virt. eigenvalues --    3.79795   3.82511   3.88762   3.91254   3.95297
 Alpha virt. eigenvalues --    3.99195   4.05654   4.09092   4.12911   4.22636
 Alpha virt. eigenvalues --    4.37478   5.01021
          Condensed to atoms (all electrons):
               1          2          3          4          5          6
     1  N    8.933279   0.083618   0.335309  -0.737623  -0.047189  -1.604034
     2  C    0.083618  10.203198  -2.579058   1.355772  -0.759853  -1.339512
     3  C    0.335309  -2.579058  11.968337  -4.569246   0.518779  -0.176469
     4  C   -0.737623   1.355772  -4.569246  24.576183 -10.698876  -2.181635
     5  C   -0.047189  -0.759853   0.518779 -10.698876  27.873304  -4.037934
     6  C   -1.604034  -1.339512  -0.176469  -2.181635  -4.037934  17.777801
     7  C    0.728945  -0.899998   0.560920  -0.422083 -11.607934  -1.473346
     8  C   -0.062558  -0.119774   0.018062   0.111442  -0.429096  -0.753665
     9  C    0.020994   0.017107  -0.023321  -0.072141   0.583336  -0.052395
    10  C    0.023802  -0.022551  -0.031453   0.183858  -0.825278  -0.145726
    11  N   -0.096929   0.138637  -0.210951  -0.532015   2.413304   0.550018
    12  C    0.003736  -0.020618   0.056066  -0.326218   0.883473  -0.153253
    13  H   -0.203843  -0.520710   0.060858   0.284031  -0.110332   0.185553
    14  H   -0.049394   0.406945  -1.237381   0.657649  -0.061324  -0.049467
    15  H   -0.086141  -0.183627   0.737196  -2.524055   1.042171   0.217620
    16  H    0.113415  -0.224554   0.119469  -0.321089  -0.930093  -1.176519
    17  H    0.005845   0.050110  -0.039269   0.018003   1.172210  -0.234306
    18  H   -0.011786  -0.004160  -0.002424  -0.105503   0.468743   0.268427
    19  H    0.003275   0.014708  -0.022993   0.125160  -0.003772  -0.137999
    20  H   -0.002668   0.002948  -0.001846   0.001565   0.027959   0.037283
    21  H    0.003944  -0.001491  -0.001185   0.000149  -0.111565  -0.036819
    22  H   -0.001370  -0.002452   0.000264   0.016905   0.196343   0.032452
    23  H    0.000043  -0.000156  -0.001813   0.043298  -0.252326  -0.018177
    24  H   -0.003667   0.018179  -0.017609  -0.011973   0.274797   0.035643
    25  H    0.005885  -0.005657   0.010755  -0.059938   0.079073  -0.085236
    26  H   -0.017774  -0.045821   0.054536   0.148373  -0.264122   0.080786
    27  O   -0.010002   0.023072  -0.007861   0.012081  -0.104384  -0.146275
    28  O    0.025795  -0.015223   0.012391  -0.023576  -0.044613  -0.097602
    29  O    0.000791   0.047932  -0.008858   0.009564  -0.012723  -0.080249
    30  H    0.000487  -0.028020   0.012328  -0.004655   0.011539  -0.002011
    31  H   -0.003845   0.002184  -0.000616   0.002782   0.009831   0.030521
    32  H    0.005904  -0.006344   0.009974  -0.000288  -0.014666   0.029301
    33  H    0.295593   0.010842  -0.067692   0.002504  -0.044423  -0.154744
    34  H   -0.001907  -0.000003   0.000723  -0.002811   0.027416  -0.027482
    35  H   -0.007636   0.003319  -0.007041   0.008389  -0.010874   0.008697
    36  H    0.047584  -0.017031   0.021990  -0.070926  -0.067322  -0.158162
    37  O    0.031942   0.008773   0.006082  -0.032372   0.076854  -0.078099
    38  H    0.011297  -0.009501   0.010277  -0.010447   0.006188  -0.016973
    39  H   -0.002187   0.004446  -0.005394   0.000683   0.003101   0.007013
    40  O    0.000033  -0.000291   0.000223  -0.000114   0.000982  -0.001502
    41  H   -0.000037   0.000001  -0.000011   0.000094  -0.000049   0.000064
    42  H    0.000006  -0.000146   0.000091  -0.000067  -0.000040   0.000238
               7          8          9         10         11         12
     1  N    0.728945  -0.062558   0.020994   0.023802  -0.096929   0.003736
     2  C   -0.899998  -0.119774   0.017107  -0.022551   0.138637  -0.020618
     3  C    0.560920   0.018062  -0.023321  -0.031453  -0.210951   0.056066
     4  C   -0.422083   0.111442  -0.072141   0.183858  -0.532015  -0.326218
     5  C  -11.607934  -0.429096   0.583336  -0.825278   2.413304   0.883473
     6  C   -1.473346  -0.753665  -0.052395  -0.145726   0.550018  -0.153253
     7  C   28.838226  -0.889059  -0.248690  -0.057176  -6.679795  -1.358555
     8  C   -0.889059   8.434593  -0.967421   0.761445  -1.169440  -0.177505
     9  C   -0.248690  -0.967421   6.252822   0.023058  -0.280389   0.041494
    10  C   -0.057176   0.761445   0.023058   5.963551  -0.378503  -0.237640
    11  N   -6.679795  -1.169440  -0.280389  -0.378503  16.034133   1.189805
    12  C   -1.358555  -0.177505   0.041494  -0.237640   1.189805   4.917399
    13  H   -0.023593   0.006217   0.000372  -0.000530   0.008187   0.001432
    14  H    0.056792  -0.006155   0.000130  -0.000220  -0.002170  -0.006085
    15  H   -0.071328  -0.024440  -0.005205  -0.000086   0.007008   0.043206
    16  H   -0.110887   0.140103  -0.008021   0.062656  -0.140522   0.028445
    17  H   -2.869344   0.742767  -0.061346   0.024458  -0.357400  -0.059998
    18  H   -0.061259  -1.128178   0.203390  -0.220896   0.461169   0.083152
    19  H   -0.218286  -0.126203   0.300050   0.054269  -0.115427  -0.039382
    20  H   -0.055014   0.207377  -0.237100   0.145000  -0.137621  -0.032543
    21  H    0.252074   0.256265  -0.404957  -0.053998   0.120932   0.013098
    22  H    0.094158   0.001444  -0.022090  -0.323723  -0.269305  -0.049337
    23  H    0.652284   0.113467   0.117149  -0.111996  -1.208936  -0.151399
    24  H   -0.345087   0.041659   0.016880   0.060423  -0.548790   0.145557
    25  H    0.154669  -0.078594   0.069893  -0.013460  -0.219490   0.122259
    26  H    0.042834   0.122309  -0.053200  -0.026246   0.074295   0.183336
    27  O    0.004225  -0.007920  -0.001266  -0.000785   0.002042   0.002943
    28  O    0.108617   0.011266   0.002045   0.036218  -0.083390  -0.020453
    29  O   -0.016499   0.005645   0.000057   0.006847  -0.020624  -0.006432
    30  H   -0.003007   0.002602  -0.000119   0.000533   0.000892   0.000268
    31  H   -0.054760   0.024076  -0.013043   0.032860  -0.036186   0.019406
    32  H   -0.016718   0.001454  -0.001535   0.003525   0.020611  -0.004401
    33  H    0.032919  -0.026860   0.000170  -0.002486  -0.002256  -0.000955
    34  H    0.003306  -0.000880  -0.000238  -0.002835   0.000911   0.002093
    35  H    0.026029   0.002188   0.007993   0.008192  -0.034859  -0.012479
    36  H    0.621320  -0.060209  -0.005845  -0.206584  -0.196737  -0.152500
    37  O   -0.051222  -0.003131   0.000613  -0.005917   0.008709   0.002004
    38  H    0.010437  -0.000464  -0.000201  -0.000138  -0.002913  -0.002114
    39  H   -0.002331  -0.000646   0.000562  -0.000151   0.002996   0.001895
    40  O   -0.000215  -0.000022   0.000005  -0.000051  -0.000468   0.000781
    41  H   -0.000178   0.000010   0.000006   0.000031  -0.000172   0.000206
    42  H    0.000249  -0.000004  -0.000010  -0.000019  -0.000038  -0.000168
              13         14         15         16         17         18
     1  N   -0.203843  -0.049394  -0.086141   0.113415   0.005845  -0.011786
     2  C   -0.520710   0.406945  -0.183627  -0.224554   0.050110  -0.004160
     3  C    0.060858  -1.237381   0.737196   0.119469  -0.039269  -0.002424
     4  C    0.284031   0.657649  -2.524055  -0.321089   0.018003  -0.105503
     5  C   -0.110332  -0.061324   1.042171  -0.930093   1.172210   0.468743
     6  C    0.185553  -0.049467   0.217620  -1.176519  -0.234306   0.268427
     7  C   -0.023593   0.056792  -0.071328  -0.110887  -2.869344  -0.061259
     8  C    0.006217  -0.006155  -0.024440   0.140103   0.742767  -1.128178
     9  C    0.000372   0.000130  -0.005205  -0.008021  -0.061346   0.203390
    10  C   -0.000530  -0.000220  -0.000086   0.062656   0.024458  -0.220896
    11  N    0.008187  -0.002170   0.007008  -0.140522  -0.357400   0.461169
    12  C    0.001432  -0.006085   0.043206   0.028445  -0.059998   0.083152
    13  H    2.188911  -0.118667  -0.004937   0.003607   0.001470   0.001045
    14  H   -0.118667   2.136626  -0.131888  -0.006838   0.000802  -0.001782
    15  H   -0.004937  -0.131888   3.070903  -0.007199  -0.162133   0.008308
    16  H    0.003607  -0.006838  -0.007199   5.025416  -0.049071   0.063185
    17  H    0.001470   0.000802  -0.162133  -0.049071   3.659714  -0.355924
    18  H    0.001045  -0.001782   0.008308   0.063185  -0.355924   2.646796
    19  H    0.000928  -0.000007   0.000913  -0.182924   0.223240  -0.665084
    20  H    0.000062  -0.000074   0.003025  -0.004955   0.065772  -0.318803
    21  H   -0.000056   0.000019  -0.001335   0.023405  -0.058097   0.185545
    22  H    0.000085  -0.000274   0.001504   0.014902  -0.082997   0.060503
    23  H   -0.000015   0.000019  -0.001722  -0.018118   0.091653  -0.041106
    24  H    0.000008  -0.000289   0.008149   0.012627   0.087306   0.009309
    25  H    0.000283  -0.000738  -0.000223  -0.015352   0.019578   0.000947
    26  H    0.001815  -0.001756   0.001719   0.003579   0.020862  -0.001447
    27  O    0.009875   0.000516  -0.000417  -0.010738   0.000295   0.000034
    28  O   -0.000883   0.000404  -0.001776   0.072409   0.000172   0.000383
    29  O    0.002453  -0.000276   0.000642   0.039055  -0.000567   0.000324
    30  H    0.004494  -0.000661   0.000423   0.009444  -0.000158  -0.000025
    31  H    0.000132  -0.000065   0.000646   0.007729  -0.000166   0.001992
    32  H    0.003737  -0.000712   0.001780  -0.009472  -0.000860   0.000369
    33  H   -0.122405   0.014555  -0.001663  -0.060100  -0.002535   0.000680
    34  H    0.001807   0.000007  -0.001402   0.007167   0.000663  -0.000175
    35  H   -0.001864   0.000493  -0.000602   0.002728   0.001306  -0.000829
    36  H   -0.001881   0.001291  -0.011455  -0.084961   0.003439  -0.021528
    37  O   -0.000062   0.000286  -0.001206   0.003292  -0.000806   0.000008
    38  H   -0.000624  -0.001051   0.000288   0.000599   0.000060  -0.000081
    39  H   -0.000543   0.000299  -0.000197   0.000561  -0.000090   0.000037
    40  O   -0.000035   0.000012  -0.000019  -0.000473  -0.000003   0.000001
    41  H    0.000005  -0.000003   0.000012   0.000096  -0.000025   0.000001
    42  H   -0.000012   0.000004  -0.000008  -0.000043   0.000022  -0.000001
              19         20         21         22         23         24
     1  N    0.003275  -0.002668   0.003944  -0.001370   0.000043  -0.003667
     2  C    0.014708   0.002948  -0.001491  -0.002452  -0.000156   0.018179
     3  C   -0.022993  -0.001846  -0.001185   0.000264  -0.001813  -0.017609
     4  C    0.125160   0.001565   0.000149   0.016905   0.043298  -0.011973
     5  C   -0.003772   0.027959  -0.111565   0.196343  -0.252326   0.274797
     6  C   -0.137999   0.037283  -0.036819   0.032452  -0.018177   0.035643
     7  C   -0.218286  -0.055014   0.252074   0.094158   0.652284  -0.345087
     8  C   -0.126203   0.207377   0.256265   0.001444   0.113467   0.041659
     9  C    0.300050  -0.237100  -0.404957  -0.022090   0.117149   0.016880
    10  C    0.054269   0.145000  -0.053998  -0.323723  -0.111996   0.060423
    11  N   -0.115427  -0.137621   0.120932  -0.269305  -1.208936  -0.548790
    12  C   -0.039382  -0.032543   0.013098  -0.049337  -0.151399   0.145557
    13  H    0.000928   0.000062  -0.000056   0.000085  -0.000015   0.000008
    14  H   -0.000007  -0.000074   0.000019  -0.000274   0.000019  -0.000289
    15  H    0.000913   0.003025  -0.001335   0.001504  -0.001722   0.008149
    16  H   -0.182924  -0.004955   0.023405   0.014902  -0.018118   0.012627
    17  H    0.223240   0.065772  -0.058097  -0.082997   0.091653   0.087306
    18  H   -0.665084  -0.318803   0.185545   0.060503  -0.041106   0.009309
    19  H    2.310229   0.201864  -0.435839  -0.057391   0.056889   0.002199
    20  H    0.201864   2.130342  -0.621140  -0.247538   0.121745   0.005481
    21  H   -0.435839  -0.621140   2.253664   0.189520  -0.317224  -0.004941
    22  H   -0.057391  -0.247538   0.189520   2.500443  -0.568439   0.022734
    23  H    0.056889   0.121745  -0.317224  -0.568439   2.951101   0.027669
    24  H    0.002199   0.005481  -0.004941   0.022734   0.027669   2.191780
    25  H   -0.007444  -0.003194   0.011459   0.002759  -0.011405  -0.396242
    26  H    0.016875  -0.003751  -0.006845   0.016676   0.013879  -0.400954
    27  O   -0.001551  -0.000091  -0.000223  -0.000061   0.000023   0.000465
    28  O   -0.011064  -0.004325   0.006012   0.000062   0.036578  -0.003272
    29  O    0.001336  -0.000207   0.001128   0.000101   0.001667   0.000203
    30  H    0.001141  -0.000011  -0.000064   0.000024   0.000004  -0.000112
    31  H    0.003603  -0.000571   0.003372   0.002565  -0.000893   0.005174
    32  H    0.000282  -0.000188   0.000078   0.000427  -0.001087  -0.001018
    33  H   -0.006267   0.000116   0.000005  -0.000044   0.000466   0.001222
    34  H   -0.000035   0.000088  -0.000167  -0.000131  -0.000004   0.000391
    35  H    0.001909  -0.000093  -0.000995  -0.000698   0.004121  -0.002229
    36  H    0.009969   0.006460   0.024963   0.018869   0.052552  -0.039758
    37  O   -0.001206   0.000032   0.000084  -0.000158  -0.001951   0.009180
    38  H   -0.000020   0.000029  -0.000033  -0.000206   0.000143  -0.000922
    39  H   -0.000270   0.000011   0.000075   0.000086  -0.000138   0.000770
    40  O    0.000000  -0.000001  -0.000003   0.000006  -0.000057  -0.000053
    41  H    0.000001   0.000000   0.000001   0.000000   0.000012   0.000126
    42  H    0.000007  -0.000001  -0.000002   0.000001   0.000004  -0.000080
              25         26         27         28         29         30
     1  N    0.005885  -0.017774  -0.010002   0.025795   0.000791   0.000487
     2  C   -0.005657  -0.045821   0.023072  -0.015223   0.047932  -0.028020
     3  C    0.010755   0.054536  -0.007861   0.012391  -0.008858   0.012328
     4  C   -0.059938   0.148373   0.012081  -0.023576   0.009564  -0.004655
     5  C    0.079073  -0.264122  -0.104384  -0.044613  -0.012723   0.011539
     6  C   -0.085236   0.080786  -0.146275  -0.097602  -0.080249  -0.002011
     7  C    0.154669   0.042834   0.004225   0.108617  -0.016499  -0.003007
     8  C   -0.078594   0.122309  -0.007920   0.011266   0.005645   0.002602
     9  C    0.069893  -0.053200  -0.001266   0.002045   0.000057  -0.000119
    10  C   -0.013460  -0.026246  -0.000785   0.036218   0.006847   0.000533
    11  N   -0.219490   0.074295   0.002042  -0.083390  -0.020624   0.000892
    12  C    0.122259   0.183336   0.002943  -0.020453  -0.006432   0.000268
    13  H    0.000283   0.001815   0.009875  -0.000883   0.002453   0.004494
    14  H   -0.000738  -0.001756   0.000516   0.000404  -0.000276  -0.000661
    15  H   -0.000223   0.001719  -0.000417  -0.001776   0.000642   0.000423
    16  H   -0.015352   0.003579  -0.010738   0.072409   0.039055   0.009444
    17  H    0.019578   0.020862   0.000295   0.000172  -0.000567  -0.000158
    18  H    0.000947  -0.001447   0.000034   0.000383   0.000324  -0.000025
    19  H   -0.007444   0.016875  -0.001551  -0.011064   0.001336   0.001141
    20  H   -0.003194  -0.003751  -0.000091  -0.004325  -0.000207  -0.000011
[...]
 0140,-0.00000093,-0.00000483,0.00000222,0.00000296,-0.00000888,-0.0000
 1037,0.00000174,-0.00000492,0.00000383,-0.00000037,0.00000822,0.000000
 05,0.00000261,-0.00001680,-0.00001007,-0.00002666,0.00001347,-0.000011
 29,0.00003668,0.00001553,-0.00050186,0.00019899,-0.00009872,-0.0002783
 4,-0.00001210,-0.00012076,0.00001527,-0.00070295,0.00006840,0.00005359
 ,-0.00003404,-0.00003091,0.00003498,0.00000036,0.00000770,0.00048402,0
 .00214753,-0.00191675,0.00054418,-0.00016058,0.00033721,0.00044815,-0.
 00014736,-0.00024166,0.00042848,0.00001513,0.00004483,0.00012484,-0.00
 005345,0.00013784,0.13814268,0.22370611,-0.31377257,-0.14989468,-0.230
 71191,0.32628327,0.00029977,-0.00007632,0.00011297,0.00002605,0.000111
 84,-0.00002695,-0.00000672,-0.00001399,0.00000321,-0.00000523,0.000040
 05,-0.00002162,0.00003639,-0.00006641,0.00005182,-0.00009217,-0.000037
 32,-0.00004956,-0.00007560,0.00005954,0.00000364,-0.00001243,0.0000102
 5,0.00000072,-0.00000150,-0.00000144,-0.00000792,-0.00010655,-0.000083
 64,0.00000924,0.00027271,-0.00001757,0.00009099,-0.00005826,-0.0000122
 4,-0.00001932,-0.00001646,0.00001361,0.00000641,0.00000182,0.00000306,
 0.00000849,0.00000271,0.00000677,0.00000715,-0.00006628,0.00003353,0.0
 0002804,0.00003288,-0.00001313,0.00001748,0.00001769,-0.00000555,0.000
 00343,-0.00001160,0.00001002,0.00001401,0.00002544,-0.00000026,0.00000
 150,-0.00001949,-0.00000531,0.00000937,0.00003465,0.00000070,0.0000185
 0,-0.00001535,-0.00001044,-0.00000500,0.00006007,-0.00000807,0.0000034
 9,-0.00003972,-0.00004297,-0.00002107,-0.00001817,0.00005542,-0.000020
 33,0.00038776,-0.00117002,-0.00014053,0.00078900,0.00001957,-0.0000147
 0,0.00195655,-0.00105096,-0.00079010,0.00008784,0.00004707,0.00012776,
 -0.00011674,-0.00004161,0.00012979,-0.00436951,0.00160726,0.00066761,-
 0.00056977,0.00019598,-0.00028053,-0.00025991,0.00192232,0.00053253,-0
 .00082964,-0.00031897,-0.00003259,-0.00035862,0.00014668,-0.00022477,-
 0.28060279,0.20610983,-0.10431244,0.01373234,-0.01573285,0.01044900,0.
 26996079,-0.00039191,0.00007324,-0.00016975,-0.00001323,-0.00012475,0.
 00005283,-0.00001881,0.00000409,-0.00001856,0.00000426,-0.00003066,0.0
 0001213,-0.00001429,0.00007110,-0.00004443,0.00008412,0.00006874,0.000
 02775,0.00006183,0.00000958,0.00001387,0.00002077,-0.00001659,-0.00000
 406,-0.00001062,0.00000319,0.00000948,0.00007766,0.00010871,-0.0000197
 0,-0.00019885,-0.00005524,-0.00005917,0.00004337,0.00005735,0.00001497
 ,0.00001983,-0.00001637,-0.00000294,-0.00000345,-0.00000369,-0.0000083
 4,-0.00000443,-0.00000182,-0.00000835,0.00007520,-0.00000045,-0.000020
 22,-0.00002435,-0.00000037,-0.00001384,-0.00001125,0.00000007,-0.00000
 415,0.00000522,-0.00000800,-0.00001804,-0.00002046,-0.00000395,-0.0000
 0042,0.00001575,0.00000213,-0.00000089,-0.00002743,-0.00000736,-0.0000
 1356,0.00001461,-0.00000829,0.00000497,-0.00004776,-0.00000130,0.00000
 025,0.00003035,0.00002656,0.00001138,0.00001719,-0.00005567,0.00002431
 ,-0.00060942,0.00109997,-0.00000661,-0.00061458,-0.00033229,0.00003151
 ,-0.00250604,0.00122683,0.00211331,0.00000832,-0.00005237,-0.00012884,
 -0.00010894,0.00011710,-0.00005631,0.00457631,-0.00236528,-0.00345756,
 0.00078682,-0.00024875,0.00041027,0.00029920,-0.00172110,-0.00030534,0
 .00105248,0.00083960,-0.00026452,0.00021000,-0.00008298,0.00012098,0.1
 7212052,-0.16924770,0.10072644,0.01750637,-0.01221883,0.00626232,-0.18
 743937,0.18692627,0.00011847,-0.00002821,0.00002623,0.00000784,0.00005
 151,-0.00001074,-0.00000027,-0.00000588,-0.00000054,-0.00000324,0.0000
 1744,-0.00000709,0.00001016,-0.00003447,0.00001893,-0.00003823,-0.0000
 1638,-0.00002342,-0.00003523,0.00002519,-0.00000176,-0.00000116,0.0000
 0546,0.00000421,0.00000564,-0.00000343,0.00000216,-0.00004378,-0.00004
 937,0.00000977,0.00010660,0.00000419,0.00000240,-0.00004232,-0.0000047
 6,0.00001777,-0.00000715,0.00000784,0.00000598,-0.00000080,0.00000297,
 0.00000526,-0.00000023,0.00000236,0.00000401,-0.00003590,0.00000856,0.
 00001986,0.00001154,-0.00000344,0.00000530,0.00000774,-0.00000172,0.00
 000024,-0.00000608,0.00000032,0.00000625,0.00001135,0.00000079,-0.0000
 0139,-0.00000956,0.00000021,-0.00000138,0.00001203,0.00000319,0.000004
 09,-0.00000487,-0.00000230,0.00000229,0.00002693,-0.00000272,-0.000005
 96,-0.00002197,-0.00002792,-0.00000385,-0.00000952,0.00003599,-0.00001
 106,0.00008898,-0.00068462,-0.00013056,0.00032854,0.00015275,-0.000115
 65,0.00380299,-0.00123404,-0.00503053,0.00010470,-0.00000892,0.0000876
 6,0.00007501,-0.00004075,0.00009768,-0.00336218,-0.00028252,0.00905908
 ,-0.00020356,0.00007288,-0.00007574,-0.00006361,0.00122030,0.00026905,
 -0.00046084,-0.00046813,-0.00007954,-0.00010062,0.00005827,-0.00002751
 ,-0.06847153,0.08630715,-0.08153862,-0.02619982,0.02040471,-0.01092594
 ,0.09287954,-0.10186423,0.09373871,-0.00020409,0.00005832,-0.00009171,
 -0.00003446,-0.00007838,0.00001020,0.00001944,0.00002066,-0.00000069,0
 .00000223,-0.00003883,0.00002050,-0.00004451,0.00004862,-0.00005012,0.
 00007412,0.00000756,0.00005849,0.00005806,-0.00006706,-0.00000900,0.00
 001161,-0.00000277,0.00000647,0.00001048,-0.00000215,0.00000985,0.0000
 8387,0.00003841,0.00000148,-0.00022102,0.00004783,-0.00009750,0.000034
 73,-0.00000715,0.00003377,0.00000853,-0.00000413,-0.00000050,-0.000003
 31,-0.00000039,-0.00000581,-0.00000224,-0.00000605,-0.00000287,0.00004
 965,-0.00003472,-0.00001827,-0.00002802,0.00001506,-0.00001608,-0.0000
 1509,0.00000619,-0.00000407,0.00000880,-0.00001057,-0.00000941,-0.0000
 1857,0.00000212,-0.00000376,0.00001384,0.00000566,-0.00001441,-0.00002
 774,0.00000333,-0.00001714,0.00001044,0.00001652,0.00000722,-0.0000459
 5,0.00000837,-0.00000784,0.00002587,0.00002935,0.00001852,0.00001528,-
 0.00003106,0.00001515,-0.00026084,0.00095110,0.00004558,-0.00063131,0.
 00006738,-0.00006695,-0.00137512,0.00114981,0.00105354,-0.00005891,-0.
 00005842,-0.00007158,0.00014515,-0.00001072,-0.00006074,0.00176477,-0.
 00090109,-0.00172139,0.00040178,-0.00015001,0.00022121,0.00015464,-0.0
 0158336,-0.00027624,0.00060817,0.00018477,0.00001569,0.00033220,-0.000
 13963,0.00022118,-0.00725411,0.00992993,-0.00407319,-0.00173496,0.0003
 6994,0.00029500,-0.00380724,-0.00243390,-0.00112162,0.33750466,0.00026
 274,-0.00004544,0.00011938,-0.00000528,0.00007369,-0.00003754,0.000025
 17,0.00000378,0.00001361,-0.00000257,0.00001128,-0.00000245,-0.0000011
 3,-0.00003950,0.00002360,-0.00004557,-0.00004910,-0.00000906,-0.000031
 91,-0.00002771,-0.00001345,-0.00001384,0.00001271,0.00000427,0.0000091
 4,-0.00000316,-0.00000609,-0.00004274,-0.00007025,0.00001564,0.0001013
 3,0.00005056,0.00003413,-0.00001757,-0.00003752,-0.00001545,-0.0000134
 5,0.00001111,0.00000008,0.00000101,0.00000208,0.00000446,0.00000395,-0
 .00000079,0.00000488,-0.00004220,-0.00000933,0.00000575,0.00001241,0.0
 0000366,0.00000700,0.00000437,0.00000139,0.00000272,-0.00000117,0.0000
 0380,0.00001254,0.00001184,0.00000323,0.00000045,-0.00000949,-0.000001
 38,-0.00000174,0.00001593,0.00000530,0.00000723,-0.00001026,0.00000935
 ,-0.00000302,0.00002077,0.00000051,0.00000212,-0.00001426,-0.00000643,
 -0.00000489,-0.00000338,0.00002546,-0.00001355,0.00043285,-0.00053066,
 0.00005104,0.00034062,0.00021711,0.00000951,0.00132585,-0.00040352,-0.
 00089635,-0.00004807,0.00002874,0.00005992,0.00006309,-0.00008650,0.00
 002687,-0.00172459,0.00054899,0.00150061,-0.00053602,0.00015844,-0.000
 28350,-0.00020102,0.00079321,0.00015007,-0.00061712,-0.00045605,0.0000
 2359,-0.00009602,0.00003515,-0.00006835,0.00944188,-0.00319266,0.00481
 247,0.00039304,-0.00001942,-0.00065062,-0.00144932,-0.00754504,-0.0037
 5730,-0.05388369,0.53883461,0.00002414,-0.00000516,0.00004324,0.000007
 80,0.00000009,-0.00000115,-0.00000411,-0.00000478,0.00000857,0.0000032
 1,0.00000371,-0.00000016,0.00000796,0.00000224,0.00000986,-0.00000976,
 0.00000845,-0.00001127,0.00000913,-0.00001568,-0.00000002,-0.00000620,
 -0.00000130,-0.00000525,-0.00000924,0.00000552,-0.00001006,0.00000940,
 0.00002204,-0.00000743,-0.00001394,-0.00000910,0.00005714,0.00003657,-
 0.00000516,-0.00004845,0.00000305,-0.00000690,-0.00000929,0.00000479,-
 0.00000421,-0.00000421,0.00000402,-0.00000180,-0.00000298,0.00000258,0
 .00000272,-0.00001436,0.00000160,-0.00000044,0.00000213,-0.00000270,0.
 00000017,0.00000241,0.00000397,0.00000518,0.00000014,-0.00000385,-0.00
 000077,0.00000338,0.00000392,-0.00000343,0.00000779,0.00000204,-0.0000
 0347,0.00000365,-0.00000020,0.00000032,-0.00000918,-0.00000704,0.00000
 080,0.00001250,0.00001270,0.00002225,-0.00000483,0.00000472,-0.0000264
 1,-0.00000006,0.00007747,0.00007568,0.00012875,0.00001473,-0.00005634,
 0.00017846,-0.00058447,0.00016200,0.00103326,-0.00005840,0.00003125,-0
 .00005851,-0.00006108,0.00002008,-0.00009517,0.00107228,-0.00031448,-0
 .00168562,-0.00008451,0.00002686,-0.00008475,-0.00002050,-0.00019137,-
 0.00011814,0.00005367,0.00012771,-0.00010560,-0.00004052,0.00001110,-0
 .00007738,-0.00465438,0.00546430,0.00244685,0.00020828,-0.00054002,0.0
 0013107,-0.00167442,-0.00381106,-0.00645171,0.25615659,0.23480696,0.33
 908146,-0.00001212,-0.00000636,-0.00000373,0.00001060,0.00000011,0.000
 00826,-0.00001278,-0.00000658,-0.00000505,-0.00000095,0.00000803,-0.00
 000686,0.00001749,-0.00000062,0.00000911,-0.00000880,0.00000963,-0.000
 01466,-0.00001178,0.00003568,0.00000719,0.00000095,-0.00000335,-0.0000
 0365,-0.00000737,0.00000069,-0.00000051,-0.00001854,0.00001479,-0.0000
 0702,0.00004701,-0.00003757,0.00001976,-0.00001059,0.00002275,-0.00000
 396,0.00000028,-0.00000135,0.,-0.00000003,-0.00000053,0.00000062,-0.00
 000066,0.00000309,-0.00000049,0.00000028,0.00001579,0.00000273,0.00000
 608,-0.00000669,0.00000387,0.00000421,-0.00000325,0.00000020,-0.000002
 76,0.00000203,-0.00000110,0.00000326,-0.00000170,0.00000082,-0.0000021
 5,-0.00000119,0.00000573,0.00000466,-0.00000396,0.00000430,-0.00000070
 ,-0.00001074,-0.00000044,0.00001020,-0.00000485,0.00000109,-0.00000565
 ,-0.00000981,-0.00000537,-0.00000382,0.00000221,-0.00000058,-0.0000272
 8,-0.00006613,-0.00001229,0.00008562,-0.00012405,0.00000795,-0.0001507
 8,-0.00013182,0.00009509,0.00001320,0.00000990,0.00000106,-0.00008268,
 0.00004482,0.00002294,0.00022044,0.00001090,-0.00018021,0.00002696,0.,
 0.00001030,0.00000648,0.00011708,0.00001300,0.00005601,0.00013012,0.00
 000239,-0.00008589,0.00003646,-0.00004920,-0.00204570,0.00078051,-0.00
 151294,-0.00017861,0.00010086,-0.00003915,0.00363256,-0.00019418,0.003
 33476,-0.05095444,0.11915406,0.01913719,0.04500777,-0.00006269,0.00000
 936,-0.00002988,0.00000360,-0.00001545,0.00001040,-0.00000868,-0.00000
 223,-0.00000385,0.00000084,-0.00000095,0.,0.00000284,0.00000993,-0.000
 00435,0.00000891,0.00001168,-0.00000010,0.00000662,0.00001063,0.000004
 80,0.00000425,-0.00000333,-0.00000131,-0.00000296,0.00000037,0.0000023
 7,0.00001021,0.00002314,-0.00000473,-0.00002530,-0.00001814,-0.0000100
 7,0.00000274,0.00001160,0.00000536,0.00000338,-0.00000284,-0.00000024,
 0.00000018,-0.00000066,-0.00000096,-0.00000105,0.00000056,-0.00000155,
 0.00000934,0.00000300,0.00000070,-0.00000265,-0.00000127,-0.00000164,-
 0.00000066,-0.00000075,-0.00000067,-0.00000054,-0.00000148,-0.00000327
 ,-0.00000332,-0.00000075,-0.00000008,0.00000266,0.00000084,0.00000084,
 -0.00000443,-0.00000159,-0.00000226,0.00000381,-0.00000367,0.00000141,
 -0.00000450,0.00000013,-0.00000105,0.00000427,0.00000128,0.00000087,-0
 .00000023,-0.00000668,0.00000230,-0.00010478,0.00009798,-0.00002076,-0
 .00008136,-0.00004923,-0.00001524,-0.00023541,0.00006958,0.00007858,0.
 00001754,-0.00000584,-0.00000755,-0.00000508,0.00002631,0.00000057,0.0
 0025636,-0.00008931,-0.00011985,0.00012846,-0.00003617,0.00006792,0.00
 004193,-0.00013574,-0.00002275,0.00013946,0.00008001,0.00000831,0.0000
 2322,-0.00000535,0.00002047,-0.00034143,0.00054465,0.00009299,0.000147
 82,-0.00014953,-0.00006675,0.00023240,-0.00153418,-0.00022193,0.079179
 05,-0.46760402,-0.17646054,-0.08748189,0.47709035,-0.00005005,0.000010
 42,-0.00003455,-0.00000497,-0.00001387,0.00000560,0.00000164,0.0000034
 8,-0.00000474,-0.00000047,-0.00000687,0.00000150,-0.00000734,0.0000077
 8,-0.00001140,0.00001705,0.00000096,0.00001190,0.00000550,0.00000485,0
 .00000039,0.00000491,-0.00000169,0.00000189,0.00000434,-0.00000278,0.0
 0000674,0.00000832,-0.00000030,0.00000240,-0.00002695,0.00000319,-0.00
 004441,-0.00001250,0.00000953,0.00003003,0.00000081,0.00000129,0.00000
 348,-0.00000250,0.00000186,0.00000101,-0.00000261,0.00000055,0.0000010
 6,0.00000666,-0.00000414,0.00000363,-0.00000512,0.00000152,-0.00000320
 ,-0.00000049,0.00000043,-0.00000189,-0.00000066,-0.00000388,-0.0000024
 1,-0.00000085,0.00000017,-0.00000165,0.00000014,0.00000196,-0.00000553
 ,-0.00000603,0.00000175,-0.00000440,0.00000238,0.00000044,0.00000654,-
 0.00000514,-0.00000012,-0.00000710,-0.00000187,-0.00000723,0.00000708,
 0.00000041,0.00000657,0.00000366,-0.00008075,0.00012887,-0.00003399,-0
 .00011058,0.00001493,-0.00008502,-0.00013212,0.00014661,0.00000477,0.0
 0000836,-0.00001325,0.00000511,0.00003698,-0.00000870,0.00003172,0.000
 08342,-0.00007703,-0.00005666,0.00011119,-0.00003613,0.00007240,0.0000
 3125,-0.00019008,-0.00001531,0.00009717,0.00000982,0.00003998,0.000067
 05,-0.00002338,0.00006866,-0.00208638,0.00071683,-0.00135478,-0.000025
 13,0.00025282,0.00031751,0.00346618,-0.00073799,0.00205717,-0.00165453
 ,-0.14264311,-0.07577036,-0.00776950,0.17412060,0.08448794,0.00006172,
 -0.00001867,0.00003666,0.00001272,0.00002149,-0.00000224,-0.00000680,-
 0.00000734,0.00000155,0.00000078,0.00001068,-0.00000605,0.00001503,-0.
 00001112,0.00001621,-0.00002090,0.,-0.00001772,-0.00001303,0.00001628,
 0.00000285,-0.00000446,0.00000004,-0.00000333,-0.00000564,0.00000171,-
 0.00000485,-0.00001912,-0.00000274,-0.00000264,0.00005424,-0.00001838,
 0.00003556,-0.00000189,0.00000343,-0.00001872,-0.00000181,-0.00000037,
 -0.00000169,0.00000190,-0.00000058,0.00000116,0.00000113,0.00000163,0.
 00000032,-0.00001142,0.00000966,0.00000026,0.00000748,-0.00000420,0.00
 000482,0.00000383,-0.00000199,0.00000170,-0.00000174,0.00000414,0.0000
 0202,0.00000397,-0.00000060,0.00000161,-0.00000269,-0.00000240,0.00000
 546,0.00000700,-0.00000161,0.00000548,-0.00000220,-0.00000467,-0.00000
 358,0.00000890,-0.00000182,0.00000488,-0.00000289,-0.00000277,-0.00000
 412,-0.00000206,0.00000141,-0.00000227,0.00010116,-0.00021677,0.000033
 67,0.00015419,-0.00003140,0.00007076,0.00014649,-0.00020613,0.00016800
 ,-0.00000797,0.00003446,0.00000135,-0.00005026,0.00000936,-0.00001586,
 -0.00005982,0.00006769,-0.00031052,-0.00013423,0.00004892,-0.00008649,
 -0.00006110,0.00032807,0.00002320,-0.00013281,-0.00001604,-0.00003607,
 -0.00009089,0.00003853,-0.00007403,-0.00029637,0.00093637,0.00006074,-
 0.00015378,0.00020944,-0.00001159,0.00010273,-0.00233690,-0.00068877,-
 0.27461642,-0.07280937,-0.26962648,0.00447003,0.00813707,0.00803278,0.
 27054696,-0.00006829,0.00000786,-0.00003978,0.00001013,-0.00000987,0.0
 0001279,-0.00001525,-0.00000639,-0.00000586,0.00000064,0.00000454,-0.0
 0000339,0.00000664,0.00000218,0.00000038,0.00000127,0.00001883,-0.0000
 0859,-0.00000024,0.00002380,0.00000667,0.00000336,-0.00000394,-0.00000
 180,-0.00000336,0.00000173,0.00000080,0.00000028,0.00001021,-0.0000045
 0,0.00000773,-0.00002330,0.00000168,-0.00000334,0.00000792,0.00000462,
 0.00000417,-0.00000257,0.00000222,0.00000010,-0.00000009,-0.00000010,-
 0.00000165,0.00000131,-0.00000068,0.00000283,0.00000951,0.00000475,0.0
 0000052,-0.00000415,0.00000003,0.00000140,-0.00000122,-0.00000045,-0.0
 0000160,0.00000052,-0.00000272,-0.00000070,-0.00000145,-0.00000012,0.0
 0000071,-0.00000035,0.00000225,-0.00000077,-0.00000132,0.00000008,0.00
 000156,-0.00000520,-0.00000008,0.00000262,-0.00000037,-0.00000097,-0.0
 0000156,-0.00000625,-0.00000124,-0.00000397,0.00000240,0.00000116,-0.0
 0015800,-0.00008916,-0.00007633,0.00001354,-0.00005738,-0.00000779,0.0
 0006728,-0.00025344,-0.00026452,0.00007007,-0.00000417,0.00000633,-0.0
 0002711,0.00002014,0.00000535,-0.00018348,0.00018610,0.00045647,0.0001
 5290,-0.00003678,0.00008903,0.00005811,0.00022039,0.00005481,0.0000465
 2,0.00006404,-0.00000266,-0.00002441,0.00001364,-0.00000981,0.00205363
 ,-0.00301344,0.00007603,0.00029918,0.00017029,0.00014386,-0.00302816,0
 .00504850,0.00036099,-0.03269590,-0.06070569,-0.05933697,-0.03240291,-
 0.00832224,-0.03167670,0.06581551,0.06673489,-0.00002729,0.00000516,-0
 .00002647,-0.00000507,-0.00000741,0.00000238,0.00000166,0.00000290,-0.
 00000363,-0.00000112,-0.00000389,-0.00000009,-0.00000442,0.00000218,-0
 .00000631,0.00000844,-0.00000094,0.00000591,-0.00000219,0.00000715,0.0
 0000167,0.00000388,0.00000056,0.00000268,0.00000335,-0.00000244,0.0000
 0441,-0.00000182,-0.00000344,0.00000282,0.00000061,0.00000080,-0.00002
 407,-0.00001196,0.00000341,0.00001929,-0.00000110,0.00000281,0.0000047
 3,-0.00000254,0.00000165,0.00000142,-0.00000190,0.00000086,0.00000142,
 0.00000172,0.00000088,0.00000660,-0.00000104,-0.00000018,-0.00000173,0
 .00000090,-0.00000027,-0.00000094,-0.00000200,-0.00000243,-0.00000064,
 0.00000099,0.00000016,-0.00000109,-0.00000146,0.00000209,-0.00000255,-
 0.00000141,0.00000085,-0.00000226,0.00000083,-0.00000077,0.00000334,0.
 00000100,-0.00000030,-0.00000449,-0.00000311,-0.00000723,0.00000150,-0
 .00000117,0.00000778,0.00000083,-0.00005375,0.00000765,-0.00007064,-0.
 00001649,-0.00000273,-0.00007170,0.00007264,-0.00004838,-0.00025624,0.
 00002912,-0.00002053,0.00003165,0.00000681,0.00000301,0.00004063,-0.00
 024510,0.00011960,0.00036267,0.00007011,-0.00002364,0.00005526,0.00001
 330,0.00002515,0.00005117,0.00001090,0.00000318,0.00004114,0.00001759,
 -0.00000621,0.00002933,0.00075963,-0.00067069,0.00034767,-0.00015680,-
 0.00010371,-0.00006882,-0.00100104,0.00120208,-0.00100112,-0.24879502,
 -0.09329243,-0.25857470,-0.01307168,0.00258290,-0.00973477,0.26240599,
 0.09021477,0.26883374\\-0.00000048,0.00000021,-0.00000039,-0.00000023,
 -0.00000091,0.00000033,-0.00000023,-0.00000020,-0.00000016,-0.00000044
 ,-0.00000026,-0.00000039,0.00000007,-0.00000052,0.00000017,0.00000099,
 0.00000112,-0.00000015,-0.00000011,0.00000016,0.00000034,0.00000005,-0
 .00000028,-0.00000033,-0.00000009,0.00000008,0.00000005,-0.00000018,-0
 .00000044,0.00000030,0.00000015,0.00000018,-0.00000028,-0.00000006,-0.
 00000015,0.00000003,-0.00000012,0.00000004,-0.00000014,-0.00000016,-0.
 00000003,-0.00000024,-0.00000011,-0.00000023,-0.00000007,-0.00000002,0
 .,0.00000002,-0.00000003,-0.00000016,-0.00000006,-0.00000003,-0.000000
 11,-0.00000007,0.00000003,0.,-0.00000006,0.00000012,-0.00000011,0.0000
 0006,0.00000007,-0.00000005,0.00000005,0.00000005,-0.00000012,0.000000
 06,0.00000011,-0.00000011,0.00000008,0.00000009,-0.00000016,0.00000007
 ,0.00000009,-0.00000013,0.00000006,0.00000006,-0.00000006,-0.00000002,
 -0.00000015,0.00000015,-0.00000010,0.00000003,-0.00000003,0.00000006,0
 .00000003,0.00000015,0.00000003,-0.00000009,0.00000016,-0.00000008,0.0
 0000007,0.00000007,0.00000009,0.00000005,0.00000008,0.00000003,-0.0000
 0005,0.00000007,-0.00000005,-0.00000003,0.00000007,-0.00000004,0.,0.00
 000016,0.00000003,0.00000015,0.00000025,0.00000011,0.00000014,0.000000
 04,0.00000020,0.00000008,0.00000007,0.00000004,-0.00000010,0.00000024,
 0.,-0.00000097,0.00000139,-0.00000070,0.00000125,0.00000080,0.00000153
 ,0.,-0.00000143,-0.00000045\\\@


            THE IRISH PIG
 'TWAS AN EVENING IN NOVEMBER,
 AS I VERY WELL REMEMBER
 I WAS STROLLING DOWN THE STREET IN DRUNKEN PRIDE,
 BUT MY KNEES WERE ALL A'FLUTTER
 SO I LANDED IN THE GUTTER,
 AND A PIG CAME UP AND LAY DOWN BY MY SIDE.

 YES, I LAY THERE IN THE GUTTER
 THINKING THOUGHTS I COULD NOT UTTER
 WHEN A COLLEEN PASSING BY DID SOFTLY SAY,
 'YE CAN TELL A MAN THAT BOOZES
 BY THE COMPANY THAT HE CHOOSES.' -
 AT THAT, THE PIG GOT UP AND WALKED AWAY!
     -- THE ECONOMIST, AUGUST 23, 1986
 Job cpu time:       1 days 12 hours 45 minutes 43.5 seconds.
 Elapsed time:       0 days  1 hours 18 minutes 56.3 seconds.
 File lengths (MBytes):  RWF=   1440 Int=      0 D2E=      0 Chk=     36 Scr=      8
 Normal termination of Gaussian 16 at Sun Mar 12 12:29:55 2023.
