 Entering Gaussian System, Link 0=g16
 Input=Nic5h3bLMidPyrTS2_2.gjf
 Output=Nic5h3bLMidPyrTS2_2.log
 Initial command:
 /sw/contrib/gaussian/g16/A03/g16/l1.exe "/gscratch/scrubbed/gds001/Gau-24768.inp" -scrdir="/gscratch/scrubbed/gds001/"
 Entering Link 1 = /sw/contrib/gaussian/g16/A03/g16/l1.exe PID=     24769.
  
 Copyright (c) 1988,1990,1992,1993,1995,1998,2003,2009,2016,
            Gaussian, Inc.  All Rights Reserved.
  
 This is part of the Gaussian(R) 16 program.  It is based on
 the Gaussian(R) 09 system (copyright 2009, Gaussian, Inc.),
 the Gaussian(R) 03 system (copyright 2003, Gaussian, Inc.),
 the Gaussian(R) 98 system (copyright 1998, Gaussian, Inc.),
 the Gaussian(R) 94 system (copyright 1995, Gaussian, Inc.),
 the Gaussian 92(TM) system (copyright 1992, Gaussian, Inc.),
 the Gaussian 90(TM) system (copyright 1990, Gaussian, Inc.),
 the Gaussian 88(TM) system (copyright 1988, Gaussian, Inc.),
 the Gaussian 86(TM) system (copyright 1986, Carnegie Mellon
 University), and the Gaussian 82(TM) system (copyright 1983,
 Carnegie Mellon University). Gaussian is a federally registered
 trademark of Gaussian, Inc.
  
 This software contains proprietary and confidential information,
 including trade secrets, belonging to Gaussian, Inc.
  
 This software is provided under written license and may be
 used, copied, transmitted, or stored only in accord with that
 written license.
  
 The following legend is applicable only to US Government
 contracts under FAR:
  
                    RESTRICTED RIGHTS LEGEND
  
 Use, reproduction and disclosure by the US Government is
 subject to restrictions as set forth in subparagraphs (a)
 and (c) of the Commercial Computer Software - Restricted
 Rights clause in FAR 52.227-19.
  
 Gaussian, Inc.
 340 Quinnipiac St., Bldg. 40, Wallingford CT 06492
  
  
 ---------------------------------------------------------------
 Warning -- This program may not be used in any manner that
 competes with the business of Gaussian, Inc. or will provide
 assistance to any competitor of Gaussian, Inc.  The licensee
 of this program is prohibited from giving any competitor of
 Gaussian, Inc. access to this program.  By using this program,
 the user acknowledges that Gaussian, Inc. is engaged in the
 business of creating and licensing software in the field of
 computational chemistry and represents and warrants to the
 licensee that it is not a competitor of Gaussian, Inc. and that
 it will not use this program in any manner prohibited above.
 ---------------------------------------------------------------
  

 Cite this work as:
 Gaussian 16, Revision A.03,
 M. J. Frisch, G. W. Trucks, H. B. Schlegel, G. E. Scuseria, 
 M. A. Robb, J. R. Cheeseman, G. Scalmani, V. Barone, 
 G. A. Petersson, H. Nakatsuji, X. Li, M. Caricato, A. V. Marenich, 
 J. Bloino, B. G. Janesko, R. Gomperts, B. Mennucci, H. P. Hratchian, 
 J. V. Ortiz, A. F. Izmaylov, J. L. Sonnenberg, D. Williams-Young, 
 F. Ding, F. Lipparini, F. Egidi, J. Goings, B. Peng, A. Petrone, 
 T. Henderson, D. Ranasinghe, V. G. Zakrzewski, J. Gao, N. Rega, 
 G. Zheng, W. Liang, M. Hada, M. Ehara, K. Toyota, R. Fukuda, 
 J. Hasegawa, M. Ishida, T. Nakajima, Y. Honda, O. Kitao, H. Nakai, 
 T. Vreven, K. Throssell, J. A. Montgomery, Jr., J. E. Peralta, 
 F. Ogliaro, M. J. Bearpark, J. J. Heyd, E. N. Brothers, K. N. Kudin, 
 V. N. Staroverov, T. A. Keith, R. Kobayashi, J. Normand, 
 K. Raghavachari, A. P. Rendell, J. C. Burant, S. S. Iyengar, 
 J. Tomasi, M. Cossi, J. M. Millam, M. Klene, C. Adamo, R. Cammi, 
 J. W. Ochterski, R. L. Martin, K. Morokuma, O. Farkas, 
 J. B. Foresman, and D. J. Fox, Gaussian, Inc., Wallingford CT, 2016.
 
 ******************************************
 Gaussian 16:  ES64L-G16RevA.03 25-Dec-2016
                20-May-2023 
 ******************************************
 %nprocshared=28
 Will use up to   28 processors via shared memory.
 %mem=41GB
 ----------------------------------------------------------------
 # wB97XD/aug-cc-pVDZ opt=(TS,CalcAll,MaxStep=5,NoEigenTest) freq
 ----------------------------------------------------------------
 1/5=1,8=5,10=4,11=1,18=20,26=3,38=1/1,3;
 2/9=110,12=2,17=6,18=5,40=1/2;
 3/5=16,7=10,11=2,25=1,30=1,71=2,74=-58,140=1/1,2,3;
 4//1;
 5/5=2,38=5/2;
 8/6=4,10=90,11=11/1;
 11/6=1,8=1,9=11,15=111,16=1/1,2,10;
 10/6=1/2;
 6/7=2,8=2,9=2,10=2,18=1,28=1/1;
 7/10=1,25=1/1,2,3,16;
 1/5=1,8=5,10=4,11=1,18=20,26=3/3(3);
 2/9=110/2;
 7/8=1,9=1,25=1,44=-1/16;
 99//99;
 2/9=110/2;
 3/5=16,7=10,11=2,25=1,30=1,71=2,74=-58,140=1/1,2,3;
 4/5=5,16=3,69=1/1;
 5/5=2,38=5/2;
 8/6=4,10=90,11=11/1;
 11/6=1,8=1,9=11,15=111,16=1/1,2,10;
 10/6=1/2;
 7/10=1,25=1/1,2,3,16;
 1/5=1,8=5,10=4,11=1,18=20,26=3/3(-8);
 2/9=110/2;
 6/7=2,8=2,9=2,10=2,18=1,19=2,28=1/1;
 7/8=1,9=1,25=1,44=-1/16;
 99//99;
 ----
 blah
 ----
 Symbolic Z-matrix:
 Charge =  1 Multiplicity = 1
 N                    -0.32189  -1.91247  -0.05331 
 C                    -1.32184  -1.32612   0.86645 
 C                    -0.58067  -1.27262   2.21693 
 C                     0.51442  -2.36144   2.11075 
 C                     0.28685  -2.99643   0.73633 
 C                    -1.86889  -0.01367   0.36262 
 C                    -1.03035   1.08357   0.17052 
 N                    -1.4384    2.264    -0.29725 
 C                    -2.7362    2.41516  -0.58521 
 C                    -3.662     1.39099  -0.4191 
 C                    -3.21759   0.15903   0.05513 
 O                     0.93311   3.5581   -0.49032 
 O                     1.82939  -0.62063  -0.81831 
 H                     1.20676  -3.34467   0.25208 
 H                     0.44655  -3.10502   2.91095 
 H                     1.51222  -1.91078   2.16134 
 H                    -1.27869  -1.45065   3.04131 
 H                    -0.13941  -0.28252   2.37824 
 H                    -0.41116  -3.84942   0.80279 
 H                    -2.16546  -2.03605   0.94998 
 H                     0.03179   1.01235   0.40913 
 H                    -3.04114   3.39194  -0.96087 
 H                    -4.70986   1.55665  -0.66195 
 H                    -3.91946  -0.66559   0.18591 
 C                    -0.89558  -2.37256  -1.3162 
 H                    -0.01835   3.2748   -0.48348 
 H                     0.93938  -1.02346  -0.48484 
 H                     2.02249  -0.94905  -1.72068 
 H                     1.96584   2.36616  -0.46304 
 H                     1.01171   4.31656  -1.0725 
 O                     2.59197   1.59123  -0.33965 
 H                     3.02602   1.67248   0.53984 
 H                     2.17462   0.51142  -0.57526 
 H                    -0.105    -2.80852  -1.9383 
 H                    -1.33314  -1.52359  -1.85465 
 H                    -1.67803  -3.13265  -1.15152 
 O                     3.70319   1.77848   2.10371 
 H                     3.47937   2.52233   2.67083 
 H                     4.64155   1.61912   2.24073 
 O                     2.26733  -1.72057  -3.25665 
 H                     3.04634  -2.26416  -3.40593 
 H                     2.08823  -1.28673  -4.09562 
 
 Add virtual bond connecting atoms H33        and O31        Dist= 2.23D+00.
 Add virtual bond connecting atoms H33        and O13        Dist= 2.28D+00.
 Add virtual bond connecting atoms H29        and O12        Dist= 2.98D+00.
 Add virtual bond connecting atoms H26        and N8         Dist= 3.31D+00.
 Add virtual bond connecting atoms H27        and N1         Dist= 3.03D+00.
 Add virtual bond connecting atoms O37        and H32        Dist= 3.23D+00.
 Add virtual bond connecting atoms O40        and H28        Dist= 3.28D+00.

 GradGradGradGradGradGradGradGradGradGradGradGradGradGradGradGradGradGrad
 Berny optimization.
 Initialization pass.
                           ----------------------------
                           !    Initial Parameters    !
                           ! (Angstroms and Degrees)  !
 --------------------------                            --------------------------
 ! Name  Definition              Value          Derivative Info.                !
 --------------------------------------------------------------------------------
 ! R1    R(1,2)                  1.4798         calculate D2E/DX2 analytically  !
 ! R2    R(1,5)                  1.4728         calculate D2E/DX2 analytically  !
 ! R3    R(1,25)                 1.4614         calculate D2E/DX2 analytically  !
 ! R4    R(1,27)                 1.6023         calculate D2E/DX2 analytically  !
 ! R5    R(2,3)                  1.5414         calculate D2E/DX2 analytically  !
 ! R6    R(2,6)                  1.5085         calculate D2E/DX2 analytically  !
 ! R7    R(2,20)                 1.1057         calculate D2E/DX2 analytically  !
 ! R8    R(3,4)                  1.5479         calculate D2E/DX2 analytically  !
 ! R9    R(3,17)                 1.0948         calculate D2E/DX2 analytically  !
 ! R10   R(3,18)                 1.0959         calculate D2E/DX2 analytically  !
 ! R11   R(4,5)                  1.531          calculate D2E/DX2 analytically  !
 ! R12   R(4,15)                 1.0944         calculate D2E/DX2 analytically  !
 ! R13   R(4,16)                 1.096          calculate D2E/DX2 analytically  !
 ! R14   R(5,14)                 1.0964         calculate D2E/DX2 analytically  !
 ! R15   R(5,19)                 1.1042         calculate D2E/DX2 analytically  !
 ! R16   R(6,7)                  1.3943         calculate D2E/DX2 analytically  !
 ! R17   R(6,11)                 1.394          calculate D2E/DX2 analytically  !
 ! R18   R(7,8)                  1.3337         calculate D2E/DX2 analytically  !
 ! R19   R(7,21)                 1.0909         calculate D2E/DX2 analytically  !
 ! R20   R(8,9)                  1.3379         calculate D2E/DX2 analytically  !
 ! R21   R(8,26)                 1.753          calculate D2E/DX2 analytically  !
 ! R22   R(9,10)                 1.3905         calculate D2E/DX2 analytically  !
 ! R23   R(9,22)                 1.09           calculate D2E/DX2 analytically  !
 ! R24   R(10,11)                1.3929         calculate D2E/DX2 analytically  !
 ! R25   R(10,23)                1.0883         calculate D2E/DX2 analytically  !
 ! R26   R(11,24)                1.0907         calculate D2E/DX2 analytically  !
 ! R27   R(12,26)                0.9928         calculate D2E/DX2 analytically  !
 ! R28   R(12,29)                1.5773         calculate D2E/DX2 analytically  !
 ! R29   R(12,30)                0.9594         calculate D2E/DX2 analytically  !
 ! R30   R(13,27)                1.0323         calculate D2E/DX2 analytically  !
 ! R31   R(13,28)                0.9795         calculate D2E/DX2 analytically  !
 ! R32   R(13,33)                1.2082         calculate D2E/DX2 analytically  !
 ! R33   R(25,34)                1.0964         calculate D2E/DX2 analytically  !
 ! R34   R(25,35)                1.0964         calculate D2E/DX2 analytically  !
 ! R35   R(25,36)                1.1032         calculate D2E/DX2 analytically  !
 ! R36   R(28,40)                1.7362         calculate D2E/DX2 analytically  !
 ! R37   R(29,31)                1.0039         calculate D2E/DX2 analytically  !
 ! R38   R(31,32)                0.9841         calculate D2E/DX2 analytically  !
 ! R39   R(31,33)                1.1814         calculate D2E/DX2 analytically  !
 ! R40   R(32,37)                1.7075         calculate D2E/DX2 analytically  !
 ! R41   R(37,38)                0.9618         calculate D2E/DX2 analytically  !
 ! R42   R(37,39)                0.9616         calculate D2E/DX2 analytically  !
 ! R43   R(40,41)                0.9616         calculate D2E/DX2 analytically  !
 ! R44   R(40,42)                0.9613         calculate D2E/DX2 analytically  !
 ! A1    A(2,1,5)              103.7503         calculate D2E/DX2 analytically  !
 ! A2    A(2,1,25)             113.3663         calculate D2E/DX2 analytically  !
 ! A3    A(2,1,27)             118.6509         calculate D2E/DX2 analytically  !
 ! A4    A(5,1,25)             113.1956         calculate D2E/DX2 analytically  !
 ! A5    A(5,1,27)             103.144          calculate D2E/DX2 analytically  !
 ! A6    A(25,1,27)            104.5342         calculate D2E/DX2 analytically  !
 ! A7    A(1,2,3)              103.4968         calculate D2E/DX2 analytically  !
 ! A8    A(1,2,6)              112.4701         calculate D2E/DX2 analytically  !
 ! A9    A(1,2,20)             107.9447         calculate D2E/DX2 analytically  !
 ! A10   A(3,2,6)              115.8993         calculate D2E/DX2 analytically  !
 ! A11   A(3,2,20)             108.8416         calculate D2E/DX2 analytically  !
 ! A12   A(6,2,20)             107.8878         calculate D2E/DX2 analytically  !
 ! A13   A(2,3,4)              104.8129         calculate D2E/DX2 analytically  !
 ! A14   A(2,3,17)             110.3351         calculate D2E/DX2 analytically  !
 ! A15   A(2,3,18)             110.727          calculate D2E/DX2 analytically  !
 ! A16   A(4,3,17)             112.851          calculate D2E/DX2 analytically  !
 ! A17   A(4,3,18)             111.1455         calculate D2E/DX2 analytically  !
 ! A18   A(17,3,18)            107.026          calculate D2E/DX2 analytically  !
 ! A19   A(3,4,5)              104.3684         calculate D2E/DX2 analytically  !
 ! A20   A(3,4,15)             112.5742         calculate D2E/DX2 analytically  !
 ! A21   A(3,4,16)             110.589          calculate D2E/DX2 analytically  !
 ! A22   A(5,4,15)             111.4294         calculate D2E/DX2 analytically  !
 ! A23   A(5,4,16)             110.3216         calculate D2E/DX2 analytically  !
 ! A24   A(15,4,16)            107.5823         calculate D2E/DX2 analytically  !
 ! A25   A(1,5,4)              103.7393         calculate D2E/DX2 analytically  !
 ! A26   A(1,5,14)             110.1066         calculate D2E/DX2 analytically  !
 ! A27   A(1,5,19)             109.8496         calculate D2E/DX2 analytically  !
 ! A28   A(4,5,14)             113.7991         calculate D2E/DX2 analytically  !
 ! A29   A(4,5,19)             111.1199         calculate D2E/DX2 analytically  !
 ! A30   A(14,5,19)            108.1568         calculate D2E/DX2 analytically  !
 ! A31   A(2,6,7)              120.8371         calculate D2E/DX2 analytically  !
 ! A32   A(2,6,11)             122.1601         calculate D2E/DX2 analytically  !
 ! A33   A(7,6,11)             116.9993         calculate D2E/DX2 analytically  !
 ! A34   A(6,7,8)              124.1139         calculate D2E/DX2 analytically  !
 ! A35   A(6,7,21)             120.2671         calculate D2E/DX2 analytically  !
 ! A36   A(8,7,21)             115.6187         calculate D2E/DX2 analytically  !
 ! A37   A(7,8,9)              118.1816         calculate D2E/DX2 analytically  !
 ! A38   A(7,8,26)             107.4432         calculate D2E/DX2 analytically  !
 ! A39   A(9,8,26)             134.2485         calculate D2E/DX2 analytically  !
 ! A40   A(8,9,10)             122.4722         calculate D2E/DX2 analytically  !
 ! A41   A(8,9,22)             116.5367         calculate D2E/DX2 analytically  !
 ! A42   A(10,9,22)            120.991          calculate D2E/DX2 analytically  !
 ! A43   A(9,10,11)            118.6643         calculate D2E/DX2 analytically  !
 ! A44   A(9,10,23)            120.1503         calculate D2E/DX2 analytically  !
 ! A45   A(11,10,23)           121.1848         calculate D2E/DX2 analytically  !
 ! A46   A(6,11,10)            119.5607         calculate D2E/DX2 analytically  !
 ! A47   A(6,11,24)            120.1622         calculate D2E/DX2 analytically  !
 ! A48   A(10,11,24)           120.277          calculate D2E/DX2 analytically  !
 ! A49   A(26,12,29)           114.3132         calculate D2E/DX2 analytically  !
 ! A50   A(26,12,30)           107.9579         calculate D2E/DX2 analytically  !
 ! A51   A(29,12,30)           123.6601         calculate D2E/DX2 analytically  !
 ! A52   A(27,13,28)           109.6781         calculate D2E/DX2 analytically  !
 ! A53   A(27,13,33)           123.161          calculate D2E/DX2 analytically  !
 ! A54   A(28,13,33)           116.3047         calculate D2E/DX2 analytically  !
 ! A55   A(1,25,34)            109.4174         calculate D2E/DX2 analytically  !
 ! A56   A(1,25,35)            109.7109         calculate D2E/DX2 analytically  !
 ! A57   A(1,25,36)            111.4897         calculate D2E/DX2 analytically  !
 ! A58   A(34,25,35)           108.4814         calculate D2E/DX2 analytically  !
 ! A59   A(34,25,36)           108.7941         calculate D2E/DX2 analytically  !
 ! A60   A(35,25,36)           108.8897         calculate D2E/DX2 analytically  !
 ! A61   A(8,26,12)            160.3314         calculate D2E/DX2 analytically  !
 ! A62   A(29,31,32)           108.7345         calculate D2E/DX2 analytically  !
 ! A63   A(29,31,33)           117.4329         calculate D2E/DX2 analytically  !
 ! A64   A(32,31,33)           114.1741         calculate D2E/DX2 analytically  !
 ! A65   A(32,37,38)           119.7213         calculate D2E/DX2 analytically  !
 ! A66   A(32,37,39)           120.4784         calculate D2E/DX2 analytically  !
 ! A67   A(38,37,39)           105.7383         calculate D2E/DX2 analytically  !
 ! A68   A(28,40,41)           120.1855         calculate D2E/DX2 analytically  !
 ! A69   A(28,40,42)           123.0413         calculate D2E/DX2 analytically  !
 ! A70   A(41,40,42)           105.6982         calculate D2E/DX2 analytically  !
 ! A71   L(1,27,13,7,-1)       190.7045         calculate D2E/DX2 analytically  !
 ! A72   L(13,28,40,14,-1)     172.8776         calculate D2E/DX2 analytically  !
 ! A73   L(12,29,31,2,-1)      176.5708         calculate D2E/DX2 analytically  !
 ! A74   L(31,32,37,2,-1)      176.9954         calculate D2E/DX2 analytically  !
 ! A75   L(13,33,31,7,-1)      183.9831         calculate D2E/DX2 analytically  !
 ! A76   L(1,27,13,7,-2)       181.7053         calculate D2E/DX2 analytically  !
 ! A77   L(13,28,40,14,-2)     178.1358         calculate D2E/DX2 analytically  !
 ! A78   L(12,29,31,2,-2)      185.4482         calculate D2E/DX2 analytically  !
 ! A79   L(31,32,37,2,-2)      180.7191         calculate D2E/DX2 analytically  !
 ! A80   L(13,33,31,7,-2)      179.0687         calculate D2E/DX2 analytically  !
 ! D1    D(5,1,2,3)             42.316          calculate D2E/DX2 analytically  !
 ! D2    D(5,1,2,6)            168.1455         calculate D2E/DX2 analytically  !
 ! D3    D(5,1,2,20)           -72.9512         calculate D2E/DX2 analytically  !
 ! D4    D(25,1,2,3)           165.5076         calculate D2E/DX2 analytically  !
 ! D5    D(25,1,2,6)           -68.6629         calculate D2E/DX2 analytically  !
 ! D6    D(25,1,2,20)           50.2404         calculate D2E/DX2 analytically  !
 ! D7    D(27,1,2,3)           -71.2916         calculate D2E/DX2 analytically  !
 ! D8    D(27,1,2,6)            54.5379         calculate D2E/DX2 analytically  !
 ! D9    D(27,1,2,20)          173.4412         calculate D2E/DX2 analytically  !
 ! D10   D(2,1,5,4)            -44.0344         calculate D2E/DX2 analytically  !
 ! D11   D(2,1,5,14)          -166.1674         calculate D2E/DX2 analytically  !
 ! D12   D(2,1,5,19)            74.8228         calculate D2E/DX2 analytically  !
 ! D13   D(25,1,5,4)          -167.338          calculate D2E/DX2 analytically  !
 ! D14   D(25,1,5,14)           70.529          calculate D2E/DX2 analytically  !
 ! D15   D(25,1,5,19)          -48.4808         calculate D2E/DX2 analytically  !
 ! D16   D(27,1,5,4)            80.3012         calculate D2E/DX2 analytically  !
 ! D17   D(27,1,5,14)          -41.8317         calculate D2E/DX2 analytically  !
 ! D18   D(27,1,5,19)         -160.8416         calculate D2E/DX2 analytically  !
 ! D19   D(2,1,13,28)         -148.9923         calculate D2E/DX2 analytically  !
 ! D20   D(2,1,13,33)           -3.5505         calculate D2E/DX2 analytically  !
 ! D21   D(5,1,13,28)           97.1467         calculate D2E/DX2 analytically  !
 ! D22   D(5,1,13,33)         -117.4114         calculate D2E/DX2 analytically  !
 ! D23   D(25,1,13,28)         -19.7984         calculate D2E/DX2 analytically  !
 ! D24   D(25,1,13,33)         125.6434         calculate D2E/DX2 analytically  !
 ! D25   D(2,1,25,34)         -179.0447         calculate D2E/DX2 analytically  !
 ! D26   D(2,1,25,35)           62.0527         calculate D2E/DX2 analytically  !
 ! D27   D(2,1,25,36)          -58.6538         calculate D2E/DX2 analytically  !
 ! D28   D(5,1,25,34)          -61.2161         calculate D2E/DX2 analytically  !
 ! D29   D(5,1,25,35)          179.8814         calculate D2E/DX2 analytically  !
 ! D30   D(5,1,25,36)           59.1749         calculate D2E/DX2 analytically  !
 ! D31   D(27,1,25,34)          50.2943         calculate D2E/DX2 analytically  !
 ! D32   D(27,1,25,35)         -68.6083         calculate D2E/DX2 analytically  !
 ! D33   D(27,1,25,36)         170.6852         calculate D2E/DX2 analytically  !
 ! D34   D(1,2,3,4)            -23.9533         calculate D2E/DX2 analytically  !
 ! D35   D(1,2,3,17)          -145.7153         calculate D2E/DX2 analytically  !
 ! D36   D(1,2,3,18)            95.9827         calculate D2E/DX2 analytically  !
 ! D37   D(6,2,3,4)           -147.5599         calculate D2E/DX2 analytically  !
 ! D38   D(6,2,3,17)            90.6781         calculate D2E/DX2 analytically  !
 ! D39   D(6,2,3,18)           -27.6238         calculate D2E/DX2 analytically  !
 ! D40   D(20,2,3,4)            90.6727         calculate D2E/DX2 analytically  !
 ! D41   D(20,2,3,17)          -31.0893         calculate D2E/DX2 analytically  !
 ! D42   D(20,2,3,18)         -149.3913         calculate D2E/DX2 analytically  !
 ! D43   D(1,2,6,7)            -61.7025         calculate D2E/DX2 analytically  !
 ! D44   D(1,2,6,11)           117.5904         calculate D2E/DX2 analytically  !
 ! D45   D(3,2,6,7)             57.0871         calculate D2E/DX2 analytically  !
 ! D46   D(3,2,6,11)          -123.6199         calculate D2E/DX2 analytically  !
 ! D47   D(20,2,6,7)           179.3609         calculate D2E/DX2 analytically  !
 ! D48   D(20,2,6,11)           -1.3462         calculate D2E/DX2 analytically  !
 ! D49   D(2,3,4,5)             -2.2229         calculate D2E/DX2 analytically  !
 ! D50   D(2,3,4,15)          -123.2166         calculate D2E/DX2 analytically  !
 ! D51   D(2,3,4,16)           116.41           calculate D2E/DX2 analytically  !
 ! D52   D(17,3,4,5)           117.8773         calculate D2E/DX2 analytically  !
 ! D53   D(17,3,4,15)           -3.1164         calculate D2E/DX2 analytically  !
 ! D54   D(17,3,4,16)         -123.4898         calculate D2E/DX2 analytically  !
 ! D55   D(18,3,4,5)          -121.8793         calculate D2E/DX2 analytically  !
 ! D56   D(18,3,4,15)          117.127          calculate D2E/DX2 analytically  !
 ! D57   D(18,3,4,16)           -3.2464         calculate D2E/DX2 analytically  !
 ! D58   D(3,4,5,1)             27.8137         calculate D2E/DX2 analytically  !
 ! D59   D(3,4,5,14)           147.4583         calculate D2E/DX2 analytically  !
 ! D60   D(3,4,5,19)           -90.1665         calculate D2E/DX2 analytically  !
 ! D61   D(15,4,5,1)           149.566          calculate D2E/DX2 analytically  !
 ! D62   D(15,4,5,14)          -90.7894         calculate D2E/DX2 analytically  !
 ! D63   D(15,4,5,19)           31.5858         calculate D2E/DX2 analytically  !
 ! D64   D(16,4,5,1)           -91.0011         calculate D2E/DX2 analytically  !
 ! D65   D(16,4,5,14)           28.6434         calculate D2E/DX2 analytically  !
 ! D66   D(16,4,5,19)          151.0186         calculate D2E/DX2 analytically  !
 ! D67   D(2,6,7,8)            178.5599         calculate D2E/DX2 analytically  !
 ! D68   D(2,6,7,21)            -1.6451         calculate D2E/DX2 analytically  !
 ! D69   D(11,6,7,8)            -0.7684         calculate D2E/DX2 analytically  !
 ! D70   D(11,6,7,21)          179.0267         calculate D2E/DX2 analytically  !
 ! D71   D(2,6,11,10)         -179.3616         calculate D2E/DX2 analytically  !
 ! D72   D(2,6,11,24)            0.6722         calculate D2E/DX2 analytically  !
 ! D73   D(7,6,11,10)           -0.0429         calculate D2E/DX2 analytically  !
 ! D74   D(7,6,11,24)          179.9908         calculate D2E/DX2 analytically  !
 ! D75   D(6,7,8,9)              0.9155         calculate D2E/DX2 analytically  !
 ! D76   D(6,7,8,26)          -175.5704         calculate D2E/DX2 analytically  !
 ! D77   D(21,7,8,9)          -178.8882         calculate D2E/DX2 analytically  !
 ! D78   D(21,7,8,26)            4.626          calculate D2E/DX2 analytically  !
 ! D79   D(7,8,9,10)            -0.247          calculate D2E/DX2 analytically  !
 ! D80   D(7,8,9,22)           179.702          calculate D2E/DX2 analytically  !
 ! D81   D(26,8,9,10)          175.0705         calculate D2E/DX2 analytically  !
 ! D82   D(26,8,9,22)           -4.9805         calculate D2E/DX2 analytically  !
 ! D83   D(7,8,26,12)            3.4828         calculate D2E/DX2 analytically  !
 ! D84   D(9,8,26,12)         -172.1916         calculate D2E/DX2 analytically  !
 ! D85   D(8,9,10,11)           -0.5144         calculate D2E/DX2 analytically  !
 ! D86   D(8,9,10,23)          179.7739         calculate D2E/DX2 analytically  !
 ! D87   D(22,9,10,11)         179.5388         calculate D2E/DX2 analytically  !
 ! D88   D(22,9,10,23)          -0.173          calculate D2E/DX2 analytically  !
 ! D89   D(9,10,11,6)            0.6407         calculate D2E/DX2 analytically  !
 ! D90   D(9,10,11,24)        -179.3931         calculate D2E/DX2 analytically  !
 ! D91   D(23,10,11,6)        -179.6506         calculate D2E/DX2 analytically  !
 ! D92   D(23,10,11,24)          0.3156         calculate D2E/DX2 analytically  !
 ! D93   D(29,12,26,8)          15.9741         calculate D2E/DX2 analytically  !
 ! D94   D(30,12,26,8)         157.7676         calculate D2E/DX2 analytically  !
 ! D95   D(26,12,31,32)       -112.0519         calculate D2E/DX2 analytically  !
 ! D96   D(26,12,31,33)         16.6632         calculate D2E/DX2 analytically  !
 ! D97   D(30,12,31,32)        111.1199         calculate D2E/DX2 analytically  !
 ! D98   D(30,12,31,33)       -120.165          calculate D2E/DX2 analytically  !
 ! D99   D(27,13,31,29)        -48.0347         calculate D2E/DX2 analytically  !
 ! D100  D(27,13,31,32)         82.1405         calculate D2E/DX2 analytically  !
 ! D101  D(28,13,31,29)         94.1057         calculate D2E/DX2 analytically  !
 ! D102  D(28,13,31,32)       -135.7191         calculate D2E/DX2 analytically  !
 ! D103  D(27,13,40,41)       -118.0755         calculate D2E/DX2 analytically  !
 ! D104  D(27,13,40,42)        100.3701         calculate D2E/DX2 analytically  !
 ! D105  D(33,13,40,41)         95.5616         calculate D2E/DX2 analytically  !
 ! D106  D(33,13,40,42)        -45.9928         calculate D2E/DX2 analytically  !
 ! D107  D(29,31,37,38)         -1.3943         calculate D2E/DX2 analytically  !
 ! D108  D(29,31,37,39)       -136.7228         calculate D2E/DX2 analytically  !
 ! D109  D(33,31,37,38)       -133.3425         calculate D2E/DX2 analytically  !
 ! D110  D(33,31,37,39)         91.329          calculate D2E/DX2 analytically  !
 --------------------------------------------------------------------------------
 Trust Radius=5.00D-02 FncErr=1.00D-07 GrdErr=1.00D-06 EigMax=2.50D+02 EigMin=1.00D-04
 Number of steps in this run=    244 maximum allowed number of steps=    252.
 Search for a saddle point of order  1.
 GradGradGradGradGradGradGradGradGradGradGradGradGradGradGradGradGradGrad

                          Input orientation:                          
 ---------------------------------------------------------------------
 Center     Atomic      Atomic             Coordinates (Angstroms)
 Number     Number       Type             X           Y           Z
 ---------------------------------------------------------------------
      1          7           0       -0.321890   -1.912470   -0.053314
      2          6           0       -1.321844   -1.326115    0.866452
      3          6           0       -0.580670   -1.272617    2.216930
      4          6           0        0.514424   -2.361443    2.110752
      5          6           0        0.286849   -2.996428    0.736327
      6          6           0       -1.868886   -0.013665    0.362617
      7          6           0       -1.030346    1.083574    0.170521
      8          7           0       -1.438403    2.263999   -0.297254
      9          6           0       -2.736202    2.415157   -0.585211
     10          6           0       -3.662001    1.390989   -0.419104
     11          6           0       -3.217586    0.159026    0.055125
     12          8           0        0.933105    3.558103   -0.490318
     13          8           0        1.829394   -0.620634   -0.818309
     14          1           0        1.206756   -3.344670    0.252075
     15          1           0        0.446553   -3.105019    2.910945
     16          1           0        1.512219   -1.910775    2.161335
     17          1           0       -1.278687   -1.450650    3.041307
     18          1           0       -0.139410   -0.282520    2.378236
     19          1           0       -0.411160   -3.849420    0.802792
     20          1           0       -2.165461   -2.036053    0.949976
     21          1           0        0.031793    1.012352    0.409131
     22          1           0       -3.041143    3.391935   -0.960869
     23          1           0       -4.709863    1.556645   -0.661949
     24          1           0       -3.919462   -0.665591    0.185909
     25          6           0       -0.895581   -2.372563   -1.316201
     26          1           0       -0.018349    3.274797   -0.483482
     27          1           0        0.939379   -1.023455   -0.484838
     28          1           0        2.022485   -0.949046   -1.720680
     29          1           0        1.965842    2.366160   -0.463037
     30          1           0        1.011713    4.316557   -1.072498
     31          8           0        2.591972    1.591225   -0.339654
     32          1           0        3.026017    1.672484    0.539839
     33          1           0        2.174618    0.511422   -0.575262
     34          1           0       -0.105000   -2.808515   -1.938301
     35          1           0       -1.333139   -1.523586   -1.854654
     36          1           0       -1.678030   -3.132646   -1.151516
     37          8           0        3.703190    1.778482    2.103713
     38          1           0        3.479372    2.522325    2.670831
     39          1           0        4.641554    1.619118    2.240725
     40          8           0        2.267332   -1.720572   -3.256648
     41          1           0        3.046335   -2.264159   -3.405928
     42          1           0        2.088232   -1.286725   -4.095615
 ---------------------------------------------------------------------
                    Distance matrix (angstroms):
                    1          2          3          4          5
     1  N    0.000000
     2  C    1.479760   0.000000
     3  C    2.372844   1.541425   0.000000
     4  C    2.363087   2.447870   1.547917   0.000000
     5  C    1.472773   2.322665   2.432344   1.531026   0.000000
     6  C    2.484282   1.508519   2.585138   3.774679   3.699152
     7  C    3.086793   2.525053   3.153036   4.244874   4.324530
     8  N    4.330012   3.775807   4.423175   5.568370   5.631774
     9  C    4.983992   4.254979   5.108619   6.375790   6.338024
    10  C    4.712004   3.809415   4.851605   6.158201   6.014804
    11  C    3.562009   2.541207   3.698152   4.950380   4.764661
    12  O    5.629667   5.548081   5.740781   6.479343   6.699566
    13  O    2.623372   3.642310   3.930161   3.652254   3.231213
    14  H    2.116889   3.293302   3.368820   2.213761   1.096358
    15  H    3.286261   3.235997   2.212361   1.094450   2.183177
    16  H    2.875522   3.170246   2.188726   1.096018   2.170443
    17  H    3.271913   2.178845   1.094770   2.216015   3.186419
    18  H    2.932997   2.184658   1.095912   2.195670   3.200447
    19  H    2.119590   2.683368   2.944220   2.186673   1.104187
    20  H    2.102526   1.105748   2.167849   2.938548   2.642308
    21  H    2.982202   2.740420   2.977303   3.809323   4.030190
    22  H    6.029486   5.343696   6.157141   7.428208   7.400486
    23  H    5.626678   4.703721   5.774331   7.094537   6.903099
    24  H    3.815031   2.765330   3.954878   5.122527   4.840332
    25  C    1.461400   2.457789   3.713767   3.705704   2.449535
    26  H    5.213916   4.968884   5.318590   6.227447   6.396041
    27  H    1.602298   2.651550   3.110013   2.950913   2.410324
    28  H    3.033874   4.244993   4.731373   4.353043   3.638831
    29  H    4.869113   5.119503   5.187258   5.575055   5.745854
    30  H    6.451202   6.406619   6.677940   7.414584   7.568159
    31  O    4.566011   5.028272   4.980298   5.093553   5.245749
    32  H    4.940871   5.291707   4.949186   5.004841   5.416677
    33  H    3.518556   4.204798   4.309379   4.268989   4.193918
    34  H    2.098360   3.397773   4.455467   4.120484   2.709703
    35  H    2.102066   2.728285   4.148131   4.454205   3.392169
    36  H    2.129317   2.731779   4.001292   4.005496   2.728233
    37  O    5.871726   6.034924   5.260559   5.225635   6.028341
    38  H    6.444995   6.412328   5.575980   5.740714   6.662668
    39  H    6.509263   6.791549   5.969449   5.735413   6.521498
    40  O    4.123378   5.480669   6.186423   5.682639   4.636159
    41  H    4.765359   6.181759   6.764233   6.070733   5.030831
    42  H    4.747678   6.020987   6.853573   6.492371   5.432838
                    6          7          8          9         10
     6  C    0.000000
     7  C    1.394268   0.000000
     8  N    2.410083   1.333689   0.000000
     9  C    2.747688   2.292202   1.337928   0.000000
    10  C    2.408195   2.714364   2.391941   1.390545   0.000000
    11  C    1.394046   2.377420   2.778592   2.394136   1.392886
    12  O    4.619110   3.227250   2.708510   3.844365   5.080989
    13  O    3.929411   3.472783   4.389886   5.487716   5.861861
    14  H    4.535128   4.961917   6.225415   7.030190   6.825082
    15  H    4.627278   5.218761   6.532377   7.268107   6.941436
    16  H    4.273907   4.403874   5.672704   6.656297   6.658293
    17  H    3.096553   3.837366   4.997011   5.497313   5.072430
    18  H    2.669474   2.744811   3.915404   4.775229   4.799416
    19  H    4.126952   5.011745   6.295969   6.824756   6.286723
    20  H    2.126735   3.410001   4.535928   4.742975   3.982289
    21  H    2.160429   1.090938   2.055985   3.258585   3.804399
    22  H    3.837175   3.263722   2.069154   1.090047   2.163968
    23  H    3.403933   3.802058   3.366868   2.153664   1.088315
    24  H    2.158957   3.377396   3.869315   3.389062   2.159131
    25  C    3.054530   3.764756   4.778139   5.181167   4.756279
    26  H    3.867086   2.500663   1.752982   2.852377   4.102326
    27  H    3.102291   2.957851   4.061575   5.034285   5.196783
    28  H    4.511965   4.126495   4.932296   5.937361   6.283569
    29  H    4.588073   3.320175   3.409810   4.703886   5.711874
    30  H    5.395204   4.020856   3.288931   4.230796   5.552430
    31  O    4.792506   3.693125   4.086361   5.397092   6.257682
    32  H    5.180211   4.115494   4.580574   5.917809   6.762277
    33  H    4.183929   3.339962   4.025262   5.266921   5.904587
    34  H    4.026997   4.522361   5.495580   6.003401   5.709295
    35  H    2.735540   3.315162   4.096630   4.369642   3.997393
    36  H    3.472329   4.465847   5.469092   5.676138   4.993580
    37  O    6.106655   5.160086   5.695292   7.007242   7.794921
    38  H    6.353185   5.353420   5.749850   7.017596   7.863004
    39  H    6.969871   6.061601   6.619901   7.940458   8.722142
    40  O    5.755077   5.521178   6.194134   7.019700   7.272583
    41  H    6.589845   6.373196   7.090906   7.955512   8.202621
    42  H    6.095515   5.791698   6.282702   7.021540   7.331580
                   11         12         13         14         15
    11  C    0.000000
    12  O    5.392538   0.000000
    13  O    5.181000   4.286345   0.000000
    14  H    5.647077   6.947971   2.992285   0.000000
    15  H    5.677641   7.496834   4.689537   2.775776   0.000000
    16  H    5.575953   6.105347   3.262414   2.407205   1.767421
    17  H    3.907386   6.515520   5.024513   4.188622   2.393822
    18  H    3.881620   4.912156   3.769404   3.963519   2.931490
    19  H    4.950017   7.638755   4.251248   1.782053   2.394601
    20  H    2.593472   6.555161   4.592288   3.683937   3.436671
    21  H    3.378158   2.846440   2.721143   4.515401   4.835684
    22  H    3.393387   4.005456   6.312144   8.055912   8.328588
    23  H    2.166662   5.989856   6.893974   7.737229   7.815709
    24  H    1.090746   6.468716   5.836079   5.784458   5.695500
    25  C    3.698809   6.260908   3.277597   2.797195   4.495173
    26  H    4.498138   0.992761   4.324424   6.771947   7.241569
    27  H    4.355477   4.581566   1.032276   2.450014   4.013369
    28  H    5.642663   4.797388   0.979496   3.208768   5.346376
    29  H    5.657549   1.577345   3.010942   5.805271   6.604982
    30  H    6.036851   0.959357   5.010895   7.777335   8.441979
    31  O    5.996500   2.577431   2.388086   5.160623   6.101141
    32  H    6.442677   2.999510   2.921449   5.344563   5.924552
    33  H    5.440352   3.291023   1.208223   4.060873   5.312108
    34  H    4.740067   6.611213   3.127792   2.608814   4.889510
    35  H    3.166951   5.728947   3.448325   3.769048   5.327210
    36  H    3.829010   7.212581   4.327038   3.215122   4.584562
    37  O    7.397060   4.191589   4.219607   5.992281   5.925022
    38  H    7.568114   4.189174   4.977421   6.740682   6.397081
    39  H    8.287026   4.997084   4.720426   6.355451   6.353322
    40  O    6.677204   6.107140   2.710563   4.009196   6.578080
    41  H    7.555622   6.845820   3.298165   4.234683   6.882499
    42  H    6.889887   6.148564   3.354312   4.890250   7.422478
                   16         17         18         19         20
    16  H    0.000000
    17  H    2.962300   0.000000
    18  H    2.329407   1.761290   0.000000
    19  H    3.050143   3.393766   3.908791   0.000000
    20  H    3.874070   2.345790   3.036394   2.527357   0.000000
    21  H    3.715717   3.835634   2.362917   4.897755   3.796474
    22  H    7.655063   6.524898   5.750765   7.903451   5.820756
    23  H    7.662130   5.876300   5.789153   7.060443   4.688258
    24  H    5.912356   3.967784   4.386552   4.777603   2.353398
    25  C    4.254880   4.470410   4.311489   2.627908   2.619426
    26  H    6.018958   6.028469   4.567121   7.250053   5.905084
    27  H    2.849160   4.187602   3.148009   3.386447   3.567082
    28  H    4.031790   5.816001   4.681790   4.550023   5.084573
    29  H    5.038380   6.113545   4.418192   6.773913   6.200302
    30  H    7.034760   7.445133   5.863801   8.498498   7.385153
    31  O    4.436757   5.972094   4.284658   6.318592   6.119923
    32  H    4.214330   5.877226   4.149900   6.509589   6.393192
    33  H    3.714132   5.371649   3.835130   5.253782   5.258542
    34  H    4.497594   5.293188   5.001432   2.948018   3.631025
    35  H    4.937018   4.896807   4.569747   3.649872   2.970073
    36  H    4.758743   4.535234   4.790586   2.436810   2.419995
    37  O    4.291188   6.010447   4.369058   7.091795   7.093860
    38  H    4.876644   6.209743   4.587848   7.695774   7.456829
    39  H    4.717964   6.716670   5.147111   7.583039   7.833375
    40  O    5.473656   7.232658   6.293832   5.308989   6.119221
    41  H    5.785569   7.806052   6.894376   5.672799   6.796231
    42  H    6.314321   7.892951   6.919651   6.067022   6.641791
                   21         22         23         24         25
    21  H    0.000000
    22  H    4.120953   0.000000
    23  H    4.891500   2.498453   0.000000
    24  H    4.298574   4.306978   2.506378   0.000000
    25  C    3.910811   6.161098   5.515022   3.783377   0.000000
    26  H    2.432680   3.062500   4.999420   5.585107   5.775433
    27  H    2.401542   5.963793   6.213068   4.917957   2.424528
    28  H    3.513692   6.712805   7.261123   6.246772   3.271867
    29  H    2.516748   5.135168   6.727549   6.652026   5.600993
    30  H    3.751432   4.158489   6.365697   7.121929   6.959992
    31  O    2.729522   5.946465   7.309026   6.911455   5.369198
    32  H    3.068914   6.482212   7.829531   7.336998   5.931797
    33  H    2.410738   5.970780   6.963913   6.253203   4.276971
    34  H    4.486443   6.929783   6.472129   4.863590   1.096394
    35  H    3.663160   5.280007   4.723625   3.404280   1.096426
    36  H    4.747644   6.668177   5.605456   3.591529   1.103211
    37  O    4.115546   7.581617   8.858756   8.231421   7.076417
    38  H    4.391026   7.514159   8.894017   8.430919   7.680922
    39  H    4.997279   8.509813   9.791753   9.095777   7.697084
    40  O    5.089641   7.719342   8.133503   7.158254   3.767552
    41  H    5.863247   8.661819   9.071195   7.998690   4.462893
    42  H    5.459618   7.617544   8.129509   7.403353   4.219873
                   26         27         28         29         30
    26  H    0.000000
    27  H    4.403659   0.000000
    28  H    4.851444   1.644980   0.000000
    29  H    2.182442   3.541693   3.546190   0.000000
    30  H    1.578997   5.372737   5.400775   2.255184   0.000000
    31  O    3.109482   3.096562   2.946952   1.003886   3.234457
    32  H    3.589256   3.559790   3.604087   1.615833   3.694343
    33  H    3.528990   1.972268   1.862282   1.869822   4.009818
    34  H    6.255453   2.527790   2.833933   5.765592   7.263836
    35  H    5.160743   2.700160   3.407089   5.286776   6.341717
    36  H    6.652529   3.426949   4.334267   6.632396   7.920327
    37  O    4.773090   4.710637   4.989004   3.154671   4.875878
    38  H    4.769691   5.383527   5.784315   3.483718   4.829195
    39  H    5.645996   5.302639   5.398863   3.876575   5.606190
    40  O    6.153739   3.151565   1.736203   4.959490   6.541714
    41  H    6.972303   3.809380   2.370201   5.591773   7.272579
    42  H    6.188107   3.798274   2.399722   5.153074   6.457159
                   31         32         33         34         35
    31  O    0.000000
    32  H    0.984127   0.000000
    33  H    1.181385   1.821097   0.000000
    34  H    5.402503   6.001983   4.251649   0.000000
    35  H    5.234861   5.911912   4.252348   1.779428   0.000000
    36  H    6.419267   6.933831   5.334248   1.788439   1.789533
    37  O    2.690709   1.707484   3.334499   7.202828   7.206728
    38  H    3.273751   2.338565   4.035249   7.906306   7.746591
    39  H    3.295439   2.346449   3.904170   7.719972   7.895928
    40  O    4.425183   5.147985   3.490018   2.923973   3.868822
    41  H    4.946966   5.573746   4.059114   3.518688   4.704752
    42  H    4.758528   5.578870   3.953945   3.432217   4.096802
                   36         37         38         39         40
    36  H    0.000000
    37  O    7.979550   0.000000
    38  H    8.554989   0.961779   0.000000
    39  H    8.603703   0.961611   1.533441   0.000000
    40  O    4.689501   6.560376   7.389602   6.856498   0.000000
    41  H    5.306248   6.865169   7.747577   7.036281   0.961570
    42  H    5.124439   7.101778   7.888531   7.423785   0.961335
                   41         42
    41  H    0.000000
    42  H    1.532647   0.000000
 Stoichiometry    C10H25N2O5(1+)
 Framework group  C1[X(C10H25N2O5)]
 Deg. of freedom   120
 Full point group                 C1      NOp   1
 Largest Abelian subgroup         C1      NOp   1
 Largest concise Abelian subgroup C1      NOp   1
                         Standard orientation:                         
 ---------------------------------------------------------------------
 Center     Atomic      Atomic             Coordinates (Angstroms)
 Number     Number       Type             X           Y           Z
 ---------------------------------------------------------------------
      1          7           0        0.321891   -1.912470    0.053314
      2          6           0        1.321845   -1.326114   -0.866452
      3          6           0        0.580671   -1.272617   -2.216930
      4          6           0       -0.514423   -2.361443   -2.110752
      5          6           0       -0.286847   -2.996428   -0.736327
      6          6           0        1.868886   -0.013664   -0.362617
      7          6           0        1.030345    1.083575   -0.170521
      8          7           0        1.438402    2.264000    0.297254
      9          6           0        2.736201    2.415159    0.585211
     10          6           0        3.662000    1.390991    0.419104
     11          6           0        3.217586    0.159028   -0.055125
     12          8           0       -0.933107    3.558103    0.490318
     13          8           0       -1.829394   -0.620635    0.818309
     14          1           0       -1.206754   -3.344671   -0.252075
     15          1           0       -0.446551   -3.105019   -2.910945
     16          1           0       -1.512218   -1.910776   -2.161335
     17          1           0        1.278688   -1.450649   -3.041307
     18          1           0        0.139410   -0.282520   -2.378236
     19          1           0        0.411162   -3.849420   -0.802792
     20          1           0        2.165462   -2.036052   -0.949976
     21          1           0       -0.031794    1.012352   -0.409131
     22          1           0        3.041141    3.391937    0.960869
     23          1           0        4.709862    1.556648    0.661949
     24          1           0        3.919462   -0.665589   -0.185909
     25          6           0        0.895582   -2.372562    1.316201
     26          1           0        0.018347    3.274797    0.483482
     27          1           0       -0.939378   -1.023455    0.484838
     28          1           0       -2.022484   -0.949047    1.720680
     29          1           0       -1.965843    2.366159    0.463037
     30          1           0       -1.011715    4.316556    1.072498
     31          8           0       -2.591973    1.591224    0.339654
     32          1           0       -3.026018    1.672482   -0.539839
     33          1           0       -2.174618    0.511421    0.575262
     34          1           0        0.105002   -2.808515    1.938301
     35          1           0        1.333140   -1.523585    1.854654
     36          1           0        1.678032   -3.132645    1.151516
     37          8           0       -3.703191    1.778480   -2.103713
     38          1           0       -3.479373    2.522323   -2.670831
     39          1           0       -4.641555    1.619115   -2.240725
     40          8           0       -2.267331   -1.720573    3.256648
     41          1           0       -3.046334   -2.264161    3.405928
     42          1           0       -2.088231   -1.286726    4.095615
 ---------------------------------------------------------------------
 Rotational constants (GHZ):           0.3372768           0.3136248           0.2398451
 Standard basis: Aug-CC-pVDZ (5D, 7F)
 There are   650 symmetry adapted cartesian basis functions of A   symmetry.
 There are   616 symmetry adapted basis functions of A   symmetry.
   616 basis functions,  1006 primitive gaussians,   650 cartesian basis functions
    69 alpha electrons       69 beta electrons
       nuclear repulsion energy      1381.1808479581 Hartrees.
 NAtoms=   42 NActive=   42 NUniq=   42 SFac= 1.00D+00 NAtFMM=   60 NAOKFM=F Big=F
 Integral buffers will be    131072 words long.
 Raffenetti 2 integral format.
 Two-electron integral symmetry is turned on.
 Nuclear repulsion after empirical dispersion term =     1381.1487576818 Hartrees.
 One-electron integrals computed using PRISM.
 NBasis=   616 RedAO= T EigKep=  1.71D-06  NBF=   616
 NBsUse=   616 1.00D-06 EigRej= -1.00D+00 NBFU=   616
 ExpMin= 2.97D-02 ExpMax= 1.17D+04 ExpMxC= 4.01D+02 IAcc=3 IRadAn=         5 AccDes= 0.00D+00
 Harris functional with IExCor= 4639 and IRadAn=       5 diagonalized for initial guess.
 HarFok:  IExCor= 4639 AccDes= 0.00D+00 IRadAn=         5 IDoV= 1 UseB2=F ITyADJ=14
 ICtDFT=  3500011 ScaDFX=  1.000000  1.000000  1.000000  1.000000
 FoFCou: FMM=F IPFlag=           0 FMFlag=      100000 FMFlg1=           0
         NFxFlg=           0 DoJE=T BraDBF=F KetDBF=T FulRan=T
         wScrn=  0.000000 ICntrl=       500 IOpCl=  0 I1Cent=   200000004 NGrid=           0
         NMat0=    1 NMatS0=      1 NMatT0=    0 NMatD0=    1 NMtDS0=    0 NMtDT0=    0
 Petite list used in FoFCou.
 Requested convergence on RMS density matrix=1.00D-08 within 128 cycles.
 Requested convergence on MAX density matrix=1.00D-06.
 Requested convergence on             energy=1.00D-06.
 No special actions if energy rises.
 SCF Done:  E(RwB97XD) =  -881.457736807     A.U. after   16 cycles
            NFock= 16  Conv=0.14D-08     -V/T= 2.0062
 DoSCS=F DFT=T ScalE2(SS,OS)=  1.000000  1.000000
 Range of M.O.s used for correlation:     1   616
 NBasis=   616 NAE=    69 NBE=    69 NFC=     0 NFV=     0
 NROrb=    616 NOA=    69 NOB=    69 NVA=   547 NVB=   547

 **** Warning!!: The largest alpha MO coefficient is  0.11691808D+03

 Symmetrizing basis deriv contribution to polar:
 IMax=3 JMax=2 DiffMx= 0.00D+00
 G2DrvN: will do    43 centers at a time, making    1 passes.
 Calling FoFCou, ICntrl=  3107 FMM=F I1Cent=   0 AccDes= 0.00D+00.
 End of G2Drv F.D. properties file   721 does not exist.
 End of G2Drv F.D. properties file   722 does not exist.
 End of G2Drv F.D. properties file   788 does not exist.
          IDoAtm=111111111111111111111111111111111111111111
          Differentiating once with respect to electric field.
                with respect to dipole field.
          Differentiating once with respect to nuclear coordinates.
 CalDSu exits because no D1Ps are significant.
          There are   129 degrees of freedom in the 1st order CPHF.  IDoFFX=6 NUNeed=     3.
    126 vectors produced by pass  0 Test12= 3.77D-14 1.00D-09 XBig12= 7.75D+01 2.92D+00.
 AX will form   126 AO Fock derivatives at one time.
    126 vectors produced by pass  1 Test12= 3.77D-14 1.00D-09 XBig12= 1.01D+01 7.41D-01.
    126 vectors produced by pass  2 Test12= 3.77D-14 1.00D-09 XBig12= 2.12D-01 5.94D-02.
    126 vectors produced by pass  3 Test12= 3.77D-14 1.00D-09 XBig12= 2.11D-03 5.39D-03.
    126 vectors produced by pass  4 Test12= 3.77D-14 1.00D-09 XBig12= 2.03D-05 4.22D-04.
    126 vectors produced by pass  5 Test12= 3.77D-14 1.00D-09 XBig12= 1.43D-07 2.70D-05.
    120 vectors produced by pass  6 Test12= 3.77D-14 1.00D-09 XBig12= 8.64D-10 2.14D-06.
     44 vectors produced by pass  7 Test12= 3.77D-14 1.00D-09 XBig12= 4.38D-12 1.25D-07.
      3 vectors produced by pass  8 Test12= 3.77D-14 1.00D-09 XBig12= 2.90D-14 8.60D-09.
      3 vectors produced by pass  9 Test12= 3.77D-14 1.00D-09 XBig12= 3.97D-15 4.15D-09.
 InvSVY:  IOpt=1 It=  1 EMax= 1.42D-14
 Solved reduced A of dimension   926 with   129 vectors.
 Isotropic polarizability for W=    0.000000      172.71 Bohr**3.
 End of Minotr F.D. properties file   721 does not exist.
 End of Minotr F.D. properties file   722 does not exist.
 End of Minotr F.D. properties file   788 does not exist.

 **********************************************************************

            Population analysis using the SCF density.

 **********************************************************************

 Orbital symmetries:
       Occupied  (A) (A) (A) (A) (A) (A) (A) (A) (A) (A) (A) (A)
                 (A) (A) (A) (A) (A) (A) (A) (A) (A) (A) (A) (A)
                 (A) (A) (A) (A) (A) (A) (A) (A) (A) (A) (A) (A)
                 (A) (A) (A) (A) (A) (A) (A) (A) (A) (A) (A) (A)
                 (A) (A) (A) (A) (A) (A) (A) (A) (A) (A) (A) (A)
                 (A) (A) (A) (A) (A) (A) (A) (A) (A)
       Virtual   (A) (A) (A) (A) (A) (A) (A) (A) (A) (A) (A) (A)
                 (A) (A) (A) (A) (A) (A) (A) (A) (A) (A) (A) (A)
                 (A) (A) (A) (A) (A) (A) (A) (A) (A) (A) (A) (A)
                 (A) (A) (A) (A) (A) (A) (A) (A) (A) (A) (A) (A)
                 (A) (A) (A) (A) (A) (A) (A) (A) (A) (A) (A) (A)
                 (A) (A) (A) (A) (A) (A) (A) (A) (A) (A) (A) (A)
                 (A) (A) (A) (A) (A) (A) (A) (A) (A) (A) (A) (A)
                 (A) (A) (A) (A) (A) (A) (A) (A) (A) (A) (A) (A)
                 (A) (A) (A) (A) (A) (A) (A) (A) (A) (A) (A) (A)
                 (A) (A) (A) (A) (A) (A) (A) (A) (A) (A) (A) (A)
                 (A) (A) (A) (A) (A) (A) (A) (A) (A) (A) (A) (A)
                 (A) (A) (A) (A) (A) (A) (A) (A) (A) (A) (A) (A)
                 (A) (A) (A) (A) (A) (A) (A) (A) (A) (A) (A) (A)
                 (A) (A) (A) (A) (A) (A) (A) (A) (A) (A) (A) (A)
                 (A) (A) (A) (A) (A) (A) (A) (A) (A) (A) (A) (A)
                 (A) (A) (A) (A) (A) (A) (A) (A) (A) (A) (A) (A)
                 (A) (A) (A) (A) (A) (A) (A) (A) (A) (A) (A) (A)
                 (A) (A) (A) (A) (A) (A) (A) (A) (A) (A) (A) (A)
                 (A) (A) (A) (A) (A) (A) (A) (A) (A) (A) (A) (A)
                 (A) (A) (A) (A) (A) (A) (A) (A) (A) (A) (A) (A)
                 (A) (A) (A) (A) (A) (A) (A) (A) (A) (A) (A) (A)
                 (A) (A) (A) (A) (A) (A) (A) (A) (A) (A) (A) (A)
                 (A) (A) (A) (A) (A) (A) (A) (A) (A) (A) (A) (A)
                 (A) (A) (A) (A) (A) (A) (A) (A) (A) (A) (A) (A)
                 (A) (A) (A) (A) (A) (A) (A) (A) (A) (A) (A) (A)
                 (A) (A) (A) (A) (A) (A) (A) (A) (A) (A) (A) (A)
                 (A) (A) (A) (A) (A) (A) (A) (A) (A) (A) (A) (A)
                 (A) (A) (A) (A) (A) (A) (A) (A) (A) (A) (A) (A)
                 (A) (A) (A) (A) (A) (A) (A) (A) (A) (A) (A) (A)
                 (A) (A) (A) (A) (A) (A) (A) (A) (A) (A) (A) (A)
                 (A) (A) (A) (A) (A) (A) (A) (A) (A) (A) (A) (A)
                 (A) (A) (A) (A) (A) (A) (A) (A) (A) (A) (A) (A)
                 (A) (A) (A) (A) (A) (A) (A) (A) (A) (A) (A) (A)
                 (A) (A) (A) (A) (A) (A) (A) (A) (A) (A) (A) (A)
                 (A) (A) (A) (A) (A) (A) (A) (A) (A) (A) (A) (A)
                 (A) (A) (A) (A) (A) (A) (A) (A) (A) (A) (A) (A)
                 (A) (A) (A) (A) (A) (A) (A) (A) (A) (A) (A) (A)
                 (A) (A) (A) (A) (A) (A) (A) (A) (A) (A) (A) (A)
                 (A) (A) (A) (A) (A) (A) (A) (A) (A) (A) (A) (A)
                 (A) (A) (A) (A) (A) (A) (A) (A) (A) (A) (A) (A)
                 (A) (A) (A) (A) (A) (A) (A) (A) (A) (A) (A) (A)
                 (A) (A) (A) (A) (A) (A) (A) (A) (A) (A) (A) (A)
                 (A) (A) (A) (A) (A) (A) (A) (A) (A) (A) (A) (A)
                 (A) (A) (A) (A) (A) (A) (A) (A) (A) (A) (A) (A)
                 (A) (A) (A) (A) (A) (A) (A) (A) (A) (A) (A) (A)
                 (A) (A) (A) (A) (A) (A) (A)
 The electronic state is 1-A.
 Alpha  occ. eigenvalues --  -19.41864 -19.41603 -19.41057 -19.40082 -19.38036
 Alpha  occ. eigenvalues --  -14.58145 -14.57542 -10.45180 -10.44892 -10.44859
 Alpha  occ. eigenvalues --  -10.43184 -10.43017 -10.42969 -10.42789 -10.42065
 Alpha  occ. eigenvalues --  -10.40421 -10.39986  -1.27648  -1.26275  -1.25692
 Alpha  occ. eigenvalues --   -1.23886  -1.22080  -1.17429  -1.16551  -1.03376
 Alpha  occ. eigenvalues --   -1.00176  -0.98951  -0.93291  -0.88872  -0.84997
 Alpha  occ. eigenvalues --   -0.83879  -0.79713  -0.79067  -0.78296  -0.77138
 Alpha  occ. eigenvalues --   -0.76495  -0.76202  -0.76184  -0.74039  -0.72059
 Alpha  occ. eigenvalues --   -0.70394  -0.69404  -0.68292  -0.65649  -0.65147
 Alpha  occ. eigenvalues --   -0.64545  -0.63534  -0.62581  -0.61466  -0.61159
 Alpha  occ. eigenvalues --   -0.60776  -0.60191  -0.58984  -0.58131  -0.57999
 Alpha  occ. eigenvalues --   -0.56264  -0.56117  -0.55043  -0.54952  -0.54769
 Alpha  occ. eigenvalues --   -0.54047  -0.53893  -0.53241  -0.51969  -0.51441
 Alpha  occ. eigenvalues --   -0.48175  -0.47200  -0.45166  -0.44691
 Alpha virt. eigenvalues --   -0.08060  -0.06876  -0.06656  -0.05780  -0.04449
 Alpha virt. eigenvalues --   -0.04164  -0.03100  -0.02765  -0.02612  -0.02266
 Alpha virt. eigenvalues --   -0.02176  -0.01319  -0.00818  -0.00452  -0.00260
 Alpha virt. eigenvalues --    0.00082   0.00142   0.00780   0.01214   0.01379
 Alpha virt. eigenvalues --    0.01893   0.02311   0.02462   0.02862   0.03308
 Alpha virt. eigenvalues --    0.03608   0.03927   0.04096   0.04845   0.04903
 Alpha virt. eigenvalues --    0.05323   0.05439   0.05830   0.06235   0.06477
 Alpha virt. eigenvalues --    0.06658   0.06794   0.06966   0.07236   0.07633
 Alpha virt. eigenvalues --    0.07926   0.08003   0.08444   0.08593   0.08795
 Alpha virt. eigenvalues --    0.09345   0.09442   0.09688   0.10001   0.10383
 Alpha virt. eigenvalues --    0.10584   0.10837   0.11154   0.11459   0.11788
 Alpha virt. eigenvalues --    0.11872   0.12126   0.12389   0.12658   0.12813
 Alpha virt. eigenvalues --    0.13120   0.13423   0.14057   0.14292   0.14388
 Alpha virt. eigenvalues --    0.14958   0.15385   0.15458   0.15863   0.16084
 Alpha virt. eigenvalues --    0.16280   0.16490   0.16733   0.17108   0.17300
 Alpha virt. eigenvalues --    0.17527   0.17809   0.18018   0.18351   0.18847
 Alpha virt. eigenvalues --    0.19002   0.19385   0.19582   0.19956   0.20139
 Alpha virt. eigenvalues --    0.20353   0.20414   0.20815   0.21072   0.21541
 Alpha virt. eigenvalues --    0.21790   0.21924   0.22553   0.22667   0.22789
 Alpha virt. eigenvalues --    0.23156   0.23326   0.24038   0.24340   0.24488
 Alpha virt. eigenvalues --    0.24812   0.25405   0.25710   0.26099   0.26331
 Alpha virt. eigenvalues --    0.26514   0.26996   0.27232   0.27362   0.27604
 Alpha virt. eigenvalues --    0.28279   0.28618   0.29013   0.29322   0.29531
 Alpha virt. eigenvalues --    0.29872   0.30465   0.30474   0.30850   0.31000
 Alpha virt. eigenvalues --    0.31373   0.31801   0.32033   0.32629   0.32892
 Alpha virt. eigenvalues --    0.32995   0.33567   0.33884   0.34381   0.34639
 Alpha virt. eigenvalues --    0.34916   0.35525   0.35823   0.36032   0.36294
 Alpha virt. eigenvalues --    0.37147   0.37440   0.37460   0.37766   0.38741
 Alpha virt. eigenvalues --    0.38805   0.39495   0.39943   0.40527   0.40639
 Alpha virt. eigenvalues --    0.41033   0.41395   0.41538   0.42039   0.42256
 Alpha virt. eigenvalues --    0.42657   0.42807   0.43412   0.43684   0.43962
 Alpha virt. eigenvalues --    0.44397   0.44698   0.44999   0.45631   0.46007
 Alpha virt. eigenvalues --    0.46329   0.46799   0.47003   0.47222   0.47613
 Alpha virt. eigenvalues --    0.48020   0.48686   0.48845   0.49659   0.49696
 Alpha virt. eigenvalues --    0.50161   0.50441   0.50777   0.51318   0.51374
 Alpha virt. eigenvalues --    0.51942   0.52063   0.52250   0.52928   0.53294
 Alpha virt. eigenvalues --    0.53392   0.53863   0.54413   0.54687   0.54989
 Alpha virt. eigenvalues --    0.55314   0.55497   0.55870   0.56351   0.56707
 Alpha virt. eigenvalues --    0.57040   0.57235   0.57732   0.58261   0.58904
 Alpha virt. eigenvalues --    0.59210   0.59344   0.59747   0.59774   0.60496
 Alpha virt. eigenvalues --    0.60598   0.61470   0.61791   0.62378   0.62652
 Alpha virt. eigenvalues --    0.62749   0.63132   0.63801   0.64208   0.65098
 Alpha virt. eigenvalues --    0.65430   0.65852   0.66079   0.66719   0.66834
 Alpha virt. eigenvalues --    0.67088   0.67516   0.68241   0.68740   0.69266
 Alpha virt. eigenvalues --    0.69583   0.70249   0.70721   0.71107   0.71778
 Alpha virt. eigenvalues --    0.72073   0.72280   0.72744   0.72993   0.73462
 Alpha virt. eigenvalues --    0.73921   0.74156   0.74373   0.74787   0.75893
 Alpha virt. eigenvalues --    0.76247   0.76772   0.77242   0.77466   0.77938
 Alpha virt. eigenvalues --    0.78123   0.78931   0.79370   0.79939   0.80110
 Alpha virt. eigenvalues --    0.80945   0.81600   0.82513   0.82637   0.83541
 Alpha virt. eigenvalues --    0.83629   0.83958   0.84567   0.85105   0.86235
 Alpha virt. eigenvalues --    0.86982   0.87694   0.87964   0.88696   0.88929
 Alpha virt. eigenvalues --    0.89112   0.90056   0.90357   0.91117   0.92060
 Alpha virt. eigenvalues --    0.92264   0.92571   0.93680   0.93800   0.94637
 Alpha virt. eigenvalues --    0.95601   0.96184   0.96722   0.96972   0.97614
 Alpha virt. eigenvalues --    0.98357   0.99121   1.00088   1.00553   1.01105
 Alpha virt. eigenvalues --    1.01617   1.02234   1.02490   1.04461   1.04537
 Alpha virt. eigenvalues --    1.05175   1.05699   1.06295   1.07051   1.07598
 Alpha virt. eigenvalues --    1.08384   1.08957   1.09290   1.10264   1.11239
 Alpha virt. eigenvalues --    1.12209   1.13078   1.13531   1.14858   1.15290
 Alpha virt. eigenvalues --    1.15539   1.16329   1.17291   1.18088   1.18877
 Alpha virt. eigenvalues --    1.19527   1.20289   1.21149   1.21742   1.22331
 Alpha virt. eigenvalues --    1.23193   1.23785   1.24315   1.25425   1.26557
 Alpha virt. eigenvalues --    1.27217   1.27695   1.28651   1.29601   1.30266
 Alpha virt. eigenvalues --    1.31390   1.31819   1.33414   1.34071   1.34394
 Alpha virt. eigenvalues --    1.34531   1.35073   1.36102   1.37650   1.37996
 Alpha virt. eigenvalues --    1.39206   1.39537   1.40358   1.41151   1.42745
 Alpha virt. eigenvalues --    1.43889   1.44225   1.44782   1.46232   1.46814
 Alpha virt. eigenvalues --    1.47637   1.48786   1.50121   1.50505   1.50905
 Alpha virt. eigenvalues --    1.52025   1.52591   1.53289   1.54695   1.56185
 Alpha virt. eigenvalues --    1.56675   1.57901   1.58337   1.59044   1.60766
 Alpha virt. eigenvalues --    1.61380   1.62170   1.62599   1.63817   1.64556
 Alpha virt. eigenvalues --    1.65952   1.66814   1.66976   1.67676   1.68446
 Alpha virt. eigenvalues --    1.69137   1.69975   1.70482   1.70908   1.72034
 Alpha virt. eigenvalues --    1.72243   1.72954   1.73605   1.73908   1.74578
 Alpha virt. eigenvalues --    1.75393   1.75654   1.76209   1.76968   1.78017
 Alpha virt. eigenvalues --    1.78524   1.79536   1.80314   1.81485   1.81640
 Alpha virt. eigenvalues --    1.82407   1.83508   1.84198   1.84752   1.85094
 Alpha virt. eigenvalues --    1.86047   1.86658   1.87059   1.87670   1.88091
 Alpha virt. eigenvalues --    1.88153   1.88387   1.89280   1.89895   1.91701
 Alpha virt. eigenvalues --    1.91854   1.93198   1.93758   1.94202   1.94725
 Alpha virt. eigenvalues --    1.96207   1.97784   1.98003   1.98791   1.99675
 Alpha virt. eigenvalues --    2.00299   2.02206   2.02260   2.02833   2.04145
 Alpha virt. eigenvalues --    2.04684   2.05468   2.06743   2.08126   2.09331
 Alpha virt. eigenvalues --    2.10001   2.10822   2.11844   2.12813   2.13215
 Alpha virt. eigenvalues --    2.14023   2.14611   2.14955   2.15302   2.16998
 Alpha virt. eigenvalues --    2.17946   2.18457   2.18724   2.19974   2.20685
 Alpha virt. eigenvalues --    2.21112   2.22071   2.23345   2.24409   2.24846
 Alpha virt. eigenvalues --    2.24967   2.26247   2.28847   2.28954   2.29312
 Alpha virt. eigenvalues --    2.29886   2.30331   2.31399   2.32395   2.33291
 Alpha virt. eigenvalues --    2.34479   2.35556   2.37802   2.38166   2.38902
 Alpha virt. eigenvalues --    2.40859   2.42367   2.42601   2.45128   2.45920
 Alpha virt. eigenvalues --    2.47028   2.47224   2.47860   2.51103   2.52087
 Alpha virt. eigenvalues --    2.52334   2.53030   2.53649   2.54561   2.55327
 Alpha virt. eigenvalues --    2.56898   2.57866   2.59321   2.59816   2.61089
 Alpha virt. eigenvalues --    2.62571   2.63125   2.64359   2.65654   2.66764
 Alpha virt. eigenvalues --    2.67406   2.68409   2.68952   2.70888   2.71418
 Alpha virt. eigenvalues --    2.72693   2.73417   2.74155   2.75342   2.76541
 Alpha virt. eigenvalues --    2.77303   2.78646   2.79587   2.82167   2.83631
 Alpha virt. eigenvalues --    2.84693   2.85959   2.86895   2.87870   2.88910
 Alpha virt. eigenvalues --    2.89578   2.92787   2.93246   2.94398   2.95667
 Alpha virt. eigenvalues --    2.97540   3.00642   3.02097   3.02332   3.05551
 Alpha virt. eigenvalues --    3.08457   3.12742   3.17595   3.19070   3.24634
 Alpha virt. eigenvalues --    3.29302   3.29943   3.33064   3.33894   3.36472
 Alpha virt. eigenvalues --    3.37412   3.39059   3.40396   3.42086   3.42688
 Alpha virt. eigenvalues --    3.43818   3.44782   3.45508   3.47005   3.51791
 Alpha virt. eigenvalues --    3.54977   3.57910   3.66349   3.67272   3.68055
 Alpha virt. eigenvalues --    3.70270   3.84242   3.89978   3.90621   3.94198
 Alpha virt. eigenvalues --    4.00281   4.02287   4.10123   4.13586   4.29390
 Alpha virt. eigenvalues --    4.37162   5.07576
          Condensed to atoms (all electrons):
               1          2          3          4          5          6
     1  N   16.509276  -6.061082  -0.990290  -0.547718  -0.197603   2.002867
     2  C   -6.061082  28.274724  -2.147684   0.792050  -0.820497  -9.597882
     3  C   -0.990290  -2.147684   9.720583  -1.362280   1.095420   0.071064
     4  C   -0.547718   0.792050  -1.362280   6.684409  -0.166473   0.010469
     5  C   -0.197603  -0.820497   1.095420  -0.166473   6.288494  -0.241782
     6  C    2.002867  -9.597882   0.071064   0.010469  -0.241782  24.012056
     7  C    0.325710  -2.010990  -0.964820   0.037361  -0.389794  -4.169373
     8  N   -0.057446   0.678024  -0.009354   0.008362   0.053362  -0.046444
     9  C    0.102564  -0.800351  -0.081200   0.007854  -0.062492  -0.981372
    10  C   -0.053209   0.273394  -0.088281  -0.029949   0.031887   0.609188
    11  C   -0.516783  -1.146634   0.043513  -0.014712  -0.004498  -8.880884
    12  O   -0.003688   0.005717  -0.004252   0.000310  -0.001396  -0.056554
    13  O   -0.356136   0.293479   0.037266   0.055310   0.005044  -0.089412
    14  H   -1.271850   0.562356   0.195558   0.105095  -0.250862  -0.276884
    15  H   -0.152888   0.082087   0.271842  -0.332259   0.149427  -0.076682
    16  H    0.191616   0.063006   0.179927  -0.423223  -0.092717   0.022462
    17  H    0.426880  -0.014460  -1.302942   0.109823  -0.241318   0.516038
    18  H   -0.125733   0.104966  -0.031804   0.376086   0.071787  -0.195365
    19  H   -0.274372   0.107077  -0.084617   0.004855  -0.315496   0.245607
    20  H   -0.198577  -2.929835   0.826747  -0.073400   0.036005   1.209898
    21  H   -0.080030  -0.350682  -0.292539   0.006829   0.011121  -0.366647
    22  H    0.007198  -0.049897   0.002154   0.000257  -0.001460  -0.139523
    23  H   -0.003910   0.069992   0.004456   0.000820  -0.000184   0.031124
    24  H    0.028158  -0.039174  -0.090998  -0.009847   0.005296   1.131180
    25  C    0.987131  -1.112745  -0.335823   0.010988  -0.186351   0.805258
    26  H   -0.013709   0.060162  -0.004808  -0.001110  -0.005158  -0.039998
    27  H   -0.555271   0.827628   0.145084  -0.097794  -0.286706  -0.389912
    28  H    0.034313   0.010370  -0.019803   0.025713   0.019149  -0.007129
    29  H   -0.006348   0.018490  -0.000344   0.001891  -0.005666  -0.024519
    30  H    0.002455  -0.009788   0.000993   0.000020   0.000501   0.014746
    31  O   -0.046363  -0.034802   0.031811  -0.024355   0.023163   0.034633
    32  H   -0.004860   0.006812   0.001449   0.002301   0.002013  -0.009564
    33  H    0.041124  -0.116817   0.023421  -0.034339   0.029645   0.084878
    34  H   -0.425420   0.166936  -0.120843   0.101996  -0.030124  -0.025021
    35  H    0.320939  -0.023068   0.141006  -0.060071   0.043094  -0.070491
    36  H   -0.800034  -0.165765   0.007675  -0.013578   0.008607   0.288976
    37  O    0.001440   0.002249   0.002630  -0.000021   0.002132   0.000852
    38  H    0.001424   0.000581  -0.001724   0.000532  -0.000162  -0.000309
    39  H   -0.000741   0.000002   0.001164  -0.000474  -0.000250  -0.000229
    40  O   -0.004801  -0.007548   0.003103  -0.000032   0.007573   0.001533
    41  H   -0.001511  -0.003970  -0.000080  -0.000834   0.000255   0.001361
    42  H    0.001532   0.004689  -0.000001  -0.000253  -0.001476  -0.002000
               7          8          9         10         11         12
     1  N    0.325710  -0.057446   0.102564  -0.053209  -0.516783  -0.003688
     2  C   -2.010990   0.678024  -0.800351   0.273394  -1.146634   0.005717
     3  C   -0.964820  -0.009354  -0.081200  -0.088281   0.043513  -0.004252
     4  C    0.037361   0.008362   0.007854  -0.029949  -0.014712   0.000310
     5  C   -0.389794   0.053362  -0.062492   0.031887  -0.004498  -0.001396
     6  C   -4.169373  -0.046444  -0.981372   0.609188  -8.880884  -0.056554
     7  C   17.770541  -0.951660  -1.316660  -0.279960  -1.526139  -0.092748
     8  N   -0.951660   8.035214   0.140177   0.277340  -0.448007  -0.018741
     9  C   -1.316660   0.140177  10.303039  -2.613038   1.382850   0.055181
    10  C   -0.279960   0.277340  -2.613038  11.701736  -4.114523  -0.017594
    11  C   -1.526139  -0.448007   1.382850  -4.114523  22.185234   0.026160
    12  O   -0.092748  -0.018741   0.055181  -0.017594   0.026160   7.973985
    13  O   -0.251049   0.028481  -0.002223  -0.004874  -0.004979   0.003949
    14  H   -0.027886   0.003588  -0.003500   0.001609   0.022209  -0.000121
    15  H    0.010648  -0.000274   0.002352  -0.001842   0.007225   0.000002
    16  H   -0.008813   0.000713  -0.004441   0.001723  -0.000397  -0.000113
    17  H    0.365100  -0.015418   0.000139   0.001618  -0.024714   0.000247
    18  H   -0.318468   0.016079   0.014992  -0.045789   0.034672  -0.002312
    19  H    0.025724  -0.000936  -0.001422   0.000484   0.017836  -0.000015
    20  H   -0.277243  -0.003452   0.041258  -0.024914  -0.064396  -0.000180
    21  H   -1.186739   0.040027  -0.198032   0.278701  -0.300845   0.065320
    22  H    0.219175  -0.191763  -0.473936   0.104766   0.222212   0.003802
    23  H   -0.081199  -0.053434   0.395833  -1.205436   0.551342  -0.000269
    24  H    0.101642  -0.031857  -0.181833   0.618275  -2.419210   0.000465
    25  C    0.017094  -0.012016  -0.052341   0.131372  -0.326388  -0.001038
    26  H   -0.070215   0.126321   0.119030  -0.087962   0.020825   0.260252
    27  H   -0.005488  -0.047995   0.036843  -0.057502   0.012388   0.003636
    28  H    0.020468   0.008493   0.003939  -0.001787   0.006547   0.004342
    29  H    0.058742  -0.018251  -0.000308  -0.003912   0.002792   0.028815
    30  H    0.019021  -0.010839  -0.014554   0.011724  -0.007430   0.345410
    31  O   -0.170696   0.049737   0.005171   0.006004  -0.000086  -0.109041
    32  H    0.003892  -0.002762   0.000482  -0.002377   0.003822   0.005054
    33  H   -0.009240  -0.005031  -0.014394   0.017617  -0.016214  -0.018795
    34  H   -0.045484   0.002718  -0.008930   0.025876  -0.046946  -0.000223
    35  H    0.053947  -0.008905  -0.005582   0.000101   0.092532  -0.000238
    36  H    0.004692   0.000385   0.006754  -0.014628  -0.003441  -0.000037
    37  O    0.010432  -0.004404  -0.001258  -0.000001   0.000737   0.001759
    38  H   -0.002809   0.000195  -0.000132   0.000069  -0.000017  -0.000371
    39  H    0.002525  -0.000259  -0.000007   0.000021   0.000046  -0.000031
    40  O   -0.002120  -0.000021   0.000122  -0.000165  -0.000049   0.000125
    41  H    0.000794  -0.000244   0.000026  -0.000023  -0.000107  -0.000075
    42  H   -0.000241   0.000017   0.000033  -0.000204   0.000084   0.000026
              13         14         15         16         17         18
     1  N   -0.356136  -1.271850  -0.152888   0.191616   0.426880  -0.125733
     2  C    0.293479   0.562356   0.082087   0.063006  -0.014460   0.104966
     3  C    0.037266   0.195558   0.271842   0.179927  -1.302942  -0.031804
     4  C    0.055310   0.105095  -0.332259  -0.423223   0.109823   0.376086
     5  C    0.005044  -0.250862   0.149427  -0.092717  -0.241318   0.071787
     6  C   -0.089412  -0.276884  -0.076682   0.022462   0.516038  -0.195365
     7  C   -0.251049  -0.027886   0.010648  -0.008813   0.365100  -0.318468
     8  N    0.028481   0.003588  -0.000274   0.000713  -0.015418   0.016079
     9  C   -0.002223  -0.003500   0.002352  -0.004441   0.000139   0.014992
    10  C   -0.004874   0.001609  -0.001842   0.001723   0.001618  -0.045789
    11  C   -0.004979   0.022209   0.007225  -0.000397  -0.024714   0.034672
    12  O    0.003949  -0.000121   0.000002  -0.000113   0.000247  -0.002312
    13  O    8.358035   0.072128  -0.002376  -0.001189  -0.005939   0.021600
    14  H    0.072128   3.150683   0.131660  -0.334332  -0.043846   0.075411
    15  H   -0.002376   0.131660   2.163885  -0.651457  -0.351184   0.231473
    16  H   -0.001189  -0.334332  -0.651457   2.382288   0.234407  -0.487893
    17  H   -0.005939  -0.043846  -0.351184   0.234407   2.793284  -0.858854
    18  H    0.021600   0.075411   0.231473  -0.487893  -0.858854   2.666865
    19  H   -0.019360  -0.639233  -0.246520   0.214069   0.073635  -0.077096
    20  H    0.009444   0.098936   0.070882  -0.084927  -0.393333   0.280997
    21  H    0.065147  -0.074572  -0.030489   0.091571   0.192591  -0.388895
    22  H   -0.000548  -0.000151   0.000033   0.000151   0.001170  -0.004836
    23  H   -0.000014   0.000110   0.000040  -0.000067  -0.002493   0.003893
    24  H   -0.002749  -0.003543  -0.000001   0.001047   0.016661  -0.018678
    25  C   -0.039993  -0.189062  -0.012943   0.031138   0.082888  -0.079268
    26  H    0.004206   0.001215   0.000551  -0.002548  -0.002340   0.008574
    27  H   -0.002585   0.283577   0.044787  -0.009228  -0.039775   0.072782
    28  H    0.342483  -0.023994  -0.000490  -0.011236  -0.000532  -0.005224
    29  H   -0.016453   0.002178   0.000657  -0.002860  -0.001478   0.005568
    30  H   -0.000850  -0.000107  -0.000048   0.000306   0.000177  -0.000944
    31  O   -0.056234   0.002868  -0.001540   0.005366   0.001889  -0.005712
    32  H    0.016932   0.000580   0.000162  -0.003336  -0.000655   0.002870
    33  H    0.068801  -0.010011  -0.004645   0.022928   0.004028  -0.007073
    34  H    0.084772   0.004635   0.001478   0.009398  -0.001706  -0.007300
    35  H   -0.007703   0.006529   0.000298  -0.008166  -0.001608   0.013834
    36  H   -0.023720   0.014883  -0.001624   0.001972   0.014388  -0.009414
    37  O    0.001017  -0.000145   0.000056  -0.004033  -0.000486   0.005615
    38  H   -0.000437  -0.000304  -0.000259   0.001606   0.000122  -0.001973
    39  H   -0.000577   0.000269   0.000287  -0.000840  -0.000151   0.000928
    40  O   -0.069239   0.012873   0.000088  -0.001295  -0.000097   0.001436
    41  H    0.001393  -0.001949  -0.000149   0.000542   0.000080  -0.000273
    42  H    0.003011   0.000993   0.000032  -0.000153  -0.000043   0.000135
              19         20         21         22         23         24
     1  N   -0.274372  -0.198577  -0.080030   0.007198  -0.003910   0.028158
     2  C    0.107077  -2.929835  -0.350682  -0.049897   0.069992  -0.039174
     3  C   -0.084617   0.826747  -0.292539   0.002154   0.004456  -0.090998
     4  C    0.004855  -0.073400   0.006829   0.000257   0.000820  -0.009847
     5  C   -0.315496   0.036005   0.011121  -0.001460  -0.000184   0.005296
     6  C    0.245607   1.209898  -0.366647  -0.139523   0.031124   1.131180
     7  C    0.025724  -0.277243  -1.186739   0.219175  -0.081199   0.101642
     8  N   -0.000936  -0.003452   0.040027  -0.191763  -0.053434  -0.031857
     9  C   -0.001422   0.041258  -0.198032  -0.473936   0.395833  -0.181833
    10  C    0.000484  -0.024914   0.278701   0.104766  -1.205436   0.618275
    11  C    0.017836  -0.064396  -0.300845   0.222212   0.551342  -2.419210
    12  O   -0.000015  -0.000180   0.065320   0.003802  -0.000269   0.000465
    13  O   -0.019360   0.009444   0.065147  -0.000548  -0.000014  -0.002749
    14  H   -0.639233   0.098936  -0.074572  -0.000151   0.000110  -0.003543
    15  H   -0.246520   0.070882  -0.030489   0.000033   0.000040  -0.000001
    16  H    0.214069  -0.084927   0.091571   0.000151  -0.000067   0.001047
    17  H    0.073635  -0.393333   0.192591   0.001170  -0.002493   0.016661
    18  H   -0.077096   0.280997  -0.388895  -0.004836   0.003893  -0.018678
    19  H    2.495914  -0.113751   0.036757   0.000125  -0.000533   0.004012
    20  H   -0.113751   3.657151  -0.099845  -0.000475   0.005319  -0.165924
    21  H    0.036757  -0.099845   5.161753   0.054128  -0.026169   0.016451
    22  H    0.000125  -0.000475   0.054128   2.039617  -0.118481  -0.002859
    23  H   -0.000533   0.005319  -0.026169  -0.118481   2.187032  -0.148133
    24  H    0.004012  -0.165924   0.016451  -0.002859  -0.148133   3.048688
    25  C    0.018861  -0.080557   0.157490   0.002553  -0.009560   0.063496
    26  H   -0.000617   0.001605  -0.167824  -0.068317   0.010442  -0.001573
    27  H   -0.026590   0.053974  -0.232706  -0.006290   0.003932  -0.008734
    28  H    0.004519  -0.001743   0.036101   0.000591  -0.000190   0.001349
    29  H   -0.000575   0.001417  -0.062856   0.000521   0.000147  -0.000268
    30  H    0.000056  -0.000369   0.012693   0.005024  -0.000672   0.000081
    31  O    0.000831  -0.000749   0.050241   0.000541   0.000104  -0.000268
    32  H    0.000097   0.000146  -0.000943   0.000075  -0.000050   0.000069
    33  H    0.001962  -0.004853  -0.008494  -0.000116   0.000013  -0.000922
    34  H   -0.013186   0.022853   0.020272   0.000331  -0.000882   0.001580
    35  H    0.012381   0.001856  -0.008640  -0.002631  -0.002739  -0.004768
    36  H    0.070401   0.071083   0.014039   0.000212   0.000510   0.000680
    37  O    0.000166   0.000176  -0.021385  -0.000027   0.000002   0.000018
    38  H    0.000040  -0.000129   0.003321   0.000001   0.000001   0.000008
    39  H   -0.000048   0.000095   0.000446   0.000007   0.000001  -0.000003
    40  O   -0.000676   0.000260  -0.006904   0.000009  -0.000014   0.000017
    41  H    0.000281  -0.000292   0.000235   0.000007   0.000000  -0.000006
    42  H   -0.000270   0.000201  -0.000491  -0.000014   0.000003  -0.000018
              25         26         27         28         29         30
     1  N    0.987131  -0.013709  -0.555271   0.034313  -0.006348   0.002455
     2  C   -1.112745   0.060162   0.827628   0.010370   0.018490  -0.009788
     3  C   -0.335823  -0.004808   0.145084  -0.019803  -0.000344   0.000993
     4  C    0.010988  -0.001110  -0.097794   0.025713   0.001891   0.000020
     5  C   -0.186351  -0.005158  -0.286706   0.019149  -0.005666   0.000501
     6  C    0.805258  -0.039998  -0.389912  -0.007129  -0.024519   0.014746
     7  C    0.017094  -0.070215  -0.005488   0.020468   0.058742   0.019021
     8  N   -0.012016   0.126321  -0.047995   0.008493  -0.018251  -0.010839
     9  C   -0.052341   0.119030   0.036843   0.003939  -0.000308  -0.014554
    10  C    0.131372  -0.087962  -0.057502  -0.001787  -0.003912   0.011724
    11  C   -0.326388   0.020825   0.012388   0.006547   0.002792  -0.007430
    12  O   -0.001038   0.260252   0.003636   0.004342   0.028815   0.345410
    13  O   -0.039993   0.004206  -0.002585   0.342483  -0.016453  -0.000850
    14  H   -0.189062   0.001215   0.283577  -0.023994   0.002178  -0.000107
    15  H   -0.012943   0.000551   0.044787  -0.000490   0.000657  -0.000048
    16  H    0.031138  -0.002548  -0.009228  -0.011236  -0.002860   0.000306
    17  H    0.082888  -0.002340  -0.039775  -0.000532  -0.001478   0.000177
    18  H   -0.079268   0.008574   0.072782  -0.005224   0.005568  -0.000944
    19  H    0.018861  -0.000617  -0.026590   0.004519  -0.000575   0.000056
    20  H   -0.080557   0.001605   0.053974  -0.001743   0.001417  -0.000369
    21  H    0.157490  -0.167824  -0.232706   0.036101  -0.062856   0.012693
[...]
 95,0.00003106,0.00001073,0.00000363,0.00000177,0.00001932,-0.00001012,
 0.00054623,0.00024431,0.00025733,0.00026674,0.00048216,0.00004863,-0.0
 0000089,-0.00000928,-0.00000739,0.00001282,0.00002362,-0.00000302,-0.0
 0001201,0.00000325,0.00004011,0.00002683,0.00001922,-0.00000287,-0.000
 00105,-0.00002138,0.00005844,0.00000437,0.00000922,-0.00001249,0.00000
 708,0.00000993,-0.00001799,-0.00002153,-0.00006077,0.00001234,-0.00000
 434,-0.00000785,0.00000697,0.00000687,0.00000713,0.00000249,0.00000889
 ,0.00000681,0.00000412,-0.00000854,-0.00001006,-0.00000674,-0.00046799
 ,-0.00024280,0.00008966,-0.00022868,-0.00011853,0.00010984,0.00001726,
 -0.00003348,-0.00006576,-0.00028351,-0.00060324,-0.00084296,-0.0000821
 1,0.00003560,-0.00006065,-0.00125043,0.00173686,-0.00122102,0.00268335
 ,-0.00394204,0.00061298,-0.00028688,-0.00081148,-0.00016151,-0.0000039
 8,-0.00000867,-0.00000304,-0.00000832,-0.00000017,-0.00000717,0.000008
 77,0.00000694,-0.00000417,0.07149697,-0.24864155,-0.19405757,-0.065925
 85,0.24602046,0.19172774,0.00005944,0.00006014,0.00001766,-0.00000835,
 -0.00000089,-0.00001630,-0.00001780,-0.00002953,0.00000639,-0.00006308
 ,-0.00001977,0.00000860,0.00001896,-0.00002504,-0.00001925,0.00004110,
 0.00001914,0.00000619,-0.00005351,-0.00002220,0.00000176,0.00006978,0.
 00003027,0.00001448,-0.00001315,0.00002915,-0.00001164,0.00000859,-0.0
 0001345,0.00000325,-0.00001933,0.00000650,-0.00000096,0.00019154,-0.00
 008309,0.00011535,0.00013413,0.00038881,0.00019943,-0.00000812,-0.0000
 0944,0.00000675,0.00001715,0.00000869,-0.00000263,0.00003099,-0.000033
 41,-0.00001246,0.00000906,0.00000281,-0.00000088,-0.00002308,0.0000315
 6,-0.00000721,0.00001929,0.00001372,0.00001487,0.00001335,0.00000899,0
 .00000982,0.00000267,-0.00000592,0.00000233,0.00000251,-0.00000564,0.0
 0000034,0.00000437,0.00000027,-0.00000104,0.00000125,0.00000313,-0.000
 00251,-0.00001782,-0.00002100,-0.00004028,-0.00011804,-0.00006311,0.00
 000034,-0.00012992,-0.00004861,0.00002986,0.00008026,-0.00006705,-0.00
 016103,-0.00017916,0.00018981,-0.00015811,0.00001577,0.00001593,-0.000
 04292,0.00096374,0.00057662,0.00141216,-0.00220893,-0.00077271,-0.0021
 1686,-0.00018928,-0.00059482,-0.00019846,-0.00000461,0.00000105,0.0000
 0161,0.00000208,-0.00000282,0.00000017,0.00001059,0.00000824,0.0000001
 6,-0.51137247,0.10457979,-0.06525560,-0.01090836,-0.00491665,-0.006741
 86,0.52364514,0.00004922,-0.00004463,0.00004347,-0.00002960,0.00002966
 ,0.00000598,0.00003166,0.00007300,0.00001300,-0.00012717,-0.00005548,0
 .00001960,-0.00003886,0.00004246,-0.00005638,-0.00004079,0.00003639,-0
 .00000687,0.00005019,0.00000829,-0.00000949,-0.00009164,-0.00006801,0.
 00000486,0.00003283,-0.00001376,0.00001286,-0.00001749,-0.00001567,0.0
 0000034,-0.00000170,-0.00002099,0.00000174,-0.00024065,-0.00003970,-0.
 00001880,0.00003709,-0.00059039,-0.00000637,-0.00000558,-0.00002847,-0
 .00002761,0.00000081,-0.00001741,0.00000790,0.00000192,0.00003450,-0.0
 0002471,0.00001052,-0.00002189,-0.00000589,-0.00000076,-0.00001410,-0.
 00001133,0.00002146,-0.00000250,0.00002235,0.00000226,-0.00000613,-0.0
 0000308,0.00002090,0.00004138,0.00001395,0.00000186,0.00000272,0.00000
 097,-0.00000164,-0.00000310,0.00000165,-0.00001119,0.00000041,-0.00000
 022,-0.00000265,-0.00000895,-0.00001433,0.00019487,0.00010399,-0.00001
 180,-0.00000795,0.00002279,-0.00003744,-0.00007396,0.00002557,-0.00001
 494,0.00014662,-0.00011380,-0.00002128,0.00005580,0.00001511,0.0000332
 8,-0.00057670,-0.00053484,-0.00149675,0.00045484,0.00011163,0.00254130
 ,0.00012485,0.00118930,0.00024120,0.00000011,0.00000024,-0.00000695,0.
 00000758,-0.00000374,0.00001576,0.00000009,0.00000321,0.00000085,0.061
 29009,-0.04011823,-0.01650645,0.03800081,-0.00639374,0.00570718,-0.099
 27546,0.04638243,0.00007665,0.00005444,-0.00008558,-0.00001766,0.00000
 901,0.00003927,0.00000248,0.00000544,-0.00000539,0.00002154,-0.0000014
 7,-0.00001549,-0.00001967,-0.00001329,0.00004823,0.00000289,-0.0000044
 3,-0.00000556,0.00000445,-0.00002479,-0.00000874,0.00003515,0.00002512
 ,-0.00002010,-0.00001384,0.00000821,0.00000373,0.00000467,0.00000511,-
 0.00000211,-0.00000079,0.00000140,-0.00000115,0.00014194,0.00003901,-0
 .00004666,0.00024772,-0.00005711,-0.00005601,0.00000277,-0.00001205,-0
 .00000699,0.00001405,0.00001835,-0.00000310,-0.00001584,0.00000071,0.0
 0004841,0.00000786,0.00000412,-0.00000083,0.00000634,-0.00001344,0.000
 01257,0.00000345,0.00000246,-0.00001553,0.00000814,-0.00000024,-0.0000
 1134,-0.00000246,0.00000567,0.00002158,-0.00000309,0.00000086,0.000002
 23,0.00000067,0.00000123,0.00000172,0.00000085,0.00000166,0.00000280,-
 0.00001048,0.00000123,0.00000360,-0.00008931,-0.00004732,0.00001901,-0
 .00020558,-0.00013246,0.00011698,-0.00009297,-0.00000930,-0.00000322,0
 .00000373,0.00003124,0.00017241,-0.00006774,-0.00000015,-0.00000417,-0
 .00018419,-0.00102102,-0.00384700,-0.00317589,0.00158570,0.00536365,-0
 .00013223,0.00030798,-0.00013453,-0.00000148,-0.00001156,-0.00000188,-
 0.00000790,0.00000112,-0.00000214,0.00000674,0.00000385,-0.00000489,-0
 .09804533,-0.00388062,-0.03986249,0.02861541,-0.00648445,0.00355328,0.
 07286539,0.00961279,0.03475539,0.00002108,0.00009290,0.00037415,0.0002
 8224,-0.00018028,-0.00003154,-0.00004742,0.00003457,0.00002529,-0.0000
 2314,-0.00005289,0.00002780,-0.00026628,0.00037318,-0.00005887,0.00002
 279,-0.00001368,0.00004543,-0.00006190,-0.00001128,-0.00000661,0.00009
 169,0.00009732,0.00003401,-0.00002574,-0.00004052,-0.00001019,0.000046
 94,0.00003890,0.00000670,0.00004843,0.00000827,0.00001823,0.00029745,0
 .00007268,0.00003047,0.00394029,0.00199915,0.00564770,-0.00003655,-0.0
 0004183,-0.00000638,-0.00000051,-0.00000519,0.00004838,0.00002060,0.00
 004141,0.00001522,0.00001316,-0.00000567,0.00004166,0.00001437,0.00001
 627,0.00001180,0.00003546,-0.00002507,-0.00001985,-0.00001097,0.000005
 57,-0.00002383,-0.00001906,-0.00005123,-0.00002072,-0.00000104,-0.0000
 0395,-0.00001016,0.00000519,-0.00000155,-0.00001198,0.00002987,-0.0000
 0544,-0.00002171,0.00016324,-0.00077963,-0.00066876,-0.00024859,-0.000
 17779,-0.00000724,-0.00042550,-0.00036318,-0.00043138,-0.00751465,0.00
 329074,-0.00288473,-0.00019497,0.00014198,-0.00003787,-0.00005581,-0.0
 0003561,0.00000104,0.00064166,0.00061582,0.00001316,-0.00018611,0.0000
 2978,-0.00002475,-0.00086509,-0.00150147,0.00011415,-0.00031625,0.0008
 9560,-0.00022504,0.00031013,-0.00014037,-0.00008012,-0.00022695,0.0000
 8529,0.00040398,0.00013650,-0.00003049,-0.00003894,-0.00004461,0.00000
 544,0.00001540,-0.00004976,0.00004336,0.00008379,0.40258086,0.00100604
 ,0.00114448,-0.00018748,0.00001765,0.00002326,0.00018483,-0.00006285,0
 .00000958,0.00007933,-0.00016156,0.00000096,-0.00007768,0.00045590,-0.
 00041334,0.00011339,0.00014690,-0.00005810,0.00005881,-0.00025662,-0.0
 0012340,-0.00005746,0.00022281,0.00012051,-0.00010502,-0.00006195,0.00
 008100,-0.00000901,0.00003937,-0.00002722,0.00001697,-0.00006097,0.000
 04702,0.00000262,0.00044112,-0.00032269,-0.00019044,0.00302132,0.00182
 872,-0.00924434,-0.00018484,-0.00002204,-0.00008806,0.00003984,0.00002
 902,-0.00000834,0.00005996,-0.00001131,0.00006622,0.00001198,0.0000288
 9,0.00001204,-0.00001640,0.00006516,0.00005827,0.00002692,0.00014320,-
 0.00006555,0.00012413,0.00002155,-0.00007838,-0.00001003,0.00003825,0.
 00011442,0.00000043,-0.00000319,0.00000748,0.00000668,0.00000389,-0.00
 000140,0.00002738,0.00000784,-0.00000988,0.00031114,-0.00060075,-0.000
 85958,-0.00034722,-0.00010441,0.00011307,-0.00332977,-0.00250396,0.000
 44822,0.00159042,-0.00917918,0.00308562,-0.00050352,0.00054772,0.00008
 977,-0.00001169,0.00011237,0.00006302,-0.00015059,-0.00114012,-0.00073
 118,0.00036112,0.00003987,0.00063605,0.00043274,0.00187022,0.00083187,
 0.00019552,-0.00002910,-0.00002755,-0.00027008,0.00010723,0.00012620,-
 0.00001478,0.00020391,0.00007717,-0.00013316,0.00000514,-0.00037854,-0
 .00002455,0.00000826,0.00005579,0.00004095,-0.00004468,0.00005018,-0.3
 0835575,0.30736775,0.00187169,0.00123341,-0.00047784,-0.00027401,0.000
 37322,0.00037561,-0.00004038,-0.00003045,0.00000005,-0.00005984,-0.000
 04334,0.00005266,-0.00013005,-0.00028142,0.00038682,0.00018478,0.00011
 185,-0.00001487,-0.00045008,-0.00007425,-0.00017026,0.00017047,-0.0000
 8828,0.00005756,0.00008071,0.00009217,0.00000240,0.00000990,-0.0001370
 5,0.00006919,-0.00012186,0.00004224,-0.00002053,0.00036636,-0.00053710
 ,0.00014386,0.00751127,-0.01051693,-0.01716353,0.00001987,-0.00023333,
 0.00005832,0.00007611,0.00003296,-0.00004080,0.00008651,-0.00000871,0.
 00013033,0.00004953,0.00001919,-0.00002337,-0.00003065,0.00002355,0.00
 004896,0.00015300,0.00013204,-0.00011149,0.00021639,-0.00000250,-0.000
 12739,0.00000481,0.00016749,0.00016808,0.00002229,-0.00002753,-0.00000
 157,0.00002163,-0.00001327,-0.00001058,-0.00000573,0.00001714,-0.00001
 626,-0.00018491,0.00005798,-0.00054760,-0.00007194,0.00002263,-0.00002
 266,-0.00497400,-0.00331071,0.00054707,-0.00566604,0.00174475,-0.00220
 635,-0.00089176,0.00093652,-0.00033984,0.00006613,0.00003430,-0.000086
 38,-0.00104723,-0.00391425,-0.00064464,0.00039618,0.00009678,0.0006938
 3,0.00272153,0.00664448,0.00032376,-0.00020204,-0.00008961,-0.00041773
 ,0.00013879,-0.00014485,-0.00006634,0.00024480,0.00006456,0.00002371,-
 0.00017762,-0.00013802,-0.00037563,-0.00002255,0.00005917,0.00003717,0
 .00007794,0.00003878,0.00002622,-0.00388247,-0.15610776,0.50567925,0.0
 0007338,-0.00002906,-0.00013254,-0.00008444,0.00007284,0.00003625,0.00
 000946,-0.00001224,-0.00001959,0.00004714,0.00000311,0.00001628,-0.000
 06878,-0.00002771,0.00004015,0.00000249,0.00001144,-0.00002239,0.00000
 454,-0.00000055,-0.00000484,-0.00001854,-0.00003662,-0.00000607,0.0000
 0978,0.00001312,0.00000080,-0.00001319,-0.00001635,0.00000052,-0.00001
 261,-0.00000519,-0.00000666,-0.00007526,-0.00004615,-0.00002760,0.0001
 9203,-0.00056067,-0.00180102,0.00007817,-0.00001774,0.00004425,0.00000
 576,0.00000295,-0.00001920,-0.00000637,-0.00001784,-0.00000014,0.00000
 131,0.00000002,-0.00001270,-0.00000039,-0.00001182,-0.00000303,0.00000
 447,-0.00000127,-0.00000237,0.00001326,-0.00000195,-0.00000420,0.00000
 628,0.00001996,0.00001302,0.00000087,-0.00000037,0.00000460,-0.0000005
 1,0.00000008,0.00000435,-0.00000918,0.00000318,0.00000622,-0.00008682,
 0.00004407,0.00016598,0.00006467,0.00005204,0.00000716,-0.00010756,0.0
 0001237,-0.00006063,-0.00050408,0.00036596,0.00270321,0.00003717,-0.00
 001070,0.00002546,0.00001802,0.00002167,0.00000779,-0.00026343,-0.0002
 5341,-0.00012306,0.00012272,-0.00002081,0.00007371,0.00033109,0.000536
 68,0.00019521,-0.00006177,0.00008227,0.00002385,0.00005238,-0.00003138
 ,-0.00003393,0.00002862,-0.00000971,-0.00002098,-0.00007993,0.00001950
 ,-0.00001403,0.00001955,-0.00000319,-0.00000462,0.00003181,-0.00002951
 ,-0.00003813,-0.35282697,0.25384584,0.04825349,0.36006346,-0.00020536,
 -0.00028850,0.00010560,0.00002517,-0.00002151,-0.00002051,0.00000775,0
 .00000599,-0.00002013,0.00005617,-0.00001211,0.00003435,-0.00020816,0.
 00019044,-0.00003276,-0.00003614,0.00001562,-0.00001445,0.00005222,0.0
 0002344,0.00001100,-0.00006837,-0.00003802,0.00002998,0.00002070,-0.00
 002139,0.00000434,-0.00000970,0.00000161,0.00000089,0.00001433,-0.0000
 1091,0.00000181,-0.00016408,0.00008301,0.00005094,-0.00082025,-0.00003
 092,0.00034434,0.00007909,0.00004244,0.00001510,-0.00000857,-0.0000071
 2,0.00001224,-0.00001148,0.00000415,-0.00001190,0.00000095,-0.00000844
 ,0.00000231,0.00000774,-0.00002047,-0.00001046,-0.00002068,-0.00004471
 ,0.00001701,-0.00003009,-0.00000588,0.00001362,0.00000500,0.00000177,-
 0.00002929,0.00000127,0.00000122,-0.00000297,-0.00000111,-0.00000171,-
 0.00000154,-0.00000522,-0.00000108,0.00000016,-0.00008059,0.00001043,0
 .00013104,0.00012076,0.00004889,-0.00003089,0.00060241,0.00048112,-0.0
 0040217,0.00184108,-0.00126142,-0.00077646,0.00017235,-0.00017306,-0.0
 0000525,0.00001512,-0.00002846,-0.00002231,-0.00012027,0.00019902,0.00
 019616,-0.00004876,-0.00002531,-0.00019687,0.00012482,-0.00015483,-0.0
 0015786,-0.00003143,0.00022836,-0.00007885,0.00012100,-0.00007329,-0.0
 0004704,-0.00007072,-0.00002082,0.00006331,0.00001181,-0.00000142,0.00
 013533,0.00001395,-0.00000211,-0.00002404,-0.00000325,0.00000947,-0.00
 004707,0.23644180,-0.17765656,-0.02010817,-0.25616046,0.18959278,-0.00
 000684,0.00009723,-0.00003515,-0.00000156,0.00000861,-0.00002580,0.000
 00171,-0.00000787,0.00001578,-0.00003312,0.00002341,-0.00003969,0.0003
 0092,-0.00019275,-0.00002482,-0.00001530,-0.00002933,0.00001369,0.0000
 0766,-0.00000135,0.00000295,-0.00000712,0.00001627,-0.00001612,-0.0000
 0455,-0.00000449,0.00000134,0.00000128,0.00001036,-0.00000585,0.000006
 34,0.00001014,-0.00000333,-0.00003426,0.00004076,-0.00002391,-0.000745
 70,-0.00062213,-0.00342017,-0.00004004,0.00006720,-0.00001862,-0.00000
 414,0.00000299,-0.00000257,-0.00000375,-0.00002405,-0.00001362,-0.0000
 1543,0.00000966,0.00000068,-0.00000502,0.00001354,0.00000240,-0.000064
 20,0.00003288,0.00001336,0.00000012,-0.00000385,0.00000095,-0.00000618
 ,0.00000424,0.00000112,-0.00000097,0.00000352,0.00000151,-0.00000261,0
 .00000258,0.00000190,0.00000472,-0.00000196,0.00000404,0.00003721,0.00
 003574,-0.00001006,0.00000591,0.00000308,0.00000789,-0.00008396,-0.000
 12346,0.00014819,0.00341110,-0.00028018,0.00511750,0.00005958,-0.00009
 395,0.00004031,-0.00000316,-0.00000238,0.00001146,-0.00016725,-0.00005
 298,-0.00002865,0.00006468,-0.00004770,0.00001209,0.00021890,0.0002572
 0,-0.00011105,0.00006279,-0.00011816,0.00006035,-0.00008292,0.00003687
 ,0.00002905,0.00000051,-0.00000560,-0.00001775,-0.00003414,0.00006009,
 0.00001038,0.00000895,-0.00001561,-0.00000346,0.00000426,-0.00005014,-
 0.00002854,0.09004542,-0.05312755,-0.06094625,-0.05734234,0.02797774,0
 .05495104,-0.00028347,-0.00008610,-0.00011286,-0.00005700,-0.00001756,
 -0.00001235,0.00001876,0.00000526,0.00000256,-0.00000187,0.00002507,-0
 .00002347,0.00014136,-0.00010594,-0.00004695,-0.00002419,-0.00002917,-
 0.00000625,0.00010195,0.00000531,0.00002831,-0.00007221,-0.00002613,-0
 .00004871,-0.00000917,0.00001280,0.00000041,-0.00002522,0.00000624,-0.
 00001796,-0.00000891,-0.00001748,-0.00000585,-0.00022495,0.00002375,-0
 .00004118,-0.00079091,0.00112594,0.00137826,-0.00001969,0.00004474,-0.
 00002255,-0.00001044,-0.00000118,-0.00001222,-0.00001879,-0.00000634,-
 0.00002388,-0.00000938,-0.00000017,-0.00001008,0.00000108,-0.00000637,
 -0.00000480,-0.00003564,-0.00000892,0.00001965,-0.00002851,0.00000136,
 0.00002873,0.00000928,0.00000003,-0.00000377,-0.00000404,0.00001083,0.
 00000913,-0.00000860,0.00000560,0.00001129,-0.00001019,0.00000033,0.00
 001540,0.00008446,0.00001530,0.00024943,0.00014975,0.00009898,0.000018
 64,0.00083984,0.00020500,-0.00020128,0.00054737,-0.00220278,-0.0020970
 8,0.00025087,-0.00018738,0.00004676,0.00003130,0.00001815,0.00001015,-
 0.00011414,0.00034302,0.00011969,-0.00000167,-0.00000669,-0.00009252,-
 0.00004478,-0.00040651,-0.00005280,0.00027367,-0.00022739,0.00023331,-
 0.00022590,0.00016068,0.00008473,-0.00002574,0.00003087,-0.00012290,-0
 .00002606,0.00001369,0.00006970,0.00002362,-0.00000644,-0.00001113,0.0
 0001120,-0.00000646,-0.00003213,-0.04525405,0.05153015,-0.04451101,-0.
 00699859,0.01836919,-0.03553748,0.05184958,0.00015501,-0.00006140,-0.0
 0014337,-0.00010004,0.00012083,0.00001831,0.00002352,-0.00001159,-0.00
 002730,0.00000364,-0.00000148,0.00001974,-0.00000356,-0.00002486,0.000
 01453,-0.00002444,0.00004177,-0.00002516,-0.00002474,0.00006125,-0.000
 02309,-0.00008287,-0.00009171,0.00008266,0.00007264,-0.00001281,0.0000
 1093,-0.00001516,-0.00003174,0.00000834,-0.00000129,-0.00000217,-0.000
 00968,-0.00012158,0.00001061,0.00020733,0.00117555,-0.00254333,-0.0026
 1355,0.00001737,-0.00001394,0.00000238,0.00000529,-0.00000218,-0.00000
 667,0.00000072,-0.00000314,0.00000349,0.00000050,-0.00000361,-0.000010
 79,-0.00000803,-0.00001344,-0.00001114,-0.00000525,-0.00000257,0.00000
 609,0.00001379,-0.00001448,-0.00000264,0.00000736,0.00003664,-0.000011
 47,0.00001009,-0.00000621,-0.00000631,0.00000056,-0.00000334,-0.000001
 37,-0.00001335,-0.00000190,0.00000400,-0.00015293,0.00015051,0.0000734
 5,0.00018700,0.00006185,-0.00008802,-0.00010017,-0.00012623,-0.0000752
 6,-0.00235932,0.00417455,0.00263019,-0.00005094,0.00003980,-0.00020573
 ,0.00003043,-0.00007685,-0.00008728,-0.00016165,-0.00062225,0.00022413
 ,-0.00007462,0.00001120,-0.00012649,0.00043635,0.00115019,-0.00022436,
 0.00008624,-0.00008576,0.00012001,0.00003010,0.00001862,0.00001022,0.0
 0003346,-0.00002727,-0.00000960,0.00002202,-0.00003887,0.00008646,0.00
 000287,0.00001175,-0.00002053,-0.00000168,0.00002765,-0.00001613,0.067
 49282,-0.12161573,0.18386231,0.00219761,-0.01102971,0.02609138,-0.0687
 0329,0.13055136,-0.00013146,-0.00004922,0.00010789,0.00007114,-0.00004
 985,-0.00003537,-0.00000514,0.00000948,0.00000665,0.00000352,0.0000010
 3,-0.00000255,0.00000334,0.00004854,-0.00002150,-0.00003340,-0.0000144
 9,0.00000693,0.00002952,0.00002826,0.00001266,-0.00003261,0.00000277,0
 .00001824,0.00000401,-0.00003835,0.00000419,0.00000345,0.00002573,-0.0
 0001296,0.00003353,-0.00000680,0.00000876,-0.00007780,0.00012792,0.000
 03515,0.00013709,-0.00136047,-0.00016428,-0.00002411,0.00000173,-0.000
 01529,-0.00000532,-0.00000321,0.00000938,-0.00000429,0.00000005,-0.000
 00946,-0.00000498,-0.00000123,0.00000964,0.00000513,0.00000358,-0.0000
 0102,-0.00001692,-0.00001166,0.00000485,-0.00002191,-0.00000432,0.0000
 0327,-0.00000684,-0.00000582,-0.00002491,-0.00000227,0.00000754,0.0000
 0154,-0.00000560,0.00000165,0.00000203,0.00000447,-0.00000427,0.000000
 78,-0.00004805,-0.00003714,-0.00005106,0.00004338,-0.00001262,-0.00001
 994,0.00022230,0.00012421,-0.00019327,-0.00063591,0.00309212,-0.001253
 08,0.00010586,-0.00018193,-0.00003755,-0.00000175,-0.00003845,0.000003
 44,-0.00006874,0.00006233,0.00019260,-0.00007929,-0.00002540,-0.000137
 82,0.00014124,0.00003395,-0.00042462,0.00001305,0.00008757,-0.00003889
 ,0.00009909,-0.00002075,-0.00000240,-0.00003838,-0.00002327,0.00008922
 ,0.00002700,0.00002417,0.00008807,0.00000453,-0.00001196,-0.00001092,-
 0.00000909,-0.00000899,-0.00001762,-0.08850062,0.21506383,-0.42499294,
 0.00807776,-0.00710627,0.00432741,0.08072505,-0.20973001,0.42253473\\0
 .00000022,0.00000069,-0.00000035,0.00000083,-0.00000126,-0.00000086,-0
 .00000041,0.00000015,-0.00000003,-0.00000041,0.00000033,-0.00000010,0.
 ,0.00000020,0.00000042,-0.00000015,-0.00000002,-0.00000012,0.00000012,
 -0.00000028,-0.00000017,-0.00000025,0.00000015,0.00000021,-0.00000036,
 -0.00000022,-0.00000014,-0.00000019,-0.00000020,-0.00000020,0.,-0.0000
 0051,-0.00000033,-0.00000019,0.00000010,0.00000033,0.00000011,0.000000
 18,0.00000006,0.00000027,-0.00000002,-0.00000011,-0.00000012,-0.000000
 27,-0.00000019,0.00000008,0.00000009,-0.00000002,-0.00000026,-0.000000
 27,-0.00000025,-0.00000034,-0.00000031,-0.00000011,0.00000014,-0.00000
 009,-0.00000040,-0.00000008,-0.00000035,-0.00000022,0.00000057,-0.0000
 0037,0.00000006,-0.00000014,-0.00000019,0.00000003,-0.00000009,-0.0000
 0024,-0.00000036,0.00000008,-0.00000025,-0.00000044,0.00000036,0.00000
 014,-0.00000050,-0.00000023,0.00000010,0.00000033,-0.00000027,0.000000
 25,-0.00000005,0.00000024,0.00000030,0.00000017,-0.00000009,0.00000028
 ,0.00000038,-0.00000021,0.00000009,0.00000047,0.,0.00000014,0.00000050
 ,-0.00000021,0.00000011,0.00000039,-0.00000029,0.00000005,0.00000033,0
 .00000030,0.00000007,-0.00000014,0.00000036,0.,-0.00000013,0.00000039,
 -0.00000007,-0.00000036,-0.00000039,0.00000011,0.00000061,-0.00000054,
 -0.00000003,0.00000052,-0.00000030,0.00000002,0.00000054,0.00000043,0.
 00000038,-0.00000003,0.00000049,0.00000055,0.00000016,0.00000050,0.000
 00046,0.00000009\\\@


 THE MEEK SHALL INHERIT THE EARTH.
 (THE REST OF US WILL ESCAPE TO THE STARS)
 Job cpu time:       1 days 17 hours 34 minutes 48.8 seconds.
 Elapsed time:       0 days  1 hours 29 minutes 12.8 seconds.
 File lengths (MBytes):  RWF=   1440 Int=      0 D2E=      0 Chk=     36 Scr=      8
 Normal termination of Gaussian 16 at Sat May 20 23:48:38 2023.
