 Entering Gaussian System, Link 0=g16
 Input=Nic5h3bLMidPyrTS1_2.gjf
 Output=Nic5h3bLMidPyrTS1_2.log
 Initial command:
 /sw/contrib/gaussian/g16/A03/g16/l1.exe "/gscratch/scrubbed/gds001/Gau-15882.inp" -scrdir="/gscratch/scrubbed/gds001/"
 Entering Link 1 = /sw/contrib/gaussian/g16/A03/g16/l1.exe PID=     15883.
  
 Copyright (c) 1988,1990,1992,1993,1995,1998,2003,2009,2016,
            Gaussian, Inc.  All Rights Reserved.
  
 This is part of the Gaussian(R) 16 program.  It is based on
 the Gaussian(R) 09 system (copyright 2009, Gaussian, Inc.),
 the Gaussian(R) 03 system (copyright 2003, Gaussian, Inc.),
 the Gaussian(R) 98 system (copyright 1998, Gaussian, Inc.),
 the Gaussian(R) 94 system (copyright 1995, Gaussian, Inc.),
 the Gaussian 92(TM) system (copyright 1992, Gaussian, Inc.),
 the Gaussian 90(TM) system (copyright 1990, Gaussian, Inc.),
 the Gaussian 88(TM) system (copyright 1988, Gaussian, Inc.),
 the Gaussian 86(TM) system (copyright 1986, Carnegie Mellon
 University), and the Gaussian 82(TM) system (copyright 1983,
 Carnegie Mellon University). Gaussian is a federally registered
 trademark of Gaussian, Inc.
  
 This software contains proprietary and confidential information,
 including trade secrets, belonging to Gaussian, Inc.
  
 This software is provided under written license and may be
 used, copied, transmitted, or stored only in accord with that
 written license.
  
 The following legend is applicable only to US Government
 contracts under FAR:
  
                    RESTRICTED RIGHTS LEGEND
  
 Use, reproduction and disclosure by the US Government is
 subject to restrictions as set forth in subparagraphs (a)
 and (c) of the Commercial Computer Software - Restricted
 Rights clause in FAR 52.227-19.
  
 Gaussian, Inc.
 340 Quinnipiac St., Bldg. 40, Wallingford CT 06492
  
  
 ---------------------------------------------------------------
 Warning -- This program may not be used in any manner that
 competes with the business of Gaussian, Inc. or will provide
 assistance to any competitor of Gaussian, Inc.  The licensee
 of this program is prohibited from giving any competitor of
 Gaussian, Inc. access to this program.  By using this program,
 the user acknowledges that Gaussian, Inc. is engaged in the
 business of creating and licensing software in the field of
 computational chemistry and represents and warrants to the
 licensee that it is not a competitor of Gaussian, Inc. and that
 it will not use this program in any manner prohibited above.
 ---------------------------------------------------------------
  

 Cite this work as:
 Gaussian 16, Revision A.03,
 M. J. Frisch, G. W. Trucks, H. B. Schlegel, G. E. Scuseria, 
 M. A. Robb, J. R. Cheeseman, G. Scalmani, V. Barone, 
 G. A. Petersson, H. Nakatsuji, X. Li, M. Caricato, A. V. Marenich, 
 J. Bloino, B. G. Janesko, R. Gomperts, B. Mennucci, H. P. Hratchian, 
 J. V. Ortiz, A. F. Izmaylov, J. L. Sonnenberg, D. Williams-Young, 
 F. Ding, F. Lipparini, F. Egidi, J. Goings, B. Peng, A. Petrone, 
 T. Henderson, D. Ranasinghe, V. G. Zakrzewski, J. Gao, N. Rega, 
 G. Zheng, W. Liang, M. Hada, M. Ehara, K. Toyota, R. Fukuda, 
 J. Hasegawa, M. Ishida, T. Nakajima, Y. Honda, O. Kitao, H. Nakai, 
 T. Vreven, K. Throssell, J. A. Montgomery, Jr., J. E. Peralta, 
 F. Ogliaro, M. J. Bearpark, J. J. Heyd, E. N. Brothers, K. N. Kudin, 
 V. N. Staroverov, T. A. Keith, R. Kobayashi, J. Normand, 
 K. Raghavachari, A. P. Rendell, J. C. Burant, S. S. Iyengar, 
 J. Tomasi, M. Cossi, J. M. Millam, M. Klene, C. Adamo, R. Cammi, 
 J. W. Ochterski, R. L. Martin, K. Morokuma, O. Farkas, 
 J. B. Foresman, and D. J. Fox, Gaussian, Inc., Wallingford CT, 2016.
 
 ******************************************
 Gaussian 16:  ES64L-G16RevA.03 25-Dec-2016
                20-May-2023 
 ******************************************
 %nprocshared=28
 Will use up to   28 processors via shared memory.
 %mem=41GB
 ----------------------------------------------------------------
 # wB97XD/aug-cc-pVDZ opt=(TS,CalcAll,MaxStep=5,NoEigenTest) freq
 ----------------------------------------------------------------
 1/5=1,8=5,10=4,11=1,18=20,26=3,38=1/1,3;
 2/9=110,12=2,17=6,18=5,40=1/2;
 3/5=16,7=10,11=2,25=1,30=1,71=2,74=-58,140=1/1,2,3;
 4//1;
 5/5=2,38=5/2;
 8/6=4,10=90,11=11/1;
 11/6=1,8=1,9=11,15=111,16=1/1,2,10;
 10/6=1/2;
 6/7=2,8=2,9=2,10=2,18=1,28=1/1;
 7/10=1,25=1/1,2,3,16;
 1/5=1,8=5,10=4,11=1,18=20,26=3/3(3);
 2/9=110/2;
 7/8=1,9=1,25=1,44=-1/16;
 99//99;
 2/9=110/2;
 3/5=16,7=10,11=2,25=1,30=1,71=2,74=-58,140=1/1,2,3;
 4/5=5,16=3,69=1/1;
 5/5=2,38=5/2;
 8/6=4,10=90,11=11/1;
 11/6=1,8=1,9=11,15=111,16=1/1,2,10;
 10/6=1/2;
 7/10=1,25=1/1,2,3,16;
 1/5=1,8=5,10=4,11=1,18=20,26=3/3(-8);
 2/9=110/2;
 6/7=2,8=2,9=2,10=2,18=1,19=2,28=1/1;
 7/8=1,9=1,25=1,44=-1/16;
 99//99;
 ----
 blah
 ----
 Symbolic Z-matrix:
 Charge =  1 Multiplicity = 1
 N                    -0.9317   -1.76616  -0.09222 
 C                    -1.82476  -0.93303   0.72658 
 C                    -1.26821  -1.1       2.15713 
 C                    -0.49918  -2.44253   2.12566 
 C                    -0.7345   -2.97838   0.71169 
 C                    -1.88733   0.49337   0.23767 
 C                    -0.71732   1.22825   0.06235 
 N                    -0.7018    2.48996  -0.3741 
 C                    -1.86023   3.10526  -0.64695 
 C                    -3.07916   2.46064  -0.49447 
 C                    -3.08845   1.13736  -0.0544 
 O                     1.69534   3.18888  -0.59976 
 O                     1.7054   -1.04648  -0.62463 
 H                     0.10543  -3.56104   0.31476 
 H                    -0.85207  -3.14527   2.88713 
 H                     0.57048  -2.27576   2.29519 
 H                    -2.08279  -1.09224   2.88903 
 H                    -0.60003  -0.26805   2.40889 
 H                    -1.63937  -3.61354   0.67478 
 H                    -2.84924  -1.35188   0.68668 
 H                     0.25561   0.787     0.27463 
 H                    -1.79692   4.13555  -0.99468 
 H                    -4.00454   2.98485  -0.72398 
 H                    -4.03392   0.60618   0.0604 
 C                    -1.44537  -2.03916  -1.42861 
 H                     0.6217    2.99144  -0.54334 
 H                     0.76017  -1.23563  -0.40117 
 H                     1.94626  -1.67636  -1.32441 
 H                     2.32229   2.22337  -0.47415 
 H                     1.92036   3.66236  -1.40616 
 O                     2.97739   1.17549  -0.31467 
 H                     3.50443   1.142     0.51233 
 H                     2.49518   0.30765  -0.43858 
 H                    -0.73374  -2.6773   -1.96606 
 H                    -1.55509  -1.10068  -1.98594 
 H                    -2.4251   -2.54958  -1.39559 
 O                     4.4268    1.08126   1.97084 
 H                     4.453     1.79364   2.61555 
 H                     5.30586   0.69222   1.97398 
 O                     2.10548  -3.00507  -2.57597 
 H                     2.6499   -3.77607  -2.39351 
 H                     2.24043  -2.81278  -3.50798 
 
 Add virtual bond connecting atoms H29        and O12        Dist= 2.19D+00.
 Add virtual bond connecting atoms O31        and H29        Dist= 2.35D+00.
 Add virtual bond connecting atoms H26        and N8         Dist= 2.69D+00.
 Add virtual bond connecting atoms H33        and O13        Dist= 2.98D+00.
 Add virtual bond connecting atoms O37        and H32        Dist= 3.26D+00.
 Add virtual bond connecting atoms O40        and H28        Dist= 3.46D+00.

 GradGradGradGradGradGradGradGradGradGradGradGradGradGradGradGradGradGrad
 Berny optimization.
 Initialization pass.
                           ----------------------------
                           !    Initial Parameters    !
                           ! (Angstroms and Degrees)  !
 --------------------------                            --------------------------
 ! Name  Definition              Value          Derivative Info.                !
 --------------------------------------------------------------------------------
 ! R1    R(1,2)                  1.4704         calculate D2E/DX2 analytically  !
 ! R2    R(1,5)                  1.4679         calculate D2E/DX2 analytically  !
 ! R3    R(1,25)                 1.4575         calculate D2E/DX2 analytically  !
 ! R4    R(2,3)                  1.5441         calculate D2E/DX2 analytically  !
 ! R5    R(2,6)                  1.5092         calculate D2E/DX2 analytically  !
 ! R6    R(2,20)                 1.1075         calculate D2E/DX2 analytically  !
 ! R7    R(3,4)                  1.5475         calculate D2E/DX2 analytically  !
 ! R8    R(3,17)                 1.0951         calculate D2E/DX2 analytically  !
 ! R9    R(3,18)                 1.0964         calculate D2E/DX2 analytically  !
 ! R10   R(4,5)                  1.5303         calculate D2E/DX2 analytically  !
 ! R11   R(4,15)                 1.0946         calculate D2E/DX2 analytically  !
 ! R12   R(4,16)                 1.0958         calculate D2E/DX2 analytically  !
 ! R13   R(5,14)                 1.0966         calculate D2E/DX2 analytically  !
 ! R14   R(5,19)                 1.1062         calculate D2E/DX2 analytically  !
 ! R15   R(6,7)                  1.3927         calculate D2E/DX2 analytically  !
 ! R16   R(6,11)                 1.3938         calculate D2E/DX2 analytically  !
 ! R17   R(7,8)                  1.3352         calculate D2E/DX2 analytically  !
 ! R18   R(7,21)                 1.0892         calculate D2E/DX2 analytically  !
 ! R19   R(8,9)                  1.3398         calculate D2E/DX2 analytically  !
 ! R20   R(8,26)                 1.4254         calculate D2E/DX2 analytically  !
 ! R21   R(9,10)                 1.3873         calculate D2E/DX2 analytically  !
 ! R22   R(9,22)                 1.0892         calculate D2E/DX2 analytically  !
 ! R23   R(10,11)                1.3946         calculate D2E/DX2 analytically  !
 ! R24   R(10,23)                1.088          calculate D2E/DX2 analytically  !
 ! R25   R(11,24)                1.0905         calculate D2E/DX2 analytically  !
 ! R26   R(12,26)                1.0931         calculate D2E/DX2 analytically  !
 ! R27   R(12,29)                1.158          calculate D2E/DX2 analytically  !
 ! R28   R(12,30)                0.9618         calculate D2E/DX2 analytically  !
 ! R29   R(13,27)                0.9895         calculate D2E/DX2 analytically  !
 ! R30   R(13,28)                0.9718         calculate D2E/DX2 analytically  !
 ! R31   R(13,33)                1.5786         calculate D2E/DX2 analytically  !
 ! R32   R(25,34)                1.0966         calculate D2E/DX2 analytically  !
 ! R33   R(25,35)                1.097          calculate D2E/DX2 analytically  !
 ! R34   R(25,36)                1.1052         calculate D2E/DX2 analytically  !
 ! R35   R(28,40)                1.8323         calculate D2E/DX2 analytically  !
 ! R36   R(29,31)                1.2461         calculate D2E/DX2 analytically  !
 ! R37   R(31,32)                0.9812         calculate D2E/DX2 analytically  !
 ! R38   R(31,33)                1.0005         calculate D2E/DX2 analytically  !
 ! R39   R(32,37)                1.7268         calculate D2E/DX2 analytically  !
 ! R40   R(37,38)                0.9612         calculate D2E/DX2 analytically  !
 ! R41   R(37,39)                0.9613         calculate D2E/DX2 analytically  !
 ! R42   R(40,41)                0.9613         calculate D2E/DX2 analytically  !
 ! R43   R(40,42)                0.9612         calculate D2E/DX2 analytically  !
 ! A1    A(2,1,5)              104.1544         calculate D2E/DX2 analytically  !
 ! A2    A(2,1,25)             113.7446         calculate D2E/DX2 analytically  !
 ! A3    A(5,1,25)             113.2548         calculate D2E/DX2 analytically  !
 ! A4    A(1,2,3)              103.6346         calculate D2E/DX2 analytically  !
 ! A5    A(1,2,6)              112.3522         calculate D2E/DX2 analytically  !
 ! A6    A(1,2,20)             109.1158         calculate D2E/DX2 analytically  !
 ! A7    A(3,2,6)              114.6645         calculate D2E/DX2 analytically  !
 ! A8    A(3,2,20)             109.0206         calculate D2E/DX2 analytically  !
 ! A9    A(6,2,20)             107.9043         calculate D2E/DX2 analytically  !
 ! A10   A(2,3,4)              104.7202         calculate D2E/DX2 analytically  !
 ! A11   A(2,3,17)             110.5069         calculate D2E/DX2 analytically  !
 ! A12   A(2,3,18)             110.5103         calculate D2E/DX2 analytically  !
 ! A13   A(4,3,17)             112.9162         calculate D2E/DX2 analytically  !
 ! A14   A(4,3,18)             111.1077         calculate D2E/DX2 analytically  !
 ! A15   A(17,3,18)            107.1265         calculate D2E/DX2 analytically  !
 ! A16   A(3,4,5)              104.2503         calculate D2E/DX2 analytically  !
 ! A17   A(3,4,15)             112.4951         calculate D2E/DX2 analytically  !
 ! A18   A(3,4,16)             110.4825         calculate D2E/DX2 analytically  !
 ! A19   A(5,4,15)             111.6159         calculate D2E/DX2 analytically  !
 ! A20   A(5,4,16)             110.2644         calculate D2E/DX2 analytically  !
 ! A21   A(15,4,16)            107.7446         calculate D2E/DX2 analytically  !
 ! A22   A(1,5,4)              103.74           calculate D2E/DX2 analytically  !
 ! A23   A(1,5,14)             110.0878         calculate D2E/DX2 analytically  !
 ! A24   A(1,5,19)             110.2444         calculate D2E/DX2 analytically  !
 ! A25   A(4,5,14)             113.7486         calculate D2E/DX2 analytically  !
 ! A26   A(4,5,19)             110.9579         calculate D2E/DX2 analytically  !
 ! A27   A(14,5,19)            108.0227         calculate D2E/DX2 analytically  !
 ! A28   A(2,6,7)              120.3095         calculate D2E/DX2 analytically  !
 ! A29   A(2,6,11)             122.7047         calculate D2E/DX2 analytically  !
 ! A30   A(7,6,11)             116.9856         calculate D2E/DX2 analytically  !
 ! A31   A(6,7,8)              123.3357         calculate D2E/DX2 analytically  !
 ! A32   A(6,7,21)             120.8048         calculate D2E/DX2 analytically  !
 ! A33   A(8,7,21)             115.8584         calculate D2E/DX2 analytically  !
 ! A34   A(7,8,9)              119.3743         calculate D2E/DX2 analytically  !
 ! A35   A(7,8,26)             112.4615         calculate D2E/DX2 analytically  !
 ! A36   A(9,8,26)             128.1034         calculate D2E/DX2 analytically  !
 ! A37   A(8,9,10)             121.5963         calculate D2E/DX2 analytically  !
 ! A38   A(8,9,22)             116.6901         calculate D2E/DX2 analytically  !
 ! A39   A(10,9,22)            121.7136         calculate D2E/DX2 analytically  !
 ! A40   A(9,10,11)            118.7799         calculate D2E/DX2 analytically  !
 ! A41   A(9,10,23)            120.0157         calculate D2E/DX2 analytically  !
 ! A42   A(11,10,23)           121.2028         calculate D2E/DX2 analytically  !
 ! A43   A(6,11,10)            119.9206         calculate D2E/DX2 analytically  !
 ! A44   A(6,11,24)            120.0011         calculate D2E/DX2 analytically  !
 ! A45   A(10,11,24)           120.0783         calculate D2E/DX2 analytically  !
 ! A46   A(26,12,29)           112.0587         calculate D2E/DX2 analytically  !
 ! A47   A(26,12,30)           111.2218         calculate D2E/DX2 analytically  !
 ! A48   A(29,12,30)           112.0063         calculate D2E/DX2 analytically  !
 ! A49   A(27,13,28)           105.989          calculate D2E/DX2 analytically  !
 ! A50   A(27,13,33)           127.9707         calculate D2E/DX2 analytically  !
 ! A51   A(28,13,33)           121.1207         calculate D2E/DX2 analytically  !
 ! A52   A(1,25,34)            109.2492         calculate D2E/DX2 analytically  !
 ! A53   A(1,25,35)            109.928          calculate D2E/DX2 analytically  !
 ! A54   A(1,25,36)            111.8101         calculate D2E/DX2 analytically  !
 ! A55   A(34,25,35)           108.285          calculate D2E/DX2 analytically  !
 ! A56   A(34,25,36)           108.7332         calculate D2E/DX2 analytically  !
 ! A57   A(35,25,36)           108.7606         calculate D2E/DX2 analytically  !
 ! A58   A(29,31,32)           114.7688         calculate D2E/DX2 analytically  !
 ! A59   A(29,31,33)           117.4            calculate D2E/DX2 analytically  !
 ! A60   A(32,31,33)           109.4899         calculate D2E/DX2 analytically  !
 ! A61   A(32,37,38)           123.7134         calculate D2E/DX2 analytically  !
 ! A62   A(32,37,39)           120.3616         calculate D2E/DX2 analytically  !
 ! A63   A(38,37,39)           105.8332         calculate D2E/DX2 analytically  !
 ! A64   A(28,40,41)           120.0779         calculate D2E/DX2 analytically  !
 ! A65   A(28,40,42)           121.9695         calculate D2E/DX2 analytically  !
 ! A66   A(41,40,42)           105.366          calculate D2E/DX2 analytically  !
 ! A67   L(8,26,12,13,-1)      169.7928         calculate D2E/DX2 analytically  !
 ! A68   L(13,28,40,5,-1)      169.9687         calculate D2E/DX2 analytically  !
 ! A69   L(12,29,31,1,-1)      178.9794         calculate D2E/DX2 analytically  !
 ! A70   L(31,32,37,3,-1)      179.7944         calculate D2E/DX2 analytically  !
 ! A71   L(13,33,31,7,-1)      178.7723         calculate D2E/DX2 analytically  !
 ! A72   L(8,26,12,13,-2)      184.0835         calculate D2E/DX2 analytically  !
 ! A73   L(13,28,40,5,-2)      176.9328         calculate D2E/DX2 analytically  !
 ! A74   L(12,29,31,1,-2)      181.1482         calculate D2E/DX2 analytically  !
 ! A75   L(31,32,37,3,-2)      180.0301         calculate D2E/DX2 analytically  !
 ! A76   L(13,33,31,7,-2)      179.8701         calculate D2E/DX2 analytically  !
 ! D1    D(5,1,2,3)             41.7714         calculate D2E/DX2 analytically  !
 ! D2    D(5,1,2,6)            166.1065         calculate D2E/DX2 analytically  !
 ! D3    D(5,1,2,20)           -74.2688         calculate D2E/DX2 analytically  !
 ! D4    D(25,1,2,3)           165.5356         calculate D2E/DX2 analytically  !
 ! D5    D(25,1,2,6)           -70.1293         calculate D2E/DX2 analytically  !
 ! D6    D(25,1,2,20)           49.4955         calculate D2E/DX2 analytically  !
 ! D7    D(2,1,5,4)            -43.9935         calculate D2E/DX2 analytically  !
 ! D8    D(2,1,5,14)          -166.0573         calculate D2E/DX2 analytically  !
 ! D9    D(2,1,5,19)            74.8646         calculate D2E/DX2 analytically  !
 ! D10   D(25,1,5,4)          -168.0744         calculate D2E/DX2 analytically  !
 ! D11   D(25,1,5,14)           69.8618         calculate D2E/DX2 analytically  !
 ! D12   D(25,1,5,19)          -49.2163         calculate D2E/DX2 analytically  !
 ! D13   D(2,1,25,34)         -178.9922         calculate D2E/DX2 analytically  !
 ! D14   D(2,1,25,35)           62.3165         calculate D2E/DX2 analytically  !
 ! D15   D(2,1,25,36)          -58.5846         calculate D2E/DX2 analytically  !
 ! D16   D(5,1,25,34)          -60.3191         calculate D2E/DX2 analytically  !
 ! D17   D(5,1,25,35)         -179.0104         calculate D2E/DX2 analytically  !
 ! D18   D(5,1,25,36)           60.0885         calculate D2E/DX2 analytically  !
 ! D19   D(1,2,3,4)            -23.0952         calculate D2E/DX2 analytically  !
 ! D20   D(1,2,3,17)          -144.9724         calculate D2E/DX2 analytically  !
 ! D21   D(1,2,3,18)            96.629          calculate D2E/DX2 analytically  !
 ! D22   D(6,2,3,4)           -145.915          calculate D2E/DX2 analytically  !
 ! D23   D(6,2,3,17)            92.2078         calculate D2E/DX2 analytically  !
 ! D24   D(6,2,3,18)           -26.1908         calculate D2E/DX2 analytically  !
 ! D25   D(20,2,3,4)            93.0121         calculate D2E/DX2 analytically  !
 ! D26   D(20,2,3,17)          -28.8651         calculate D2E/DX2 analytically  !
 ! D27   D(20,2,3,18)         -147.2637         calculate D2E/DX2 analytically  !
 ! D28   D(1,2,6,7)            -53.6472         calculate D2E/DX2 analytically  !
 ! D29   D(1,2,6,11)           126.5088         calculate D2E/DX2 analytically  !
 ! D30   D(3,2,6,7)             64.3409         calculate D2E/DX2 analytically  !
 ! D31   D(3,2,6,11)          -115.5032         calculate D2E/DX2 analytically  !
 ! D32   D(20,2,6,7)          -173.9751         calculate D2E/DX2 analytically  !
 ! D33   D(20,2,6,11)            6.1808         calculate D2E/DX2 analytically  !
 ! D34   D(2,3,4,5)             -2.9621         calculate D2E/DX2 analytically  !
 ! D35   D(2,3,4,15)          -124.0634         calculate D2E/DX2 analytically  !
 ! D36   D(2,3,4,16)           115.4841         calculate D2E/DX2 analytically  !
 ! D37   D(17,3,4,5)           117.3235         calculate D2E/DX2 analytically  !
 ! D38   D(17,3,4,15)           -3.7778         calculate D2E/DX2 analytically  !
 ! D39   D(17,3,4,16)         -124.2303         calculate D2E/DX2 analytically  !
 ! D40   D(18,3,4,5)          -122.2854         calculate D2E/DX2 analytically  !
 ! D41   D(18,3,4,15)          116.6132         calculate D2E/DX2 analytically  !
 ! D42   D(18,3,4,16)           -3.8392         calculate D2E/DX2 analytically  !
 ! D43   D(3,4,5,1)             28.0969         calculate D2E/DX2 analytically  !
 ! D44   D(3,4,5,14)           147.6922         calculate D2E/DX2 analytically  !
 ! D45   D(3,4,5,19)           -90.2696         calculate D2E/DX2 analytically  !
 ! D46   D(15,4,5,1)           149.7819         calculate D2E/DX2 analytically  !
 ! D47   D(15,4,5,14)          -90.6228         calculate D2E/DX2 analytically  !
 ! D48   D(15,4,5,19)           31.4155         calculate D2E/DX2 analytically  !
 ! D49   D(16,4,5,1)           -90.4983         calculate D2E/DX2 analytically  !
 ! D50   D(16,4,5,14)           29.0969         calculate D2E/DX2 analytically  !
 ! D51   D(16,4,5,19)          151.1352         calculate D2E/DX2 analytically  !
 ! D52   D(2,6,7,8)            179.5875         calculate D2E/DX2 analytically  !
 ! D53   D(2,6,7,21)            -0.0171         calculate D2E/DX2 analytically  !
 ! D54   D(11,6,7,8)            -0.5597         calculate D2E/DX2 analytically  !
 ! D55   D(11,6,7,21)          179.8357         calculate D2E/DX2 analytically  !
 ! D56   D(2,6,11,10)          179.5783         calculate D2E/DX2 analytically  !
 ! D57   D(2,6,11,24)           -0.4793         calculate D2E/DX2 analytically  !
 ! D58   D(7,6,11,10)           -0.2706         calculate D2E/DX2 analytically  !
 ! D59   D(7,6,11,24)          179.6718         calculate D2E/DX2 analytically  !
 ! D60   D(6,7,8,9)              0.8899         calculate D2E/DX2 analytically  !
 ! D61   D(6,7,8,26)          -176.5001         calculate D2E/DX2 analytically  !
 ! D62   D(21,7,8,9)          -179.4875         calculate D2E/DX2 analytically  !
 ! D63   D(21,7,8,26)            3.1225         calculate D2E/DX2 analytically  !
 ! D64   D(7,8,9,10)            -0.3742         calculate D2E/DX2 analytically  !
 ! D65   D(7,8,9,22)           179.6627         calculate D2E/DX2 analytically  !
 ! D66   D(26,8,9,10)          176.5601         calculate D2E/DX2 analytically  !
 ! D67   D(26,8,9,22)           -3.4029         calculate D2E/DX2 analytically  !
 ! D68   D(7,8,12,29)           10.402          calculate D2E/DX2 analytically  !
 ! D69   D(7,8,12,30)          135.3046         calculate D2E/DX2 analytically  !
 ! D70   D(9,8,12,29)         -166.7218         calculate D2E/DX2 analytically  !
 ! D71   D(9,8,12,30)          -41.8192         calculate D2E/DX2 analytically  !
 ! D72   D(8,9,10,11)           -0.4271         calculate D2E/DX2 analytically  !
 ! D73   D(8,9,10,23)         -179.9754         calculate D2E/DX2 analytically  !
 ! D74   D(22,9,10,11)         179.5342         calculate D2E/DX2 analytically  !
 ! D75   D(22,9,10,23)          -0.0142         calculate D2E/DX2 analytically  !
 ! D76   D(9,10,11,6)            0.7399         calculate D2E/DX2 analytically  !
 ! D77   D(9,10,11,24)        -179.2024         calculate D2E/DX2 analytically  !
 ! D78   D(23,10,11,6)        -179.7173         calculate D2E/DX2 analytically  !
 ! D79   D(23,10,11,24)          0.3404         calculate D2E/DX2 analytically  !
 ! D80   D(26,12,31,32)       -112.6366         calculate D2E/DX2 analytically  !
 ! D81   D(26,12,31,33)         17.5031         calculate D2E/DX2 analytically  !
 ! D82   D(30,12,31,32)        121.4068         calculate D2E/DX2 analytically  !
 ! D83   D(30,12,31,33)       -108.4536         calculate D2E/DX2 analytically  !
 ! D84   D(27,13,31,29)        -34.1566         calculate D2E/DX2 analytically  !
 ! D85   D(27,13,31,32)         98.5608         calculate D2E/DX2 analytically  !
 ! D86   D(28,13,31,29)        117.2025         calculate D2E/DX2 analytically  !
 ! D87   D(28,13,31,32)       -110.0802         calculate D2E/DX2 analytically  !
 ! D88   D(27,13,40,41)       -108.0416         calculate D2E/DX2 analytically  !
 ! D89   D(27,13,40,42)        111.613          calculate D2E/DX2 analytically  !
 ! D90   D(33,13,40,41)         95.8755         calculate D2E/DX2 analytically  !
 ! D91   D(33,13,40,42)        -44.4699         calculate D2E/DX2 analytically  !
 ! D92   D(29,31,37,38)         -0.5829         calculate D2E/DX2 analytically  !
 ! D93   D(29,31,37,39)       -141.1078         calculate D2E/DX2 analytically  !
 ! D94   D(33,31,37,38)       -134.9873         calculate D2E/DX2 analytically  !
 ! D95   D(33,31,37,39)         84.4878         calculate D2E/DX2 analytically  !
 --------------------------------------------------------------------------------
 Trust Radius=5.00D-02 FncErr=1.00D-07 GrdErr=1.00D-06 EigMax=2.50D+02 EigMin=1.00D-04
 Number of steps in this run=    224 maximum allowed number of steps=    252.
 Search for a saddle point of order  1.
 GradGradGradGradGradGradGradGradGradGradGradGradGradGradGradGradGradGrad

                          Input orientation:                          
 ---------------------------------------------------------------------
 Center     Atomic      Atomic             Coordinates (Angstroms)
 Number     Number       Type             X           Y           Z
 ---------------------------------------------------------------------
      1          7           0       -0.931700   -1.766156   -0.092224
      2          6           0       -1.824761   -0.933030    0.726583
      3          6           0       -1.268208   -1.100004    2.157128
      4          6           0       -0.499184   -2.442526    2.125657
      5          6           0       -0.734498   -2.978383    0.711690
      6          6           0       -1.887327    0.493367    0.237666
      7          6           0       -0.717324    1.228247    0.062351
      8          7           0       -0.701803    2.489964   -0.374103
      9          6           0       -1.860228    3.105259   -0.646952
     10          6           0       -3.079160    2.460640   -0.494465
     11          6           0       -3.088451    1.137361   -0.054399
     12          8           0        1.695337    3.188879   -0.599755
     13          8           0        1.705399   -1.046477   -0.624631
     14          1           0        0.105430   -3.561044    0.314761
     15          1           0       -0.852071   -3.145273    2.887129
     16          1           0        0.570477   -2.275756    2.295193
     17          1           0       -2.082791   -1.092243    2.889029
     18          1           0       -0.600026   -0.268054    2.408893
     19          1           0       -1.639368   -3.613538    0.674784
     20          1           0       -2.849238   -1.351878    0.686681
     21          1           0        0.255611    0.787001    0.274626
     22          1           0       -1.796921    4.135551   -0.994675
     23          1           0       -4.004541    2.984849   -0.723975
     24          1           0       -4.033917    0.606183    0.060397
     25          6           0       -1.445369   -2.039160   -1.428607
     26          1           0        0.621702    2.991436   -0.543339
     27          1           0        0.760165   -1.235634   -0.401170
     28          1           0        1.946255   -1.676360   -1.324414
     29          1           0        2.322286    2.223371   -0.474149
     30          1           0        1.920362    3.662362   -1.406161
     31          8           0        2.977394    1.175489   -0.314671
     32          1           0        3.504427    1.141997    0.512332
     33          1           0        2.495177    0.307645   -0.438577
     34          1           0       -0.733738   -2.677296   -1.966058
     35          1           0       -1.555085   -1.100679   -1.985939
     36          1           0       -2.425099   -2.549581   -1.395589
     37          8           0        4.426802    1.081255    1.970844
     38          1           0        4.452998    1.793642    2.615545
     39          1           0        5.305860    0.692222    1.973981
     40          8           0        2.105481   -3.005069   -2.575967
     41          1           0        2.649896   -3.776065   -2.393510
     42          1           0        2.240434   -2.812776   -3.507984
 ---------------------------------------------------------------------
                    Distance matrix (angstroms):
                    1          2          3          4          5
     1  N    0.000000
     2  C    1.470409   0.000000
     3  C    2.369933   1.544050   0.000000
     4  C    2.358716   2.448089   1.547499   0.000000
     5  C    1.467876   2.317836   2.429495   1.530300   0.000000
     6  C    2.475378   1.509160   2.570306   3.756450   3.688734
     7  C    3.006044   2.517685   3.179987   4.216562   4.256486
     8  N    4.271635   3.766886   4.428975   5.533472   5.575198
     9  C    4.990047   4.265634   5.088967   6.349624   6.334341
    10  C    4.758065   3.818569   4.794651   6.128813   6.044437
    11  C    3.617101   2.548208   3.634548   4.926717   4.802847
    12  O    5.631277   5.580358   5.897247   6.629971   6.757152
    13  O    2.784903   3.781624   4.072270   3.791203   3.386903
    14  H    2.112557   3.286593   3.367182   2.212687   1.096597
    15  H    3.284029   3.241621   2.211153   1.094633   2.184997
    16  H    2.866354   3.162375   2.186828   1.095778   2.168900
    17  H    3.266043   2.183598   1.095119   2.216712   3.180601
    18  H    2.934264   2.184568   1.096355   2.195158   3.200697
    19  H    2.121772   2.687411   2.941591   2.185480   1.106153
    20  H    2.110751   1.107510   2.173778   2.963599   2.668008
    21  H    2.839524   2.736918   3.070281   3.798141   3.917838
    22  H    6.032675   5.352945   6.133876   7.395383   7.392461
    23  H    5.693286   4.712254   5.698622   7.061468   6.950860
    24  H    3.908329   2.773689   3.867364   5.104338   4.915228
    25  C    1.457500   2.452000   3.710916   3.700103   2.443020
    26  H    5.025062   4.795760   5.253966   6.156937   6.249249
    27  H    1.799808   2.836413   3.267657   3.070408   2.551401
    28  H    3.131929   4.356569   4.773478   4.297694   3.609352
    29  H    5.162424   5.348142   5.555186   6.040718   6.148853
    30  H    6.271323   6.300172   6.748640   7.456380   7.458758
    31  O    4.897323   5.347032   5.414129   5.579590   5.664469
    32  H    5.338732   5.722926   5.523583   5.610751   5.914876
    33  H    4.020460   4.643139   4.783537   4.806759   4.748884
    34  H    2.092993   3.388674   4.446816   4.105151   2.694622
    35  H    2.101815   2.731045   4.152987   4.452045   3.387674
    36  H    2.131374   2.734457   4.007676   4.014945   2.735439
    37  O    6.409176   6.684876   6.101289   6.058576   6.686191
    38  H    6.999939   7.100224   6.427716   6.535229   7.301164
    39  H    7.015695   7.419111   6.816450   6.599105   7.180017
    40  O    4.114408   5.535972   6.116636   5.404258   4.344523
    41  H    4.707811   6.151454   6.574279   5.667266   4.661833
    42  H    4.777579   6.163669   6.880236   6.275389   5.165588
                    6          7          8          9         10
     6  C    0.000000
     7  C    1.392728   0.000000
     8  N    2.401276   1.335164   0.000000
     9  C    2.757764   2.309224   1.339770   0.000000
    10  C    2.413844   2.721600   2.380583   1.387293   0.000000
    11  C    1.393818   2.375739   2.761853   2.394217   1.394565
    12  O    4.560980   3.178584   2.507126   3.556861   4.830863
    13  O    4.002793   3.393509   4.285301   5.472760   5.933702
    14  H    4.518326   4.865999   6.143359   7.016288   6.859821
    15  H    4.618561   5.208186   6.512612   7.250880   6.915299
    16  H    4.235831   4.349948   5.608558   6.596959   6.598143
    17  H    3.095495   3.903752   5.038588   5.492879   5.006372
    18  H    2.636500   2.785486   3.919450   4.722874   4.692693
    19  H    4.137538   4.966701   6.263540   6.851131   6.351046
    20  H    2.128806   3.404687   4.527305   4.756342   3.997907
    21  H    2.163278   1.089202   2.058537   3.271147   3.809628
    22  H    3.846081   3.276469   2.071799   1.089229   2.167873
    23  H    3.408054   3.809167   3.357886   2.149072   1.088026
    24  H    2.156850   3.374427   3.852325   3.386834   2.158343
    25  C    3.063574   3.664554   4.709335   5.219975   4.877509
    26  H    3.625678   2.295362   1.425405   2.486698   3.739052
    27  H    3.225953   2.910075   4.002270   5.076438   5.330250
    28  H    4.673774   4.177860   5.027281   6.149158   6.561888
    29  H    4.606564   3.243044   3.037465   4.277968   5.406693
    30  H    5.219501   3.877993   3.052116   3.896104   5.222121
    31  O    4.943266   3.714279   3.907412   5.218909   6.194012
    32  H    5.437571   4.246540   4.505014   5.829053   6.789409
    33  H    4.438259   3.379142   3.871350   5.180697   5.975930
    34  H    4.029922   4.400907   5.407025   6.037132   5.836521
    35  H    2.756045   3.212667   4.027260   4.424468   4.150939
    36  H    3.495176   4.394777   5.423117   5.732081   5.132459
    37  O    6.574020   5.488714   5.812558   7.104660   8.019970
    38  H    6.895270   5.794023   5.999569   7.226413   8.176213
    39  H    7.402450   6.341955   6.696073   8.002803   8.917908
    40  O    6.008170   5.731484   6.551674   7.535520   7.815825
    41  H    6.762953   6.512493   7.387490   8.410963   8.678994
    42  H    6.480655   6.150243   6.826201   7.747520   8.073927
                   11         12         13         14         15
    11  C    0.000000
    12  O    5.233619   0.000000
    13  O    5.298614   4.235441   0.000000
    14  H    5.693168   6.994684   3.124965   0.000000
    15  H    5.656407   7.666103   4.824734   2.776104   0.000000
    16  H    5.527902   6.285560   3.365196   2.406314   1.769206
    17  H    3.827043   6.691328   5.167038   4.184513   2.393660
    18  H    3.772964   5.125528   3.888855   3.965708   2.927563
    19  H    5.020218   7.682290   4.412000   1.782328   2.394489
    20  H    2.608205   6.551836   4.749477   3.707938   3.470866
    21  H    3.378426   2.933662   2.504434   4.350823   4.849217
    22  H    3.397251   3.639782   6.265508   8.035617   8.304911
    23  H    2.168125   5.704881   6.990341   7.798689   7.781808
    24  H    1.090520   6.319056   6.011680   5.879173   5.673445
    25  C    3.831247   6.154951   3.399873   2.785757   4.494560
    26  H    4.176349   1.093096   4.181596   6.628564   7.183266
    27  H    4.534667   4.526621   0.989537   2.519676   4.130247
    28  H    5.905779   4.925306   0.971834   3.102832   5.265494
    29  H    5.534590   1.158036   3.330931   6.244701   7.084989
    30  H    5.769844   0.961828   4.778092   7.644158   8.512498
    31  O    6.071546   2.403889   2.578988   5.574864   6.601917
    32  H    6.617193   2.949452   3.052639   5.806101   6.557394
    33  H    5.657996   2.994534   1.578611   4.609248   5.846968
    34  H    4.873471   6.494551   3.226203   2.585991   4.877133
    35  H    3.330297   5.557613   3.533674   3.755519   5.331171
    36  H    3.978991   7.109238   4.462590   3.217442   4.601189
    37  O    7.783559   4.302436   4.320853   6.554983   6.824194
    38  H    8.027002   4.459768   5.110217   7.271012   7.253302
    39  H    8.647366   5.088545   4.768561   6.920098   7.313024
    40  O    7.105981   6.514493   2.793539   3.558879   6.213871
    41  H    7.908339   7.255287   3.386984   3.722267   6.367638
    42  H    7.478492   6.691397   3.423419   4.442018   7.111372
                   16         17         18         19         20
    16  H    0.000000
    17  H    2.965329   0.000000
    18  H    2.326773   1.763068   0.000000
    19  H    3.049394   3.384735   3.908917   0.000000
    20  H    3.890413   2.346314   3.033091   2.564963   0.000000
    21  H    3.682704   3.979295   2.529892   4.807891   3.792714
    22  H    7.585029   6.518797   5.692853   7.928449   5.834913
    23  H    7.597377   5.776643   5.655702   7.147677   4.704453
    24  H    5.873698   3.833106   4.251039   4.890540   2.372699
    25  C    4.241026   4.465976   4.310200   2.634493   2.630142
    26  H    5.983577   5.980959   4.564271   7.086744   5.694273
    27  H    2.896240   4.350675   3.268453   3.545400   3.771568
    28  H    3.918366   5.858968   4.733334   4.539399   5.210235
    29  H    5.565989   6.458248   4.801983   7.147325   6.393324
    30  H    7.126251   7.555141   6.029524   8.363057   7.229915
    31  O    4.951336   6.404044   4.722240   6.725198   6.429614
    32  H    4.844346   6.469739   4.736214   7.007149   6.827801
    33  H    4.225154   5.830132   4.244973   5.806006   5.708152
    34  H    4.474424   5.282443   4.996251   2.944616   3.642677
    35  H    4.922084   4.903454   4.573833   3.660739   2.980072
    36  H    4.761337   4.538608   4.796909   2.456791   2.439310
    37  O    5.123082   6.924013   5.223172   7.779413   7.778815
    38  H    5.633524   7.149802   5.461350   8.373833   8.181532
    39  H    5.597850   7.655964   5.999231   8.274278   8.505358
    40  O    5.159102   7.146097   6.297607   4.996150   6.158502
    41  H    5.344048   7.583300   6.777257   5.276232   6.753128
    42  H    6.062509   7.910264   7.039407   5.761044   6.755309
                   21         22         23         24         25
    21  H    0.000000
    22  H    4.127566   0.000000
    23  H    4.896594   2.504192   0.000000
    24  H    4.298679   4.309729   2.504826   0.000000
    25  C    3.712347   6.199915   5.682124   3.989430   0.000000
    26  H    2.379627   2.713382   4.629773   5.265806   5.510297
    27  H    2.191421   5.978341   6.373312   5.156409   2.562355
    28  H    3.388710   6.920867   7.582834   6.549058   3.412564
    29  H    2.625827   4.571132   6.377382   6.580452   5.768482
    30  H    3.723458   3.769804   6.002406   6.851603   6.620876
    31  O    2.811814   5.658485   7.224177   7.044378   5.579933
    32  H    3.276787   6.271900   7.830017   7.570863   6.195763
    33  H    2.398770   5.777907   7.035283   6.554935   4.692074
    34  H    4.242738   6.963392   6.655885   5.077296   1.096581
    35  H    3.457182   5.334716   4.927872   3.639434   1.096997
    36  H    4.594410   6.726539   5.794447   3.829757   1.105211
    37  O    4.512491   7.540408   9.053909   8.686729   7.468310
    38  H    4.910324   7.588130   9.170678   8.942403   8.113955
    39  H    5.329334   8.433204   9.960857   9.534183   8.038479
    40  O    5.091924   8.289613   8.754505   7.594983   3.854601
    41  H    5.802855   9.182842   9.632177   8.360569   4.551821
    42  H    5.586238   8.419988   8.964534   7.986871   4.302027
                   26         27         28         29         30
    26  H    0.000000
    27  H    4.231726   0.000000
    28  H    4.914554   1.566342   0.000000
    29  H    1.867270   3.796085   4.009021   0.000000
    30  H    1.697387   5.132877   5.339411   1.760933   0.000000
    31  O    2.983159   3.276752   3.196228   1.246056   2.914310
    32  H    3.583988   3.744141   3.707381   1.881481   3.541485
    33  H    3.274694   2.322364   2.241049   1.923841   3.538468
    34  H    5.999656   2.599810   2.931884   5.965032   6.895578
    35  H    4.854369   2.808930   3.609488   5.326239   5.924646
    36  H    6.380611   3.586256   4.458286   6.794688   7.580988
    37  O    4.944562   4.943546   4.961480   3.422193   4.934422
    38  H    5.108041   5.649256   5.817899   3.777673   5.106905
    39  H    5.793498   5.479171   5.270345   4.152044   5.631047
    40  O    6.503172   3.109746   1.832268   5.639258   6.771806
    41  H    7.303134   3.740894   2.459032   6.307496   7.539050
    42  H    6.715526   3.785613   2.479105   5.879935   6.815242
                   31         32         33         34         35
    31  O    0.000000
    32  H    0.981234   0.000000
    33  H    1.000519   1.618319   0.000000
    34  H    5.598529   6.220246   4.654993   0.000000
    35  H    5.340173   6.072036   4.558764   1.777843   0.000000
    36  H    6.650674   7.240662   5.769638   1.789538   1.790183
    37  O    2.707996   1.726766   3.183545   7.500472   7.496662
    38  H    3.338516   2.397485   3.920320   8.239090   8.102334
    39  H    3.300489   2.363023   3.724013   7.959542   8.122070
    40  O    4.832262   5.356566   3.961612   2.922429   4.168282
    41  H    5.380215   5.775939   4.530164   3.583153   5.000567
    42  H    5.162036   5.779347   4.384425   3.352848   4.433268
                   36         37         38         39         40
    36  H    0.000000
    37  O    8.453661   0.000000
    38  H    9.069785   0.961156   0.000000
    39  H    9.034988   0.961301   1.533657   0.000000
    40  O    4.703926   6.539118   7.449178   6.679402   0.000000
    41  H    5.315608   6.767462   7.704768   6.789309   0.961308
    42  H    5.128224   7.068326   7.975722   7.192620   0.961168
                   41         42
    41  H    0.000000
    42  H    1.528933   0.000000
 Stoichiometry    C10H25N2O5(1+)
 Framework group  C1[X(C10H25N2O5)]
 Deg. of freedom   120
 Full point group                 C1      NOp   1
 Largest Abelian subgroup         C1      NOp   1
 Largest concise Abelian subgroup C1      NOp   1
                         Standard orientation:                         
 ---------------------------------------------------------------------
 Center     Atomic      Atomic             Coordinates (Angstroms)
 Number     Number       Type             X           Y           Z
 ---------------------------------------------------------------------
      1          7           0       -0.931699   -1.766156   -0.092224
      2          6           0       -1.824760   -0.933031    0.726583
      3          6           0       -1.268207   -1.100005    2.157128
      4          6           0       -0.499183   -2.442526    2.125657
      5          6           0       -0.734496   -2.978383    0.711690
      6          6           0       -1.887327    0.493366    0.237666
      7          6           0       -0.717325    1.228247    0.062351
      8          7           0       -0.701805    2.489964   -0.374103
      9          6           0       -1.860230    3.105258   -0.646952
     10          6           0       -3.079162    2.460638   -0.494465
     11          6           0       -3.088452    1.137359   -0.054399
     12          8           0        1.695335    3.188880   -0.599755
     13          8           0        1.705400   -1.046476   -0.624631
     14          1           0        0.105432   -3.561044    0.314761
     15          1           0       -0.852069   -3.145273    2.887129
     16          1           0        0.570478   -2.275756    2.295193
     17          1           0       -2.082790   -1.092244    2.889029
     18          1           0       -0.600026   -0.268054    2.408893
     19          1           0       -1.639366   -3.613539    0.674784
     20          1           0       -2.849237   -1.351880    0.686681
     21          1           0        0.255610    0.787001    0.274626
     22          1           0       -1.796924    4.135550   -0.994675
     23          1           0       -4.004543    2.984847   -0.723975
     24          1           0       -4.033917    0.606181    0.060397
     25          6           0       -1.445368   -2.039161   -1.428607
     26          1           0        0.621700    2.991437   -0.543339
     27          1           0        0.760166   -1.235633   -0.401170
     28          1           0        1.946256   -1.676359   -1.324414
     29          1           0        2.322285    2.223373   -0.474149
     30          1           0        1.920360    3.662363   -1.406161
     31          8           0        2.977393    1.175491   -0.314671
     32          1           0        3.504426    1.141999    0.512332
     33          1           0        2.495177    0.307647   -0.438577
     34          1           0       -0.733736   -2.677296   -1.966058
     35          1           0       -1.555084   -1.100680   -1.985939
     36          1           0       -2.425097   -2.549582   -1.395589
     37          8           0        4.426801    1.081258    1.970844
     38          1           0        4.452997    1.793645    2.615545
     39          1           0        5.305860    0.692225    1.973981
     40          8           0        2.105483   -3.005068   -2.575967
     41          1           0        2.649898   -3.776063   -2.393510
     42          1           0        2.240436   -2.812774   -3.507984
 ---------------------------------------------------------------------
 Rotational constants (GHZ):           0.3299476           0.3119790           0.2174840
 Standard basis: Aug-CC-pVDZ (5D, 7F)
 There are   650 symmetry adapted cartesian basis functions of A   symmetry.
 There are   616 symmetry adapted basis functions of A   symmetry.
   616 basis functions,  1006 primitive gaussians,   650 cartesian basis functions
    69 alpha electrons       69 beta electrons
       nuclear repulsion energy      1368.8267983870 Hartrees.
 NAtoms=   42 NActive=   42 NUniq=   42 SFac= 1.00D+00 NAtFMM=   60 NAOKFM=F Big=F
 Integral buffers will be    131072 words long.
 Raffenetti 2 integral format.
 Two-electron integral symmetry is turned on.
 Nuclear repulsion after empirical dispersion term =     1368.7953275938 Hartrees.
 One-electron integrals computed using PRISM.
 NBasis=   616 RedAO= T EigKep=  1.73D-06  NBF=   616
 NBsUse=   616 1.00D-06 EigRej= -1.00D+00 NBFU=   616
 ExpMin= 2.97D-02 ExpMax= 1.17D+04 ExpMxC= 4.01D+02 IAcc=3 IRadAn=         5 AccDes= 0.00D+00
 Harris functional with IExCor= 4639 and IRadAn=       5 diagonalized for initial guess.
 HarFok:  IExCor= 4639 AccDes= 0.00D+00 IRadAn=         5 IDoV= 1 UseB2=F ITyADJ=14
 ICtDFT=  3500011 ScaDFX=  1.000000  1.000000  1.000000  1.000000
 FoFCou: FMM=F IPFlag=           0 FMFlag=      100000 FMFlg1=           0
         NFxFlg=           0 DoJE=T BraDBF=F KetDBF=T FulRan=T
         wScrn=  0.000000 ICntrl=       500 IOpCl=  0 I1Cent=   200000004 NGrid=           0
         NMat0=    1 NMatS0=      1 NMatT0=    0 NMatD0=    1 NMtDS0=    0 NMtDT0=    0
 Petite list used in FoFCou.
 Requested convergence on RMS density matrix=1.00D-08 within 128 cycles.
 Requested convergence on MAX density matrix=1.00D-06.
 Requested convergence on             energy=1.00D-06.
 No special actions if energy rises.
 SCF Done:  E(RwB97XD) =  -881.454987342     A.U. after   15 cycles
            NFock= 15  Conv=0.35D-08     -V/T= 2.0062
 DoSCS=F DFT=T ScalE2(SS,OS)=  1.000000  1.000000
 Range of M.O.s used for correlation:     1   616
 NBasis=   616 NAE=    69 NBE=    69 NFC=     0 NFV=     0
 NROrb=    616 NOA=    69 NOB=    69 NVA=   547 NVB=   547

 **** Warning!!: The largest alpha MO coefficient is  0.10904269D+03

 Symmetrizing basis deriv contribution to polar:
 IMax=3 JMax=2 DiffMx= 0.00D+00
 G2DrvN: will do    43 centers at a time, making    1 passes.
 Calling FoFCou, ICntrl=  3107 FMM=F I1Cent=   0 AccDes= 0.00D+00.
 End of G2Drv F.D. properties file   721 does not exist.
 End of G2Drv F.D. properties file   722 does not exist.
 End of G2Drv F.D. properties file   788 does not exist.
          IDoAtm=111111111111111111111111111111111111111111
          Differentiating once with respect to electric field.
                with respect to dipole field.
          Differentiating once with respect to nuclear coordinates.
 CalDSu exits because no D1Ps are significant.
          There are   129 degrees of freedom in the 1st order CPHF.  IDoFFX=6 NUNeed=     3.
    126 vectors produced by pass  0 Test12= 3.77D-14 1.00D-09 XBig12= 7.79D+01 2.84D+00.
 AX will form   126 AO Fock derivatives at one time.
    126 vectors produced by pass  1 Test12= 3.77D-14 1.00D-09 XBig12= 1.20D+01 5.89D-01.
    126 vectors produced by pass  2 Test12= 3.77D-14 1.00D-09 XBig12= 2.74D-01 7.05D-02.
    126 vectors produced by pass  3 Test12= 3.77D-14 1.00D-09 XBig12= 2.46D-03 5.61D-03.
    126 vectors produced by pass  4 Test12= 3.77D-14 1.00D-09 XBig12= 2.05D-05 4.37D-04.
    126 vectors produced by pass  5 Test12= 3.77D-14 1.00D-09 XBig12= 1.30D-07 2.32D-05.
    121 vectors produced by pass  6 Test12= 3.77D-14 1.00D-09 XBig12= 6.90D-10 1.68D-06.
     43 vectors produced by pass  7 Test12= 3.77D-14 1.00D-09 XBig12= 3.36D-12 1.25D-07.
      3 vectors produced by pass  8 Test12= 3.77D-14 1.00D-09 XBig12= 1.86D-14 7.98D-09.
      3 vectors produced by pass  9 Test12= 3.77D-14 1.00D-09 XBig12= 1.93D-15 3.34D-09.
 InvSVY:  IOpt=1 It=  1 EMax= 2.49D-14
 Solved reduced A of dimension   926 with   129 vectors.
 Isotropic polarizability for W=    0.000000      173.79 Bohr**3.
 End of Minotr F.D. properties file   721 does not exist.
 End of Minotr F.D. properties file   722 does not exist.
 End of Minotr F.D. properties file   788 does not exist.

 **********************************************************************

            Population analysis using the SCF density.

 **********************************************************************

 Orbital symmetries:
       Occupied  (A) (A) (A) (A) (A) (A) (A) (A) (A) (A) (A) (A)
                 (A) (A) (A) (A) (A) (A) (A) (A) (A) (A) (A) (A)
                 (A) (A) (A) (A) (A) (A) (A) (A) (A) (A) (A) (A)
                 (A) (A) (A) (A) (A) (A) (A) (A) (A) (A) (A) (A)
                 (A) (A) (A) (A) (A) (A) (A) (A) (A) (A) (A) (A)
                 (A) (A) (A) (A) (A) (A) (A) (A) (A)
       Virtual   (A) (A) (A) (A) (A) (A) (A) (A) (A) (A) (A) (A)
                 (A) (A) (A) (A) (A) (A) (A) (A) (A) (A) (A) (A)
                 (A) (A) (A) (A) (A) (A) (A) (A) (A) (A) (A) (A)
                 (A) (A) (A) (A) (A) (A) (A) (A) (A) (A) (A) (A)
                 (A) (A) (A) (A) (A) (A) (A) (A) (A) (A) (A) (A)
                 (A) (A) (A) (A) (A) (A) (A) (A) (A) (A) (A) (A)
                 (A) (A) (A) (A) (A) (A) (A) (A) (A) (A) (A) (A)
                 (A) (A) (A) (A) (A) (A) (A) (A) (A) (A) (A) (A)
                 (A) (A) (A) (A) (A) (A) (A) (A) (A) (A) (A) (A)
                 (A) (A) (A) (A) (A) (A) (A) (A) (A) (A) (A) (A)
                 (A) (A) (A) (A) (A) (A) (A) (A) (A) (A) (A) (A)
                 (A) (A) (A) (A) (A) (A) (A) (A) (A) (A) (A) (A)
                 (A) (A) (A) (A) (A) (A) (A) (A) (A) (A) (A) (A)
                 (A) (A) (A) (A) (A) (A) (A) (A) (A) (A) (A) (A)
                 (A) (A) (A) (A) (A) (A) (A) (A) (A) (A) (A) (A)
                 (A) (A) (A) (A) (A) (A) (A) (A) (A) (A) (A) (A)
                 (A) (A) (A) (A) (A) (A) (A) (A) (A) (A) (A) (A)
                 (A) (A) (A) (A) (A) (A) (A) (A) (A) (A) (A) (A)
                 (A) (A) (A) (A) (A) (A) (A) (A) (A) (A) (A) (A)
                 (A) (A) (A) (A) (A) (A) (A) (A) (A) (A) (A) (A)
                 (A) (A) (A) (A) (A) (A) (A) (A) (A) (A) (A) (A)
                 (A) (A) (A) (A) (A) (A) (A) (A) (A) (A) (A) (A)
                 (A) (A) (A) (A) (A) (A) (A) (A) (A) (A) (A) (A)
                 (A) (A) (A) (A) (A) (A) (A) (A) (A) (A) (A) (A)
                 (A) (A) (A) (A) (A) (A) (A) (A) (A) (A) (A) (A)
                 (A) (A) (A) (A) (A) (A) (A) (A) (A) (A) (A) (A)
                 (A) (A) (A) (A) (A) (A) (A) (A) (A) (A) (A) (A)
                 (A) (A) (A) (A) (A) (A) (A) (A) (A) (A) (A) (A)
                 (A) (A) (A) (A) (A) (A) (A) (A) (A) (A) (A) (A)
                 (A) (A) (A) (A) (A) (A) (A) (A) (A) (A) (A) (A)
                 (A) (A) (A) (A) (A) (A) (A) (A) (A) (A) (A) (A)
                 (A) (A) (A) (A) (A) (A) (A) (A) (A) (A) (A) (A)
                 (A) (A) (A) (A) (A) (A) (A) (A) (A) (A) (A) (A)
                 (A) (A) (A) (A) (A) (A) (A) (A) (A) (A) (A) (A)
                 (A) (A) (A) (A) (A) (A) (A) (A) (A) (A) (A) (A)
                 (A) (A) (A) (A) (A) (A) (A) (A) (A) (A) (A) (A)
                 (A) (A) (A) (A) (A) (A) (A) (A) (A) (A) (A) (A)
                 (A) (A) (A) (A) (A) (A) (A) (A) (A) (A) (A) (A)
                 (A) (A) (A) (A) (A) (A) (A) (A) (A) (A) (A) (A)
                 (A) (A) (A) (A) (A) (A) (A) (A) (A) (A) (A) (A)
                 (A) (A) (A) (A) (A) (A) (A) (A) (A) (A) (A) (A)
                 (A) (A) (A) (A) (A) (A) (A) (A) (A) (A) (A) (A)
                 (A) (A) (A) (A) (A) (A) (A) (A) (A) (A) (A) (A)
                 (A) (A) (A) (A) (A) (A) (A) (A) (A) (A) (A) (A)
                 (A) (A) (A) (A) (A) (A) (A) (A) (A) (A) (A) (A)
                 (A) (A) (A) (A) (A) (A) (A)
 The electronic state is 1-A.
 Alpha  occ. eigenvalues --  -19.41735 -19.40825 -19.40128 -19.39568 -19.36149
 Alpha  occ. eigenvalues --  -14.60222 -14.56480 -10.46634 -10.46534 -10.44436
 Alpha  occ. eigenvalues --  -10.44287 -10.43892 -10.43358 -10.41978 -10.41735
 Alpha  occ. eigenvalues --  -10.39983 -10.39204  -1.27466  -1.25288  -1.24428
 Alpha  occ. eigenvalues --   -1.23632  -1.20302  -1.19285  -1.15804  -1.04389
 Alpha  occ. eigenvalues --   -1.00708  -0.98890  -0.93373  -0.87972  -0.86121
 Alpha  occ. eigenvalues --   -0.85186  -0.79238  -0.78288  -0.77927  -0.77063
 Alpha  occ. eigenvalues --   -0.76028  -0.75509  -0.74708  -0.73689  -0.71630
 Alpha  occ. eigenvalues --   -0.71128  -0.69321  -0.67973  -0.65625  -0.65041
 Alpha  occ. eigenvalues --   -0.64418  -0.63161  -0.62670  -0.61953  -0.61278
 Alpha  occ. eigenvalues --   -0.61171  -0.59893  -0.59340  -0.57434  -0.57323
 Alpha  occ. eigenvalues --   -0.55707  -0.55443  -0.54464  -0.54145  -0.54013
 Alpha  occ. eigenvalues --   -0.53638  -0.52994  -0.52481  -0.51013  -0.50390
 Alpha  occ. eigenvalues --   -0.49821  -0.49417  -0.45973  -0.42898
 Alpha virt. eigenvalues --   -0.09623  -0.07855  -0.06262  -0.05249  -0.04930
 Alpha virt. eigenvalues --   -0.04142  -0.03014  -0.02844  -0.02627  -0.02098
 Alpha virt. eigenvalues --   -0.01856  -0.01338  -0.00916  -0.00304  -0.00227
 Alpha virt. eigenvalues --   -0.00082   0.00637   0.00872   0.01196   0.01605
 Alpha virt. eigenvalues --    0.02134   0.02288   0.02808   0.03195   0.03395
 Alpha virt. eigenvalues --    0.03590   0.03799   0.04034   0.04695   0.04754
 Alpha virt. eigenvalues --    0.05106   0.05463   0.06219   0.06260   0.06533
 Alpha virt. eigenvalues --    0.06700   0.06773   0.07280   0.07431   0.07508
 Alpha virt. eigenvalues --    0.07747   0.07969   0.08380   0.08643   0.08859
 Alpha virt. eigenvalues --    0.09231   0.09631   0.09824   0.10088   0.10365
 Alpha virt. eigenvalues --    0.10651   0.10950   0.11338   0.11658   0.11929
 Alpha virt. eigenvalues --    0.12128   0.12482   0.12701   0.12871   0.12946
 Alpha virt. eigenvalues --    0.13380   0.13550   0.13895   0.14359   0.14611
 Alpha virt. eigenvalues --    0.14874   0.14991   0.15667   0.16003   0.16275
 Alpha virt. eigenvalues --    0.16547   0.16653   0.16885   0.17027   0.17267
 Alpha virt. eigenvalues --    0.17760   0.17971   0.18159   0.18394   0.18586
 Alpha virt. eigenvalues --    0.19042   0.19295   0.19513   0.19757   0.19989
 Alpha virt. eigenvalues --    0.20238   0.20557   0.20799   0.21095   0.21341
 Alpha virt. eigenvalues --    0.21739   0.21920   0.22143   0.22861   0.23271
 Alpha virt. eigenvalues --    0.23484   0.23753   0.23957   0.24572   0.24735
 Alpha virt. eigenvalues --    0.24915   0.25639   0.26023   0.26258   0.26425
 Alpha virt. eigenvalues --    0.26791   0.26965   0.27468   0.27534   0.27661
 Alpha virt. eigenvalues --    0.28187   0.28693   0.28942   0.29452   0.29754
 Alpha virt. eigenvalues --    0.29915   0.30284   0.30783   0.30902   0.31258
 Alpha virt. eigenvalues --    0.31497   0.31690   0.32020   0.32307   0.32791
 Alpha virt. eigenvalues --    0.33190   0.33785   0.33995   0.34058   0.34577
 Alpha virt. eigenvalues --    0.34957   0.35288   0.35761   0.36138   0.36482
 Alpha virt. eigenvalues --    0.36878   0.37445   0.37802   0.38270   0.38609
 Alpha virt. eigenvalues --    0.39173   0.39596   0.39994   0.40287   0.40735
 Alpha virt. eigenvalues --    0.40930   0.41412   0.41646   0.41961   0.42339
 Alpha virt. eigenvalues --    0.42482   0.42954   0.43367   0.43692   0.43998
 Alpha virt. eigenvalues --    0.44423   0.45000   0.45284   0.45634   0.45709
 Alpha virt. eigenvalues --    0.46263   0.46519   0.46893   0.47285   0.47836
 Alpha virt. eigenvalues --    0.47981   0.48581   0.49174   0.49195   0.49760
 Alpha virt. eigenvalues --    0.49986   0.50289   0.50501   0.50719   0.50965
 Alpha virt. eigenvalues --    0.51435   0.51903   0.52084   0.52403   0.52821
 Alpha virt. eigenvalues --    0.53090   0.53814   0.54040   0.54180   0.54365
 Alpha virt. eigenvalues --    0.54611   0.54988   0.55243   0.55728   0.56580
 Alpha virt. eigenvalues --    0.56786   0.57056   0.57388   0.57989   0.58099
 Alpha virt. eigenvalues --    0.58476   0.59314   0.59645   0.60080   0.60154
 Alpha virt. eigenvalues --    0.60538   0.61325   0.61515   0.62166   0.62641
 Alpha virt. eigenvalues --    0.63027   0.63943   0.64420   0.64958   0.65103
 Alpha virt. eigenvalues --    0.65276   0.65734   0.66128   0.66929   0.67176
 Alpha virt. eigenvalues --    0.67439   0.67869   0.68687   0.69111   0.69785
 Alpha virt. eigenvalues --    0.70294   0.70785   0.71124   0.71351   0.71831
 Alpha virt. eigenvalues --    0.72156   0.72276   0.72723   0.73202   0.73682
 Alpha virt. eigenvalues --    0.73982   0.74162   0.74646   0.75417   0.75571
 Alpha virt. eigenvalues --    0.76116   0.76379   0.76939   0.77285   0.78037
 Alpha virt. eigenvalues --    0.78246   0.79003   0.79174   0.79521   0.79655
 Alpha virt. eigenvalues --    0.80695   0.81066   0.81634   0.81926   0.82734
 Alpha virt. eigenvalues --    0.83536   0.84186   0.84825   0.85155   0.85383
 Alpha virt. eigenvalues --    0.86239   0.86567   0.86986   0.88561   0.88705
 Alpha virt. eigenvalues --    0.89682   0.89933   0.90402   0.91356   0.92073
 Alpha virt. eigenvalues --    0.92318   0.93279   0.94217   0.94545   0.94577
 Alpha virt. eigenvalues --    0.95407   0.95939   0.96636   0.96911   0.97641
 Alpha virt. eigenvalues --    0.98372   0.98938   0.99449   1.00343   1.01124
 Alpha virt. eigenvalues --    1.01424   1.02567   1.03245   1.04180   1.04726
 Alpha virt. eigenvalues --    1.04940   1.05824   1.06398   1.07252   1.07452
 Alpha virt. eigenvalues --    1.08466   1.09230   1.09662   1.10756   1.10925
 Alpha virt. eigenvalues --    1.11803   1.12749   1.13251   1.14176   1.14851
 Alpha virt. eigenvalues --    1.15417   1.15827   1.16109   1.17453   1.18360
 Alpha virt. eigenvalues --    1.19514   1.20417   1.20784   1.21605   1.22853
 Alpha virt. eigenvalues --    1.23441   1.24308   1.25088   1.25814   1.26361
 Alpha virt. eigenvalues --    1.26752   1.28422   1.28898   1.30006   1.31402
 Alpha virt. eigenvalues --    1.31787   1.32919   1.33136   1.34540   1.34807
 Alpha virt. eigenvalues --    1.35467   1.36112   1.36621   1.37777   1.38518
 Alpha virt. eigenvalues --    1.39252   1.40171   1.41061   1.41271   1.42529
 Alpha virt. eigenvalues --    1.42777   1.43862   1.43990   1.45064   1.46056
 Alpha virt. eigenvalues --    1.47043   1.47984   1.48876   1.49745   1.50428
 Alpha virt. eigenvalues --    1.51522   1.52187   1.53865   1.54326   1.55497
 Alpha virt. eigenvalues --    1.56464   1.56984   1.58911   1.59715   1.60718
 Alpha virt. eigenvalues --    1.61065   1.61345   1.61674   1.63423   1.65200
 Alpha virt. eigenvalues --    1.65733   1.66228   1.66632   1.67043   1.67676
 Alpha virt. eigenvalues --    1.68447   1.68677   1.70114   1.71328   1.72086
 Alpha virt. eigenvalues --    1.72969   1.73342   1.73534   1.74151   1.74715
 Alpha virt. eigenvalues --    1.75189   1.75488   1.76653   1.77644   1.78113
 Alpha virt. eigenvalues --    1.78808   1.79808   1.80623   1.80882   1.82092
 Alpha virt. eigenvalues --    1.82554   1.82862   1.84095   1.84316   1.85243
 Alpha virt. eigenvalues --    1.85608   1.86316   1.86575   1.86943   1.88193
 Alpha virt. eigenvalues --    1.89105   1.89762   1.90140   1.90443   1.91300
 Alpha virt. eigenvalues --    1.92553   1.93021   1.93621   1.94452   1.95901
 Alpha virt. eigenvalues --    1.96866   1.97610   1.97617   1.99202   1.99479
 Alpha virt. eigenvalues --    2.00208   2.02184   2.02240   2.03787   2.04894
 Alpha virt. eigenvalues --    2.05333   2.06234   2.07200   2.07708   2.08887
 Alpha virt. eigenvalues --    2.09694   2.10799   2.11682   2.12576   2.13202
 Alpha virt. eigenvalues --    2.13524   2.14937   2.15236   2.15387   2.16940
 Alpha virt. eigenvalues --    2.17191   2.18334   2.19402   2.20155   2.20953
 Alpha virt. eigenvalues --    2.21108   2.21994   2.22822   2.24123   2.24390
 Alpha virt. eigenvalues --    2.25935   2.27155   2.27790   2.28738   2.29309
 Alpha virt. eigenvalues --    2.30043   2.31342   2.32084   2.32656   2.33836
 Alpha virt. eigenvalues --    2.34207   2.34967   2.36269   2.39194   2.39871
 Alpha virt. eigenvalues --    2.40912   2.41810   2.42319   2.43515   2.44940
 Alpha virt. eigenvalues --    2.46032   2.46727   2.49909   2.51051   2.51761
 Alpha virt. eigenvalues --    2.52613   2.52980   2.53388   2.54647   2.56035
 Alpha virt. eigenvalues --    2.56289   2.57213   2.57634   2.58842   2.60698
 Alpha virt. eigenvalues --    2.61386   2.61796   2.62668   2.64591   2.65105
 Alpha virt. eigenvalues --    2.66115   2.68088   2.68334   2.69509   2.70757
 Alpha virt. eigenvalues --    2.71091   2.72373   2.73206   2.74108   2.74919
 Alpha virt. eigenvalues --    2.75917   2.78292   2.78490   2.80049   2.83010
 Alpha virt. eigenvalues --    2.83609   2.86155   2.86744   2.88676   2.88867
 Alpha virt. eigenvalues --    2.90005   2.93169   2.93285   2.93641   2.97362
 Alpha virt. eigenvalues --    2.98818   2.99982   3.01536   3.03894   3.05203
 Alpha virt. eigenvalues --    3.06946   3.12521   3.15903   3.18733   3.27495
 Alpha virt. eigenvalues --    3.29535   3.30834   3.33543   3.34556   3.36036
 Alpha virt. eigenvalues --    3.36718   3.38722   3.39691   3.42460   3.43157
 Alpha virt. eigenvalues --    3.43874   3.47123   3.48802   3.49779   3.53677
 Alpha virt. eigenvalues --    3.58305   3.64313   3.66526   3.67430   3.68576
 Alpha virt. eigenvalues --    3.72032   3.82016   3.90912   3.91508   3.95929
 Alpha virt. eigenvalues --    4.01668   4.02230   4.14136   4.19043   4.24325
 Alpha virt. eigenvalues --    4.39182   5.05163
          Condensed to atoms (all electrons):
               1          2          3          4          5          6
     1  N   15.134855  -6.107955  -1.122060  -0.611724  -0.333019   1.781588
     2  C   -6.107955  28.687138  -1.006921   0.519644  -0.407258 -10.029338
     3  C   -1.122060  -1.006921   9.059991  -1.176745   0.916037   0.007050
     4  C   -0.611724   0.519644  -1.176745   6.618014  -0.022743   0.142842
     5  C   -0.333019  -0.407258   0.916037  -0.022743   6.277473  -0.467301
     6  C    1.781588 -10.029338   0.007050   0.142842  -0.467301  25.600788
     7  C    1.139276  -3.688264  -0.912737  -0.139100  -0.373313  -3.153639
     8  N   -0.148590   1.009809   0.009704   0.026657   0.061798  -0.320196
     9  C    0.165700  -0.941063  -0.095816   0.011541  -0.048516  -1.043018
    10  C   -0.196326   0.363174  -0.066156  -0.015237  -0.011686   0.097155
    11  C   -0.203727  -0.699079  -0.259035   0.014851   0.056823  -9.518270
    12  O   -0.003555   0.025183  -0.007765   0.000190   0.000015  -0.076563
    13  O   -0.204582   0.172070   0.008761   0.058876   0.006739  -0.032666
    14  H   -1.148868   0.520761   0.220280   0.109406  -0.107722  -0.337070
    15  H   -0.111826   0.104867   0.236742  -0.320221   0.132063  -0.059457
    16  H    0.186186   0.003817   0.228181  -0.410579  -0.131841   0.036291
    17  H    0.518959  -0.329294  -1.141437   0.100475  -0.234187   0.627875
    18  H   -0.109247   0.192029  -0.200265   0.353855   0.078702  -0.211938
    19  H   -0.214521   0.173697  -0.132047   0.059400  -0.406154   0.212877
    20  H   -0.326881  -2.657004   0.684660  -0.042552  -0.006642   1.231108
    21  H   -0.057924  -0.186716  -0.435503   0.078018  -0.077904  -0.779364
    22  H    0.006858  -0.046378   0.002896   0.000326  -0.001892  -0.121212
    23  H   -0.001526   0.083167  -0.000759   0.000527   0.000552   0.072486
    24  H    0.028114  -0.225985  -0.041063  -0.012212  -0.008080   1.175822
    25  C    0.878984  -1.038753  -0.330862   0.046260  -0.319077   0.715296
    26  H   -0.001377   0.057759  -0.010282  -0.003802  -0.000831  -0.005692
    27  H   -0.190555   0.429641   0.341581  -0.245130  -0.029134  -0.243712
    28  H   -0.013480   0.045140  -0.038912   0.044746   0.000550  -0.000545
    29  H   -0.002509   0.014581   0.001395   0.002719   0.000574  -0.002623
    30  H    0.000376  -0.004146   0.000477   0.000115  -0.000231   0.010245
    31  O   -0.005708  -0.051982  -0.004242  -0.010943   0.006765  -0.043094
    32  H    0.002520  -0.000046  -0.000164  -0.000749  -0.000652  -0.004807
    33  H    0.003268  -0.060634   0.022136  -0.022516   0.013512   0.036819
    34  H   -0.320257   0.119064  -0.095278   0.107007   0.046659  -0.072383
    35  H    0.259931  -0.087755   0.143555  -0.058289   0.033907  -0.004849
    36  H   -0.741017  -0.044728  -0.021147  -0.001644  -0.092612   0.338941
    37  O    0.000009   0.001909   0.001176   0.000789   0.000956   0.002513
    38  H    0.000269  -0.000039  -0.000052   0.000083  -0.000046  -0.000265
    39  H   -0.000399   0.000426   0.000168   0.000027   0.000014  -0.000177
    40  O   -0.034703  -0.006109   0.003427   0.002323   0.014509  -0.002662
    41  H   -0.002586  -0.001762   0.000051  -0.000827  -0.000994   0.000402
    42  H    0.004095   0.002642   0.000238  -0.000459  -0.000761  -0.000935
               7          8          9         10         11         12
     1  N    1.139276  -0.148590   0.165700  -0.196326  -0.203727  -0.003555
     2  C   -3.688264   1.009809  -0.941063   0.363174  -0.699079   0.025183
     3  C   -0.912737   0.009704  -0.095816  -0.066156  -0.259035  -0.007765
     4  C   -0.139100   0.026657   0.011541  -0.015237   0.014851   0.000190
     5  C   -0.373313   0.061798  -0.048516  -0.011686   0.056823   0.000015
     6  C   -3.153639  -0.320196  -1.043018   0.097155  -9.518270  -0.076563
     7  C   17.759556  -1.439834  -1.102595   0.395569  -2.504087  -0.221688
     8  N   -1.439834   8.640260  -0.035042   0.177172  -0.285674  -0.047519
     9  C   -1.102595  -0.035042  10.201742  -2.506783   1.507060   0.033851
    10  C    0.395569   0.177172  -2.506783  11.583391  -4.125282  -0.016679
    11  C   -2.504087  -0.285674   1.507060  -4.125282  23.017111   0.024281
    12  O   -0.221688  -0.047519   0.033851  -0.016679   0.024281   8.108222
    13  O   -0.121367   0.016171  -0.012165   0.005024  -0.013197   0.000196
    14  H   -0.056881   0.003440  -0.003780  -0.000124   0.022489   0.000198
    15  H    0.008331  -0.000188   0.001996  -0.001351   0.014779   0.000046
    16  H    0.005232   0.002447  -0.001305   0.001122  -0.004199  -0.000366
    17  H    0.342653  -0.023103  -0.001306   0.005332  -0.067450  -0.000031
    18  H   -0.258618   0.022907   0.010512  -0.039042   0.091328  -0.003265
    19  H    0.044289   0.000056  -0.000235  -0.001148   0.011906  -0.000079
    20  H   -0.312259   0.015659   0.032848  -0.023157  -0.084620   0.000598
    21  H   -0.845640   0.097197  -0.260585   0.316809  -0.256712   0.136220
    22  H    0.185462  -0.110029  -0.575535   0.112970   0.207405   0.004374
    23  H   -0.187020  -0.032356   0.391836  -1.114832   0.532734   0.000447
    24  H    0.295501  -0.064972  -0.183128   0.628031  -2.450232  -0.000053
    25  C    0.212035  -0.049621  -0.015570   0.076715  -0.294240  -0.001295
    26  H   -0.111292   0.202324   0.024741  -0.084005  -0.001902   0.123801
    27  H    0.027754  -0.079099  -0.012503  -0.025008  -0.026593  -0.008735
    28  H   -0.019627   0.015685   0.003156   0.001104   0.002282   0.005404
    29  H    0.024019   0.003453   0.006377  -0.000010   0.001797   0.162614
    30  H    0.003636   0.002831  -0.015864   0.011580  -0.007861   0.360686
    31  O   -0.152355   0.032144  -0.003454   0.002830   0.016483  -0.086900
    32  H   -0.004857  -0.004338  -0.003135  -0.000188   0.002113   0.007608
    33  H    0.048876  -0.016014  -0.003025   0.000319   0.000739  -0.033487
    34  H   -0.034532   0.000685  -0.008754   0.019423  -0.011764  -0.000222
    35  H    0.017162  -0.003878  -0.024162   0.025637   0.020642   0.000616
    36  H    0.012904  -0.001031   0.013194  -0.013299  -0.050665  -0.000039
    37  O    0.014413  -0.002338   0.000013  -0.000224   0.000241  -0.000500
    38  H   -0.001435   0.000162   0.000162  -0.000067   0.000027  -0.000266
    39  H    0.000578  -0.000136   0.000081  -0.000002  -0.000033  -0.000116
    40  O   -0.001671  -0.000668  -0.000605   0.000183   0.000866  -0.000028
    41  H    0.000929  -0.000266  -0.000043   0.000062  -0.000072  -0.000054
    42  H   -0.000019  -0.000046   0.000076  -0.000218   0.000182  -0.000026
              13         14         15         16         17         18
     1  N   -0.204582  -1.148868  -0.111826   0.186186   0.518959  -0.109247
     2  C    0.172070   0.520761   0.104867   0.003817  -0.329294   0.192029
     3  C    0.008761   0.220280   0.236742   0.228181  -1.141437  -0.200265
     4  C    0.058876   0.109406  -0.320221  -0.410579   0.100475   0.353855
     5  C    0.006739  -0.107722   0.132063  -0.131841  -0.234187   0.078702
     6  C   -0.032666  -0.337070  -0.059457   0.036291   0.627875  -0.211938
     7  C   -0.121367  -0.056881   0.008331   0.005232   0.342653  -0.258618
     8  N    0.016171   0.003440  -0.000188   0.002447  -0.023103   0.022907
     9  C   -0.012165  -0.003780   0.001996  -0.001305  -0.001306   0.010512
    10  C    0.005024  -0.000124  -0.001351   0.001122   0.005332  -0.039042
    11  C   -0.013197   0.022489   0.014779  -0.004199  -0.067450   0.091328
    12  O    0.000196   0.000198   0.000046  -0.000366  -0.000031  -0.003265
    13  O    8.244429   0.060221  -0.003712   0.005302  -0.002130   0.007144
    14  H    0.060221   3.068657   0.108701  -0.317965  -0.044400   0.074239
    15  H   -0.003712   0.108701   2.152278  -0.629831  -0.358624   0.217572
    16  H    0.005302  -0.317965  -0.629831   2.324436   0.233581  -0.475910
    17  H   -0.002130  -0.044400  -0.358624   0.233581   2.762348  -0.760467
    18  H    0.007144   0.074239   0.217572  -0.475910  -0.760467   2.501890
    19  H   -0.011584  -0.620245  -0.237783   0.208324   0.067860  -0.075992
    20  H    0.002500   0.086920   0.066562  -0.075483  -0.374509   0.228160
    21  H    0.011634  -0.120411  -0.017069   0.082885   0.121521  -0.252175
    22  H   -0.000667  -0.000250   0.000027   0.000215   0.000859  -0.003482
    23  H    0.000155   0.000156  -0.000000  -0.000060  -0.001596   0.002093
    24  H   -0.001729  -0.004790   0.000204   0.000872   0.015357  -0.008040
    25  C   -0.026328  -0.154224   0.000897   0.008603   0.071911  -0.046419
    26  H    0.004104   0.001982   0.000112  -0.001293   0.000292   0.000753
    27  H    0.038730   0.177726   0.002910   0.044238  -0.015270   0.018824
    28  H    0.366240  -0.007326   0.002706  -0.014068  -0.001320  -0.000352
    29  H   -0.004791   0.001232   0.000350  -0.001195  -0.000494   0.003408
    30  H   -0.000865  -0.000152  -0.000014   0.000133   0.000027  -0.000799
    31  O   -0.071264  -0.000308  -0.000678   0.003254   0.000707  -0.007986
    32  H   -0.009610  -0.000493  -0.000161  -0.000409  -0.000138   0.001538
    33  H    0.044850  -0.002523  -0.001619   0.005989   0.001385  -0.000619
    34  H    0.068347   0.045306   0.001549   0.006151  -0.003048  -0.001065
    35  H   -0.014926   0.009800   0.002282  -0.012013  -0.004282   0.017422
    36  H   -0.016382  -0.013735  -0.002326   0.005709   0.016815  -0.014218
    37  O    0.003606   0.000306   0.000105  -0.002189   0.000033   0.003272
    38  H    0.000037  -0.000044  -0.000043   0.000019   0.000024   0.000060
    39  H   -0.000340   0.000085   0.000076   0.000033  -0.000036  -0.000134
    40  O   -0.053610   0.013079   0.000034  -0.000506  -0.000197   0.001601
    41  H    0.002274  -0.002253  -0.000113   0.000594   0.000046  -0.000173
    42  H   -0.000623   0.001084  -0.000052   0.000079  -0.000017   0.000061
              19         20         21         22         23         24
     1  N   -0.214521  -0.326881  -0.057924   0.006858  -0.001526   0.028114
     2  C    0.173697  -2.657004  -0.186716  -0.046378   0.083167  -0.225985
     3  C   -0.132047   0.684660  -0.435503   0.002896  -0.000759  -0.041063
     4  C    0.059400  -0.042552   0.078018   0.000326   0.000527  -0.012212
     5  C   -0.406154  -0.006642  -0.077904  -0.001892   0.000552  -0.008080
     6  C    0.212877   1.231108  -0.779364  -0.121212   0.072486   1.175822
     7  C    0.044289  -0.312259  -0.845640   0.185462  -0.187020   0.295501
     8  N    0.000056   0.015659   0.097197  -0.110029  -0.032356  -0.064972
     9  C   -0.000235   0.032848  -0.260585  -0.575535   0.391836  -0.183128
    10  C   -0.001148  -0.023157   0.316809   0.112970  -1.114832   0.628031
    11  C    0.011906  -0.084620  -0.256712   0.207405   0.532734  -2.450232
    12  O   -0.000079   0.000598   0.136220   0.004374   0.000447  -0.000053
    13  O   -0.011584   0.002500   0.011634  -0.000667   0.000155  -0.001729
    14  H   -0.620245   0.086920  -0.120411  -0.000250   0.000156  -0.004790
    15  H   -0.237783   0.066562  -0.017069   0.000027  -0.000000   0.000204
    16  H    0.208324  -0.075483   0.082885   0.000215  -0.000060   0.000872
    17  H    0.067860  -0.374509   0.121521   0.000859  -0.001596   0.015357
    18  H   -0.075992   0.228160  -0.252175  -0.003482   0.002093  -0.008040
    19  H    2.450814  -0.096542   0.047548   0.000112  -0.000361   0.003155
    20  H   -0.096542   3.645822  -0.041738   0.000903   0.000183  -0.157439
    21  H    0.047548  -0.041738   5.162114   0.048712  -0.017546   0.011951
    22  H    0.000112   0.000903   0.048712   2.199893  -0.127052  -0.006011
    23  H   -0.000361   0.000183  -0.017546  -0.127052   2.118530  -0.133102
    24  H    0.003155  -0.157439   0.011951  -0.006011  -0.133102   2.993423
    25  C   -0.019849  -0.021899   0.143891   0.003657  -0.006201   0.041860
    26  H   -0.000517  -0.002003  -0.165111  -0.125909   0.012830   0.000154
    27  H    0.004379   0.008013  -0.350807  -0.004238   0.002343  -0.004722
    28  H   -0.003598   0.001192   0.059913   0.000517  -0.000183   0.000565
    29  H   -0.000295   0.000420  -0.069557   0.007883  -0.000428  -0.000124
    30  H    0.000022  -0.000037   0.013760   0.004690  -0.000562   0.000032
    31  O    0.000402  -0.001485   0.182077   0.000617   0.000165   0.000333
    32  H    0.000137  -0.000004   0.010286  -0.000503  -0.000006   0.000036
    33  H    0.000946  -0.001664  -0.059194  -0.001241   0.000261  -0.000648
    34  H   -0.023809   0.025565   0.026291   0.000364  -0.000471   0.001213
    35  H    0.002051   0.005468  -0.065589  -0.003398  -0.000999   0.002254
    36  H    0.085937   0.083878   0.034746   0.000581  -0.000077   0.002731
    37  O    0.000014   0.000058  -0.026569   0.000002  -0.000009   0.000009
    38  H   -0.000006  -0.000016  -0.002527  -0.000004  -0.000003   0.000005
    39  H   -0.000008   0.000021   0.004271   0.000009  -0.000001  -0.000001
    40  O    0.001030   0.000597  -0.013685  -0.000042   0.000009  -0.000020
    41  H    0.000403  -0.000191   0.000288   0.000002   0.000001   0.000005
    42  H    0.000279  -0.000007  -0.000593  -0.000008   0.000000  -0.000015
              25         26         27         28         29         30
     1  N    0.878984  -0.001377  -0.190555  -0.013480  -0.002509   0.000376
     2  C   -1.038753   0.057759   0.429641   0.045140   0.014581  -0.004146
     3  C   -0.330862  -0.010282   0.341581  -0.038912   0.001395   0.000477
     4  C    0.046260  -0.003802  -0.245130   0.044746   0.002719   0.000115
     5  C   -0.319077  -0.000831  -0.029134   0.000550   0.000574  -0.000231
     6  C    0.715296  -0.005692  -0.243712  -0.000545  -0.002623   0.010245
     7  C    0.212035  -0.111292   0.027754  -0.019627   0.024019   0.003636
     8  N   -0.049621   0.202324  -0.079099   0.015685   0.003453   0.002831
     9  C   -0.015570   0.024741  -0.012503   0.003156   0.006377  -0.015864
    10  C    0.076715  -0.084005  -0.025008   0.001104  -0.000010   0.011580
    11  C   -0.294240  -0.001902  -0.026593   0.002282   0.001797  -0.007861
    12  O   -0.001295   0.123801  -0.008735   0.005404   0.162614   0.360686
    13  O   -0.026328   0.004104   0.038730   0.366240  -0.004791  -0.000865
    14  H   -0.154224   0.001982   0.177726  -0.007326   0.001232  -0.000152
    15  H    0.000897   0.000112   0.002910   0.002706   0.000350  -0.000014
    16  H    0.008603  -0.001293   0.044238  -0.014068  -0.001195   0.000133
    17  H    0.071911   0.000292  -0.015270  -0.001320  -0.000494   0.000027
    18  H   -0.046419   0.000753   0.018824  -0.000352   0.003408  -0.000799
    19  H   -0.019849  -0.000517   0.004379  -0.003598  -0.000295   0.000022
    20  H   -0.021899  -0.002003   0.008013   0.001192   0.000420  -0.000037
    21  H    0.143891  -0.165111  -0.350807   0.059913  -0.069557   0.013760
    22  H    0.003657  -0.125909  -0.004238   0.000517   0.007883   0.004690
    23  H   -0.006201   0.012830   0.002343  -0.000183  -0.000428  -0.000562
    24  H    0.041860   0.000154  -0.004722   0.000565  -0.000124   0.000032
    25  C    4.746014  -0.007187  -0.177350   0.004126  -0.002083   0.000797
    26  H   -0.007187   0.596724   0.027261  -0.004847   0.000210  -0.050634
    27  H   -0.177350   0.027261   1.095407  -0.286512   0.002211  -0.000161
    28  H    0.004126  -0.004847  -0.286512   0.697085   0.004224  -0.000446
    29  H   -0.002083   0.000210   0.002211   0.004224   0.324222  -0.050722
    30  H    0.000797  -0.050634  -0.000161  -0.000446  -0.050722   0.581524
    31  O    0.004478  -0.034043  -0.080154   0.017102   0.000585   0.000041
    32  H   -0.000411   0.002306   0.002226  -0.000743  -0.007180  -0.001022
    33  H    0.002950   0.009190   0.037994  -0.045821  -0.022846   0.001028
    34  H    0.208029  -0.002086   0.032122  -0.003225  -0.000404   0.000228
    35  H   -0.072913   0.004756   0.012140   0.005336   0.000481  -0.000287
    36  H    0.331635  -0.001105  -0.055314   0.005087  -0.000057   0.000037
    37  O    0.000120   0.000180  -0.001712   0.003028   0.003633   0.000606
    38  H    0.000041   0.000892   0.002285  -0.001247  -0.003096   0.000129
    39  H   -0.000065  -0.000694  -0.002787   0.001365   0.001138   0.000003
    40  O   -0.019595   0.000828   0.050444  -0.064172  -0.001741   0.000013
    41  H    0.004580   0.000006   0.004656  -0.008956   0.000033   0.000006
    42  H   -0.003546   0.000122   0.004561  -0.004588  -0.000084  -0.000002
              31         32         33         34         35         36
[...]
 00000247,0.00002155,-0.00000266,-0.00000712,-0.00000037,0.00001353,-0.
 00000194,0.00053504,-0.00001690,0.00002059,0.00024537,0.00021450,-0.00
 005080,-0.00000382,-0.00000514,-0.00000322,0.00000737,0.00000716,-0.00
 000262,-0.00001241,0.00000356,0.00001890,0.00001271,0.00000294,-0.0000
 0184,-0.00000462,-0.00001256,0.00002189,0.00000701,0.00000660,-0.00000
 779,0.00000934,0.00000553,-0.00001142,-0.00002939,-0.00001949,0.000012
 35,-0.00000690,-0.00000390,0.00000527,0.00000661,0.00000247,0.00000326
 ,0.00000601,0.00000175,0.00000271,-0.00000957,-0.00000669,-0.00000219,
 -0.00055456,-0.00012187,0.00016176,-0.00015450,-0.00000824,0.00003096,
 -0.00000766,-0.00006612,-0.00000024,-0.00040488,0.00007336,-0.00029146
 ,-0.00005695,0.00001415,-0.00004176,0.00015383,0.00040056,0.00048900,0
 .00024717,-0.00120255,-0.00191885,-0.00033412,-0.00031996,-0.00001850,
 -0.00000282,-0.00000697,-0.00000386,-0.00000708,0.00000498,-0.00000429
 ,0.00000881,0.00000419,-0.00000275,0.05373820,-0.19585943,-0.44750290,
 -0.04703350,0.20391302,0.46007592,0.00007534,0.00004169,0.00000477,-0.
 00001185,-0.00001002,0.00000051,-0.00001546,-0.00000878,0.00000422,-0.
 00000978,-0.00000246,-0.00000329,-0.00000719,-0.00003093,0.00000859,0.
 00003411,-0.00001271,-0.00000222,-0.00003446,-0.00002874,0.00001241,0.
 00015185,0.00004810,-0.00002994,-0.00001900,0.00004365,-0.00000279,0.0
 0000698,-0.00000610,-0.00000062,-0.00000827,0.00001400,0.00000104,0.00
 038231,-0.00011428,0.00005078,0.00019546,0.00020814,0.00004634,-0.0000
 0632,-0.00000381,0.00000076,0.00000771,0.00000568,-0.00000222,0.000001
 52,-0.00000974,0.00000525,0.00000528,0.00000085,0.00000024,0.00000029,
 0.00001138,0.00000233,0.00001353,0.00000677,0.00000214,0.00001254,0.00
 000511,0.00000138,-0.00001608,-0.00001228,-0.00000900,-0.00000610,-0.0
 0000268,-0.00000361,0.00000327,0.00000108,-0.00000182,0.00000223,0.000
 00204,-0.00000176,-0.00001784,-0.00000663,-0.00002897,-0.00034201,-0.0
 0007786,0.00008276,-0.00013293,-0.00000952,0.00000482,0.00001905,-0.00
 010481,-0.00004876,-0.00031581,0.00022289,-0.00014880,-0.00003448,0.00
 001777,-0.00005280,0.00053036,0.00026871,-0.00046470,-0.00242110,-0.00
 072692,0.00141182,-0.00016139,-0.00030611,-0.00004539,-0.00000543,-0.0
 0000088,-0.00000005,-0.00000116,0.00000031,-0.00000315,0.00001302,0.00
 000502,0.00000031,-0.49996794,-0.04114711,0.15095685,-0.00366525,-0.00
 447257,-0.00665058,0.50573937,0.00004943,-0.00003262,-0.00000070,-0.00
 001195,0.00003512,0.00002589,0.00000599,0.00000007,-0.00000485,-0.0000
 1906,-0.00000147,0.00000536,-0.00001967,0.00002372,-0.00000781,0.00000
 343,0.00002106,-0.00000670,-0.00002094,0.00002933,-0.00000237,-0.00014
 202,-0.00005846,0.00003655,0.00003371,-0.00002269,-0.00000336,-0.00001
 812,-0.00001783,0.00000499,-0.00000627,0.00000011,-0.00000030,-0.00029
 121,-0.00018331,0.00005499,0.00014729,-0.00024892,-0.00001918,-0.00000
 573,-0.00000803,-0.00000775,0.00000067,-0.00000451,0.00000044,0.000007
 69,0.00000399,0.00000473,0.00000303,-0.00000286,-0.00000250,-0.0000051
 9,-0.00000041,-0.00000428,0.00000693,-0.00000491,0.00000230,0.00000699
 ,-0.00000662,-0.00000272,0.00000714,0.00002804,0.00000151,0.00000835,0
 .00000072,0.00000226,-0.00000135,-0.00000148,0.00000090,-0.00000374,0.
 00000139,0.00000092,-0.00000759,0.00000800,-0.00000731,0.00034046,0.00
 008931,-0.00009134,-0.00008255,-0.00001010,0.00000165,-0.00019454,0.00
 007917,-0.00000131,0.00002604,0.00022967,-0.00012287,0.00010358,0.0000
 4204,0.00004227,-0.00009388,-0.00019567,-0.00015162,0.00059108,-0.0003
 5254,0.00055873,0.00005174,0.00046415,0.00022396,0.00000007,-0.0000030
 5,-0.00000471,0.00000114,-0.00000530,0.00000623,0.00000382,0.00000155,
 0.00000034,-0.06615974,-0.01424435,0.00176318,0.01950314,0.00109639,-0
 .00712505,0.04614823,0.01333712,-0.00000850,-0.00000338,-0.00002812,-0
 .00000284,0.00000417,0.00001111,0.00001015,0.00001195,0.00000300,0.000
 01166,-0.00000037,0.00000127,-0.00000378,0.00000271,0.00001034,-0.0000
 1012,0.00000686,-0.00000091,0.00002443,-0.00001859,-0.00000532,0.00002
 901,0.00000787,-0.00002470,-0.00000537,-0.00000122,0.00000380,0.000004
 30,0.00000735,-0.00000295,0.00000269,-0.00000590,0.00000109,0.00000526
 ,0.00026045,-0.00009602,-0.00000592,-0.00012305,-0.00011924,0.00000130
 ,0.00000028,-0.00000016,-0.00000032,0.00000047,-0.00000101,-0.00000647
 ,0.00000637,0.00000380,0.00000028,-0.00000115,-0.00000222,0.00000109,-
 0.00001008,0.00000129,-0.00000227,-0.00000127,-0.00000463,-0.00000180,
 -0.00000082,-0.00000493,0.00000988,0.00001326,0.00000952,-0.00000110,0
 .00000083,0.00000526,0.00000045,0.00000037,0.00000247,-0.00000004,-0.0
 0000004,0.00000198,0.00000268,0.00000088,0.00002374,-0.00008095,-0.000
 01718,0.00004408,0.00001149,-0.00000938,0.00000976,-0.00008484,0.00002
 468,0.00007589,0.00017046,-0.00046728,0.00009820,-0.00011698,-0.000013
 08,0.00002934,-0.00187111,-0.00013066,-0.00370837,0.00096087,0.0001985
 5,0.00675129,0.00004196,0.00022070,0.00000813,0.00000099,-0.00000682,-
 0.00000082,-0.00000413,0.00000461,0.00000149,-0.00000107,-0.00000041,-
 0.00000433,0.10249084,-0.00959945,-0.07822290,0.04351635,0.00482230,-0
 .01092473,-0.14510710,0.00485076,0.08606134,-0.00023835,0.00035077,0.0
 0017056,0.00012595,-0.00008773,-0.00028457,-0.00001848,-0.00000953,0.0
 0009770,-0.00017163,0.00013314,-0.00025481,0.00074887,-0.00084630,-0.0
 0027423,-0.00011527,-0.00012053,0.00010999,0.00009345,-0.00000821,-0.0
 0000536,0.00017187,0.00014140,-0.00005621,-0.00008709,0.00003608,0.000
 00237,0.00005298,0.00006557,-0.00002059,0.00005665,0.00001386,-0.00001
 373,0.00040872,-0.00001536,-0.00004234,0.00058913,0.00713688,0.0017735
 8,-0.00056521,0.00020406,0.00021755,-0.00001711,0.00000472,0.00003142,
 0.00003873,-0.00003527,-0.00007403,-0.00004868,0.00004048,0.00003156,0
 .00001318,0.00006780,0.00000580,-0.00027844,0.00018506,0.00013095,-0.0
 0005639,0.00000461,0.00002376,0.00000057,-0.00014447,-0.00001208,-0.00
 000736,0.00000723,-0.00000187,0.00000103,0.00001258,-0.00000319,0.0000
 1760,-0.00002029,-0.00000400,0.00023258,-0.00010277,0.00000529,-0.0004
 8372,-0.00015191,0.00011825,0.00020992,-0.00047990,-0.00014757,-0.0033
 3166,-0.00028624,-0.00105271,-0.00020506,0.00019798,-0.00004213,-0.000
 04586,-0.00003195,0.00001669,0.00098178,0.00048689,-0.00000145,-0.0004
 1061,0.00016291,-0.00016169,-0.00122883,-0.00107329,0.00020067,0.00001
 052,-0.00002560,0.00020331,-0.00003833,0.00009030,-0.00001807,-0.00005
 608,-0.00000658,0.00003045,0.00024496,-0.00023162,-0.00000846,-0.00005
 891,0.00003781,0.00003416,-0.00002111,0.00018287,0.00007250,0.26509080
 ,0.00154669,0.00091535,-0.00002810,-0.00020897,0.00027164,0.00018389,-
 0.00010692,-0.00006674,0.00001701,-0.00012459,0.00006889,-0.00010922,0
 .00047343,-0.00102550,0.00000696,0.00025853,-0.00016980,-0.00001259,-0
 .00052951,0.00011923,0.00004872,0.00036096,-0.00002069,-0.00007326,0.0
 0006182,0.00007465,-0.00001674,-0.00001469,-0.00011943,0.00002418,-0.0
 0005948,0.00016559,-0.00000654,0.00070691,-0.00078147,0.00003896,0.008
 43783,-0.01106215,-0.00336276,0.00001676,-0.00040034,0.00013552,0.0001
 3214,0.00003501,-0.00005940,-0.00002211,-0.00016025,0.00008755,0.00003
 530,0.00005770,-0.00000163,-0.00001988,0.00011354,0.00009821,0.0001363
 3,0.00018006,-0.00001115,0.00019289,-0.00003348,-0.00007140,-0.0002278
 3,0.00033699,0.00006699,0.00000865,-0.00001444,-0.00000054,0.00000843,
 -0.00000070,-0.00000260,0.00002388,-0.00000541,-0.00000263,-0.00014996
 ,0.00001737,-0.00038989,-0.00044681,-0.00003389,0.00012953,-0.00378752
 ,-0.00208588,-0.00009912,-0.00338366,-0.00324080,0.00150678,-0.0009516
 6,0.00143346,-0.00021723,0.00002354,0.00010767,-0.00005362,-0.00066848
 ,-0.00233012,-0.00011283,0.00049915,0.00016897,0.00048780,0.00161770,0
 .00280825,-0.00008285,-0.00013285,-0.00013816,0.00000086,-0.00007535,0
 .00005462,-0.00000684,0.00020090,0.00003527,0.00003710,-0.00027685,-0.
 00013577,-0.00030003,-0.00000526,0.00002321,0.00007503,0.00008234,0.00
 004435,0.00002233,-0.24041478,0.23695422,0.00036986,-0.00002854,0.0002
 1403,0.00000592,-0.00013522,0.00004550,0.00002086,0.00006353,0.0000637
 3,-0.00042158,0.00004051,-0.00000033,-0.00002696,0.00022675,0.00012723
 ,0.00007612,0.00005507,0.00001720,-0.00009851,0.00002107,-0.00000019,-
 0.00000499,-0.00005636,0.00003315,0.00002502,-0.00001083,-0.00000706,-
 0.00001205,-0.00002788,0.00000778,-0.00001604,-0.00000265,0.00000240,0
 .00001040,-0.00011829,0.00008474,0.00202347,-0.00362071,0.00443843,-0.
 00025090,-0.00003141,-0.00085766,0.00006658,-0.00000630,0.00005974,0.0
 0004860,0.00015219,0.00032671,0.00004678,-0.00003789,0.00002020,-0.000
 01706,0.00001149,0.00001305,0.00022622,-0.00009010,-0.00001010,0.00003
 377,0.00001700,-0.00000174,-0.00003393,0.00007167,-0.00000934,0.000002
 33,-0.00000485,-0.00000554,0.00000048,-0.00000620,-0.00000584,-0.00000
 361,0.00000518,-0.00000965,0.00012308,-0.00023380,-0.00060241,0.000089
 75,0.00002923,-0.00004789,-0.00052857,-0.00039789,-0.00044593,-0.00158
 924,0.00118527,-0.00947858,-0.00013639,0.00021407,-0.00008586,0.000015
 87,-0.00000768,-0.00004875,-0.00022766,-0.00045937,0.00021793,-0.00001
 195,0.00005155,-0.00011171,0.00052379,0.00061641,-0.00022429,0.0000579
 0,0.00006628,0.00013435,0.00000076,-0.00000906,0.00007047,-0.00000744,
 0.00005765,0.00012029,-0.00003701,-0.00015378,0.00010919,0.00001733,0.
 00007552,-0.00001771,0.00002926,0.00003990,-0.00006943,0.03341403,-0.0
 3436282,0.70438556,0.00005227,-0.00024669,0.00001616,-0.00001423,-0.00
 004434,0.00006320,0.00005242,0.00004762,0.00001059,-0.00014522,-0.0000
 4222,-0.00000330,-0.00028179,0.00023360,0.00009539,0.00002370,0.000074
 16,-0.00002394,0.00001191,-0.00001005,0.00000121,-0.00009072,-0.000051
 81,0.00002665,0.00002507,-0.00001847,-0.00000035,-0.00001979,-0.000014
 93,0.00000362,-0.00001458,-0.00002235,0.00000429,-0.00018589,0.0000416
 4,0.00001219,0.00009925,-0.00023913,0.00020590,-0.00011820,0.00021846,
 -0.00042606,0.00000429,-0.00000382,0.00004229,0.00005799,0.00013430,0.
 00015967,0.00003089,-0.00003587,-0.00000308,-0.00000774,-0.00003370,-0
 .00000236,0.00005250,-0.00004662,0.00000287,0.00000253,0.00000620,0.00
 000282,0.00002205,0.00002116,-0.00000663,0.00000133,-0.00000066,0.0000
 0043,-0.00000045,-0.00000469,0.00000154,-0.00000959,0.00000876,0.00000
 054,0.00000724,-0.00004987,-0.00010571,0.00020314,0.00005565,-0.000050
 53,0.00030938,-0.00001161,-0.00021536,-0.00076734,0.00008814,-0.000239
 11,0.00012388,-0.00014387,0.00002677,0.00001481,0.00000869,-0.00000087
 ,-0.00021141,0.00003030,-0.00004843,0.00014109,-0.00003956,0.00006188,
 0.00013680,0.00011201,0.00003741,0.00001651,0.00002422,0.00001653,0.00
 000519,-0.00002251,0.00003016,-0.00000954,0.00002264,0.00001375,-0.000
 10428,0.00011692,-0.00000248,0.00002965,-0.00002557,-0.00001729,0.0000
 1399,-0.00009338,-0.00001560,-0.18360861,0.16778011,-0.20054877,0.1778
 4626,-0.00011698,-0.00010849,-0.00001825,0.00002056,-0.00001739,0.0000
 1631,0.00000129,0.00000392,0.00000633,0.00011639,-0.00000705,0.0000609
 0,-0.00008439,0.00010275,0.00008842,-0.00002430,0.00001050,-0.00000243
 ,0.00003563,0.00000334,-0.00000389,-0.00007359,-0.00002422,0.00001703,
 0.00000516,-0.00001995,0.00000350,-0.00000266,0.00000635,-0.00000192,0
 .00001046,-0.00001240,-0.00000018,-0.00020505,0.00015851,-0.00000902,-
 0.00036590,-0.00141274,-0.00138834,0.00001735,0.00007329,-0.00010927,-
 0.00008167,-0.00000085,0.00001693,0.00000454,0.00003868,-0.00007493,-0
 .00001263,0.00000391,-0.00000179,0.00000836,-0.00002574,-0.00000701,-0
 .00005611,-0.00000444,-0.00002034,-0.00002047,-0.00000056,-0.00000374,
 0.00001200,-0.00000069,-0.00000343,0.00000223,0.00000107,0.00000002,-0
 .00000130,0.00000034,0.00000066,-0.00000180,-0.00000012,0.00000089,0.0
 0002633,-0.00000621,0.00001266,0.00015848,0.00003305,-0.00003881,0.000
 26143,0.00011591,-0.00003676,0.00142797,0.00109214,0.00340403,0.000220
 97,-0.00031187,0.00005526,0.00000330,-0.00001566,0.00001005,-0.0002552
 8,0.00020211,-0.00003662,0.00007972,-0.00013071,0.00003382,0.00023469,
 -0.00004212,0.00000167,0.00000969,0.00000039,0.00000519,0.00000705,-0.
 00000430,0.00000055,-0.00002625,0.00000039,0.00000138,-0.00002082,0.00
 018134,0.00002237,0.00000891,-0.00004611,-0.00002713,-0.00002769,-0.00
 009213,-0.00001364,0.16601247,-0.15649936,0.18082356,-0.16188639,0.151
 29443,0.00015186,0.00004765,-0.00015222,-0.00003680,0.00008295,0.00008
 965,-0.00004682,-0.00004322,-0.00004867,0.00023902,0.00002019,0.000096
 50,0.00003950,-0.00004229,0.00007585,0.00002122,-0.00004576,-0.0000306
 9,-0.00003856,0.00000611,0.00000099,0.00004021,0.00000376,-0.00001847,
 0.00000542,0.00000896,0.00000228,0.00000242,-0.00001019,0.00000286,-0.
 00000367,0.00001775,-0.00000251,0.00006828,-0.00005935,-0.00002271,0.0
 0088799,-0.00203013,-0.00134740,0.00002855,-0.00007457,0.00021006,0.00
 000293,0.00000783,-0.00004019,-0.00006840,-0.00013357,-0.00008975,-0.0
 0001287,0.00002226,-0.00001170,0.00000855,-0.00000661,0.00000655,0.000
 01176,0.00001511,-0.00004746,0.00002224,-0.00001024,-0.00002410,-0.000
 02818,0.00003952,0.00002451,0.00000151,-0.00000145,0.00000238,0.000001
 21,0.00000089,0.00000254,0.00000435,-0.00000180,0.00000380,-0.00005371
 ,0.00004865,0.00007551,-0.00006206,-0.00000684,0.00002876,-0.00040670,
 -0.00000693,0.00015122,-0.00074779,0.00302570,0.00223815,-0.00007218,0
 .00010696,0.00000145,-0.00000154,0.00001408,0.00000994,-0.00010757,-0.
 00024264,-0.00012036,0.00010547,-0.00001101,0.00016149,0.00018379,0.00
 031945,0.00006905,-0.00001796,-0.00001299,-0.00004321,-0.00000229,-0.0
 0000087,-0.00002169,0.00002052,-0.00000165,-0.00001953,-0.00003165,0.0
 0008541,-0.00013154,-0.00001119,-0.00005662,0.00002753,-0.00000798,-0.
 00001937,0.00004700,-0.15745424,0.14329474,-0.25073875,0.18535517,-0.1
 6949678,0.27581295,-0.00009823,-0.00014613,-0.00012102,-0.00004552,0.0
 0009377,0.00003153,0.00001459,-0.00001494,-0.00004374,0.00010741,-0.00
 006709,-0.00000495,-0.00024510,0.00004171,-0.00004521,-0.00000307,0.00
 004751,-0.00003232,0.00002225,-0.00000511,0.00000344,-0.00009136,-0.00
 003446,0.00001668,0.00002518,-0.00001274,0.00000115,-0.00002056,-0.000
 01165,0.00000378,-0.00001420,-0.00000533,0.00000335,-0.00019509,0.0000
 6334,0.00000355,-0.00026798,0.00048062,-0.00039118,0.00025295,0.000123
 28,0.00029126,-0.00001304,-0.00000043,-0.00001144,-0.00000299,-0.00001
 002,-0.00007207,0.00000289,-0.00000364,-0.00001615,-0.00000440,-0.0000
 1999,-0.00001278,-0.00007797,0.00002107,0.00003090,0.00000117,-0.00000
 812,0.00000576,0.00002805,0.00000594,0.00000411,0.00000161,0.00000060,
 0.00000205,-0.00000097,-0.00000253,0.00000211,-0.00000783,0.00000679,0
 .00000581,-0.00012415,0.00016214,0.00031766,0.00019404,0.00005393,-0.0
 0004477,0.00040973,-0.00002330,0.00023823,-0.00028302,-0.00095661,0.00
 055866,0.00015247,-0.00018486,0.00003651,0.00001874,0.00000792,0.00000
 260,-0.00017341,0.00011974,0.00000928,0.00008491,-0.00002606,-0.000008
 38,0.00007264,0.00000850,-0.00002813,0.00000267,-0.00000600,-0.0001188
 2,0.00002125,-0.00004244,-0.00002974,0.00001447,-0.00003433,-0.0000643
 7,-0.00006172,0.00005326,0.00004012,0.00001940,-0.00000537,-0.00001638
 ,0.00001277,-0.00005591,-0.00003833,-0.07799648,0.06900284,0.16674451,
 0.00630523,-0.00542170,-0.02798982,0.07196264,-0.00009459,-0.00008419,
 0.00002302,0.00002239,-0.00002642,0.00000294,-0.00000155,0.00000941,-0
 .00000365,0.00001424,-0.00000131,0.00000427,-0.00008484,0.00013955,-0.
 00000764,-0.00001745,0.00001885,0.00000194,0.00002380,0.00000873,-0.00
 000763,-0.00008104,-0.00003483,0.00003373,0.00001048,-0.00002659,-0.00
 000125,-0.00000549,0.00000364,0.00000069,0.00001167,-0.00001248,-0.000
 00137,-0.00020354,0.00014042,0.00003126,0.00037809,-0.00234623,0.00103
 262,0.00006900,-0.00000559,0.00003761,-0.00000117,-0.00000526,0.000014
 11,0.00000290,-0.00001764,-0.00000026,0.00000016,-0.00000428,0.0000032
 8,0.00000104,-0.00001325,-0.00000712,-0.00004070,-0.00000738,0.0000046
 3,-0.00001514,0.00000361,0.00000320,0.00000193,0.00001714,-0.00000799,
 0.00000260,0.00000006,-0.00000190,-0.00000119,-0.00000080,-0.00000048,
 -0.00000216,-0.00000003,-0.00000069,0.00004477,-0.00003684,-0.00006675
 ,0.00019033,0.00003708,-0.00006137,0.00017468,0.00000158,-0.00007254,-
 0.00006855,0.00314061,-0.00322200,0.00018435,-0.00026497,0.00001567,0.
 00000863,-0.00003361,-0.00001138,-0.00024872,0.00012189,0.00015024,-0.
 00001755,-0.00006552,-0.00009904,0.00031901,0.00006239,-0.00022597,0.0
 0006553,0.00009303,0.00000692,0.00002548,-0.00002903,-0.00000321,-0.00
 005780,0.00000595,0.00004297,0.00000252,0.00004615,0.00009520,0.000012
 78,0.00000083,-0.00002543,-0.00001116,-0.00003805,-0.00004399,0.068516
 88,-0.06566166,-0.14402227,-0.00593646,0.00546069,0.02514691,-0.063194
 17,0.05940438,-0.00019057,0.00002304,-0.00007786,0.00000008,0.00001455
 ,-0.00005832,0.00000931,-0.00000686,-0.00000211,0.00003817,0.00001718,
 -0.00001085,0.00002622,-0.00007596,0.00001438,-0.00003773,-0.00001981,
 0.00000504,0.00004268,-0.00000281,-0.00000655,-0.00000723,0.00002422,-
 0.00001365,-0.00001587,0.00000213,0.00000383,0.00000561,0.00001727,-0.
 00000615,0.00001001,-0.00000140,-0.00000015,-0.00004951,0.00009820,-0.
 00004690,-0.00106013,0.00165634,-0.00001859,0.00011098,0.00000216,0.00
 008153,-0.00001313,0.00000183,-0.00000483,-0.00001409,-0.00001597,-0.0
 0005065,-0.00001588,0.00000936,-0.00000330,0.00000375,-0.00000104,-0.0
 0000363,-0.00008472,0.00001137,0.00000718,-0.00002615,-0.00000033,0.00
 000964,0.00002702,-0.00004393,0.00000507,-0.00000086,0.00000373,0.0000
 0324,-0.00000079,0.00000305,0.00000301,0.00000143,-0.00000277,0.000004
 36,-0.00001105,0.00007229,0.00021377,-0.00001767,-0.00000838,0.0000156
 7,0.00036184,0.00003050,0.00008984,0.00143556,-0.00257603,-0.00025458,
 0.00012525,-0.00018354,0.00006039,-0.00000679,0.00000153,0.00002922,0.
 00002393,0.00028571,-0.00009109,0.00000848,-0.00004744,0.00001624,-0.0
 0014656,-0.00034614,0.00008111,0.00000671,-0.00003383,0.00002669,-0.00
 001473,0.00002069,-0.00001055,-0.00001344,-0.00001836,-0.00003836,0.00
 000264,0.00008141,-0.00001357,0.00000010,-0.00002727,-0.00000092,-0.00
 001101,-0.00004178,0.00001560,0.12324276,-0.10687838,-0.44771290,0.015
 51886,-0.01328726,-0.02623012,-0.13926347,0.12124272,0.47396983\\-0.00
 000197,-0.00000080,0.00000062,-0.00000073,0.00000058,-0.00000050,0.000
 00044,-0.00000027,-0.00000015,-0.00000046,0.00000107,0.00000075,0.0000
 0074,-0.00000147,0.00000124,0.00000143,0.00000229,-0.00000193,-0.00000
 356,-0.00000238,0.00000036,0.00000118,-0.00000210,-0.00000102,0.000000
 43,-0.00000007,-0.00000109,-0.00000108,-0.00000093,-0.00000060,0.00000
 150,0.00000224,-0.00000059,-0.00000004,0.00000026,-0.00000053,0.000003
 95,0.00000055,0.00000037,-0.00000080,-0.00000010,0.00000065,-0.0000004
 2,0.00000045,0.00000024,-0.00000026,0.00000031,0.00000056,-0.00000040,
 0.00000032,0.,-0.00000059,0.00000037,-0.00000023,-0.00000046,0.,0.0000
 0020,0.00000032,-0.00000005,-0.00000015,0.00000036,0.00000064,0.000000
 48,0.,-0.00000005,-0.00000097,-0.00000027,0.00000009,-0.00000089,-0.00
 000028,0.00000018,-0.00000072,0.00000070,-0.00000019,0.00000013,0.0000
 0034,-0.00000027,-0.00000065,-0.00000170,0.00000042,0.00000052,0.00000
 093,0.00000046,0.00000025,0.00000082,-0.00000003,-0.00000009,0.0000000
 2,-0.00000060,-0.00000064,0.00000014,0.00000020,-0.00000014,-0.0000000
 5,0.00000022,0.00000051,-0.00000036,-0.00000067,0.00000011,0.00000031,
 -0.00000055,0.00000032,0.00000003,-0.00000019,-0.00000003,-0.00000025,
 -0.00000035,-0.00000021,0.00000012,0.00000040,0.00000020,-0.00000036,0
 .00000037,0.00000009,-0.00000027,0.00000013,0.00000047,-0.00000003,-0.
 00000045,0.00000082,0.00000030,0.00000016,0.00000109,0.00000024,-0.000
 00023,0.00000116\\\@


 Sacred cows make the best hamburger.
                               -- Mark Twain
 Job cpu time:       1 days 15 hours 41 minutes 43.3 seconds.
 Elapsed time:       0 days  1 hours 25 minutes 10.9 seconds.
 File lengths (MBytes):  RWF=   1440 Int=      0 D2E=      0 Chk=     36 Scr=      8
 Normal termination of Gaussian 16 at Sun May 21 08:38:46 2023.
