 Entering Gaussian System, Link 0=g16
 Input=Nic5h3bLMidPyrInter.gjf
 Output=Nic5h3bLMidPyrInter.log
 Initial command:
 /sw/contrib/gaussian/g16/A03/g16/l1.exe "/gscratch/scrubbed/gds001/Gau-12449.inp" -scrdir="/gscratch/scrubbed/gds001/"
 Entering Link 1 = /sw/contrib/gaussian/g16/A03/g16/l1.exe PID=     12450.
  
 Copyright (c) 1988,1990,1992,1993,1995,1998,2003,2009,2016,
            Gaussian, Inc.  All Rights Reserved.
  
 This is part of the Gaussian(R) 16 program.  It is based on
 the Gaussian(R) 09 system (copyright 2009, Gaussian, Inc.),
 the Gaussian(R) 03 system (copyright 2003, Gaussian, Inc.),
 the Gaussian(R) 98 system (copyright 1998, Gaussian, Inc.),
 the Gaussian(R) 94 system (copyright 1995, Gaussian, Inc.),
 the Gaussian 92(TM) system (copyright 1992, Gaussian, Inc.),
 the Gaussian 90(TM) system (copyright 1990, Gaussian, Inc.),
 the Gaussian 88(TM) system (copyright 1988, Gaussian, Inc.),
 the Gaussian 86(TM) system (copyright 1986, Carnegie Mellon
 University), and the Gaussian 82(TM) system (copyright 1983,
 Carnegie Mellon University). Gaussian is a federally registered
 trademark of Gaussian, Inc.
  
 This software contains proprietary and confidential information,
 including trade secrets, belonging to Gaussian, Inc.
  
 This software is provided under written license and may be
 used, copied, transmitted, or stored only in accord with that
 written license.
  
 The following legend is applicable only to US Government
 contracts under FAR:
  
                    RESTRICTED RIGHTS LEGEND
  
 Use, reproduction and disclosure by the US Government is
 subject to restrictions as set forth in subparagraphs (a)
 and (c) of the Commercial Computer Software - Restricted
 Rights clause in FAR 52.227-19.
  
 Gaussian, Inc.
 340 Quinnipiac St., Bldg. 40, Wallingford CT 06492
  
  
 ---------------------------------------------------------------
 Warning -- This program may not be used in any manner that
 competes with the business of Gaussian, Inc. or will provide
 assistance to any competitor of Gaussian, Inc.  The licensee
 of this program is prohibited from giving any competitor of
 Gaussian, Inc. access to this program.  By using this program,
 the user acknowledges that Gaussian, Inc. is engaged in the
 business of creating and licensing software in the field of
 computational chemistry and represents and warrants to the
 licensee that it is not a competitor of Gaussian, Inc. and that
 it will not use this program in any manner prohibited above.
 ---------------------------------------------------------------
  

 Cite this work as:
 Gaussian 16, Revision A.03,
 M. J. Frisch, G. W. Trucks, H. B. Schlegel, G. E. Scuseria, 
 M. A. Robb, J. R. Cheeseman, G. Scalmani, V. Barone, 
 G. A. Petersson, H. Nakatsuji, X. Li, M. Caricato, A. V. Marenich, 
 J. Bloino, B. G. Janesko, R. Gomperts, B. Mennucci, H. P. Hratchian, 
 J. V. Ortiz, A. F. Izmaylov, J. L. Sonnenberg, D. Williams-Young, 
 F. Ding, F. Lipparini, F. Egidi, J. Goings, B. Peng, A. Petrone, 
 T. Henderson, D. Ranasinghe, V. G. Zakrzewski, J. Gao, N. Rega, 
 G. Zheng, W. Liang, M. Hada, M. Ehara, K. Toyota, R. Fukuda, 
 J. Hasegawa, M. Ishida, T. Nakajima, Y. Honda, O. Kitao, H. Nakai, 
 T. Vreven, K. Throssell, J. A. Montgomery, Jr., J. E. Peralta, 
 F. Ogliaro, M. J. Bearpark, J. J. Heyd, E. N. Brothers, K. N. Kudin, 
 V. N. Staroverov, T. A. Keith, R. Kobayashi, J. Normand, 
 K. Raghavachari, A. P. Rendell, J. C. Burant, S. S. Iyengar, 
 J. Tomasi, M. Cossi, J. M. Millam, M. Klene, C. Adamo, R. Cammi, 
 J. W. Ochterski, R. L. Martin, K. Morokuma, O. Farkas, 
 J. B. Foresman, and D. J. Fox, Gaussian, Inc., Wallingford CT, 2016.
 
 ******************************************
 Gaussian 16:  ES64L-G16RevA.03 25-Dec-2016
                17-May-2023 
 ******************************************
 %nprocshared=28
 Will use up to   28 processors via shared memory.
 %mem=41GB
 -----------------------------------------
 # wB97XD/aug-cc-pVDZ opt=(MaxStep=1) freq
 -----------------------------------------
 1/8=1,18=20,19=15,26=3,38=1/1,3;
 2/9=110,12=2,17=6,18=5,40=1/2;
 3/5=16,7=10,11=2,25=1,30=1,71=1,74=-58/1,2,3;
 4//1;
 5/5=2,38=5/2;
 6/7=2,8=2,9=2,10=2,28=1/1;
 7//1,2,3,16;
 1/8=1,18=20,19=15,26=3/3(2);
 2/9=110/2;
 99//99;
 2/9=110/2;
 3/5=16,7=10,11=2,25=1,30=1,71=1,74=-58/1,2,3;
 4/5=5,16=3,69=1/1;
 5/5=2,38=5/2;
 7//1,2,3,16;
 1/8=1,18=20,19=15,26=3/3(-5);
 2/9=110/2;
 6/7=2,8=2,9=2,10=2,19=2,28=1/1;
 99/9=1/99;
 ----
 blah
 ----
 Symbolic Z-matrix:
 Charge =  1 Multiplicity = 1
 N                     1.54523  -1.33539   0.65525 
 C                     1.90783  -0.50477  -0.51202 
 C                     1.35588  -1.30569  -1.70669 
 C                     1.31794  -2.77166  -1.21159 
 C                     1.86541  -2.70405   0.21757 
 C                     1.41106   0.91456  -0.39149 
 C                     0.05153   1.1848   -0.24806 
 N                    -0.45581   2.41103  -0.11152 
 C                     0.38442   3.45284  -0.13166 
 C                     1.75707   3.29662  -0.28284 
 C                     2.27446   2.00907  -0.40631 
 O                    -3.03245   2.00178   0.3665 
 O                    -1.03934  -1.6034    1.35889 
 H                     1.41442  -3.43642   0.89832 
 H                     1.91747  -3.44067  -1.83679 
 H                     0.29024  -3.15176  -1.21037 
 H                     1.99181  -1.16843  -2.58728 
 H                     0.35314  -0.95338  -1.97542 
 H                     2.9593   -2.85729   0.2304 
 H                     3.01144  -0.47193  -0.58383 
 H                    -0.67124   0.36828  -0.24199 
 H                    -0.06145   4.44129  -0.02228 
 H                     2.40756   4.16892  -0.296 
 H                     3.34916   1.8571   -0.51322 
 C                     2.24479  -0.94605   1.87666 
 H                    -2.09287   2.32011   0.18551 
 H                    -0.08244  -1.43722   1.06797 
 H                    -1.01741  -2.12171   2.16642 
 H                    -3.12875   0.60826   0.6842 
 H                    -3.46341   2.64232   0.93805 
 O                    -3.20142  -0.42415   0.84099 
 H                    -3.67312  -0.86722   0.08524 
 H                    -2.30554  -0.87761   1.04271 
 H                     1.97115  -1.62865   2.69037 
 H                     1.95487   0.0711    2.1655 
 H                     3.34046  -0.98244   1.74681 
 O                    -4.43762  -1.5961   -1.15688 
 H                    -4.73023  -1.11092  -1.9341 
 H                    -5.09614  -2.28028  -1.00382 
 O                    -0.74318  -3.02199   3.95542 
 H                    -1.16598  -4.04392   4.15249 
 H                    -0.59388  -2.68162   4.86834 
 
 Add virtual bond connecting atoms H29        and O12        Dist= 2.71D+00.
 Add virtual bond connecting atoms H33        and O13        Dist= 2.82D+00.
 Add virtual bond connecting atoms O37        and H32        Dist= 3.08D+00.
 Add virtual bond connecting atoms H26        and N8         Dist= 3.15D+00.
 Add virtual bond connecting atoms H27        and N1         Dist= 3.18D+00.
 Add virtual bond connecting atoms O40        and H28        Dist= 3.82D+00.

 GradGradGradGradGradGradGradGradGradGradGradGradGradGradGradGradGradGrad
 Berny optimization.
 Initialization pass.
                           ----------------------------
                           !    Initial Parameters    !
                           ! (Angstroms and Degrees)  !
 --------------------------                            --------------------------
 ! Name  Definition              Value          Derivative Info.                !
 --------------------------------------------------------------------------------
 ! R1    R(1,2)                  1.4778         estimate D2E/DX2                !
 ! R2    R(1,5)                  1.4722         estimate D2E/DX2                !
 ! R3    R(1,25)                 1.4604         estimate D2E/DX2                !
 ! R4    R(1,27)                 1.6823         estimate D2E/DX2                !
 ! R5    R(2,3)                  1.5406         estimate D2E/DX2                !
 ! R6    R(2,6)                  1.5086         estimate D2E/DX2                !
 ! R7    R(2,20)                 1.1064         estimate D2E/DX2                !
 ! R8    R(3,4)                  1.5478         estimate D2E/DX2                !
 ! R9    R(3,17)                 1.0948         estimate D2E/DX2                !
 ! R10   R(3,18)                 1.0963         estimate D2E/DX2                !
 ! R11   R(4,5)                  1.5319         estimate D2E/DX2                !
 ! R12   R(4,15)                 1.0945         estimate D2E/DX2                !
 ! R13   R(4,16)                 1.0957         estimate D2E/DX2                !
 ! R14   R(5,14)                 1.0969         estimate D2E/DX2                !
 ! R15   R(5,19)                 1.1047         estimate D2E/DX2                !
 ! R16   R(6,7)                  1.3935         estimate D2E/DX2                !
 ! R17   R(6,11)                 1.3941         estimate D2E/DX2                !
 ! R18   R(7,8)                  1.334          estimate D2E/DX2                !
 ! R19   R(7,21)                 1.0905         estimate D2E/DX2                !
 ! R20   R(8,9)                  1.3386         estimate D2E/DX2                !
 ! R21   R(8,26)                 1.6663         estimate D2E/DX2                !
 ! R22   R(9,10)                 1.3898         estimate D2E/DX2                !
 ! R23   R(9,22)                 1.0899         estimate D2E/DX2                !
 ! R24   R(10,11)                1.3931         estimate D2E/DX2                !
 ! R25   R(10,23)                1.0882         estimate D2E/DX2                !
 ! R26   R(11,24)                1.0906         estimate D2E/DX2                !
 ! R27   R(12,26)                1.0084         estimate D2E/DX2                !
 ! R28   R(12,29)                1.4325         estimate D2E/DX2                !
 ! R29   R(12,30)                0.9606         estimate D2E/DX2                !
 ! R30   R(13,27)                1.0139         estimate D2E/DX2                !
 ! R31   R(13,28)                0.9598         estimate D2E/DX2                !
 ! R32   R(13,33)                1.4933         estimate D2E/DX2                !
 ! R33   R(25,34)                1.0968         estimate D2E/DX2                !
 ! R34   R(25,35)                1.0964         estimate D2E/DX2                !
 ! R35   R(25,36)                1.1039         estimate D2E/DX2                !
 ! R36   R(28,40)                2.0214         estimate D2E/DX2                !
 ! R37   R(29,31)                1.0468         estimate D2E/DX2                !
 ! R38   R(31,32)                0.995          estimate D2E/DX2                !
 ! R39   R(31,33)                1.0242         estimate D2E/DX2                !
 ! R40   R(32,37)                1.6305         estimate D2E/DX2                !
 ! R41   R(37,38)                0.9618         estimate D2E/DX2                !
 ! R42   R(37,39)                0.9619         estimate D2E/DX2                !
 ! R43   R(40,41)                1.1234         estimate D2E/DX2                !
 ! R44   R(40,42)                0.9857         estimate D2E/DX2                !
 ! A1    A(2,1,5)              103.5533         estimate D2E/DX2                !
 ! A2    A(2,1,25)             113.1555         estimate D2E/DX2                !
 ! A3    A(2,1,27)             117.7231         estimate D2E/DX2                !
 ! A4    A(5,1,25)             113.0986         estimate D2E/DX2                !
 ! A5    A(5,1,27)             103.1256         estimate D2E/DX2                !
 ! A6    A(25,1,27)            105.9277         estimate D2E/DX2                !
 ! A7    A(1,2,3)              103.4389         estimate D2E/DX2                !
 ! A8    A(1,2,6)              112.6377         estimate D2E/DX2                !
 ! A9    A(1,2,20)             108.2207         estimate D2E/DX2                !
 ! A10   A(3,2,6)              115.665          estimate D2E/DX2                !
 ! A11   A(3,2,20)             108.8119         estimate D2E/DX2                !
 ! A12   A(6,2,20)             107.8014         estimate D2E/DX2                !
 ! A13   A(2,3,4)              104.6625         estimate D2E/DX2                !
 ! A14   A(2,3,17)             110.5141         estimate D2E/DX2                !
 ! A15   A(2,3,18)             110.5314         estimate D2E/DX2                !
 ! A16   A(4,3,17)             112.9704         estimate D2E/DX2                !
 ! A17   A(4,3,18)             111.1232         estimate D2E/DX2                !
 ! A18   A(17,3,18)            107.0879         estimate D2E/DX2                !
 ! A19   A(3,4,5)              104.351          estimate D2E/DX2                !
 ! A20   A(3,4,15)             112.507          estimate D2E/DX2                !
 ! A21   A(3,4,16)             110.6033         estimate D2E/DX2                !
 ! A22   A(5,4,15)             111.3543         estimate D2E/DX2                !
 ! A23   A(5,4,16)             110.4538         estimate D2E/DX2                !
 ! A24   A(15,4,16)            107.5991         estimate D2E/DX2                !
 ! A25   A(1,5,4)              103.926          estimate D2E/DX2                !
 ! A26   A(1,5,14)             110.2918         estimate D2E/DX2                !
 ! A27   A(1,5,19)             109.9306         estimate D2E/DX2                !
 ! A28   A(4,5,14)             113.7401         estimate D2E/DX2                !
 ! A29   A(4,5,19)             111.0141         estimate D2E/DX2                !
 ! A30   A(14,5,19)            107.8976         estimate D2E/DX2                !
 ! A31   A(2,6,7)              120.7931         estimate D2E/DX2                !
 ! A32   A(2,6,11)             122.2657         estimate D2E/DX2                !
 ! A33   A(7,6,11)             116.9392         estimate D2E/DX2                !
 ! A34   A(6,7,8)              124.0428         estimate D2E/DX2                !
 ! A35   A(6,7,21)             120.1319         estimate D2E/DX2                !
 ! A36   A(8,7,21)             115.8253         estimate D2E/DX2                !
 ! A37   A(7,8,9)              118.3688         estimate D2E/DX2                !
 ! A38   A(7,8,26)             109.9824         estimate D2E/DX2                !
 ! A39   A(9,8,26)             131.441          estimate D2E/DX2                !
 ! A40   A(8,9,10)             122.2847         estimate D2E/DX2                !
 ! A41   A(8,9,22)             116.5884         estimate D2E/DX2                !
 ! A42   A(10,9,22)            121.1269         estimate D2E/DX2                !
 ! A43   A(9,10,11)            118.7086         estimate D2E/DX2                !
 ! A44   A(9,10,23)            120.1067         estimate D2E/DX2                !
 ! A45   A(11,10,23)           121.1832         estimate D2E/DX2                !
 ! A46   A(6,11,10)            119.6465         estimate D2E/DX2                !
 ! A47   A(6,11,24)            120.1264         estimate D2E/DX2                !
 ! A48   A(10,11,24)           120.2271         estimate D2E/DX2                !
 ! A49   A(26,12,29)           114.175          estimate D2E/DX2                !
 ! A50   A(26,12,30)           108.3197         estimate D2E/DX2                !
 ! A51   A(29,12,30)           119.1144         estimate D2E/DX2                !
 ! A52   A(27,13,28)           107.9606         estimate D2E/DX2                !
 ! A53   A(27,13,33)           131.2892         estimate D2E/DX2                !
 ! A54   A(28,13,33)           117.385          estimate D2E/DX2                !
 ! A55   A(1,25,34)            109.5758         estimate D2E/DX2                !
 ! A56   A(1,25,35)            109.9368         estimate D2E/DX2                !
 ! A57   A(1,25,36)            111.6086         estimate D2E/DX2                !
 ! A58   A(34,25,35)           108.4187         estimate D2E/DX2                !
 ! A59   A(34,25,36)           108.3236         estimate D2E/DX2                !
 ! A60   A(35,25,36)           108.9063         estimate D2E/DX2                !
 ! A61   A(8,26,12)            164.7139         estimate D2E/DX2                !
 ! A62   A(29,31,32)           110.998          estimate D2E/DX2                !
 ! A63   A(29,31,33)           113.9203         estimate D2E/DX2                !
 ! A64   A(32,31,33)           111.5396         estimate D2E/DX2                !
 ! A65   A(32,37,38)           122.19           estimate D2E/DX2                !
 ! A66   A(32,37,39)           121.1818         estimate D2E/DX2                !
 ! A67   A(38,37,39)           106.2076         estimate D2E/DX2                !
 ! A68   A(28,40,41)           120.6206         estimate D2E/DX2                !
 ! A69   A(28,40,42)           133.3492         estimate D2E/DX2                !
 ! A70   A(41,40,42)           102.0438         estimate D2E/DX2                !
 ! A71   L(1,27,13,7,-1)       186.5285         estimate D2E/DX2                !
 ! A72   L(13,28,40,5,-1)      176.8156         estimate D2E/DX2                !
 ! A73   L(12,29,31,1,-1)      179.7847         estimate D2E/DX2                !
 ! A74   L(31,32,37,3,-1)      179.6647         estimate D2E/DX2                !
 ! A75   L(13,33,31,7,-1)      182.9877         estimate D2E/DX2                !
 ! A76   L(1,27,13,7,-2)       179.7968         estimate D2E/DX2                !
 ! A77   L(13,28,40,5,-2)      171.2941         estimate D2E/DX2                !
 ! A78   L(12,29,31,1,-2)      184.4147         estimate D2E/DX2                !
 ! A79   L(31,32,37,3,-2)      179.945          estimate D2E/DX2                !
 ! A80   L(13,33,31,7,-2)      179.4379         estimate D2E/DX2                !
 ! D1    D(5,1,2,3)             43.0972         estimate D2E/DX2                !
 ! D2    D(5,1,2,6)            168.6972         estimate D2E/DX2                !
 ! D3    D(5,1,2,20)           -72.2245         estimate D2E/DX2                !
 ! D4    D(25,1,2,3)           165.9177         estimate D2E/DX2                !
 ! D5    D(25,1,2,6)           -68.4822         estimate D2E/DX2                !
 ! D6    D(25,1,2,20)           50.596          estimate D2E/DX2                !
 ! D7    D(27,1,2,3)           -69.8928         estimate D2E/DX2                !
 ! D8    D(27,1,2,6)            55.7073         estimate D2E/DX2                !
 ! D9    D(27,1,2,20)          174.7855         estimate D2E/DX2                !
 ! D10   D(2,1,5,4)            -43.8215         estimate D2E/DX2                !
 ! D11   D(2,1,5,14)          -166.0913         estimate D2E/DX2                !
 ! D12   D(2,1,5,19)            75.0536         estimate D2E/DX2                !
 ! D13   D(25,1,5,4)          -166.6797         estimate D2E/DX2                !
 ! D14   D(25,1,5,14)           71.0506         estimate D2E/DX2                !
 ! D15   D(25,1,5,19)          -47.8045         estimate D2E/DX2                !
 ! D16   D(27,1,5,4)            79.3791         estimate D2E/DX2                !
 ! D17   D(27,1,5,14)          -42.8906         estimate D2E/DX2                !
 ! D18   D(27,1,5,19)         -161.7457         estimate D2E/DX2                !
 ! D19   D(2,1,13,28)         -175.8906         estimate D2E/DX2                !
 ! D20   D(2,1,13,33)          -16.2138         estimate D2E/DX2                !
 ! D21   D(5,1,13,28)           71.2169         estimate D2E/DX2                !
 ! D22   D(5,1,13,33)         -129.1062         estimate D2E/DX2                !
 ! D23   D(25,1,13,28)         -46.8197         estimate D2E/DX2                !
 ! D24   D(25,1,13,33)         112.8572         estimate D2E/DX2                !
 ! D25   D(2,1,25,34)         -177.2111         estimate D2E/DX2                !
 ! D26   D(2,1,25,35)           63.7301         estimate D2E/DX2                !
 ! D27   D(2,1,25,36)          -57.2277         estimate D2E/DX2                !
 ! D28   D(5,1,25,34)          -59.8558         estimate D2E/DX2                !
 ! D29   D(5,1,25,35)         -178.9146         estimate D2E/DX2                !
 ! D30   D(5,1,25,36)           60.1276         estimate D2E/DX2                !
 ! D31   D(27,1,25,34)          52.382          estimate D2E/DX2                !
 ! D32   D(27,1,25,35)         -66.6767         estimate D2E/DX2                !
 ! D33   D(27,1,25,36)         172.3655         estimate D2E/DX2                !
 ! D34   D(1,2,3,4)            -25.4188         estimate D2E/DX2                !
 ! D35   D(1,2,3,17)          -147.3301         estimate D2E/DX2                !
 ! D36   D(1,2,3,18)            94.3012         estimate D2E/DX2                !
 ! D37   D(6,2,3,4)           -149.0521         estimate D2E/DX2                !
 ! D38   D(6,2,3,17)            89.0366         estimate D2E/DX2                !
 ! D39   D(6,2,3,18)           -29.3321         estimate D2E/DX2                !
 ! D40   D(20,2,3,4)            89.4804         estimate D2E/DX2                !
 ! D41   D(20,2,3,17)          -32.4309         estimate D2E/DX2                !
 ! D42   D(20,2,3,18)         -150.7995         estimate D2E/DX2                !
 ! D43   D(1,2,6,7)            -58.9683         estimate D2E/DX2                !
 ! D44   D(1,2,6,11)           120.5023         estimate D2E/DX2                !
 ! D45   D(3,2,6,7)             59.7016         estimate D2E/DX2                !
 ! D46   D(3,2,6,11)          -120.8279         estimate D2E/DX2                !
 ! D47   D(20,2,6,7)          -178.2905         estimate D2E/DX2                !
 ! D48   D(20,2,6,11)            1.1801         estimate D2E/DX2                !
 ! D49   D(2,3,4,5)             -0.6926         estimate D2E/DX2                !
 ! D50   D(2,3,4,15)          -121.5473         estimate D2E/DX2                !
 ! D51   D(2,3,4,16)           118.0933         estimate D2E/DX2                !
 ! D52   D(17,3,4,5)           119.5946         estimate D2E/DX2                !
 ! D53   D(17,3,4,15)           -1.2601         estimate D2E/DX2                !
 ! D54   D(17,3,4,16)         -121.6194         estimate D2E/DX2                !
 ! D55   D(18,3,4,5)          -120.0151         estimate D2E/DX2                !
 ! D56   D(18,3,4,15)          119.1302         estimate D2E/DX2                !
 ! D57   D(18,3,4,16)           -1.2291         estimate D2E/DX2                !
 ! D58   D(3,4,5,1)             26.7395         estimate D2E/DX2                !
 ! D59   D(3,4,5,14)           146.6988         estimate D2E/DX2                !
 ! D60   D(3,4,5,19)           -91.3908         estimate D2E/DX2                !
 ! D61   D(15,4,5,1)           148.3594         estimate D2E/DX2                !
 ! D62   D(15,4,5,14)          -91.6813         estimate D2E/DX2                !
 ! D63   D(15,4,5,19)           30.2292         estimate D2E/DX2                !
 ! D64   D(16,4,5,1)           -92.1481         estimate D2E/DX2                !
 ! D65   D(16,4,5,14)           27.8112         estimate D2E/DX2                !
 ! D66   D(16,4,5,19)          149.7216         estimate D2E/DX2                !
 ! D67   D(2,6,7,8)            178.7136         estimate D2E/DX2                !
 ! D68   D(2,6,7,21)            -1.2473         estimate D2E/DX2                !
 ! D69   D(11,6,7,8)            -0.7842         estimate D2E/DX2                !
 ! D70   D(11,6,7,21)          179.2548         estimate D2E/DX2                !
 ! D71   D(2,6,11,10)         -179.6068         estimate D2E/DX2                !
 ! D72   D(2,6,11,24)            0.344          estimate D2E/DX2                !
 ! D73   D(7,6,11,10)           -0.1169         estimate D2E/DX2                !
 ! D74   D(7,6,11,24)          179.8339         estimate D2E/DX2                !
 ! D75   D(6,7,8,9)              0.9987         estimate D2E/DX2                !
 ! D76   D(6,7,8,26)          -174.3571         estimate D2E/DX2                !
 ! D77   D(21,7,8,9)          -179.0388         estimate D2E/DX2                !
 ! D78   D(21,7,8,26)            5.6054         estimate D2E/DX2                !
 ! D79   D(7,8,9,10)            -0.3047         estimate D2E/DX2                !
 ! D80   D(7,8,9,22)           179.7298         estimate D2E/DX2                !
 ! D81   D(26,8,9,10)          173.8693         estimate D2E/DX2                !
 ! D82   D(26,8,9,22)           -6.0962         estimate D2E/DX2                !
 ! D83   D(7,8,26,12)            4.2303         estimate D2E/DX2                !
 ! D84   D(9,8,26,12)         -170.3162         estimate D2E/DX2                !
 ! D85   D(8,9,10,11)           -0.5458         estimate D2E/DX2                !
 ! D86   D(8,9,10,23)          179.8944         estimate D2E/DX2                !
 ! D87   D(22,9,10,11)         179.4182         estimate D2E/DX2                !
 ! D88   D(22,9,10,23)          -0.1416         estimate D2E/DX2                !
 ! D89   D(9,10,11,6)            0.7391         estimate D2E/DX2                !
 ! D90   D(9,10,11,24)        -179.2117         estimate D2E/DX2                !
 ! D91   D(23,10,11,6)        -179.7061         estimate D2E/DX2                !
 ! D92   D(23,10,11,24)          0.3432         estimate D2E/DX2                !
 ! D93   D(29,12,26,8)          10.6434         estimate D2E/DX2                !
 ! D94   D(30,12,26,8)         145.9133         estimate D2E/DX2                !
 ! D95   D(26,12,31,32)       -111.3377         estimate D2E/DX2                !
 ! D96   D(26,12,31,33)         14.0924         estimate D2E/DX2                !
 ! D97   D(30,12,31,32)        117.1615         estimate D2E/DX2                !
 ! D98   D(30,12,31,33)       -117.4084         estimate D2E/DX2                !
 ! D99   D(27,13,31,29)        -32.2018         estimate D2E/DX2                !
 ! D100  D(27,13,31,32)         95.2327         estimate D2E/DX2                !
 ! D101  D(28,13,31,29)        125.0983         estimate D2E/DX2                !
 ! D102  D(28,13,31,32)       -107.4671         estimate D2E/DX2                !
 ! D103  D(27,13,40,41)       -121.6123         estimate D2E/DX2                !
 ! D104  D(27,13,40,42)         83.0446         estimate D2E/DX2                !
 ! D105  D(33,13,40,41)         80.8178         estimate D2E/DX2                !
 ! D106  D(33,13,40,42)        -74.5253         estimate D2E/DX2                !
 ! D107  D(29,31,37,38)          2.8549         estimate D2E/DX2                !
 ! D108  D(29,31,37,39)       -137.3295         estimate D2E/DX2                !
 ! D109  D(33,31,37,38)       -125.2273         estimate D2E/DX2                !
 ! D110  D(33,31,37,39)         94.5883         estimate D2E/DX2                !
 --------------------------------------------------------------------------------
 Trust Radius=1.00D-02 FncErr=1.00D-07 GrdErr=1.00D-06 EigMax=2.50D+02 EigMin=1.00D-04
 Number of steps in this run=    244 maximum allowed number of steps=    252.
 GradGradGradGradGradGradGradGradGradGradGradGradGradGradGradGradGradGrad

                          Input orientation:                          
 ---------------------------------------------------------------------
 Center     Atomic      Atomic             Coordinates (Angstroms)
 Number     Number       Type             X           Y           Z
 ---------------------------------------------------------------------
      1          7           0        1.545232   -1.335387    0.655254
      2          6           0        1.907826   -0.504767   -0.512021
      3          6           0        1.355879   -1.305687   -1.706694
      4          6           0        1.317944   -2.771662   -1.211585
      5          6           0        1.865405   -2.704050    0.217574
      6          6           0        1.411057    0.914559   -0.391488
      7          6           0        0.051527    1.184800   -0.248058
      8          7           0       -0.455814    2.411026   -0.111518
      9          6           0        0.384416    3.452844   -0.131659
     10          6           0        1.757069    3.296623   -0.282839
     11          6           0        2.274459    2.009066   -0.406305
     12          8           0       -3.032447    2.001781    0.366497
     13          8           0       -1.039342   -1.603399    1.358886
     14          1           0        1.414424   -3.436415    0.898322
     15          1           0        1.917472   -3.440673   -1.836787
     16          1           0        0.290240   -3.151764   -1.210368
     17          1           0        1.991810   -1.168432   -2.587276
     18          1           0        0.353139   -0.953378   -1.975423
     19          1           0        2.959304   -2.857290    0.230398
     20          1           0        3.011444   -0.471927   -0.583830
     21          1           0       -0.671236    0.368277   -0.241990
     22          1           0       -0.061447    4.441286   -0.022277
     23          1           0        2.407564    4.168923   -0.295995
     24          1           0        3.349164    1.857102   -0.513220
     25          6           0        2.244793   -0.946053    1.876659
     26          1           0       -2.092868    2.320114    0.185509
     27          1           0       -0.082439   -1.437217    1.067972
     28          1           0       -1.017412   -2.121708    2.166424
     29          1           0       -3.128750    0.608263    0.684199
     30          1           0       -3.463410    2.642316    0.938048
     31          8           0       -3.201417   -0.424150    0.840988
     32          1           0       -3.673123   -0.867217    0.085237
     33          1           0       -2.305538   -0.877614    1.042710
     34          1           0        1.971148   -1.628653    2.690365
     35          1           0        1.954867    0.071103    2.165497
     36          1           0        3.340458   -0.982439    1.746805
     37          8           0       -4.437623   -1.596103   -1.156879
     38          1           0       -4.730232   -1.110923   -1.934101
     39          1           0       -5.096139   -2.280282   -1.003821
     40          8           0       -0.743176   -3.021986    3.955419
     41          1           0       -1.165979   -4.043921    4.152492
     42          1           0       -0.593875   -2.681622    4.868337
 ---------------------------------------------------------------------
                    Distance matrix (angstroms):
                    1          2          3          4          5
     1  N    0.000000
     2  C    1.477814   0.000000
     3  C    2.369712   1.540572   0.000000
     4  C    2.366354   2.444619   1.547790   0.000000
     5  C    1.472180   2.317532   2.432662   1.531920   0.000000
     6  C    2.485142   1.508573   2.581144   3.777493   3.697529
     7  C    3.065692   2.523917   3.167251   4.264480   4.316262
     8  N    4.315986   3.774791   4.431791   5.587184   5.626754
     9  C    4.989377   4.257715   5.105692   6.386093   6.342132
    10  C    4.730794   3.811275   4.834209   6.154631   6.022477
    11  C    3.583859   2.542627   3.677280   4.941534   4.771793
    12  O    5.672320   5.608999   5.873233   6.648459   6.793819
    13  O    2.692016   3.659656   3.901730   3.678173   3.309317
    14  H    2.119083   3.290452   3.365938   2.214252   1.096887
    15  H    3.283452   3.220969   2.211442   1.094480   2.183054
    16  H    2.890463   3.179759   2.188590   1.095744   2.172697
    17  H    3.277393   2.180410   1.094839   2.217424   3.200201
    18  H    2.913328   2.181708   1.096278   2.195553   3.187638
    19  H    2.120446   2.681633   2.954787   2.186483   1.104655
    20  H    2.104916   1.106439   2.167227   2.924175   2.634013
    21  H    2.936026   2.736180   3.009437   3.841376   4.010603
    22  H    6.034104   5.346151   6.154167   7.439341   7.404466
    23  H    5.652072   4.705293   5.750432   7.085005   6.913425
    24  H    3.848570   2.766926   3.924385   5.102845   4.851774
    25  C    1.460410   2.452361   3.709437   3.705287   2.446845
    26  H    5.178718   4.946924   5.349834   6.285833   6.396185
    27  H    1.682266   2.706842   3.128071   2.989682   2.474296
    28  H    3.077187   4.283174   4.615132   4.157797   3.528140
    29  H    5.062087   5.294986   5.430605   5.898388   6.010885
    30  H    6.402233   6.391949   6.768082   7.536141   7.582808
    31  O    4.836892   5.285972   5.294973   5.490764   5.590999
    32  H    5.270231   5.624507   5.356691   5.497218   5.836674
    33  H    3.897192   4.506511   4.598744   4.668928   4.627471
    34  H    2.099782   3.394467   4.451628   4.118053   2.698584
    35  H    2.104008   2.739150   4.153095   4.460007   3.391737
    36  H    2.130468   2.717149   3.996211   4.005490   2.734643
    37  O    6.256705   6.470825   5.826775   5.874647   6.545596
    38  H    6.792392   6.815684   6.093471   6.313519   7.118299
    39  H    6.910367   7.242227   6.562957   6.436232   7.080571
    40  O    4.355745   5.772540   6.277837   5.568555   4.569164
    41  H    5.188207   6.612985   6.941740   6.046639   5.144718
    42  H    4.913064   6.320242   6.994696   6.374058   5.261003
                    6          7          8          9         10
     6  C    0.000000
     7  C    1.393529   0.000000
     8  N    2.408943   1.334042   0.000000
     9  C    2.750344   2.295297   1.338573   0.000000
    10  C    2.409514   2.714752   2.389662   1.389761   0.000000
    11  C    1.394141   2.376107   2.775403   2.394199   1.393104
    12  O    4.636952   3.249005   2.652361   3.745490   5.003770
    13  O    3.925351   3.397987   4.314881   5.460257   5.875831
    14  H    4.538127   4.952505   6.221747   7.041567   6.844439
    15  H    4.616643   5.234578   6.546100   7.264867   6.916042
    16  H    4.296717   4.448462   5.719152   6.692782   6.677843
    17  H    3.081819   3.843740   4.993272   5.474483   5.030134
    18  H    2.667814   2.765242   3.930364   4.776530   4.785224
    19  H    4.124398   5.002257   6.287694   6.824875   6.291218
    20  H    2.126165   3.408606   4.533914   4.744424   3.983217
    21  H    2.157943   1.090474   2.058216   3.262074   3.804411
    22  H    3.839582   3.266258   2.070132   1.089851   2.164520
    23  H    3.404854   3.802394   3.364991   2.152418   1.088221
    24  H    2.158579   3.375901   3.866013   3.388468   2.158718
    25  C    3.049833   3.723624   4.745114   5.181181   4.785562
    26  H    3.819162   2.464822   1.666264   2.742373   3.999367
    27  H    3.145060   2.936810   4.042225   5.056655   5.255257
    28  H    4.653955   4.231471   5.103929   6.190471   6.561627
    29  H    4.675550   3.363876   3.320799   4.593430   5.659829
    30  H    5.339779   3.985722   3.193856   4.075168   5.401119
    31  O    4.958433   3.788982   4.060028   5.369853   6.300295
    32  H    5.408408   4.265545   4.597463   5.930733   6.852739
    33  H    4.368282   3.387534   3.945741   5.231430   5.973785
    34  H    4.034780   4.498310   5.482673   6.025210   5.757093
    35  H    2.746875   3.269292   4.058500   4.379431   4.054313
    36  H    3.448693   4.415141   5.420392   5.651420   4.993691
    37  O    6.410640   5.358343   5.744969   7.056557   7.942098
    38  H    6.648132   5.565816   5.830659   7.087763   8.014874
    39  H    7.274996   6.251115   6.658618   7.979090   8.864995
    40  O    6.247616   5.999818   6.792656   7.739450   8.008675
    41  H    7.202457   6.941663   7.768684   8.772637   9.060903
    42  H    6.679673   6.445406   7.124120   7.974251   8.234134
                   11         12         13         14         15
    11  C    0.000000
    12  O    5.362884   0.000000
    13  O    5.210286   4.237290   0.000000
    14  H    5.665243   7.044961   3.097262   0.000000
    15  H    5.645651   7.679614   4.725532   2.780988   0.000000
    16  H    5.587290   6.331333   3.281202   2.406531   1.767414
    17  H    3.864326   6.634620   4.994925   4.198394   2.394126
    18  H    3.863894   5.067519   3.671396   3.943375   2.941597
    19  H    4.955383   7.715580   4.339919   1.779933   2.387259
    20  H    2.594222   6.599316   4.632844   3.679054   3.402959
    21  H    3.375842   2.934946   2.566284   4.486198   4.873693
    22  H    3.394058   3.863829   6.277110   8.067458   8.326695
    23  H    2.166764   5.893142   6.923835   7.762338   7.779472
    24  H    1.090649   6.443585   5.893966   5.810077   5.645174
    25  C    3.734372   6.230536   3.389061   2.801528   4.485527
    26  H    4.418205   1.008415   4.228556   6.778409   7.304736
    27  H    4.427790   4.584901   1.013859   2.503232   4.055996
    28  H    5.875257   4.929834   0.959814   3.041441   5.136040
    29  H    5.687365   1.432516   3.116453   6.086518   6.943602
    30  H    5.927177   0.960565   4.907067   7.793960   8.582328
    31  O    6.120580   2.477667   2.516628   5.512079   6.517125
    32  H    6.624828   2.953087   3.016778   5.757171   6.447605
    33  H    5.604368   3.045747   1.493313   4.517347   5.717918
    34  H    4.786895   6.604270   3.291888   2.605641   4.876618
    35  H    3.236048   5.642448   3.524183   3.768354   5.324683
    36  H    3.836840   7.171104   4.440577   3.232882   4.572738
    37  O    7.655890   4.152103   4.228172   6.469703   6.652214
    38  H    7.818835   4.226600   4.970811   7.154532   7.044798
    39  H    8.548757   4.946985   4.743222   6.880568   7.157589
    40  O    7.310420   6.584782   2.973565   3.764682   6.387801
    41  H    8.322133   7.373464   3.711660   4.197281   6.763360
    42  H    7.619169   6.938837   3.698277   4.512648   7.200119
                   16         17         18         19         20
    16  H    0.000000
    17  H    2.953781   0.000000
    18  H    2.328555   1.762344   0.000000
    19  H    3.047363   3.424554   3.909300   0.000000
    20  H    3.870275   2.353416   3.038900   2.521040   0.000000
    21  H    3.775299   3.866996   2.408507   4.879370   3.792747
    22  H    7.693481   6.501078   5.752309   7.903037   5.822170
    23  H    7.675389   5.823245   5.768805   7.067473   4.688817
    24  H    5.910310   3.911262   4.360390   4.788575   2.354446
    25  C    4.267924   4.476625   4.291497   2.621741   2.620411
    26  H    6.129366   6.045071   4.622589   7.234084   5.868678
    27  H    2.875655   4.211365   3.112247   3.459818   3.637629
    28  H    3.764797   5.706296   4.516448   4.483698   5.149500
    29  H    5.423715   6.330824   4.651437   7.020000   6.362129
    30  H    7.230280   7.530547   5.998614   8.485145   7.344274
    31  O    4.882582   6.267101   4.565865   6.651877   6.374326
    32  H    4.754576   6.270927   4.523774   6.926078   6.729587
    33  H    4.121430   5.632812   4.022863   5.683092   5.574990
    34  H    4.512321   5.297709   4.984328   2.921890   3.624994
    35  H    4.955232   4.911890   4.556568   3.650889   2.995002
    36  H    4.770186   4.542874   4.772829   2.441277   2.408471
    37  O    4.977513   6.600496   4.902500   7.630836   7.555181
    38  H    5.467537   6.753947   5.085980   8.177030   7.884484
    39  H    5.460332   7.347283   5.692040   8.169847   8.317418
    40  O    5.269739   7.329575   6.376200   5.254642   6.419093
    41  H    5.628213   7.979006   7.029262   5.814540   7.255532
    42  H    6.160629   8.035028   7.121848   5.845205   6.899797
                   21         22         23         24         25
    21  H    0.000000
    22  H    4.124260   0.000000
    23  H    4.891507   2.499024   0.000000
    24  H    4.295787   4.307122   2.505656   0.000000
    25  C    3.836582   6.160205   5.559667   3.845625   0.000000
    26  H    2.452236   2.944353   4.889154   5.506207   5.687103
    27  H    2.307052   5.978786   6.284053   5.012844   2.512215
    28  H    3.481425   6.984066   7.574035   6.486787   3.479671
    29  H    2.637194   4.959790   6.655062   6.704982   5.719513
    30  H    3.789456   3.966342   6.190454   7.009558   6.807420
    31  O    2.864018   5.854665   7.338237   7.067397   5.568321
    32  H    3.262644   6.421524   7.904606   7.555963   6.183618
    33  H    2.423560   5.870336   7.033704   6.471108   4.626626
    34  H    4.423644   6.952268   6.536107   4.930758   1.096787
    35  H    3.575014   5.286812   4.801667   3.508473   1.096399
    36  H    4.676904   6.642244   5.619595   3.629157   1.103933
    37  O    4.345283   7.542434   8.990730   8.542422   7.367469
    38  H    4.639690   7.501976   9.028195   8.723802   7.949846
    39  H    5.212966   8.455237   9.919618   9.417100   7.997913
    40  O    5.396045   8.484530   8.928094   7.779555   4.190310
    41  H    6.246898   9.520894  10.000503   8.773680   5.139024
    42  H    5.951749   8.656639   9.088945   8.068998   4.474413
                   26         27         28         29         30
    26  H    0.000000
    27  H    4.351793   0.000000
    28  H    4.981005   1.596653   0.000000
    29  H    2.062081   3.689347   3.755993   0.000000
    30  H    1.596407   5.300041   5.494337   2.076971   0.000000
    31  O    3.031422   3.287225   3.067305   1.046776   3.079168
    32  H    3.558980   3.766123   3.599707   1.682896   3.617746
    33  H    3.317452   2.292589   2.114183   1.736099   3.706957
    34  H    6.195425   2.624124   3.073940   5.919244   7.130653
    35  H    5.036126   2.762283   3.693625   5.322213   6.121723
    36  H    6.547177   3.519071   4.523831   6.746119   7.751487
    37  O    4.757798   4.893142   4.797754   3.156255   4.827215
    38  H    4.818760   5.542643   5.623257   3.517931   4.892942
    39  H    5.621191   5.490016   5.168328   3.881201   5.537927
    40  O    6.676221   3.359377   2.021437   5.437881   6.970546
    41  H    7.556257   4.181295   2.767931   6.125712   7.766377
    42  H    7.013788   4.031487   2.791634   5.895417   7.212886
                   31         32         33         34         35
    31  O    0.000000
    32  H    0.994975   0.000000
    33  H    1.024168   1.669476   0.000000
    34  H    5.623740   6.262928   4.644230   0.000000
    35  H    5.346669   6.073072   4.506858   1.779023   0.000000
    36  H    6.627844   7.208634   5.690695   1.784071   1.790284
    37  O    2.625481   1.630517   3.146459   7.474938   7.394707
    38  H    3.241921   2.292291   3.846424   8.158568   7.930601
    39  H    3.230869   2.282055   3.734062   8.001136   8.080240
    40  O    4.742508   5.310925   3.939947   3.302922   4.477774
    41  H    5.311479   5.737576   4.582013   4.220533   5.533647
    42  H    5.302358   5.970919   4.562856   3.525854   4.623735
                   36         37         38         39         40
    36  H    0.000000
    37  O    8.325053   0.000000
    38  H    8.871393   0.961818   0.000000
    39  H    8.968083   0.961858   1.538411   0.000000
    40  O    5.070877   6.466658   7.364457   6.640216   0.000000
    41  H    5.955500   6.699618   7.638913   6.718939   1.123366
    42  H    5.301902   7.228830   8.114783   7.410377   0.985676
                   41         42
    41  H    0.000000
    42  H    1.641827   0.000000
 Stoichiometry    C10H25N2O5(1+)
 Framework group  C1[X(C10H25N2O5)]
 Deg. of freedom   120
 Full point group                 C1      NOp   1
 Largest Abelian subgroup         C1      NOp   1
 Largest concise Abelian subgroup C1      NOp   1
                         Standard orientation:                         
 ---------------------------------------------------------------------
 Center     Atomic      Atomic             Coordinates (Angstroms)
 Number     Number       Type             X           Y           Z
 ---------------------------------------------------------------------
      1          7           0       -0.462453   -1.926176   -0.092754
      2          6           0       -1.510835   -1.316670    0.751835
      3          6           0       -0.881535   -1.314665    2.158014
      4          6           0        0.148675   -2.469399    2.127846
      5          6           0        0.020622   -3.055772    0.718396
      6          6           0       -1.963234    0.027062    0.236556
      7          6           0       -1.057697    1.075757    0.087668
      8          7           0       -1.381509    2.280723   -0.384424
      9          6           0       -2.656739    2.510645   -0.720137
     10          6           0       -3.643051    1.539109   -0.598720
     11          6           0       -3.286769    0.279832   -0.121201
     12          8           0        0.939804    3.547842   -0.586730
     13          8           0        1.831557   -0.594403   -0.551940
     14          1           0        0.964561   -3.439475    0.312303
     15          1           0       -0.047733   -3.226208    2.893713
     16          1           0        1.162017   -2.086476    2.292655
     17          1           0       -1.652477   -1.449766    2.923565
     18          1           0       -0.392689   -0.354240    2.359108
     19          1           0       -0.717222   -3.877589    0.696785
     20          1           0       -2.388213   -1.990768    0.754561
     21          1           0       -0.011538    0.938950    0.363290
     22          1           0       -2.889797    3.505910   -1.098168
     23          1           0       -4.669529    1.765116   -0.880658
     24          1           0       -4.038408   -0.504958   -0.028154
     25          6           0       -0.949030   -2.332349   -1.408453
     26          1           0       -0.010527    3.211827   -0.557302
     27          1           0        0.934700   -1.032074   -0.373045
     28          1           0        2.314914   -1.150637   -1.166929
     29          1           0        1.929685    2.519337   -0.466666
     30          1           0        1.012611    4.185433   -1.301476
     31          8           0        2.645914    1.773752   -0.302782
     32          1           0        3.098907    1.901045    0.573898
     33          1           0        2.284224    0.820970   -0.404305
     34          1           0       -0.139625   -2.820148   -1.965101
     35          1           0       -1.276843   -1.452092   -1.973940
     36          1           0       -1.791866   -3.040886   -1.329271
     37          8           0        3.835628    2.102799    2.014427
     38          1           0        3.585565    2.803358    2.624165
     39          1           0        4.786700    1.993041    2.107086
     40          8           0        3.063757   -2.345695   -2.615128
     41          1           0        4.049743   -2.865465   -2.475049
     42          1           0        2.954859   -2.371683   -3.594426
 ---------------------------------------------------------------------
 Rotational constants (GHZ):           0.3314729           0.3063839           0.2169753
 Standard basis: Aug-CC-pVDZ (5D, 7F)
 There are   650 symmetry adapted cartesian basis functions of A   symmetry.
 There are   616 symmetry adapted basis functions of A   symmetry.
   616 basis functions,  1006 primitive gaussians,   650 cartesian basis functions
    69 alpha electrons       69 beta electrons
       nuclear repulsion energy      1364.5560855428 Hartrees.
 NAtoms=   42 NActive=   42 NUniq=   42 SFac= 1.00D+00 NAtFMM=   60 NAOKFM=F Big=F
 Integral buffers will be    131072 words long.
 Raffenetti 2 integral format.
 Two-electron integral symmetry is turned on.
 Nuclear repulsion after empirical dispersion term =     1364.5248954924 Hartrees.
 One-electron integrals computed using PRISM.
 NBasis=   616 RedAO= T EigKep=  1.82D-06  NBF=   616
 NBsUse=   616 1.00D-06 EigRej= -1.00D+00 NBFU=   616
 ExpMin= 2.97D-02 ExpMax= 1.17D+04 ExpMxC= 4.01D+02 IAcc=3 IRadAn=         5 AccDes= 0.00D+00
 Harris functional with IExCor= 4639 and IRadAn=       5 diagonalized for initial guess.
 HarFok:  IExCor= 4639 AccDes= 0.00D+00 IRadAn=         5 IDoV= 1 UseB2=F ITyADJ=14
 ICtDFT=  3500011 ScaDFX=  1.000000  1.000000  1.000000  1.000000
 FoFCou: FMM=F IPFlag=           0 FMFlag=      100000 FMFlg1=           0
         NFxFlg=           0 DoJE=T BraDBF=F KetDBF=T FulRan=T
         wScrn=  0.000000 ICntrl=       500 IOpCl=  0 I1Cent=   200000004 NGrid=           0
         NMat0=    1 NMatS0=      1 NMatT0=    0 NMatD0=    1 NMtDS0=    0 NMtDT0=    0
 Petite list used in FoFCou.
 Requested convergence on RMS density matrix=1.00D-08 within 128 cycles.
 Requested convergence on MAX density matrix=1.00D-06.
 Requested convergence on             energy=1.00D-06.
 No special actions if energy rises.
 SCF Done:  E(RwB97XD) =  -881.437380461     A.U. after   16 cycles
            NFock= 16  Conv=0.15D-08     -V/T= 2.0065

 **********************************************************************

            Population analysis using the SCF density.

 **********************************************************************

 Orbital symmetries:
       Occupied  (A) (A) (A) (A) (A) (A) (A) (A) (A) (A) (A) (A)
                 (A) (A) (A) (A) (A) (A) (A) (A) (A) (A) (A) (A)
                 (A) (A) (A) (A) (A) (A) (A) (A) (A) (A) (A) (A)
                 (A) (A) (A) (A) (A) (A) (A) (A) (A) (A) (A) (A)
                 (A) (A) (A) (A) (A) (A) (A) (A) (A) (A) (A) (A)
                 (A) (A) (A) (A) (A) (A) (A) (A) (A)
       Virtual   (A) (A) (A) (A) (A) (A) (A) (A) (A) (A) (A) (A)
                 (A) (A) (A) (A) (A) (A) (A) (A) (A) (A) (A) (A)
                 (A) (A) (A) (A) (A) (A) (A) (A) (A) (A) (A) (A)
                 (A) (A) (A) (A) (A) (A) (A) (A) (A) (A) (A) (A)
                 (A) (A) (A) (A) (A) (A) (A) (A) (A) (A) (A) (A)
                 (A) (A) (A) (A) (A) (A) (A) (A) (A) (A) (A) (A)
                 (A) (A) (A) (A) (A) (A) (A) (A) (A) (A) (A) (A)
                 (A) (A) (A) (A) (A) (A) (A) (A) (A) (A) (A) (A)
                 (A) (A) (A) (A) (A) (A) (A) (A) (A) (A) (A) (A)
                 (A) (A) (A) (A) (A) (A) (A) (A) (A) (A) (A) (A)
                 (A) (A) (A) (A) (A) (A) (A) (A) (A) (A) (A) (A)
                 (A) (A) (A) (A) (A) (A) (A) (A) (A) (A) (A) (A)
                 (A) (A) (A) (A) (A) (A) (A) (A) (A) (A) (A) (A)
                 (A) (A) (A) (A) (A) (A) (A) (A) (A) (A) (A) (A)
                 (A) (A) (A) (A) (A) (A) (A) (A) (A) (A) (A) (A)
                 (A) (A) (A) (A) (A) (A) (A) (A) (A) (A) (A) (A)
                 (A) (A) (A) (A) (A) (A) (A) (A) (A) (A) (A) (A)
                 (A) (A) (A) (A) (A) (A) (A) (A) (A) (A) (A) (A)
                 (A) (A) (A) (A) (A) (A) (A) (A) (A) (A) (A) (A)
                 (A) (A) (A) (A) (A) (A) (A) (A) (A) (A) (A) (A)
                 (A) (A) (A) (A) (A) (A) (A) (A) (A) (A) (A) (A)
                 (A) (A) (A) (A) (A) (A) (A) (A) (A) (A) (A) (A)
                 (A) (A) (A) (A) (A) (A) (A) (A) (A) (A) (A) (A)
                 (A) (A) (A) (A) (A) (A) (A) (A) (A) (A) (A) (A)
                 (A) (A) (A) (A) (A) (A) (A) (A) (A) (A) (A) (A)
                 (A) (A) (A) (A) (A) (A) (A) (A) (A) (A) (A) (A)
                 (A) (A) (A) (A) (A) (A) (A) (A) (A) (A) (A) (A)
                 (A) (A) (A) (A) (A) (A) (A) (A) (A) (A) (A) (A)
                 (A) (A) (A) (A) (A) (A) (A) (A) (A) (A) (A) (A)
                 (A) (A) (A) (A) (A) (A) (A) (A) (A) (A) (A) (A)
                 (A) (A) (A) (A) (A) (A) (A) (A) (A) (A) (A) (A)
                 (A) (A) (A) (A) (A) (A) (A) (A) (A) (A) (A) (A)
                 (A) (A) (A) (A) (A) (A) (A) (A) (A) (A) (A) (A)
                 (A) (A) (A) (A) (A) (A) (A) (A) (A) (A) (A) (A)
                 (A) (A) (A) (A) (A) (A) (A) (A) (A) (A) (A) (A)
                 (A) (A) (A) (A) (A) (A) (A) (A) (A) (A) (A) (A)
                 (A) (A) (A) (A) (A) (A) (A) (A) (A) (A) (A) (A)
                 (A) (A) (A) (A) (A) (A) (A) (A) (A) (A) (A) (A)
                 (A) (A) (A) (A) (A) (A) (A) (A) (A) (A) (A) (A)
                 (A) (A) (A) (A) (A) (A) (A) (A) (A) (A) (A) (A)
                 (A) (A) (A) (A) (A) (A) (A) (A) (A) (A) (A) (A)
                 (A) (A) (A) (A) (A) (A) (A) (A) (A) (A) (A) (A)
                 (A) (A) (A) (A) (A) (A) (A) (A) (A) (A) (A) (A)
                 (A) (A) (A) (A) (A) (A) (A) (A) (A) (A) (A) (A)
                 (A) (A) (A) (A) (A) (A) (A) (A) (A) (A) (A) (A)
                 (A) (A) (A) (A) (A) (A) (A)
 The electronic state is 1-A.
 Alpha  occ. eigenvalues --  -19.44070 -19.42799 -19.40540 -19.39629 -19.37346
 Alpha  occ. eigenvalues --  -14.57968 -14.57000 -10.45305 -10.45108 -10.44294
 Alpha  occ. eigenvalues --  -10.43195 -10.42922 -10.42232 -10.42154 -10.41973
 Alpha  occ. eigenvalues --  -10.39950 -10.39364  -1.30272  -1.26966  -1.23856
 Alpha  occ. eigenvalues --   -1.21655  -1.20219  -1.17482  -1.15864  -1.03304
 Alpha  occ. eigenvalues --   -0.99771  -0.98688  -0.92884  -0.88091  -0.84972
 Alpha  occ. eigenvalues --   -0.83916  -0.79925  -0.79739  -0.78437  -0.78316
 Alpha  occ. eigenvalues --   -0.77492  -0.75809  -0.73636  -0.71751  -0.70152
 Alpha  occ. eigenvalues --   -0.69916  -0.69025  -0.67793  -0.65821  -0.64609
 Alpha  occ. eigenvalues --   -0.64162  -0.63277  -0.62267  -0.61364  -0.60717
 Alpha  occ. eigenvalues --   -0.60551  -0.60103  -0.58803  -0.58444  -0.57806
 Alpha  occ. eigenvalues --   -0.57370  -0.55878  -0.55504  -0.54365  -0.53810
 Alpha  occ. eigenvalues --   -0.53608  -0.52608  -0.51744  -0.51405  -0.50892
 Alpha  occ. eigenvalues --   -0.48258  -0.47715  -0.44977  -0.43561
 Alpha virt. eigenvalues --   -0.08204  -0.06915  -0.06811  -0.05992  -0.04665
 Alpha virt. eigenvalues --   -0.03956  -0.03025  -0.02850  -0.02683  -0.02081
 Alpha virt. eigenvalues --   -0.01944  -0.01298  -0.00847  -0.00393  -0.00215
 Alpha virt. eigenvalues --   -0.00165   0.00333   0.00976   0.01075   0.01591
 Alpha virt. eigenvalues --    0.02042   0.02258   0.02675   0.02836   0.03325
 Alpha virt. eigenvalues --    0.03601   0.03748   0.03921   0.04841   0.04929
 Alpha virt. eigenvalues --    0.05236   0.05499   0.06145   0.06325   0.06507
 Alpha virt. eigenvalues --    0.06760   0.06999   0.07397   0.07465   0.07583
 Alpha virt. eigenvalues --    0.07795   0.07993   0.08203   0.08712   0.08925
 Alpha virt. eigenvalues --    0.09440   0.09557   0.09675   0.10154   0.10331
 Alpha virt. eigenvalues --    0.10458   0.10647   0.11332   0.11447   0.11543
 Alpha virt. eigenvalues --    0.11676   0.12302   0.12475   0.12660   0.12893
 Alpha virt. eigenvalues --    0.13150   0.13288   0.13851   0.14214   0.14439
 Alpha virt. eigenvalues --    0.14712   0.14984   0.15614   0.15836   0.15895
 Alpha virt. eigenvalues --    0.16416   0.16630   0.16943   0.17043   0.17253
 Alpha virt. eigenvalues --    0.17981   0.18025   0.18139   0.18343   0.18670
 Alpha virt. eigenvalues --    0.19038   0.19263   0.19489   0.19979   0.20119
 Alpha virt. eigenvalues --    0.20202   0.20259   0.20614   0.20914   0.21405
 Alpha virt. eigenvalues --    0.21570   0.21882   0.22060   0.22770   0.23117
 Alpha virt. eigenvalues --    0.23239   0.23721   0.23785   0.24404   0.24672
 Alpha virt. eigenvalues --    0.24748   0.25409   0.25816   0.26165   0.26403
 Alpha virt. eigenvalues --    0.26590   0.27097   0.27253   0.27399   0.27891
 Alpha virt. eigenvalues --    0.28335   0.28458   0.28606   0.29097   0.29531
 Alpha virt. eigenvalues --    0.29660   0.30120   0.30333   0.30674   0.30851
 Alpha virt. eigenvalues --    0.31366   0.31615   0.32101   0.32296   0.32546
 Alpha virt. eigenvalues --    0.32815   0.33562   0.34190   0.34433   0.34634
 Alpha virt. eigenvalues --    0.34995   0.35441   0.35707   0.36168   0.36462
 Alpha virt. eigenvalues --    0.36576   0.36849   0.37361   0.38174   0.38768
 Alpha virt. eigenvalues --    0.39036   0.39349   0.39638   0.39817   0.40778
 Alpha virt. eigenvalues --    0.40970   0.41376   0.41607   0.41960   0.42043
 Alpha virt. eigenvalues --    0.42507   0.42689   0.42910   0.43397   0.43615
 Alpha virt. eigenvalues --    0.43803   0.44239   0.44753   0.45087   0.45363
 Alpha virt. eigenvalues --    0.45843   0.46221   0.46753   0.47167   0.47667
 Alpha virt. eigenvalues --    0.47939   0.48327   0.48819   0.48858   0.49175
 Alpha virt. eigenvalues --    0.49461   0.50022   0.50453   0.50997   0.51079
 Alpha virt. eigenvalues --    0.51225   0.51713   0.52029   0.52250   0.52639
 Alpha virt. eigenvalues --    0.53212   0.53458   0.53718   0.54046   0.54449
 Alpha virt. eigenvalues --    0.54805   0.55186   0.55242   0.55905   0.56324
 Alpha virt. eigenvalues --    0.56691   0.57328   0.57723   0.58077   0.58164
 Alpha virt. eigenvalues --    0.58747   0.59253   0.59598   0.60061   0.60286
 Alpha virt. eigenvalues --    0.60982   0.61504   0.61951   0.62131   0.62656
 Alpha virt. eigenvalues --    0.63108   0.63743   0.64139   0.64387   0.65430
 Alpha virt. eigenvalues --    0.65767   0.65902   0.66542   0.66699   0.67283
 Alpha virt. eigenvalues --    0.67338   0.67658   0.68663   0.68765   0.69139
 Alpha virt. eigenvalues --    0.70009   0.70234   0.70763   0.71102   0.71558
 Alpha virt. eigenvalues --    0.71985   0.72038   0.72508   0.73097   0.73507
 Alpha virt. eigenvalues --    0.73929   0.74093   0.74662   0.75213   0.75660
 Alpha virt. eigenvalues --    0.75951   0.76539   0.76982   0.77322   0.77976
 Alpha virt. eigenvalues --    0.78301   0.78745   0.79330   0.79610   0.79730
 Alpha virt. eigenvalues --    0.80282   0.80788   0.81621   0.81782   0.82146
 Alpha virt. eigenvalues --    0.83443   0.84360   0.84488   0.85237   0.85550
 Alpha virt. eigenvalues --    0.86434   0.86529   0.87429   0.87910   0.88889
 Alpha virt. eigenvalues --    0.89309   0.90018   0.90198   0.90525   0.91520
 Alpha virt. eigenvalues --    0.92689   0.93181   0.93494   0.93912   0.94111
 Alpha virt. eigenvalues --    0.94363   0.95748   0.95999   0.97119   0.97202
 Alpha virt. eigenvalues --    0.97703   0.98279   0.99691   0.99925   1.00894
 Alpha virt. eigenvalues --    1.02106   1.02326   1.03048   1.03871   1.04283
 Alpha virt. eigenvalues --    1.04498   1.04996   1.05897   1.06751   1.07113
 Alpha virt. eigenvalues --    1.07771   1.09098   1.09589   1.10196   1.10801
 Alpha virt. eigenvalues --    1.11663   1.12238   1.12988   1.13974   1.14278
 Alpha virt. eigenvalues --    1.15120   1.15441   1.16606   1.16760   1.17853
 Alpha virt. eigenvalues --    1.18354   1.19286   1.20508   1.21113   1.21877
 Alpha virt. eigenvalues --    1.22254   1.23855   1.23947   1.25247   1.25546
 Alpha virt. eigenvalues --    1.26260   1.27325   1.27873   1.29523   1.30943
 Alpha virt. eigenvalues --    1.31926   1.32372   1.33175   1.33300   1.34049
 Alpha virt. eigenvalues --    1.34743   1.35961   1.36608   1.37250   1.38243
 Alpha virt. eigenvalues --    1.39231   1.40052   1.40587   1.41495   1.42620
 Alpha virt. eigenvalues --    1.42898   1.43789   1.44020   1.44791   1.46212
 Alpha virt. eigenvalues --    1.47563   1.48507   1.49034   1.49960   1.50862
 Alpha virt. eigenvalues --    1.52161   1.52744   1.53101   1.54926   1.55524
 Alpha virt. eigenvalues --    1.56511   1.57262   1.58547   1.59531   1.61134
 Alpha virt. eigenvalues --    1.61454   1.62099   1.62291   1.63407   1.65125
 Alpha virt. eigenvalues --    1.65645   1.65912   1.66213   1.67429   1.68166
 Alpha virt. eigenvalues --    1.68377   1.68967   1.69952   1.70706   1.71259
 Alpha virt. eigenvalues --    1.71963   1.72189   1.72422   1.73416   1.73751
 Alpha virt. eigenvalues --    1.74409   1.74831   1.75435   1.75755   1.76474
 Alpha virt. eigenvalues --    1.77330   1.78579   1.79419   1.80471   1.80927
 Alpha virt. eigenvalues --    1.82064   1.82618   1.83284   1.83592   1.84320
 Alpha virt. eigenvalues --    1.84848   1.85688   1.86105   1.86250   1.87402
 Alpha virt. eigenvalues --    1.88213   1.88680   1.89009   1.89411   1.90030
 Alpha virt. eigenvalues --    1.91164   1.91628   1.92112   1.92877   1.94616
 Alpha virt. eigenvalues --    1.95200   1.96157   1.96937   1.97303   1.98942
 Alpha virt. eigenvalues --    2.00159   2.00538   2.01058   2.02387   2.02904
 Alpha virt. eigenvalues --    2.03735   2.05152   2.06012   2.07005   2.07381
 Alpha virt. eigenvalues --    2.07637   2.09018   2.10498   2.11372   2.12745
 Alpha virt. eigenvalues --    2.12896   2.13110   2.13539   2.15115   2.16182
 Alpha virt. eigenvalues --    2.16821   2.17401   2.18941   2.19751   2.19933
 Alpha virt. eigenvalues --    2.20083   2.21258   2.21911   2.22651   2.23808
 Alpha virt. eigenvalues --    2.24406   2.25394   2.25818   2.27458   2.28933
 Alpha virt. eigenvalues --    2.29605   2.29842   2.31079   2.31779   2.33155
 Alpha virt. eigenvalues --    2.34576   2.35254   2.36851   2.38418   2.39434
 Alpha virt. eigenvalues --    2.40735   2.42091   2.42542   2.44363   2.45690
 Alpha virt. eigenvalues --    2.46973   2.47347   2.48569   2.50232   2.51452
 Alpha virt. eigenvalues --    2.52005   2.52724   2.53631   2.54169   2.54767
 Alpha virt. eigenvalues --    2.56183   2.57327   2.58291   2.58592   2.59994
 Alpha virt. eigenvalues --    2.60560   2.61936   2.63690   2.65472   2.66032
 Alpha virt. eigenvalues --    2.66787   2.67515   2.69182   2.69400   2.69886
 Alpha virt. eigenvalues --    2.71421   2.72929   2.74153   2.74651   2.75394
 Alpha virt. eigenvalues --    2.76704   2.77662   2.78730   2.81234   2.83393
 Alpha virt. eigenvalues --    2.85611   2.86324   2.87169   2.87603   2.88612
 Alpha virt. eigenvalues --    2.90259   2.91607   2.92249   2.94716   2.95619
 Alpha virt. eigenvalues --    2.98167   2.99462   3.01519   3.04236   3.05316
 Alpha virt. eigenvalues --    3.08299   3.12010   3.17383   3.18522   3.25587
 Alpha virt. eigenvalues --    3.28114   3.30031   3.32464   3.33305   3.34220
 Alpha virt. eigenvalues --    3.34659   3.35140   3.37726   3.38351   3.40738
 Alpha virt. eigenvalues --    3.42814   3.43992   3.45242   3.46941   3.50558
 Alpha virt. eigenvalues --    3.52582   3.58062   3.62566   3.65817   3.68124
 Alpha virt. eigenvalues --    3.69689   3.79839   3.82942   3.89719   3.93211
 Alpha virt. eigenvalues --    4.02392   4.02410   4.10635   4.12683   4.18742
 Alpha virt. eigenvalues --    4.35982   5.07723
          Condensed to atoms (all electrons):
               1          2          3          4          5          6
     1  N   16.021120  -5.640618  -1.095530  -0.626048  -0.304327   1.740791
     2  C   -5.640618  28.010695  -1.502677   0.558246  -0.625868  -9.534756
     3  C   -1.095530  -1.502677   9.401129  -1.219319   1.021704  -0.089612
     4  C   -0.626048   0.558246  -1.219319   6.578482  -0.132672   0.152166
     5  C   -0.304327  -0.625868   1.021704  -0.132672   6.205188  -0.394798
     6  C    1.740791  -9.534756  -0.089612   0.152166  -0.394798  24.172577
     7  C    0.578148  -2.619035  -1.031563   0.009414  -0.372969  -3.765586
     8  N   -0.068700   0.709962   0.011730   0.016115   0.051796  -0.056766
     9  C    0.129209  -0.882681  -0.082028   0.009489  -0.052606  -1.076685
    10  C   -0.124966   0.346040  -0.084477  -0.025247   0.013601   0.430111
    11  C   -0.311373  -1.220856  -0.061267  -0.002691   0.047981  -8.726241
    12  O   -0.003971   0.010502  -0.003841   0.000202  -0.000223  -0.044275
    13  O   -0.350025   0.222645   0.039948   0.080758   0.005984  -0.072454
    14  H   -1.346951   0.546508   0.219658   0.149988  -0.141745  -0.352855
    15  H   -0.131239   0.014577   0.277846  -0.292959   0.169007  -0.062771
    16  H    0.159348   0.145453   0.182825  -0.465697  -0.093730  -0.003214
    17  H    0.401956   0.021716  -1.296877   0.130797  -0.248441   0.492017
    18  H   -0.130403   0.001996  -0.032451   0.350462   0.088674  -0.108757
    19  H   -0.261550   0.141614  -0.111608   0.016412  -0.371862   0.267925
    20  H   -0.243220  -2.946374   0.786924  -0.084506   0.032973   1.299113
    21  H   -0.094921  -0.216186  -0.355990   0.067749  -0.064064  -0.452767
    22  H    0.006834  -0.053183   0.002289   0.000431  -0.001875  -0.096861
    23  H   -0.002341   0.075222   0.004279   0.000406   0.000434   0.033842
    24  H    0.018555  -0.130680  -0.086094  -0.007833  -0.005307   1.155090
    25  C    0.991367  -1.024303  -0.365546   0.048762  -0.259807   0.744039
    26  H   -0.007526   0.056062  -0.004266  -0.003153  -0.000523  -0.012390
    27  H   -0.256820   0.517502   0.304440  -0.215643  -0.046662  -0.264297
    28  H   -0.019579   0.028474  -0.025345   0.033395   0.000803  -0.007350
    29  H   -0.004971   0.015437  -0.000872   0.002442  -0.000171  -0.016836
    30  H    0.001407  -0.007650   0.000649   0.000101  -0.000112   0.010103
    31  O   -0.020704  -0.046620   0.007864  -0.011378   0.012262  -0.002933
    32  H   -0.000640   0.003134   0.002851  -0.001984  -0.000034  -0.002768
    33  H    0.031172  -0.066093   0.012753  -0.019122   0.012802   0.048279
    34  H   -0.349060   0.105163  -0.095238   0.103174   0.022358  -0.046987
    35  H    0.231258  -0.054074   0.123131  -0.046328   0.038621  -0.038041
    36  H   -0.771484  -0.058789  -0.004591  -0.009115  -0.046569   0.312649
    37  O    0.000460   0.002458   0.001442   0.000444   0.000955   0.001803
    38  H    0.000630   0.000067  -0.000404   0.000190  -0.000093  -0.000344
    39  H   -0.000427   0.000235   0.000257  -0.000027  -0.000004  -0.000185
    40  O   -0.022850   0.003907   0.000912   0.004024   0.004803  -0.002889
    41  H    0.004851  -0.000330  -0.000097  -0.000677  -0.001450   0.000421
    42  H   -0.002580   0.002109   0.000116  -0.000023   0.000320  -0.000954
               7          8          9         10         11         12
     1  N    0.578148  -0.068700   0.129209  -0.124966  -0.311373  -0.003971
     2  C   -2.619035   0.709962  -0.882681   0.346040  -1.220856   0.010502
     3  C   -1.031563   0.011730  -0.082028  -0.084477  -0.061267  -0.003841
     4  C    0.009414   0.016115   0.009489  -0.025247  -0.002691   0.000202
     5  C   -0.372969   0.051796  -0.052606   0.013601   0.047981  -0.000223
     6  C   -3.765586  -0.056766  -1.076685   0.430111  -8.726241  -0.044275
     7  C   17.248078  -0.891058  -1.032076  -0.074748  -1.859443  -0.128130
     8  N   -0.891058   8.126530   0.022509   0.313787  -0.472700  -0.028091
     9  C   -1.032076   0.022509  10.109626  -2.601389   1.532543   0.047329
    10  C   -0.074748   0.313787  -2.601389  11.679058  -4.171305  -0.018402
    11  C   -1.859443  -0.472700   1.532543  -4.171305  22.233764   0.020718
    12  O   -0.128130  -0.028091   0.047329  -0.018402   0.020718   8.026773
    13  O   -0.147646   0.014731  -0.010801   0.002453  -0.016187   0.005291
    14  H   -0.043824   0.003549  -0.002862   0.000193   0.023553   0.000090
    15  H    0.006132  -0.000079   0.002320  -0.002469   0.008286   0.000006
    16  H    0.005460   0.000552  -0.003130   0.002249   0.003608  -0.000168
    17  H    0.371663  -0.018484  -0.002584   0.003949  -0.030622   0.000199
    18  H   -0.325144   0.027380   0.020272  -0.050690   0.053569  -0.002360
    19  H    0.044239  -0.001307  -0.000725   0.000581   0.016832  -0.000015
    20  H   -0.293751   0.003881   0.041543  -0.027289  -0.093588  -0.000093
    21  H   -0.938257   0.011069  -0.213284   0.302330  -0.283962   0.075384
    22  H    0.153370  -0.154996  -0.465225   0.102920   0.205781   0.001572
    23  H   -0.107078  -0.052483   0.396142  -1.192760   0.566825  -0.000051
    24  H    0.189649  -0.038698  -0.195308   0.626470  -2.434312   0.000269
    25  C    0.137485  -0.016908  -0.043531   0.119714  -0.318717  -0.000773
    26  H   -0.105257   0.138533   0.100869  -0.086213   0.013227   0.238240
    27  H   -0.052176  -0.067804   0.003243  -0.038342  -0.046736  -0.000628
    28  H    0.013604   0.010115   0.001277   0.001515   0.007614   0.002800
    29  H    0.046519  -0.010557   0.000626   0.000562   0.001042   0.045915
    30  H    0.010632  -0.003664  -0.011665   0.009780  -0.006648   0.356841
    31  O   -0.129754   0.027272   0.001648   0.004196   0.008417  -0.112607
    32  H    0.001070  -0.004698  -0.002856  -0.000171   0.000996   0.007986
    33  H    0.004630  -0.006050  -0.000279   0.001803  -0.002136  -0.025172
    34  H   -0.013570  -0.001290  -0.008685   0.022913  -0.026970  -0.000398
    35  H    0.020926  -0.002968  -0.014294   0.015692   0.054316   0.000695
    36  H    0.004537   0.001836   0.009200  -0.016203  -0.029822  -0.000019
    37  O    0.009133  -0.002157  -0.000336  -0.000209   0.000533   0.000246
    38  H   -0.001624   0.000267   0.000091  -0.000030   0.000053  -0.000516
    39  H    0.001089  -0.000130   0.000053  -0.000004  -0.000002  -0.000004
    40  O   -0.000830  -0.000251  -0.000295   0.000081   0.000394   0.000045
    41  H    0.000307  -0.000097  -0.000012   0.000025  -0.000074  -0.000034
    42  H   -0.000151  -0.000024   0.000044  -0.000156   0.000178   0.000041
              13         14         15         16         17         18
     1  N   -0.350025  -1.346951  -0.131239   0.159348   0.401956  -0.130403
     2  C    0.222645   0.546508   0.014577   0.145453   0.021716   0.001996
     3  C    0.039948   0.219658   0.277846   0.182825  -1.296877  -0.032451
     4  C    0.080758   0.149988  -0.292959  -0.465697   0.130797   0.350462
     5  C    0.005984  -0.141745   0.169007  -0.093730  -0.248441   0.088674
     6  C   -0.072454  -0.352855  -0.062771  -0.003214   0.492017  -0.108757
     7  C   -0.147646  -0.043824   0.006132   0.005460   0.371663  -0.325144
     8  N    0.014731   0.003549  -0.000079   0.000552  -0.018484   0.027380
     9  C   -0.010801  -0.002862   0.002320  -0.003130  -0.002584   0.020272
    10  C    0.002453   0.000193  -0.002469   0.002249   0.003949  -0.050690
    11  C   -0.016187   0.023553   0.008286   0.003608  -0.030622   0.053569
    12  O    0.005291   0.000090   0.000006  -0.000168   0.000199  -0.002360
    13  O    8.383710   0.099178  -0.000133  -0.013282  -0.007068   0.028180
    14  H    0.099178   3.209364   0.125202  -0.322628  -0.049096   0.087558
    15  H   -0.000133   0.125202   2.141463  -0.634154  -0.348421   0.229069
    16  H   -0.013282  -0.322628  -0.634154   2.355093   0.227326  -0.487054
    17  H   -0.007068  -0.049096  -0.348421   0.227326   2.739314  -0.788458
    18  H    0.028180   0.087558   0.229069  -0.487054  -0.788458   2.535725
    19  H   -0.019066  -0.634860  -0.247550   0.210045   0.076364  -0.082877
    20  H    0.006159   0.098019   0.067266  -0.074624  -0.370025   0.248909
    21  H    0.010199  -0.097079  -0.024978   0.076366   0.157268  -0.314664
    22  H   -0.000572  -0.000219   0.000052   0.000126   0.001068  -0.004065
    23  H    0.000073   0.000181  -0.000008  -0.000083  -0.002217   0.003581
    24  H   -0.002369  -0.005237   0.000359   0.001174   0.016478  -0.014937
    25  C   -0.025641  -0.194071  -0.010193   0.014502   0.079166  -0.069127
    26  H    0.004266   0.001728   0.000263  -0.001583  -0.001245   0.005316
    27  H    0.017890   0.173869   0.005821   0.053798  -0.029780   0.047165
    28  H    0.357418   0.004913   0.001705  -0.013049   0.001057  -0.004367
    29  H   -0.010076   0.002018   0.000483  -0.002110  -0.000560   0.003695
    30  H   -0.001117  -0.000172  -0.000033   0.000227   0.000120  -0.001199
    31  O   -0.068023   0.000947  -0.000539   0.003364   0.000625  -0.002415
    32  H   -0.006611  -0.000171  -0.000410   0.000576  -0.000095   0.001727
    33  H    0.035081  -0.009868  -0.001270   0.007183  -0.000161  -0.000366
    34  H    0.061821   0.036098   0.000661   0.008506  -0.001101  -0.004555
    35  H   -0.004466   0.012077   0.002232  -0.010249  -0.002959   0.015601
    36  H   -0.018386  -0.009699  -0.002876   0.003075   0.014573  -0.011906
    37  O    0.002493   0.000215   0.000088  -0.002439  -0.000043   0.003701
    38  H    0.000016  -0.000064  -0.000063   0.000256   0.000051  -0.000435
    39  H   -0.000414   0.000070   0.000105  -0.000184  -0.000064   0.000087
    40  O   -0.040001   0.009398   0.000302  -0.000642  -0.000217   0.001487
    41  H    0.000277  -0.002004  -0.000104   0.000440   0.000021  -0.000162
    42  H    0.004657   0.000448  -0.000013   0.000012  -0.000009   0.000002
              19         20         21         22         23         24
     1  N   -0.261550  -0.243220  -0.094921   0.006834  -0.002341   0.018555
     2  C    0.141614  -2.946374  -0.216186  -0.053183   0.075222  -0.130680
     3  C   -0.111608   0.786924  -0.355990   0.002289   0.004279  -0.086094
     4  C    0.016412  -0.084506   0.067749   0.000431   0.000406  -0.007833
     5  C   -0.371862   0.032973  -0.064064  -0.001875   0.000434  -0.005307
     6  C    0.267925   1.299113  -0.452767  -0.096861   0.033842   1.155090
     7  C    0.044239  -0.293751  -0.938257   0.153370  -0.107078   0.189649
     8  N   -0.001307   0.003881   0.011069  -0.154996  -0.052483  -0.038698
     9  C   -0.000725   0.041543  -0.213284  -0.465225   0.396142  -0.195308
    10  C    0.000581  -0.027289   0.302330   0.102920  -1.192760   0.626470
    11  C    0.016832  -0.093588  -0.283962   0.205781   0.566825  -2.434312
    12  O   -0.000015  -0.000093   0.075384   0.001572  -0.000051   0.000269
    13  O   -0.019066   0.006159   0.010199  -0.000572   0.000073  -0.002369
    14  H   -0.634860   0.098019  -0.097079  -0.000219   0.000181  -0.005237
    15  H   -0.247550   0.067266  -0.024978   0.000052  -0.000008   0.000359
    16  H    0.210045  -0.074624   0.076366   0.000126  -0.000083   0.001174
    17  H    0.076364  -0.370025   0.157268   0.001068  -0.002217   0.016478
    18  H   -0.082877   0.248909  -0.314664  -0.004065   0.003581  -0.014937
    19  H    2.502085  -0.111716   0.043452   0.000113  -0.000524   0.004325
    20  H   -0.111716   3.700063  -0.057948  -0.000300   0.003320  -0.166590
    21  H    0.043452  -0.057948   4.926859   0.043719  -0.024857   0.015411
    22  H    0.000113  -0.000300   0.043719   2.074608  -0.122665  -0.004511
    23  H   -0.000524   0.003320  -0.024857  -0.122665   2.170491  -0.145190
    24  H    0.004325  -0.166590   0.015411  -0.004511  -0.145190   3.060084
    25  C   -0.024614  -0.060244   0.169368   0.003602  -0.009387   0.064203
    26  H   -0.000495   0.000081  -0.145239  -0.075888   0.010928  -0.001158
    27  H    0.014232   0.023118  -0.316731  -0.004304   0.004025  -0.004424
    28  H   -0.006039  -0.001390   0.045487   0.000450  -0.000266   0.000960
    29  H   -0.000531   0.000720  -0.063280   0.003647  -0.000155   0.000063
    30  H    0.000042  -0.000229   0.014399   0.004388  -0.000670   0.000060
    31  O    0.000495  -0.001203   0.124139   0.000799   0.000147   0.000066
    32  H    0.000259   0.000056  -0.005605  -0.000274  -0.000004  -0.000059
    33  H    0.001937  -0.000932  -0.016411  -0.000862   0.000327  -0.001003
    34  H   -0.018234   0.019690   0.024949   0.000453  -0.000969   0.003838
    35  H    0.007362  -0.005235  -0.035884  -0.003215  -0.001069  -0.002212
    36  H    0.080782   0.097283   0.026401   0.000490   0.000176   0.001347
    37  O    0.000015   0.000096  -0.021944  -0.000004  -0.000007   0.000019
    38  H   -0.000006  -0.000040  -0.001253   0.000010  -0.000002   0.000006
    39  H   -0.000015   0.000031   0.003291   0.000006  -0.000001   0.000001
    40  O    0.000251   0.000558  -0.009631  -0.000024   0.000003  -0.000005
    41  H    0.000222  -0.000100   0.000598   0.000002   0.000000   0.000003
    42  H    0.000061   0.000035   0.000108  -0.000005  -0.000001  -0.000012
              25         26         27         28         29         30
     1  N    0.991367  -0.007526  -0.256820  -0.019579  -0.004971   0.001407
     2  C   -1.024303   0.056062   0.517502   0.028474   0.015437  -0.007650
     3  C   -0.365546  -0.004266   0.304440  -0.025345  -0.000872   0.000649
     4  C    0.048762  -0.003153  -0.215643   0.033395   0.002442   0.000101
     5  C   -0.259807  -0.000523  -0.046662   0.000803  -0.000171  -0.000112
     6  C    0.744039  -0.012390  -0.264297  -0.007350  -0.016836   0.010103
     7  C    0.137485  -0.105257  -0.052176   0.013604   0.046519   0.010632
     8  N   -0.016908   0.138533  -0.067804   0.010115  -0.010557  -0.003664
     9  C   -0.043531   0.100869   0.003243   0.001277   0.000626  -0.011665
    10  C    0.119714  -0.086213  -0.038342   0.001515   0.000562   0.009780
    11  C   -0.318717   0.013227  -0.046736   0.007614   0.001042  -0.006648
    12  O   -0.000773   0.238240  -0.000628   0.002800   0.045915   0.356841
    13  O   -0.025641   0.004266   0.017890   0.357418  -0.010076  -0.001117
    14  H   -0.194071   0.001728   0.173869   0.004913   0.002018  -0.000172
    15  H   -0.010193   0.000263   0.005821   0.001705   0.000483  -0.000033
    16  H    0.014502  -0.001583   0.053798  -0.013049  -0.002110   0.000227
    17  H    0.079166  -0.001245  -0.029780   0.001057  -0.000560   0.000120
    18  H   -0.069127   0.005316   0.047165  -0.004367   0.003695  -0.001199
    19  H   -0.024614  -0.000495   0.014232  -0.006039  -0.000531   0.000042
    20  H   -0.060244   0.000081   0.023118  -0.001390   0.000720  -0.000229
    21  H    0.169368  -0.145239  -0.316731   0.045487  -0.063280   0.014399
    22  H    0.003602  -0.075888  -0.004304   0.000450   0.003647   0.004388
    23  H   -0.009387   0.010928   0.004025  -0.000266  -0.000155  -0.000670
    24  H    0.064203  -0.001158  -0.004424   0.000960   0.000063   0.000060
    25  C    4.765163  -0.010009  -0.240815   0.008426  -0.001733   0.001094
    26  H   -0.010009   0.580783   0.024443  -0.003002  -0.000925  -0.106433
    27  H   -0.240815   0.024443   1.140633  -0.298546   0.007765  -0.001747
    28  H    0.008426  -0.003002  -0.298546   0.737168   0.002299  -0.000362
    29  H   -0.001733  -0.000925   0.007765   0.002299   0.390610  -0.017357
    30  H    0.001094  -0.106433  -0.001747  -0.000362  -0.017357   0.599951
    31  O    0.007389  -0.028241  -0.106583   0.025146   0.146401   0.005814
    32  H   -0.001416   0.003735   0.012713  -0.003406  -0.015850  -0.000275
    33  H    0.006435   0.004614   0.028272  -0.050590  -0.046899   0.001029
    34  H    0.208607  -0.001993   0.044933  -0.003978  -0.000329   0.000267
    35  H   -0.052918   0.003190  -0.011398   0.012850   0.000476  -0.000216
    36  H    0.324621  -0.000787  -0.058878   0.001554  -0.000139   0.000043
    37  O   -0.000011  -0.000414  -0.003206   0.003882  -0.000217   0.000605
    38  H    0.000098   0.000528   0.001450  -0.001169  -0.002856   0.000196
    39  H   -0.000108  -0.000609  -0.002226   0.001149   0.001073  -0.000031
    40  O   -0.009296   0.000444   0.030437   0.001873  -0.001024  -0.000028
    41  H    0.001059  -0.000033  -0.000048  -0.003411  -0.000012   0.000011
    42  H   -0.000390   0.000077   0.000572   0.005183   0.000118  -0.000016
              31         32         33         34         35         36
     1  N   -0.020704  -0.000640   0.031172  -0.349060   0.231258  -0.771484
     2  C   -0.046620   0.003134  -0.066093   0.105163  -0.054074  -0.058789
     3  C    0.007864   0.002851   0.012753  -0.095238   0.123131  -0.004591
     4  C   -0.011378  -0.001984  -0.019122   0.103174  -0.046328  -0.009115
     5  C    0.012262  -0.000034   0.012802   0.022358   0.038621  -0.046569
     6  C   -0.002933  -0.002768   0.048279  -0.046987  -0.038041   0.312649
     7  C   -0.129754   0.001070   0.004630  -0.013570   0.020926   0.004537
     8  N    0.027272  -0.004698  -0.006050  -0.001290  -0.002968   0.001836
     9  C    0.001648  -0.002856  -0.000279  -0.008685  -0.014294   0.009200
    10  C    0.004196  -0.000171   0.001803   0.022913   0.015692  -0.016203
    11  C    0.008417   0.000996  -0.002136  -0.026970   0.054316  -0.029822
    12  O   -0.112607   0.007986  -0.025172  -0.000398   0.000695  -0.000019
    13  O   -0.068023  -0.006611   0.035081   0.061821  -0.004466  -0.018386
    14  H    0.000947  -0.000171  -0.009868   0.036098   0.012077  -0.009699
[...]
 0000891,0.00000855,-0.00001138,0.00001972,-0.00000399,-0.00000166,-0.0
 0000720,0.00000224,0.00003286,0.00002402,0.00000384,-0.00000523,-0.000
 01712,0.00001867,0.00003778,0.00001157,-0.00000467,-0.00000908,0.00001
 263,-0.00000230,-0.00001872,-0.00003355,0.00001240,0.00003073,-0.00000
 630,0.00000489,0.00000847,0.00000843,0.00000040,0.00000341,0.00000732,
 0.00000078,0.00000455,-0.00001463,-0.00000148,-0.00000829,-0.00047492,
 -0.00008522,0.00017555,-0.00025065,-0.00005762,0.00012010,-0.00001582,
 0.00002978,-0.00007261,-0.00055900,-0.00022633,-0.00060178,-0.00004422
 ,-0.00008324,-0.00001725,0.00024597,-0.00156457,-0.00029358,-0.0008029
 7,0.00359301,-0.00143998,-0.00070890,0.00032628,-0.00018275,-0.0000100
 1,0.00000540,-0.00000578,-0.00000645,-0.00000600,-0.00000137,0.0000128
 0,-0.00000106,-0.00000432,-0.13018475,0.23269996,-0.31316343,0.1374300
 6,-0.23303011,0.31812939,0.00008501,0.00004155,0.00001378,-0.00000708,
 -0.00003210,0.00000998,-0.00000071,-0.00000196,0.00000650,-0.00009777,
 -0.00003125,0.00001557,-0.00001165,-0.00001558,-0.00002892,0.00003433,
 -0.00001759,0.00000032,-0.00002883,-0.00000683,-0.00000230,-0.00000754
 ,0.00001917,0.00000979,0.00001877,-0.00000522,-0.00000057,-0.00001610,
 0.00001359,0.00000048,-0.00001572,-0.00000816,0.00000126,-0.00003985,0
 .00010502,0.00005575,0.00012002,0.00022058,0.00011696,-0.00002013,0.00
 000759,-0.00001398,0.00001388,0.00000915,-0.00000083,0.00002050,0.0000
 1620,-0.00000557,0.00000834,0.00001204,-0.00000472,-0.00000127,-0.0000
 2444,-0.00000163,0.00002571,0.00001374,0.00001487,0.00001423,0.0000086
 8,0.00000269,0.00002713,-0.00000763,0.00001157,0.00000016,0.00000426,-
 0.00000043,0.00000076,0.00000267,-0.00000061,-0.00000196,-0.00000555,-
 0.00000015,-0.00002650,-0.00000820,-0.00004168,0.00002596,0.00000553,-
 0.00000650,-0.00013951,-0.00004940,0.00003911,-0.00004082,-0.00000075,
 -0.00013475,-0.00000804,-0.00015508,-0.00009319,0.00005007,0.00000199,
 -0.00001694,0.00028509,0.00009284,-0.00035043,-0.00161006,-0.00056369,
 0.00086230,0.00015680,-0.00032156,0.00006754,-0.00000462,-0.00000209,-
 0.00000272,-0.00000013,0.00000852,0.00000626,0.00001499,-0.00000017,0.
 00000057,-0.23595409,-0.27377291,0.02081622,0.00782937,0.01591947,-0.0
 0595803,0.22928194,0.00006327,-0.00005798,-0.00001765,-0.00001192,0.00
 002653,-0.00001082,-0.00004912,0.00001946,-0.00001034,0.00004119,0.000
 01410,-0.00001203,-0.00000506,0.00006626,0.00002130,0.00002916,0.00005
 263,-0.00000655,-0.00006228,-0.00001584,0.00001905,0.00016142,0.000017
 05,-0.00001672,-0.00000961,-0.00005559,-0.00000382,0.00001862,0.000008
 47,-0.00000202,0.00000487,-0.00001954,0.00000256,0.00028765,0.00028473
 ,-0.00001020,0.00041989,-0.00040414,0.00015495,0.00000452,-0.00000420,
 0.00002133,0.00001641,-0.00000924,-0.00000451,-0.00002359,0.00003186,0
 .00000266,0.00000912,-0.00001047,0.00000531,0.00000627,-0.00001668,0.0
 0001528,0.00000541,-0.00001232,-0.00000630,0.00001096,-0.00000351,0.00
 000336,-0.00002426,0.00002650,-0.00000354,-0.00000503,0.00000206,-0.00
 000122,0.00000520,-0.00000007,-0.00000115,0.00000811,0.00000392,-0.000
 00178,-0.00001263,-0.00000210,-0.00001181,-0.00032404,-0.00006121,0.00
 005128,-0.00009965,-0.00001071,0.00005000,0.00003580,0.00011763,-0.000
 09439,-0.00004975,-0.00040540,0.00004604,-0.00004039,-0.00004173,-0.00
 004225,0.00107190,0.00056261,0.00095821,-0.00226196,-0.00207101,-0.001
 57695,-0.00086669,0.00064660,-0.00042782,-0.00000323,0.00000079,0.0000
 0444,-0.00000348,-0.00000862,-0.00000982,0.00000825,0.00000118,-0.0000
 0181,-0.23647455,-0.31744442,0.05779761,-0.02043468,-0.01812769,-0.001
 81088,0.25853670,0.33692744,0.00005649,0.00000436,-0.00007055,-0.00000
 157,-0.00001494,0.00003895,0.00001851,-0.00000972,0.00000029,0.0000171
 3,0.00000772,-0.00001011,-0.00002011,-0.00000360,0.00003616,-0.0000082
 8,-0.00000871,-0.00000409,0.00000846,0.00002282,-0.00001308,-0.0000009
 8,-0.00000618,-0.00001873,-0.00000457,0.00000363,0.00000802,0.00000202
 ,-0.00000470,-0.00000146,-0.00000033,0.00000546,-0.00000179,0.00005504
 ,-0.00006138,-0.00006133,0.00001710,0.00030047,-0.00017982,-0.00000277
 ,0.00000805,-0.00001000,0.00000953,-0.00000271,-0.00000101,-0.00000904
 ,-0.00000915,0.00003481,0.00000349,0.00000281,-0.00000344,-0.00000779,
 0.00002044,0.00000476,0.00000179,-0.00000115,-0.00001204,0.00000243,0.
 00000268,-0.00001242,0.00001023,-0.00000820,0.00001974,0.00000020,-0.0
 0000292,0.00000351,-0.00000014,-0.00000007,0.00000225,-0.00000080,-0.0
 0000101,0.00000319,-0.00000233,-0.00000561,0.00001493,-0.00001326,-0.0
 0000166,0.00001421,-0.00014826,0.00000815,0.00009280,-0.00011334,-0.00
 009037,0.00004884,0.00007120,0.00019018,0.00016718,-0.00005168,-0.0000
 2957,0.00002227,-0.00186048,-0.00070204,-0.00474361,-0.00009250,-0.001
 33294,0.00776751,0.00035947,-0.00058730,0.00001456,-0.00000838,0.00000
 556,-0.00000437,-0.00000386,-0.00000417,0.00000142,0.00000375,0.000000
 39,-0.00000543,-0.00703340,0.02865972,-0.03871418,0.02417206,0.0287501
 6,-0.00270432,-0.01542297,-0.05513339,0.03832114,0.00102172,-0.0002177
 6,0.00024445,0.00008114,0.00025837,0.00003972,-0.00003940,-0.00005587,
 0.00010322,-0.00013452,-0.00009850,-0.00004378,0.00011978,0.00025423,-
 0.00002740,0.00004207,0.00016414,0.00004648,-0.00023044,-0.00011805,-0
 .00000497,0.00028215,0.00001943,-0.00006135,-0.00002068,-0.00006576,-0
 .00000464,0.00004892,0.00003600,0.00000907,0.00002932,-0.00003815,0.00
 001536,0.00031998,0.00049996,-0.00019958,0.00467845,0.00141039,-0.0029
 0434,-0.00022702,-0.00012379,-0.00006401,0.00003022,0.00000837,0.00003
 273,0.00006546,0.00003464,0.00005843,0.00002226,0.00000676,0.00003828,
 0.00003698,-0.00003615,0.00006332,0.00009981,-0.00005481,-0.00005475,0
 .00006765,0.00001786,-0.00007385,-0.00001754,0.00001016,0.00005983,-0.
 00000301,0.00000336,-0.00000153,0.00000643,-0.00000078,-0.00000996,0.0
 0002832,0.00002412,-0.00002497,-0.00020625,0.00053595,-0.00138498,-0.0
 0048429,-0.00010042,0.00012114,-0.00299436,0.00005839,-0.00009592,-0.0
 0523055,-0.00045259,0.00083657,-0.00009093,-0.00085511,0.00016767,-0.0
 0000516,-0.00004776,0.00003127,-0.00016022,0.00060727,-0.00051646,0.00
 014392,0.00007412,0.00040426,0.00027887,-0.00046813,0.00061093,-0.0000
 0035,-0.00023234,0.00010005,-0.00002881,-0.00005763,0.00012571,0.00002
 155,-0.00017664,0.00033210,-0.00003751,-0.00000677,-0.00028630,-0.0000
 2782,-0.00003723,0.00006205,0.00001727,-0.00000446,0.00011499,0.033915
 55,-0.00086459,0.00017964,0.00034064,0.00007210,0.00022190,-0.00012749
 ,0.00001465,-0.00003181,-0.00003266,0.00005457,0.00014311,0.00007230,-
 0.00008391,-0.00096606,0.00012329,-0.00003811,-0.00007900,0.00000163,0
 .00014842,0.00006215,0.00001783,-0.00008640,-0.00002800,0.00009499,-0.
 00003342,0.00005797,-0.00001682,0.00002568,-0.00002647,0.00000003,0.00
 002503,0.00006873,0.00000234,0.00004397,-0.00024471,0.00018866,0.00055
 785,0.00131644,0.00871512,0.00007366,0.00014301,0.00006177,-0.00003210
 ,0.00001259,0.00003607,0.00001459,-0.00004973,-0.00001070,-0.00000884,
 0.00003412,0.00001508,-0.00000718,0.00003842,-0.00003728,-0.00005566,0
 .00013285,-0.00002222,-0.00006741,-0.00003948,0.00003464,-0.00003798,0
 .00002849,-0.00009925,-0.00000137,-0.00000293,-0.00001118,-0.00000414,
 0.00000063,-0.00000653,-0.00000662,0.00000284,-0.00001415,-0.00018529,
 0.00026110,-0.00009831,0.00006246,0.00005884,-0.00009237,0.00201354,-0
 .00016092,-0.00041510,0.00101732,-0.00928363,-0.00407351,-0.00000909,0
 .00036966,-0.00016211,-0.00007324,0.00005214,-0.00005039,0.00101587,-0
 .00042089,0.00050525,-0.00034564,-0.00033259,-0.00040996,-0.00166941,0
 .00080276,-0.00051206,0.00028556,-0.00080914,-0.00012612,0.00015159,0.
 00032012,-0.00016674,-0.00017251,-0.00007304,0.00028222,0.00013199,0.0
 0020036,0.00019538,-0.00000628,-0.00001219,-0.00002482,0.00000649,-0.0
 0009182,0.00003742,0.04344905,0.67009784,0.00167455,0.00010906,-0.0003
 1442,-0.00000618,-0.00026014,0.00041959,-0.00004465,-0.00001420,0.0000
 0446,-0.00005381,0.00002591,0.00004468,-0.00035766,0.00004952,0.000341
 92,0.00021648,0.00007371,-0.00003247,-0.00039216,-0.00029852,-0.000082
 73,0.00008270,0.00017919,-0.00000886,0.00011020,-0.00001420,0.00000488
 ,-0.00007857,0.00010997,0.00003352,-0.00004910,-0.00011158,0.00001035,
 -0.00005104,0.00064298,-0.00004996,-0.00209147,0.00992294,-0.01436648,
 -0.00014393,0.00023450,0.00002503,0.00007319,0.00001081,-0.00004010,0.
 00004459,0.00007669,0.00011548,0.00004965,0.00001782,-0.00002309,-0.00
 000914,-0.00001579,0.00004991,0.00021489,0.00001626,-0.00010658,0.0001
 5529,0.00009208,-0.00012595,0.00011138,-0.00008362,0.00018304,-0.00000
 105,0.00002976,-0.00000580,0.00000584,0.00001847,-0.00001277,0.0000093
 3,-0.00001515,-0.00000887,-0.00014067,-0.00005577,-0.00045023,-0.00003
 393,-0.00007038,0.00001285,-0.00437551,-0.00034984,0.00049013,-0.00209
 076,-0.00449116,-0.00123987,-0.00006316,-0.00129838,0.00006126,0.00007
 731,-0.00002255,-0.00007627,-0.00285856,0.00180207,-0.00079446,0.00045
 804,0.00030805,0.00058161,0.00496592,-0.00243132,0.00061543,0.00000213
 ,-0.00015736,-0.00053115,0.00000846,0.00012194,-0.00008014,0.00021568,
 0.00008578,-0.00000755,-0.00026641,-0.00009118,-0.00031048,0.00002723,
 -0.00004632,0.00004375,0.00009332,0.00002628,-0.00000184,-0.09263956,0
 .09876118,0.50555522,-0.00022684,0.00011842,-0.00005443,-0.00000094,-0
 .00003434,0.00004769,0.00000191,-0.00000134,-0.00003358,0.00006443,0.0
 0008855,0.00003662,-0.00009954,-0.00033055,0.00007296,0.00000275,-0.00
 004112,-0.00002086,0.00003478,0.00001962,-0.00000271,-0.00008485,0.000
 00651,0.00001895,0.00001285,0.00002159,0.00000045,-0.00001987,-0.00000
 152,0.00000110,-0.00000847,0.00000996,-0.00000285,-0.00011783,-0.00013
 453,0.00004571,-0.00059774,-0.00002917,-0.00092489,0.00014158,0.000086
 19,0.00005684,-0.00000406,0.00000038,-0.00000734,-0.00002164,-0.000002
 41,-0.00001384,-0.00000033,0.00000716,-0.00000787,-0.00001102,0.000023
 02,-0.00001647,-0.00003344,0.00002788,0.00000039,-0.00000841,-0.000001
 74,0.00000451,0.00001705,-0.00001138,-0.00000780,0.00000126,0.00000145
 ,-0.00000007,-0.00000148,0.00000149,0.00000206,-0.00000610,-0.00000825
 ,0.00000497,-0.00012155,0.00003501,0.00017352,0.00015702,0.00002672,-0
 .00003286,0.00042858,-0.00008129,-0.00031336,0.00035423,0.00111009,0.0
 0140823,0.00003275,0.00022833,-0.00003128,0.00001253,0.00001080,-0.000
 00715,-0.00017747,-0.00016541,0.00005600,0.00003014,0.00007095,-0.0000
 6956,0.00029481,0.00003223,-0.00002554,0.00022164,-0.00024264,-0.00007
 794,0.00002193,0.00009941,-0.00006591,-0.00005148,-0.00003906,0.000063
 92,-0.00002195,-0.00005170,0.00008669,0.00001408,0.00001723,-0.0000254
 9,-0.00000879,0.00002930,-0.00007379,-0.01575647,-0.08370722,0.0199917
 2,0.01459739,0.00022828,-0.00005798,-0.00014989,-0.00001680,-0.0000927
 7,0.00004885,-0.00000710,0.00000961,-0.00000513,0.00000321,-0.00001419
 ,-0.00001035,-0.00001939,0.00020468,-0.00001199,0.00001471,0.00001680,
 -0.00001016,-0.00003724,-0.00001365,-0.00000660,0.00002663,0.00001488,
 -0.00002622,0.00001038,-0.00001782,0.00000316,-0.00000853,0.00000749,-
 0.00000138,-0.00000893,-0.00001697,-0.00000196,0.00000069,0.00009541,-
 0.00006531,0.00018020,0.00061806,-0.00147303,-0.00003710,0.00005541,0.
 00001941,0.00001499,-0.00000392,-0.00002689,-0.00001219,0.00001779,0.0
 0000284,0.00000286,-0.00000825,-0.00000941,-0.00000010,-0.00000732,0.0
 0000643,0.00003459,-0.00001608,-0.00000707,0.00002372,0.00001491,-0.00
 001516,0.00000900,-0.00000527,0.00002535,-0.00000061,0.00000178,0.0000
 0401,0.00000120,0.00000031,0.00000353,0.00000034,-0.00000207,0.0000059
 7,-0.00001678,-0.00002033,0.00004723,-0.00003378,-0.00001782,0.0000299
 3,-0.00043703,-0.00001303,0.00020778,-0.00020931,-0.00159001,0.0022798
 2,-0.00000368,-0.00015482,0.00004932,0.00001926,-0.00001822,0.00001914
 ,-0.00024785,0.00013692,-0.00020523,0.00010505,0.00010136,0.00016706,0
 .00034884,-0.00020128,0.00021915,-0.00007352,0.00005320,0.00008059,-0.
 00000991,-0.00002503,0.00001020,0.00005163,0.00002359,-0.00005836,-0.0
 0004007,-0.00007028,-0.00008878,0.00000019,0.00000455,0.00001224,-0.00
 000220,0.00003876,0.00000522,-0.06920059,-0.50754346,0.06835846,0.0747
 8605,0.52907674,0.00007715,-0.00012138,-0.00002117,0.00000871,-0.00003
 051,-0.00004015,-0.00000355,0.00001582,0.00001597,-0.00002063,-0.00006
 506,-0.00003686,0.00014445,0.00046180,-0.00014768,-0.00003876,0.000020
 80,0.00001211,0.00000204,0.00000188,0.00000269,0.00001461,-0.00001752,
 -0.00001155,-0.00000786,-0.00000293,0.00000271,0.00000994,-0.00000736,
 -0.00000532,0.00001537,-0.00000713,-0.00000031,0.00001053,-0.00004589,
 -0.00001258,-0.00087943,-0.00029891,-0.00293717,0.00003144,-0.00009163
 ,0.00000041,-0.00000046,-0.00000554,-0.00000106,-0.00001943,0.00001645
 ,-0.00003107,-0.00000846,-0.00002363,0.00000580,0.00000751,-0.00001859
 ,0.00000812,-0.00004942,-0.00009224,0.00005110,-0.00000584,0.00000343,
 -0.00000044,-0.00000531,-0.00000619,0.00000589,0.00000173,-0.00000289,
 0.00000127,0.00000040,-0.00000405,0.00000260,0.00000238,0.00000702,0.0
 0000186,0.00008629,-0.00005407,0.00007126,-0.00001063,0.00000070,0.000
 01070,-0.00019152,0.00009943,0.00018219,0.00211017,0.00228277,0.004274
 00,-0.00000556,0.00009757,0.00000932,-0.00000567,0.00000266,0.00001059
 ,-0.00014034,-0.00005675,-0.00001760,0.00002282,0.00008545,0.00001896,
 0.00024266,-0.00003451,-0.00005905,-0.00009489,0.00014583,0.00001606,-
 0.00003010,-0.00005403,0.00002565,-0.00000338,0.00001482,-0.00003549,0
 .00002090,-0.00007198,0.00000921,-0.00000715,0.00001620,-0.00000596,-0
 .00004071,0.00003835,-0.00002658,0.02523291,0.12290646,-0.06869385,-0.
 02071377,-0.08157568,0.06180258,-0.00011969,0.00004254,-0.00023661,-0.
 00004227,-0.00013772,0.00001718,0.00001984,0.00002371,-0.00002422,0.00
 000581,-0.00001602,-0.00000019,0.00003117,0.00015539,-0.00005312,-0.00
 001302,-0.00004081,-0.00001122,0.00005753,0.00000835,-0.00000887,-0.00
 012584,-0.00000088,0.00002588,0.00002510,0.00002826,0.00000238,-0.0000
 2908,-0.00000510,-0.00000549,-0.00001226,0.00000082,-0.00000767,-0.000
 16956,-0.00016467,0.00011501,-0.00058981,0.00080593,-0.00067581,0.0000
 1908,-0.00004606,-0.00003148,-0.00000263,-0.00000241,-0.00001198,-0.00
 001427,-0.00000750,-0.00001597,-0.00000587,-0.00000698,-0.00001492,-0.
 00001307,0.00000298,-0.00001353,-0.00003472,-0.00001664,0.00002717,-0.
 00001317,0.00000243,0.00001894,0.00002099,-0.00001309,-0.00000046,0.00
 000394,0.00000066,0.00000142,-0.00000182,-0.00000127,0.00000647,-0.000
 01049,-0.00000747,0.00001378,-0.00001057,-0.00021724,0.00033319,0.0002
 4402,0.00004600,-0.00006131,0.00041673,0.00026836,-0.00017770,0.000237
 06,-0.00176817,0.00022040,0.00004543,0.00023051,-0.00010497,0.00001207
 ,0.00003342,-0.00003976,-0.00021047,-0.00003824,0.00019978,-0.00003258
 ,-0.00004564,-0.00013900,0.00041317,-0.00012677,-0.00020446,-0.0000071
 1,0.00038841,0.00030474,-0.00001686,-0.00012076,0.00005751,-0.00000888
 ,0.00000922,-0.00008612,-0.00000843,0.00001934,0.00010173,0.00001480,0
 .00000863,-0.00002439,0.00001087,-0.00000762,-0.00004327,-0.01566250,0
 .03833204,0.07715941,0.00093857,-0.00543910,-0.00575911,0.01463880,-0.
 00015090,-0.00013840,0.00000979,-0.00003671,0.00003986,-0.00004051,0.0
 0000418,0.00000256,0.00001767,0.00000833,-0.00003415,-0.00002840,0.000
 05607,0.00014983,-0.00007384,-0.00003236,0.00002550,0.00000939,0.00004
 275,0.00007339,0.00000817,0.00002933,-0.00004181,-0.00005965,-0.000022
 34,-0.00003482,0.00000399,0.00001187,-0.00002372,-0.00000736,-0.000006
 10,0.00000354,-0.00000426,-0.00001912,-0.00007379,-0.00011492,0.000730
 85,-0.00243348,0.00233966,0.00000514,-0.00006092,-0.00001155,-0.000007
 36,-0.00000799,-0.00000179,-0.00001255,-0.00000821,-0.00001513,-0.0000
 0465,-0.00000862,0.00000162,0.00000675,-0.00000234,0.00000154,-0.00001
 708,-0.00001748,0.00001521,-0.00001621,-0.00001606,0.00002394,-0.00001
 565,0.00002065,0.00000072,0.00000048,-0.00000906,0.00001131,0.00000004
 ,-0.00000470,0.00000799,0.00000166,0.00000229,0.00000808,0.00005588,0.
 00005915,0.00010930,-0.00002794,-0.00001480,0.00005952,0.00041465,0.00
 021422,-0.00012650,-0.00149819,0.00395384,-0.00280051,0.00004051,0.000
 23872,0.00008003,0.00002835,-0.00002943,0.00006755,0.00037858,-0.00039
 425,-0.00002041,0.00003224,0.00005848,0.00003304,-0.00072793,0.0004600
 5,0.00005425,-0.00001047,0.00025111,0.00008696,-0.00005709,-0.00018221
 ,0.00009719,0.00000249,-0.00003467,-0.00007279,0.00000177,-0.00005551,
 -0.00000988,-0.00000106,0.00001731,0.00000189,-0.00001345,0.00002570,-
 0.00001374,0.02497671,-0.15440983,-0.17124595,0.00802536,-0.02058167,-
 0.04352896,-0.03217683,0.17302175,-0.00012070,-0.00003525,0.00011525,0
 .00002880,0.00007993,-0.00005003,-0.00000169,-0.00000962,0.00000862,0.
 00000337,0.00000069,0.00000007,0.00004564,-0.00005303,-0.00000817,-0.0
 0003173,0.00000044,0.00001027,0.00003208,0.00000176,0.00000409,-0.0000
 1544,-0.00001370,0.00001915,-0.00001829,0.00002087,-0.00000313,0.00001
 724,-0.00001401,-0.00000560,0.00002023,0.00002069,0.00000246,0.0000177
 0,-0.00012100,0.00005416,-0.00078498,0.00105935,-0.00008266,-0.0000217
 9,0.00000233,-0.00000366,-0.00000555,0.00000038,0.00000928,-0.00000182
 ,-0.00000267,-0.00000641,-0.00000406,-0.00000074,0.00001156,0.00000591
 ,0.00000012,-0.00000069,-0.00001662,0.00000365,0.00000317,-0.00001862,
 -0.00001037,0.00000430,-0.00001181,-0.00000119,-0.00001807,0.00000256,
 -0.00000427,0.00000096,-0.00000191,-0.00000378,0.00000129,0.00000088,0
 .00000677,-0.00000201,-0.00004117,0.00002345,-0.00008005,0.00001774,0.
 00002233,-0.00002369,0.00017753,-0.00003092,-0.00009305,0.00153476,-0.
 00245293,-0.00111569,-0.00001713,0.00019333,-0.00005985,-0.00002503,0.
 00002471,-0.00000291,-0.00000030,-0.00008169,0.00015651,-0.00007910,-0
 .00004423,-0.00011486,0.00005867,0.00004751,-0.00030953,0.00008728,-0.
 00009992,-0.00006409,0.00004814,0.00006349,-0.00001809,-0.00005223,-0.
 00000094,0.00009599,0.00004271,0.00001142,0.00007224,-0.00000553,0.000
 00958,-0.00001181,-0.00001723,-0.00000025,-0.00001630,0.06954782,-0.22
 588256,-0.42122918,0.00045703,0.01214291,0.00554287,-0.07085334,0.2151
 2736,0.41720730\\0.00000256,0.00000255,0.00000820,-0.00000205,0.000000
 70,-0.00000333,0.00000213,-0.00000015,0.00000066,-0.00000189,-0.000000
 43,-0.00000029,-0.00000112,-0.00000052,0.00000176,-0.00000136,0.000002
 17,0.00000006,0.00000347,-0.00000580,-0.00000049,0.00000247,0.00000768
 ,-0.00000595,-0.00000302,-0.00000364,0.00000102,0.00000159,-0.00000061
 ,0.00000065,-0.00000012,0.00000182,0.00000110,0.00000604,-0.00000574,-
 0.00000364,-0.00000056,0.00000205,0.00000164,0.00000048,-0.00000004,0.
 00000065,0.00000123,0.00000029,0.00000092,0.00000093,-0.00000010,-0.00
 000061,-0.00000015,0.00000015,-0.00000011,0.00000014,-0.00000040,0.000
 00082,-0.00000002,-0.00000022,0.00000062,0.00000021,-0.00000057,0.0000
 0003,-0.00000040,0.00000129,-0.00000043,0.00000050,0.00000034,-0.00000
 131,-0.00000015,0.00000033,0.00000040,-0.00000004,-0.00000015,0.000000
 33,0.00000097,0.00000142,-0.00000200,-0.00000839,0.00000147,0.00000971
 ,-0.00000518,0.00000120,-0.00000779,-0.00000055,-0.00000210,-0.0000000
 6,-0.00000058,0.00000035,-0.00000147,-0.00000003,0.00000121,-0.0000017
 0,-0.00000159,0.00000615,-0.00000272,-0.00000143,-0.00000049,-0.000000
 51,0.00000417,-0.00000429,-0.00000032,0.00000009,-0.00000144,0.0000010
 7,-0.00000028,-0.00000015,0.00000009,0.00000023,-0.00000046,0.00000114
 ,0.00000055,-0.00000420,-0.00000297,0.00000046,0.00000291,0.00000101,0
 .00000085,-0.00000024,0.00000074,0.00000309,0.00000516,0.00000435,-0.0
 0000314,-0.00001276,0.00000081,-0.00000008,0.00000524,-0.00000209\\\@


 REFRAIN FROM ILLUSIONS, INSIST ON WORK AND NOT WORDS,
 PATIENTLY SEEK DIVINE AND SCIENTIFIC TRUTH.
 LAST WORDS OF MARIA MENDELEEVA TO HER SON DMITRI, C. 1850
 Job cpu time:       1 days 16 hours 46 minutes 30.4 seconds.
 Elapsed time:       0 days  1 hours 27 minutes 29.1 seconds.
 File lengths (MBytes):  RWF=   1440 Int=      0 D2E=      0 Chk=     36 Scr=      8
 Normal termination of Gaussian 16 at Thu May 18 03:32:10 2023.
