 Entering Gaussian System, Link 0=g16
 Input=Nic5h3bMidPyrInter.gjf
 Output=Nic5h3bMidPyrInter.log
 Initial command:
 /sw/contrib/gaussian/g16/A03/g16/l1.exe "/gscratch/scrubbed/gds001/Gau-11775.inp" -scrdir="/gscratch/scrubbed/gds001/"
 Entering Link 1 = /sw/contrib/gaussian/g16/A03/g16/l1.exe PID=     11776.
  
 Copyright (c) 1988,1990,1992,1993,1995,1998,2003,2009,2016,
            Gaussian, Inc.  All Rights Reserved.
  
 This is part of the Gaussian(R) 16 program.  It is based on
 the Gaussian(R) 09 system (copyright 2009, Gaussian, Inc.),
 the Gaussian(R) 03 system (copyright 2003, Gaussian, Inc.),
 the Gaussian(R) 98 system (copyright 1998, Gaussian, Inc.),
 the Gaussian(R) 94 system (copyright 1995, Gaussian, Inc.),
 the Gaussian 92(TM) system (copyright 1992, Gaussian, Inc.),
 the Gaussian 90(TM) system (copyright 1990, Gaussian, Inc.),
 the Gaussian 88(TM) system (copyright 1988, Gaussian, Inc.),
 the Gaussian 86(TM) system (copyright 1986, Carnegie Mellon
 University), and the Gaussian 82(TM) system (copyright 1983,
 Carnegie Mellon University). Gaussian is a federally registered
 trademark of Gaussian, Inc.
  
 This software contains proprietary and confidential information,
 including trade secrets, belonging to Gaussian, Inc.
  
 This software is provided under written license and may be
 used, copied, transmitted, or stored only in accord with that
 written license.
  
 The following legend is applicable only to US Government
 contracts under FAR:
  
                    RESTRICTED RIGHTS LEGEND
  
 Use, reproduction and disclosure by the US Government is
 subject to restrictions as set forth in subparagraphs (a)
 and (c) of the Commercial Computer Software - Restricted
 Rights clause in FAR 52.227-19.
  
 Gaussian, Inc.
 340 Quinnipiac St., Bldg. 40, Wallingford CT 06492
  
  
 ---------------------------------------------------------------
 Warning -- This program may not be used in any manner that
 competes with the business of Gaussian, Inc. or will provide
 assistance to any competitor of Gaussian, Inc.  The licensee
 of this program is prohibited from giving any competitor of
 Gaussian, Inc. access to this program.  By using this program,
 the user acknowledges that Gaussian, Inc. is engaged in the
 business of creating and licensing software in the field of
 computational chemistry and represents and warrants to the
 licensee that it is not a competitor of Gaussian, Inc. and that
 it will not use this program in any manner prohibited above.
 ---------------------------------------------------------------
  

 Cite this work as:
 Gaussian 16, Revision A.03,
 M. J. Frisch, G. W. Trucks, H. B. Schlegel, G. E. Scuseria, 
 M. A. Robb, J. R. Cheeseman, G. Scalmani, V. Barone, 
 G. A. Petersson, H. Nakatsuji, X. Li, M. Caricato, A. V. Marenich, 
 J. Bloino, B. G. Janesko, R. Gomperts, B. Mennucci, H. P. Hratchian, 
 J. V. Ortiz, A. F. Izmaylov, J. L. Sonnenberg, D. Williams-Young, 
 F. Ding, F. Lipparini, F. Egidi, J. Goings, B. Peng, A. Petrone, 
 T. Henderson, D. Ranasinghe, V. G. Zakrzewski, J. Gao, N. Rega, 
 G. Zheng, W. Liang, M. Hada, M. Ehara, K. Toyota, R. Fukuda, 
 J. Hasegawa, M. Ishida, T. Nakajima, Y. Honda, O. Kitao, H. Nakai, 
 T. Vreven, K. Throssell, J. A. Montgomery, Jr., J. E. Peralta, 
 F. Ogliaro, M. J. Bearpark, J. J. Heyd, E. N. Brothers, K. N. Kudin, 
 V. N. Staroverov, T. A. Keith, R. Kobayashi, J. Normand, 
 K. Raghavachari, A. P. Rendell, J. C. Burant, S. S. Iyengar, 
 J. Tomasi, M. Cossi, J. M. Millam, M. Klene, C. Adamo, R. Cammi, 
 J. W. Ochterski, R. L. Martin, K. Morokuma, O. Farkas, 
 J. B. Foresman, and D. J. Fox, Gaussian, Inc., Wallingford CT, 2016.
 
 ******************************************
 Gaussian 16:  ES64L-G16RevA.03 25-Dec-2016
                11-Mar-2023 
 ******************************************
 %nprocshared=28
 Will use up to   28 processors via shared memory.
 %mem=41GB
 -----------------------------------------
 # wB97XD/aug-cc-pVDZ opt=(MaxStep=1) freq
 -----------------------------------------
 1/8=1,18=20,19=15,26=3,38=1/1,3;
 2/9=110,12=2,17=6,18=5,40=1/2;
 3/5=16,7=10,11=2,25=1,30=1,71=1,74=-58/1,2,3;
 4//1;
 5/5=2,38=5/2;
 6/7=2,8=2,9=2,10=2,28=1/1;
 7//1,2,3,16;
 1/8=1,18=20,19=15,26=3/3(2);
 2/9=110/2;
 99//99;
 2/9=110/2;
 3/5=16,7=10,11=2,25=1,30=1,71=1,74=-58/1,2,3;
 4/5=5,16=3,69=1/1;
 5/5=2,38=5/2;
 7//1,2,3,16;
 1/8=1,18=20,19=15,26=3/3(-5);
 2/9=110/2;
 6/7=2,8=2,9=2,10=2,19=2,28=1/1;
 99/9=1/99;
 ----
 blah
 ----
 Symbolic Z-matrix:
 Charge =  1 Multiplicity = 1
 N                    -1.04424   2.33443  -0.56137 
 C                    -0.7779    3.55476  -0.08335 
 C                     0.45158   3.87549   0.4764 
 C                     1.42607   2.88279   0.5608 
 C                     1.15902   1.60587   0.06959 
 C                    -0.09799   1.39593  -0.49611 
 C                     2.16778   0.48605   0.1388 
 C                     2.64295  -0.05228  -1.22452 
 C                     2.95078  -1.54678  -0.96803 
 C                     2.63278  -1.75335   0.51628 
 N                     1.63684  -0.71323   0.81384 
 C                     1.42249  -0.52284   2.24334 
 H                    -1.57799   4.29146  -0.1546 
 H                     0.63755   4.88065   0.84969 
 H                     2.39421   3.10264   1.01252 
 H                    -0.36012   0.42657  -0.92042 
 H                     3.04536   0.85301   0.70578 
 H                     1.85282   0.06353  -1.9754 
 H                     3.51335   0.50928  -1.57954 
 H                     2.30958  -2.18281  -1.58871 
 H                     3.9904   -1.80502  -1.19344 
 H                     2.22431  -2.74595   0.74105 
 H                     3.53501  -1.60276   1.13712 
 H                     2.35394  -0.22947   2.76058 
 H                     1.0576   -1.45733   2.68588 
 H                     0.66802   0.25588   2.40875 
 O                    -3.28417   1.21039  -1.2816 
 O                    -0.61276  -1.86444  -0.3301 
 O                    -3.00225  -1.11577  -0.50125 
 O                     0.41313  -4.44323  -0.6608 
 H                    -3.53731   1.3718   -2.19379 
 H                    -0.35126  -2.79039  -0.47728 
 H                    -3.57946  -1.33042   0.27405 
 H                     0.1482   -5.20154  -0.13319 
 H                     0.64152  -4.79873  -1.52412 
 H                    -2.46616   1.76505  -1.07277 
 H                    -3.12418  -0.13715  -0.84879 
 H                    -2.02332  -1.42095  -0.38114 
 H                     0.15821  -1.40785   0.10967 
 O                    -4.60046  -1.81713   1.49121 
 H                    -4.89063  -1.2547    2.2148 
 H                    -5.3297   -2.41622   1.30734 
 
 Add virtual bond connecting atoms H37        and O27        Dist= 2.69D+00.
 Add virtual bond connecting atoms H38        and O28        Dist= 2.80D+00.
 Add virtual bond connecting atoms H36        and N1         Dist= 3.05D+00.
 Add virtual bond connecting atoms O40        and H33        Dist= 3.14D+00.
 Add virtual bond connecting atoms H32        and O30        Dist= 3.46D+00.

 GradGradGradGradGradGradGradGradGradGradGradGradGradGradGradGradGradGrad
 Berny optimization.
 Initialization pass.
                           ----------------------------
                           !    Initial Parameters    !
                           ! (Angstroms and Degrees)  !
 --------------------------                            --------------------------
 ! Name  Definition              Value          Derivative Info.                !
 --------------------------------------------------------------------------------
 ! R1    R(1,2)                  1.3374         estimate D2E/DX2                !
 ! R2    R(1,6)                  1.3343         estimate D2E/DX2                !
 ! R3    R(1,36)                 1.6148         estimate D2E/DX2                !
 ! R4    R(2,3)                  1.3885         estimate D2E/DX2                !
 ! R5    R(2,13)                 1.0899         estimate D2E/DX2                !
 ! R6    R(3,4)                  1.3936         estimate D2E/DX2                !
 ! R7    R(3,14)                 1.0882         estimate D2E/DX2                !
 ! R8    R(4,5)                  1.394          estimate D2E/DX2                !
 ! R9    R(4,15)                 1.0907         estimate D2E/DX2                !
 ! R10   R(5,6)                  1.3943         estimate D2E/DX2                !
 ! R11   R(5,7)                  1.5088         estimate D2E/DX2                !
 ! R12   R(6,16)                 1.0901         estimate D2E/DX2                !
 ! R13   R(7,8)                  1.5409         estimate D2E/DX2                !
 ! R14   R(7,11)                 1.4751         estimate D2E/DX2                !
 ! R15   R(7,17)                 1.1074         estimate D2E/DX2                !
 ! R16   R(8,9)                  1.5473         estimate D2E/DX2                !
 ! R17   R(8,18)                 1.0961         estimate D2E/DX2                !
 ! R18   R(8,19)                 1.095          estimate D2E/DX2                !
 ! R19   R(9,10)                 1.532          estimate D2E/DX2                !
 ! R20   R(9,20)                 1.0959         estimate D2E/DX2                !
 ! R21   R(9,21)                 1.0947         estimate D2E/DX2                !
 ! R22   R(10,11)                1.4705         estimate D2E/DX2                !
 ! R23   R(10,22)                1.0966         estimate D2E/DX2                !
 ! R24   R(10,23)                1.1055         estimate D2E/DX2                !
 ! R25   R(11,12)                1.458          estimate D2E/DX2                !
 ! R26   R(12,24)                1.1051         estimate D2E/DX2                !
 ! R27   R(12,25)                1.0965         estimate D2E/DX2                !
 ! R28   R(12,26)                1.0968         estimate D2E/DX2                !
 ! R29   R(27,31)                0.9603         estimate D2E/DX2                !
 ! R30   R(27,36)                1.0101         estimate D2E/DX2                !
 ! R31   R(27,37)                1.4243         estimate D2E/DX2                !
 ! R32   R(28,32)                0.9734         estimate D2E/DX2                !
 ! R33   R(28,38)                1.4795         estimate D2E/DX2                !
 ! R34   R(28,39)                0.9981         estimate D2E/DX2                !
 ! R35   R(29,33)                0.9901         estimate D2E/DX2                !
 ! R36   R(29,37)                1.0456         estimate D2E/DX2                !
 ! R37   R(29,38)                1.0324         estimate D2E/DX2                !
 ! R38   R(30,32)                1.8303         estimate D2E/DX2                !
 ! R39   R(30,34)                0.961          estimate D2E/DX2                !
 ! R40   R(30,35)                0.9612         estimate D2E/DX2                !
 ! R41   R(33,40)                1.6616         estimate D2E/DX2                !
 ! R42   R(40,41)                0.9613         estimate D2E/DX2                !
 ! R43   R(40,42)                0.9615         estimate D2E/DX2                !
 ! A1    A(2,1,6)              118.886          estimate D2E/DX2                !
 ! A2    A(2,1,36)             127.6107         estimate D2E/DX2                !
 ! A3    A(6,1,36)             113.0754         estimate D2E/DX2                !
 ! A4    A(1,2,3)              122.0881         estimate D2E/DX2                !
 ! A5    A(1,2,13)             116.5634         estimate D2E/DX2                !
 ! A6    A(3,2,13)             121.3485         estimate D2E/DX2                !
 ! A7    A(2,3,4)              118.6235         estimate D2E/DX2                !
 ! A8    A(2,3,14)             120.1971         estimate D2E/DX2                !
 ! A9    A(4,3,14)             121.1754         estimate D2E/DX2                !
 ! A10   A(3,4,5)              119.8155         estimate D2E/DX2                !
 ! A11   A(3,4,15)             120.1433         estimate D2E/DX2                !
 ! A12   A(5,4,15)             120.0409         estimate D2E/DX2                !
 ! A13   A(4,5,6)              116.9747         estimate D2E/DX2                !
 ! A14   A(4,5,7)              122.3871         estimate D2E/DX2                !
 ! A15   A(6,5,7)              120.6381         estimate D2E/DX2                !
 ! A16   A(1,6,5)              123.5909         estimate D2E/DX2                !
 ! A17   A(1,6,16)             115.84           estimate D2E/DX2                !
 ! A18   A(5,6,16)             120.569          estimate D2E/DX2                !
 ! A19   A(5,7,8)              115.1444         estimate D2E/DX2                !
 ! A20   A(5,7,11)             112.5677         estimate D2E/DX2                !
 ! A21   A(5,7,17)             107.9024         estimate D2E/DX2                !
 ! A22   A(8,7,11)             103.4057         estimate D2E/DX2                !
 ! A23   A(8,7,17)             108.9291         estimate D2E/DX2                !
 ! A24   A(11,7,17)            108.6851         estimate D2E/DX2                !
 ! A25   A(7,8,9)              104.6041         estimate D2E/DX2                !
 ! A26   A(7,8,18)             110.297          estimate D2E/DX2                !
 ! A27   A(7,8,19)             110.6599         estimate D2E/DX2                !
 ! A28   A(9,8,18)             111.0398         estimate D2E/DX2                !
 ! A29   A(9,8,19)             113.0144         estimate D2E/DX2                !
 ! A30   A(18,8,19)            107.2592         estimate D2E/DX2                !
 ! A31   A(8,9,10)             104.4511         estimate D2E/DX2                !
 ! A32   A(8,9,20)             110.5053         estimate D2E/DX2                !
 ! A33   A(8,9,21)             112.499          estimate D2E/DX2                !
 ! A34   A(10,9,20)            110.4289         estimate D2E/DX2                !
 ! A35   A(10,9,21)            111.3977         estimate D2E/DX2                !
 ! A36   A(20,9,21)            107.5861         estimate D2E/DX2                !
 ! A37   A(9,10,11)            103.9618         estimate D2E/DX2                !
 ! A38   A(9,10,22)            113.4502         estimate D2E/DX2                !
 ! A39   A(9,10,23)            110.8751         estimate D2E/DX2                !
 ! A40   A(11,10,22)           110.2723         estimate D2E/DX2                !
 ! A41   A(11,10,23)           110.0454         estimate D2E/DX2                !
 ! A42   A(22,10,23)           108.1901         estimate D2E/DX2                !
 ! A43   A(7,11,10)            103.8098         estimate D2E/DX2                !
 ! A44   A(7,11,12)            113.2933         estimate D2E/DX2                !
 ! A45   A(10,11,12)           112.9763         estimate D2E/DX2                !
 ! A46   A(11,12,24)           111.6953         estimate D2E/DX2                !
 ! A47   A(11,12,25)           109.4727         estimate D2E/DX2                !
 ! A48   A(11,12,26)           109.9813         estimate D2E/DX2                !
 ! A49   A(24,12,25)           108.5326         estimate D2E/DX2                !
 ! A50   A(24,12,26)           108.7063         estimate D2E/DX2                !
 ! A51   A(25,12,26)           108.3799         estimate D2E/DX2                !
 ! A52   A(31,27,36)           108.5137         estimate D2E/DX2                !
 ! A53   A(31,27,37)           118.5069         estimate D2E/DX2                !
 ! A54   A(36,27,37)           111.4509         estimate D2E/DX2                !
 ! A55   A(32,28,38)           122.4166         estimate D2E/DX2                !
 ! A56   A(32,28,39)           107.114          estimate D2E/DX2                !
 ! A57   A(38,28,39)           127.9151         estimate D2E/DX2                !
 ! A58   A(33,29,37)           113.2766         estimate D2E/DX2                !
 ! A59   A(33,29,38)           113.4281         estimate D2E/DX2                !
 ! A60   A(37,29,38)           115.207          estimate D2E/DX2                !
 ! A61   A(32,30,34)           122.8457         estimate D2E/DX2                !
 ! A62   A(32,30,35)           121.5544         estimate D2E/DX2                !
 ! A63   A(34,30,35)           105.4724         estimate D2E/DX2                !
 ! A64   A(33,40,41)           124.4362         estimate D2E/DX2                !
 ! A65   A(33,40,42)           120.5614         estimate D2E/DX2                !
 ! A66   A(41,40,42)           106.2338         estimate D2E/DX2                !
 ! A67   L(28,32,30,9,-1)      171.5167         estimate D2E/DX2                !
 ! A68   L(29,33,40,12,-1)     183.5372         estimate D2E/DX2                !
 ! A69   L(1,36,27,28,-1)      167.1596         estimate D2E/DX2                !
 ! A70   L(27,37,29,4,-1)      179.0266         estimate D2E/DX2                !
 ! A71   L(28,38,29,1,-1)      179.9381         estimate D2E/DX2                !
 ! A72   L(28,32,30,9,-2)      175.8419         estimate D2E/DX2                !
 ! A73   L(29,33,40,12,-2)     184.4913         estimate D2E/DX2                !
 ! A74   L(1,36,27,28,-2)      175.6457         estimate D2E/DX2                !
 ! A75   L(27,37,29,4,-2)      178.4569         estimate D2E/DX2                !
 ! A76   L(28,38,29,1,-2)      175.2885         estimate D2E/DX2                !
 ! D1    D(6,1,2,3)              0.084          estimate D2E/DX2                !
 ! D2    D(6,1,2,13)          -179.9196         estimate D2E/DX2                !
 ! D3    D(36,1,2,3)           172.0195         estimate D2E/DX2                !
 ! D4    D(36,1,2,13)           -7.9841         estimate D2E/DX2                !
 ! D5    D(2,1,6,5)              1.2413         estimate D2E/DX2                !
 ! D6    D(2,1,6,16)          -178.6568         estimate D2E/DX2                !
 ! D7    D(36,1,6,5)          -171.8206         estimate D2E/DX2                !
 ! D8    D(36,1,6,16)            8.2813         estimate D2E/DX2                !
 ! D9    D(2,1,27,31)           86.8451         estimate D2E/DX2                !
 ! D10   D(2,1,27,37)         -142.9159         estimate D2E/DX2                !
 ! D11   D(6,1,27,31)         -104.6976         estimate D2E/DX2                !
 ! D12   D(6,1,27,37)           25.5414         estimate D2E/DX2                !
 ! D13   D(1,2,3,4)             -1.1496         estimate D2E/DX2                !
 ! D14   D(1,2,3,14)           179.5658         estimate D2E/DX2                !
 ! D15   D(13,2,3,4)           178.8542         estimate D2E/DX2                !
 ! D16   D(13,2,3,14)           -0.4304         estimate D2E/DX2                !
 ! D17   D(2,3,4,5)              0.9329         estimate D2E/DX2                !
 ! D18   D(2,3,4,15)          -178.8831         estimate D2E/DX2                !
 ! D19   D(14,3,4,5)          -179.7898         estimate D2E/DX2                !
 ! D20   D(14,3,4,15)            0.3942         estimate D2E/DX2                !
 ! D21   D(3,4,5,6)              0.2649         estimate D2E/DX2                !
 ! D22   D(3,4,5,7)           -179.6093         estimate D2E/DX2                !
 ! D23   D(15,4,5,6)          -179.9189         estimate D2E/DX2                !
 ! D24   D(15,4,5,7)             0.2069         estimate D2E/DX2                !
 ! D25   D(4,5,6,1)             -1.4033         estimate D2E/DX2                !
 ! D26   D(4,5,6,16)           178.4902         estimate D2E/DX2                !
 ! D27   D(7,5,6,1)            178.4733         estimate D2E/DX2                !
 ! D28   D(7,5,6,16)            -1.6333         estimate D2E/DX2                !
 ! D29   D(4,5,7,8)           -116.8415         estimate D2E/DX2                !
 ! D30   D(4,5,7,11)           124.9667         estimate D2E/DX2                !
 ! D31   D(4,5,7,17)             5.0436         estimate D2E/DX2                !
 ! D32   D(6,5,7,8)             63.2888         estimate D2E/DX2                !
 ! D33   D(6,5,7,11)           -54.903          estimate D2E/DX2                !
 ! D34   D(6,5,7,17)          -174.8262         estimate D2E/DX2                !
 ! D35   D(5,7,8,9)           -148.9371         estimate D2E/DX2                !
 ! D36   D(5,7,8,18)           -29.4694         estimate D2E/DX2                !
 ! D37   D(5,7,8,19)            89.0554         estimate D2E/DX2                !
 ! D38   D(11,7,8,9)           -25.7281         estimate D2E/DX2                !
 ! D39   D(11,7,8,18)           93.7395         estimate D2E/DX2                !
 ! D40   D(11,7,8,19)         -147.7357         estimate D2E/DX2                !
 ! D41   D(17,7,8,9)            89.7334         estimate D2E/DX2                !
 ! D42   D(17,7,8,18)         -150.7989         estimate D2E/DX2                !
 ! D43   D(17,7,8,19)          -32.2742         estimate D2E/DX2                !
 ! D44   D(5,7,11,10)          167.9386         estimate D2E/DX2                !
 ! D45   D(5,7,11,12)          -69.1414         estimate D2E/DX2                !
 ! D46   D(8,7,11,10)           43.0434         estimate D2E/DX2                !
 ! D47   D(8,7,11,12)          165.9634         estimate D2E/DX2                !
 ! D48   D(17,7,11,10)         -72.5919         estimate D2E/DX2                !
 ! D49   D(17,7,11,12)          50.328          estimate D2E/DX2                !
 ! D50   D(7,8,9,10)            -0.0733         estimate D2E/DX2                !
 ! D51   D(7,8,9,20)           118.6913         estimate D2E/DX2                !
 ! D52   D(7,8,9,21)          -121.04           estimate D2E/DX2                !
 ! D53   D(18,8,9,10)         -119.0399         estimate D2E/DX2                !
 ! D54   D(18,8,9,20)           -0.2753         estimate D2E/DX2                !
 ! D55   D(18,8,9,21)          119.9934         estimate D2E/DX2                !
 ! D56   D(19,8,9,10)          120.3781         estimate D2E/DX2                !
 ! D57   D(19,8,9,20)         -120.8573         estimate D2E/DX2                !
 ! D58   D(19,8,9,21)           -0.5886         estimate D2E/DX2                !
 ! D59   D(8,9,10,11)           26.003          estimate D2E/DX2                !
 ! D60   D(8,9,10,22)          145.806          estimate D2E/DX2                !
 ! D61   D(8,9,10,23)          -92.2149         estimate D2E/DX2                !
 ! D62   D(20,9,10,11)         -92.8135         estimate D2E/DX2                !
 ! D63   D(20,9,10,22)          26.9895         estimate D2E/DX2                !
 ! D64   D(20,9,10,23)         148.9686         estimate D2E/DX2                !
 ! D65   D(21,9,10,11)         147.6988         estimate D2E/DX2                !
 ! D66   D(21,9,10,22)         -92.4982         estimate D2E/DX2                !
 ! D67   D(21,9,10,23)          29.4808         estimate D2E/DX2                !
 ! D68   D(9,10,11,7)          -43.3473         estimate D2E/DX2                !
 ! D69   D(9,10,11,12)        -166.4757         estimate D2E/DX2                !
 ! D70   D(22,10,11,7)        -165.2836         estimate D2E/DX2                !
 ! D71   D(22,10,11,12)         71.588          estimate D2E/DX2                !
 ! D72   D(23,10,11,7)          75.4407         estimate D2E/DX2                !
 ! D73   D(23,10,11,12)        -47.6877         estimate D2E/DX2                !
 ! D74   D(7,11,12,24)         -58.0818         estimate D2E/DX2                !
 ! D75   D(7,11,12,25)        -178.3138         estimate D2E/DX2                !
 ! D76   D(7,11,12,26)          62.711          estimate D2E/DX2                !
 ! D77   D(10,11,12,24)         59.6164         estimate D2E/DX2                !
 ! D78   D(10,11,12,25)        -60.6156         estimate D2E/DX2                !
 ! D79   D(10,11,12,26)       -179.5908         estimate D2E/DX2                !
 ! D80   D(31,27,29,33)       -122.9885         estimate D2E/DX2                !
 ! D81   D(31,27,29,38)        104.9021         estimate D2E/DX2                !
 ! D82   D(36,27,29,33)        109.7379         estimate D2E/DX2                !
 ! D83   D(36,27,29,38)        -22.3716         estimate D2E/DX2                !
 ! D84   D(32,28,29,33)         77.7103         estimate D2E/DX2                !
 ! D85   D(32,28,29,37)       -147.6574         estimate D2E/DX2                !
 ! D86   D(39,28,29,33)        -84.2261         estimate D2E/DX2                !
 ! D87   D(39,28,29,37)         50.4062         estimate D2E/DX2                !
 ! D88   D(38,28,30,34)        -56.5283         estimate D2E/DX2                !
 ! D89   D(38,28,30,35)         87.711          estimate D2E/DX2                !
 ! D90   D(39,28,30,34)        106.076          estimate D2E/DX2                !
 ! D91   D(39,28,30,35)       -109.6846         estimate D2E/DX2                !
 ! D92   D(37,29,40,41)        -36.3231         estimate D2E/DX2                !
 ! D93   D(37,29,40,42)        106.5802         estimate D2E/DX2                !
 ! D94   D(38,29,40,41)        100.2176         estimate D2E/DX2                !
 ! D95   D(38,29,40,42)       -116.8791         estimate D2E/DX2                !
 --------------------------------------------------------------------------------
 Trust Radius=1.00D-02 FncErr=1.00D-07 GrdErr=1.00D-06 EigMax=2.50D+02 EigMin=1.00D-04
 Number of steps in this run=    224 maximum allowed number of steps=    252.
 GradGradGradGradGradGradGradGradGradGradGradGradGradGradGradGradGradGrad

                          Input orientation:                          
 ---------------------------------------------------------------------
 Center     Atomic      Atomic             Coordinates (Angstroms)
 Number     Number       Type             X           Y           Z
 ---------------------------------------------------------------------
      1          7           0       -1.044244    2.334425   -0.561368
      2          6           0       -0.777897    3.554759   -0.083349
      3          6           0        0.451578    3.875493    0.476397
      4          6           0        1.426065    2.882790    0.560804
      5          6           0        1.159022    1.605867    0.069587
      6          6           0       -0.097989    1.395927   -0.496113
      7          6           0        2.167782    0.486054    0.138803
      8          6           0        2.642952   -0.052282   -1.224517
      9          6           0        2.950783   -1.546779   -0.968025
     10          6           0        2.632776   -1.753351    0.516277
     11          7           0        1.636840   -0.713234    0.813837
     12          6           0        1.422490   -0.522844    2.243338
     13          1           0       -1.577993    4.291462   -0.154601
     14          1           0        0.637547    4.880645    0.849692
     15          1           0        2.394213    3.102641    1.012521
     16          1           0       -0.360124    0.426574   -0.920418
     17          1           0        3.045363    0.853013    0.705780
     18          1           0        1.852819    0.063534   -1.975396
     19          1           0        3.513348    0.509284   -1.579538
     20          1           0        2.309581   -2.182809   -1.588709
     21          1           0        3.990403   -1.805018   -1.193436
     22          1           0        2.224310   -2.745948    0.741051
     23          1           0        3.535011   -1.602762    1.137116
     24          1           0        2.353937   -0.229467    2.760583
     25          1           0        1.057602   -1.457328    2.685879
     26          1           0        0.668017    0.255883    2.408751
     27          8           0       -3.284167    1.210386   -1.281601
     28          8           0       -0.612758   -1.864438   -0.330096
     29          8           0       -3.002246   -1.115774   -0.501252
     30          8           0        0.413131   -4.443234   -0.660803
     31          1           0       -3.537305    1.371803   -2.193790
     32          1           0       -0.351260   -2.790391   -0.477276
     33          1           0       -3.579458   -1.330422    0.274047
     34          1           0        0.148195   -5.201542   -0.133193
     35          1           0        0.641522   -4.798731   -1.524116
     36          1           0       -2.466162    1.765047   -1.072774
     37          1           0       -3.124182   -0.137147   -0.848789
     38          1           0       -2.023315   -1.420945   -0.381144
     39          1           0        0.158211   -1.407847    0.109665
     40          8           0       -4.600458   -1.817132    1.491211
     41          1           0       -4.890626   -1.254695    2.214798
     42          1           0       -5.329701   -2.416224    1.307335
 ---------------------------------------------------------------------
                    Distance matrix (angstroms):
                    1          2          3          4          5
     1  N    0.000000
     2  C    1.337407   0.000000
     3  C    2.385232   1.388450   0.000000
     4  C    2.768104   2.392472   1.393631   0.000000
     5  C    2.404846   2.751949   2.411882   1.393965   0.000000
     6  C    1.334330   2.300697   2.719567   2.377094   1.394334
     7  C    3.771449   4.259498   3.814135   2.544125   1.508764
     8  C    4.442021   5.100511   4.808601   3.644562   2.574143
     9  C    5.584743   6.380548   6.142753   4.927795   3.771767
    10  C    5.602830   6.337845   6.036812   4.790818   3.695379
    11  N    4.285747   4.985144   4.751329   3.611072   2.482025
    12  C    4.702674   5.184788   4.838400   3.798589   3.053853
    13  H    2.068899   1.089937   2.165721   3.394190   3.841085
    14  H    3.361956   2.152213   1.088239   2.167174   3.406563
    15  H    3.858791   3.386388   2.158370   1.090731   2.157581
    16  H    2.058357   3.265082   3.808542   3.378977   2.163018
    17  H    4.530467   4.747575   3.989451   2.600604   2.128336
    18  H    3.943272   4.763314   4.744027   3.816102   2.653696
    19  H    5.013926   5.470675   4.993262   3.817243   3.076517
    20  H    5.719176   6.687175   6.664823   5.573267   4.292761
    21  H    6.548448   7.259214   6.897813   5.623943   4.609347
    22  H    6.179800   7.027929   6.859745   5.687915   4.530342
    23  H    6.273425   6.833062   6.321027   4.989987   4.132825
    24  H    5.399679   5.675976   5.068251   3.922514   3.469544
    25  H    5.416619   6.013210   5.804141   4.846476   4.029694
    26  H    4.009212   4.379933   4.108822   3.300028   2.745038
    27  O    2.607576   3.635008   4.914178   5.327070   4.660906
    28  O    4.227306   5.427324   5.893221   5.242774   3.916882
    29  O    3.967526   5.190014   6.147963   6.060232   5.004931
    30  O    6.933289   8.106781   8.396185   7.495931   6.138521
    31  H    3.131580   4.102876   5.413829   5.874173   5.218539
    32  H    5.172140   6.371666   6.781449   6.035021   4.680502
    33  H    4.533909   5.642825   6.587241   6.548942   5.578243
    34  H    7.641730   8.805279   9.102538   8.214074   6.885035
    35  H    7.392605   8.594845   8.903948   7.998010   6.620164
    36  H    1.614800   2.651843   3.920092   4.366619   3.804246
    37  H    3.243057   4.440847   5.535653   5.640188   4.714589
    38  H    3.885082   5.137838   5.908699   5.595322   4.414977
    39  H    3.987579   5.053812   5.304172   4.496726   3.175799
    40  O    5.839106   6.778527   7.678470   7.698955   6.849054
    41  H    5.948406   6.732523   7.607891   7.730140   7.027303
    42  H    6.665273   7.635808   8.584832   8.618424   7.733871
                    6          7          8          9         10
     6  C    0.000000
     7  C    2.522837   0.000000
     8  C    3.184437   1.540855   0.000000
     9  C    4.263476   2.443475   1.547278   0.000000
    10  C    4.289518   2.318111   2.433948   1.531977   0.000000
    11  N    3.028888   1.475080   2.367278   2.365645   1.470467
    12  C    3.673980   2.449980   3.706342   3.700942   2.441655
    13  H    3.269735   5.347714   6.150545   7.433474   7.397325
    14  H    3.807291   4.707379   5.714697   7.068729   6.935561
    15  H    3.376377   2.767884   3.875532   5.084234   4.887108
    16  H    1.090135   2.741495   3.056181   3.854672   3.971601
    17  H    3.408807   1.107371   2.169687   2.927383   2.645614
    18  H    2.787329   2.178890   1.096149   2.193953   3.180855
    19  H    3.873203   2.182609   1.094982   2.217616   3.207392
    20  H    4.449439   3.182332   2.186988   1.095866   2.172523
    21  H    5.239013   3.216492   2.211035   1.094672   2.183790
    22  H    4.907013   3.288120   3.360737   2.210590   1.096639
    23  H    4.985806   2.688698   2.962612   2.185423   1.105507
    24  H    4.388612   2.724033   3.999493   3.999257   2.727065
    25  H    4.427361   3.390697   4.447323   4.116206   2.697402
    26  H    3.213207   2.730373   4.146802   4.456818   3.388031
    27  O    3.286814   5.680313   6.060390   6.824580   6.857574
    28  O    3.304925   3.670978   3.831912   3.634100   3.355917
    29  O    3.839711   5.450203   5.789852   5.986835   5.761540
    30  O    5.863801   5.293019   4.956847   3.863097   3.680735
    31  H    3.835568   6.226842   6.415846   7.219135   7.428388
    32  H    4.194015   4.178543   4.125641   3.562428   3.311657
    33  H    4.488513   6.028984   6.526693   6.650835   6.231324
    34  H    6.612028   6.041644   5.824919   4.680677   4.299416
    35  H    6.322773   5.746627   5.159870   4.027048   4.171647
    36  H    2.465163   4.957538   5.424828   6.349997   6.395575
    37  H    3.410651   5.419280   5.779983   6.237506   6.133358
    38  H    3.413922   4.633820   4.935440   5.010181   4.753424
    39  H    2.879888   2.761537   3.129143   2.996527   2.531438
    40  O    5.877536   7.276177   7.934536   7.946205   7.298920
    41  H    6.110990   7.560495   8.368362   8.467784   7.728856
    42  H    6.719801   8.124096   8.692623   8.631316   8.029085
                   11         12         13         14         15
    11  N    0.000000
    12  C    1.457967   0.000000
    13  H    6.026608   6.158778   0.000000
    14  H    5.682548   5.635253   2.502870   0.000000
    15  H    3.895381   3.950101   4.307423   2.504733   0.000000
    16  H    2.880047   3.753460   4.123959   4.895650   4.299298
    17  H    2.109204   2.625030   5.825685   4.694689   2.361972
    18  H    2.903418   4.280974   5.741179   5.715117   4.296153
    19  H    3.277816   4.477874   6.500544   5.768898   3.833632
    20  H    2.895593   4.269309   7.686747   7.657276   5.891480
    21  H    3.280304   4.477674   8.321856   7.753329   5.612414
    22  H    2.117155   2.800352   8.048903   7.790670   5.857351
    23  H    2.121043   2.617765   7.909059   7.107213   4.843321
    24  H    2.130277   1.105082   6.663120   5.719331   3.763016
    25  H    2.096124   1.096470   6.932768   6.611954   5.037854
    26  H    2.102750   1.096817   5.282162   4.880575   3.610158
    27  O    5.683967   6.130408   3.697863   5.778672   6.409963
    28  O    2.773904   3.544668   6.233585   6.960697   5.959561
    29  O    4.838659   5.240480   5.602398   7.143541   7.014863
    30  O    4.193439   4.982198   8.973056   9.448104   7.979031
    31  H    6.337584   6.919347   4.064678   6.245330   6.961260
    32  H    3.151840   3.961022   7.194556   7.847508   6.669703
    33  H    5.280346   5.435970   5.982907   7.529399   7.475436
    34  H    4.822638   5.400180   9.648695  10.141796   8.678520
    35  H    4.811234   5.752115   9.456925   9.966208   8.481635
    36  H    5.151291   5.599344   2.831017   4.799566   5.455351
    37  H    5.075779   5.512009   4.741854   6.497206   6.664337
    38  H    3.914789   4.423580   5.734215   6.950193   6.474541
    39  H    1.778957   2.633285   5.963754   6.350003   5.114622
    40  O    6.370346   6.206189   7.011342   8.526926   8.564971
    41  H    6.698036   6.355459   6.880948   8.370580   8.573256
    42  H    7.188631   7.074820   7.823402   9.437255   9.497559
                   16         17         18         19         20
    16  H    0.000000
    17  H    3.797856   0.000000
    18  H    2.478284   3.038773   0.000000
    19  H    3.930021   2.357931   1.764300   0.000000
    20  H    3.792468   3.875857   2.324697   2.948984   0.000000
    21  H    4.897104   3.400772   2.944862   2.394295   1.767521
    22  H    4.416410   3.691598   3.925593   4.200391   2.398370
    23  H    4.850127   2.540991   3.910760   3.441136   3.044381
    24  H    4.620204   2.423231   4.771422   4.552652   4.768003
    25  H    4.308644   3.634510   4.967180   5.300192   4.512857
    26  H    3.488492   2.984702   4.545492   4.905769   4.962019
    27  O    3.048744   6.643820   5.308978   6.840067   6.549664
    28  O    2.379294   4.673267   3.535980   4.921424   3.197739
    29  O    3.087936   6.473533   5.209177   6.801212   5.525996
    30  O    4.937647   6.070126   4.910378   5.914631   3.093065
    31  H    3.550974   7.211669   5.550919   7.129723   6.869313
    32  H    3.247355   5.119674   3.904768   5.199811   2.946950
    33  H    3.857187   6.988708   6.042577   7.558319   6.235159
    34  H    5.705594   6.764251   5.832708   6.784519   3.987840
    35  H    5.354583   6.533996   5.031154   6.035352   3.103166
    36  H    2.500024   5.862761   4.729003   6.130929   6.217675
    37  H    2.821866   6.438974   5.106864   6.708850   5.853033
    38  H    2.543688   5.660723   4.446317   5.984695   4.562087
    39  H    2.166759   3.715170   3.063354   4.217315   2.848409
    40  O    5.369414   8.136655   7.563006   8.981957   7.574184
    41  H    5.760355   8.348622   8.047950   9.388045   8.195794
    42  H    6.143377   9.010631   8.277325   9.751520   8.173138
                   21         22         23         24         25
    21  H    0.000000
    22  H    2.783285   0.000000
    23  H    2.383225   1.783726   0.000000
    24  H    4.560115   3.229240   2.432390   0.000000
    25  H    4.875581   2.608468   2.925299   1.787095   0.000000
    26  H    5.316137   3.770180   3.645720   1.789323   1.778670
    27  O    7.875265   7.077218   7.763065   7.085241   6.458216
    28  O    4.683800   3.158064   4.407400   4.585489   3.471591
    29  O    7.060546   5.614060   6.757006   6.333546   5.172700
    30  O    4.476690   2.850674   4.587693   5.764412   4.531143
    31  H    8.231603   7.665858   8.364247   7.862354   7.275185
    32  H    4.509311   2.849536   4.372622   4.935601   3.710458
    33  H    7.725383   5.992122   7.171801   6.526878   5.228323
    34  H    5.236702   3.332341   5.102492   6.161231   4.774236
    35  H    4.504073   3.442400   5.066424   6.493780   5.390933
    36  H    7.378832   6.755706   7.227713   6.473490   6.076848
    37  H    7.315593   6.159529   7.101880   6.560936   5.632413
    38  H    6.080472   4.588820   5.764821   5.518188   4.347413
    39  H    4.067126   2.541245   3.535028   3.638291   2.729145
    40  O    9.000576   6.928412   8.145992   7.245384   5.793991
    41  H    9.528462   7.417417   8.501406   7.337075   5.970293
    42  H    9.669114   7.582379   8.903584   8.119860   6.604355
                   26         27         28         29         30
    26  H    0.000000
    27  O    5.490859   0.000000
    28  O    3.692889   4.182862   0.000000
    29  O    4.880614   2.469705   2.509870   0.000000
    30  O    5.618615   6.783717   2.794996   4.770980   0.000000
    31  H    6.333514   0.960324   4.743373   3.055980   7.195182
    32  H    4.318317   5.025445   0.973361   3.135705   1.830264
    33  H    5.011424   2.993817   3.074324   0.990119   5.148234
    34  H    6.042779   7.362932   3.428423   5.172451   0.961038
    35  H    6.404472   7.181875   3.407195   5.280859   0.961171
    36  H    4.921552   1.010143   4.142444   2.985490   6.855859
    37  H    5.014660   1.424348   3.091897   1.045639   5.575868
    38  H    4.223569   3.053600   1.479514   1.032406   3.892134
    39  H    2.883348   4.543207   0.998127   3.232184   3.142002
    40  O    5.735512   4.311261   4.384193   2.648791   6.055052
    41  H    5.763504   4.569698   5.014821   3.310922   6.823907
    42  H    6.657769   4.902968   5.023465   3.221677   6.400192
                   31         32         33         34         35
    31  H    0.000000
    32  H    5.515538   0.000000
    33  H    3.659784   3.621776   0.000000
    34  H    7.812671   2.486262   5.389509   0.000000
    35  H    7.482416   2.472836   5.751455   1.529802   0.000000
    36  H    1.599583   5.057612   3.554614   7.500069   7.276303
    37  H    2.063160   3.855752   1.700571   6.071954   6.030502
    38  H    3.657498   2.163421   1.690873   4.366904   4.451649
    39  H    5.166159   1.586029   3.742083   3.801474   3.794855
    40  O    4.987869   4.783080   1.661570   6.053315   6.742439
    41  H    5.307129   5.496496   2.343376   6.817652   7.559387
    42  H    5.460742   5.301859   2.304344   6.311930   7.024881
                   36         37         38         39         40
    36  H    0.000000
    37  H    2.025216   0.000000
    38  H    3.290138   1.754633   0.000000
    39  H    4.284011   3.647933   2.236095   0.000000
    40  O    4.895022   3.236872   3.210038   4.972033   0.000000
    41  H    5.079862   3.708747   3.871437   5.472275   0.961307
    42  H    5.598911   3.835020   3.843661   5.706874   0.961518
                   41         42
    41  H    0.000000
    42  H    1.537994   0.000000
 Stoichiometry    C10H25N2O5(1+)
 Framework group  C1[X(C10H25N2O5)]
 Deg. of freedom   120
 Full point group                 C1      NOp   1
 Largest Abelian subgroup         C1      NOp   1
 Largest concise Abelian subgroup C1      NOp   1
                         Standard orientation:                         
 ---------------------------------------------------------------------
 Center     Atomic      Atomic             Coordinates (Angstroms)
 Number     Number       Type             X           Y           Z
 ---------------------------------------------------------------------
      1          7           0       -0.841124    2.463053   -0.568223
      2          6           0       -0.468275    3.656299   -0.093032
      3          6           0        0.786644    3.870122    0.461273
      4          6           0        1.671991    2.796966    0.543153
      5          6           0        1.293501    1.547389    0.054848
      6          6           0        0.020704    1.446320   -0.505457
      7          6           0        2.201939    0.344619    0.121581
      8          6           0        2.623112   -0.234253   -1.242880
      9          6           0        2.801634   -1.749494   -0.985500
     10          6           0        2.473130   -1.926199    0.500372
     11          7           0        1.572101   -0.803541    0.800473
     12          6           0        1.380960   -0.593794    2.230557
     13          1           0       -1.201966    4.459349   -0.162098
     14          1           0        1.060375    4.855829    0.832374
     15          1           0        2.657392    2.932764    0.990632
     16          1           0       -0.326024    0.502808   -0.927311
     17          1           0        3.110311    0.634929    0.684475
     18          1           0        1.842837   -0.051356   -1.990719
     19          1           0        3.537320    0.249566   -1.602225
     20          1           0        2.105265   -2.328364   -1.602672
     21          1           0        3.814086   -2.096902   -1.214748
     22          1           0        1.981308   -2.879517    0.728217
     23          1           0        3.387579   -1.853522    1.117337
     24          1           0        2.336427   -0.381501    2.743606
     25          1           0        0.938482   -1.492750    2.675907
     26          1           0        0.697338    0.247432    2.397909
     27          8           0       -3.172821    1.536134   -1.277774
     28          8           0       -0.773345   -1.757142   -0.332695
     29          8           0       -3.089843   -0.804851   -0.495247
     30          8           0        0.024346   -4.415341   -0.663865
     31          1           0       -3.414845    1.717855   -2.189160
     32          1           0       -0.593502   -2.702396   -0.479608
     33          1           0       -3.680225   -0.967950    0.282689
     34          1           0       -0.302968   -5.147332   -0.134102
     35          1           0        0.217554   -4.790182   -1.527586
     36          1           0       -2.309061    2.018210   -1.073053
     37          1           0       -3.128150    0.180281   -0.843686
     38          1           0       -2.140474   -1.193396   -0.378666
     39          1           0        0.036037   -1.368454    0.103287
     40          8           0       -4.734415   -1.363245    1.504671
     41          1           0       -4.971856   -0.777046    2.228622
     42          1           0       -5.513485   -1.897233    1.324606
 ---------------------------------------------------------------------
 Rotational constants (GHZ):           0.3367541           0.3273860           0.1975881
 Standard basis: Aug-CC-pVDZ (5D, 7F)
 There are   650 symmetry adapted cartesian basis functions of A   symmetry.
 There are   616 symmetry adapted basis functions of A   symmetry.
   616 basis functions,  1006 primitive gaussians,   650 cartesian basis functions
    69 alpha electrons       69 beta electrons
       nuclear repulsion energy      1366.8589179601 Hartrees.
 NAtoms=   42 NActive=   42 NUniq=   42 SFac= 1.00D+00 NAtFMM=   60 NAOKFM=F Big=F
 Integral buffers will be    131072 words long.
 Raffenetti 2 integral format.
 Two-electron integral symmetry is turned on.
 Nuclear repulsion after empirical dispersion term =     1366.8272485857 Hartrees.
 One-electron integrals computed using PRISM.
 NBasis=   616 RedAO= T EigKep=  1.87D-06  NBF=   616
 NBsUse=   616 1.00D-06 EigRej= -1.00D+00 NBFU=   616
 ExpMin= 2.97D-02 ExpMax= 1.17D+04 ExpMxC= 4.01D+02 IAcc=3 IRadAn=         5 AccDes= 0.00D+00
 Harris functional with IExCor= 4639 and IRadAn=       5 diagonalized for initial guess.
 HarFok:  IExCor= 4639 AccDes= 0.00D+00 IRadAn=         5 IDoV= 1 UseB2=F ITyADJ=14
 ICtDFT=  3500011 ScaDFX=  1.000000  1.000000  1.000000  1.000000
 FoFCou: FMM=F IPFlag=           0 FMFlag=      100000 FMFlg1=           0
         NFxFlg=           0 DoJE=T BraDBF=F KetDBF=T FulRan=T
         wScrn=  0.000000 ICntrl=       500 IOpCl=  0 I1Cent=   200000004 NGrid=           0
         NMat0=    1 NMatS0=      1 NMatT0=    0 NMatD0=    1 NMtDS0=    0 NMtDT0=    0
 Petite list used in FoFCou.
 Requested convergence on RMS density matrix=1.00D-08 within 128 cycles.
 Requested convergence on MAX density matrix=1.00D-06.
 Requested convergence on             energy=1.00D-06.
 No special actions if energy rises.
 SCF Done:  E(RwB97XD) =  -881.458590034     A.U. after   16 cycles
            NFock= 16  Conv=0.13D-08     -V/T= 2.0062

 **********************************************************************

            Population analysis using the SCF density.

 **********************************************************************

 Orbital symmetries:
       Occupied  (A) (A) (A) (A) (A) (A) (A) (A) (A) (A) (A) (A)
                 (A) (A) (A) (A) (A) (A) (A) (A) (A) (A) (A) (A)
                 (A) (A) (A) (A) (A) (A) (A) (A) (A) (A) (A) (A)
                 (A) (A) (A) (A) (A) (A) (A) (A) (A) (A) (A) (A)
                 (A) (A) (A) (A) (A) (A) (A) (A) (A) (A) (A) (A)
                 (A) (A) (A) (A) (A) (A) (A) (A) (A)
       Virtual   (A) (A) (A) (A) (A) (A) (A) (A) (A) (A) (A) (A)
                 (A) (A) (A) (A) (A) (A) (A) (A) (A) (A) (A) (A)
                 (A) (A) (A) (A) (A) (A) (A) (A) (A) (A) (A) (A)
                 (A) (A) (A) (A) (A) (A) (A) (A) (A) (A) (A) (A)
                 (A) (A) (A) (A) (A) (A) (A) (A) (A) (A) (A) (A)
                 (A) (A) (A) (A) (A) (A) (A) (A) (A) (A) (A) (A)
                 (A) (A) (A) (A) (A) (A) (A) (A) (A) (A) (A) (A)
                 (A) (A) (A) (A) (A) (A) (A) (A) (A) (A) (A) (A)
                 (A) (A) (A) (A) (A) (A) (A) (A) (A) (A) (A) (A)
                 (A) (A) (A) (A) (A) (A) (A) (A) (A) (A) (A) (A)
                 (A) (A) (A) (A) (A) (A) (A) (A) (A) (A) (A) (A)
                 (A) (A) (A) (A) (A) (A) (A) (A) (A) (A) (A) (A)
                 (A) (A) (A) (A) (A) (A) (A) (A) (A) (A) (A) (A)
                 (A) (A) (A) (A) (A) (A) (A) (A) (A) (A) (A) (A)
                 (A) (A) (A) (A) (A) (A) (A) (A) (A) (A) (A) (A)
                 (A) (A) (A) (A) (A) (A) (A) (A) (A) (A) (A) (A)
                 (A) (A) (A) (A) (A) (A) (A) (A) (A) (A) (A) (A)
                 (A) (A) (A) (A) (A) (A) (A) (A) (A) (A) (A) (A)
                 (A) (A) (A) (A) (A) (A) (A) (A) (A) (A) (A) (A)
                 (A) (A) (A) (A) (A) (A) (A) (A) (A) (A) (A) (A)
                 (A) (A) (A) (A) (A) (A) (A) (A) (A) (A) (A) (A)
                 (A) (A) (A) (A) (A) (A) (A) (A) (A) (A) (A) (A)
                 (A) (A) (A) (A) (A) (A) (A) (A) (A) (A) (A) (A)
                 (A) (A) (A) (A) (A) (A) (A) (A) (A) (A) (A) (A)
                 (A) (A) (A) (A) (A) (A) (A) (A) (A) (A) (A) (A)
                 (A) (A) (A) (A) (A) (A) (A) (A) (A) (A) (A) (A)
                 (A) (A) (A) (A) (A) (A) (A) (A) (A) (A) (A) (A)
                 (A) (A) (A) (A) (A) (A) (A) (A) (A) (A) (A) (A)
                 (A) (A) (A) (A) (A) (A) (A) (A) (A) (A) (A) (A)
                 (A) (A) (A) (A) (A) (A) (A) (A) (A) (A) (A) (A)
                 (A) (A) (A) (A) (A) (A) (A) (A) (A) (A) (A) (A)
                 (A) (A) (A) (A) (A) (A) (A) (A) (A) (A) (A) (A)
                 (A) (A) (A) (A) (A) (A) (A) (A) (A) (A) (A) (A)
                 (A) (A) (A) (A) (A) (A) (A) (A) (A) (A) (A) (A)
                 (A) (A) (A) (A) (A) (A) (A) (A) (A) (A) (A) (A)
                 (A) (A) (A) (A) (A) (A) (A) (A) (A) (A) (A) (A)
                 (A) (A) (A) (A) (A) (A) (A) (A) (A) (A) (A) (A)
                 (A) (A) (A) (A) (A) (A) (A) (A) (A) (A) (A) (A)
                 (A) (A) (A) (A) (A) (A) (A) (A) (A) (A) (A) (A)
                 (A) (A) (A) (A) (A) (A) (A) (A) (A) (A) (A) (A)
                 (A) (A) (A) (A) (A) (A) (A) (A) (A) (A) (A) (A)
                 (A) (A) (A) (A) (A) (A) (A) (A) (A) (A) (A) (A)
                 (A) (A) (A) (A) (A) (A) (A) (A) (A) (A) (A) (A)
                 (A) (A) (A) (A) (A) (A) (A) (A) (A) (A) (A) (A)
                 (A) (A) (A) (A) (A) (A) (A) (A) (A) (A) (A) (A)
                 (A) (A) (A) (A) (A) (A) (A)
 The electronic state is 1-A.
 Alpha  occ. eigenvalues --  -19.43780 -19.42471 -19.40798 -19.38997 -19.37916
 Alpha  occ. eigenvalues --  -14.57825 -14.56683 -10.45031 -10.44985 -10.44080
 Alpha  occ. eigenvalues --  -10.43093 -10.42787 -10.42066 -10.42027 -10.41918
 Alpha  occ. eigenvalues --  -10.39731 -10.39327  -1.29875  -1.26632  -1.25106
 Alpha  occ. eigenvalues --   -1.23380  -1.21980  -1.17403  -1.15693  -1.03170
 Alpha  occ. eigenvalues --   -0.99625  -0.98595  -0.92762  -0.87957  -0.84854
 Alpha  occ. eigenvalues --   -0.83776  -0.80027  -0.79627  -0.78246  -0.78084
 Alpha  occ. eigenvalues --   -0.77183  -0.75650  -0.75402  -0.73780  -0.71833
 Alpha  occ. eigenvalues --   -0.70074  -0.69006  -0.67830  -0.65203  -0.64550
 Alpha  occ. eigenvalues --   -0.64020  -0.63151  -0.62307  -0.62004  -0.61226
 Alpha  occ. eigenvalues --   -0.60385  -0.60094  -0.58719  -0.58248  -0.58082
 Alpha  occ. eigenvalues --   -0.57208  -0.55512  -0.55368  -0.54288  -0.53672
 Alpha  occ. eigenvalues --   -0.53616  -0.53310  -0.52472  -0.52071  -0.50791
 Alpha  occ. eigenvalues --   -0.48182  -0.47502  -0.44868  -0.43177
 Alpha virt. eigenvalues --   -0.08146  -0.06797  -0.06730  -0.05626  -0.04448
 Alpha virt. eigenvalues --   -0.04082  -0.03230  -0.02772  -0.02705  -0.02124
 Alpha virt. eigenvalues --   -0.01777  -0.01276  -0.00757  -0.00437  -0.00239
 Alpha virt. eigenvalues --    0.00074   0.00590   0.00718   0.00991   0.01559
 Alpha virt. eigenvalues --    0.01933   0.02554   0.02704   0.02897   0.03337
 Alpha virt. eigenvalues --    0.03564   0.03810   0.04114   0.04874   0.05228
 Alpha virt. eigenvalues --    0.05359   0.05936   0.06158   0.06361   0.06619
 Alpha virt. eigenvalues --    0.06947   0.07017   0.07195   0.07442   0.07509
 Alpha virt. eigenvalues --    0.07694   0.08334   0.08528   0.08942   0.09149
 Alpha virt. eigenvalues --    0.09465   0.09549   0.09775   0.09972   0.10436
 Alpha virt. eigenvalues --    0.10585   0.11024   0.11109   0.11311   0.11752
 Alpha virt. eigenvalues --    0.12108   0.12237   0.12590   0.12730   0.12958
 Alpha virt. eigenvalues --    0.13216   0.13593   0.14064   0.14461   0.14762
 Alpha virt. eigenvalues --    0.14965   0.15152   0.15329   0.15765   0.16095
 Alpha virt. eigenvalues --    0.16350   0.16778   0.16884   0.17332   0.17476
 Alpha virt. eigenvalues --    0.17572   0.17863   0.18193   0.18453   0.18785
 Alpha virt. eigenvalues --    0.18926   0.19132   0.19549   0.19648   0.20228
 Alpha virt. eigenvalues --    0.20584   0.20691   0.20861   0.21148   0.21409
 Alpha virt. eigenvalues --    0.21659   0.22212   0.22442   0.22933   0.22992
 Alpha virt. eigenvalues --    0.23312   0.23499   0.23746   0.24199   0.24643
 Alpha virt. eigenvalues --    0.24811   0.25385   0.25785   0.26110   0.26324
 Alpha virt. eigenvalues --    0.26966   0.27270   0.27302   0.27743   0.28034
 Alpha virt. eigenvalues --    0.28192   0.28340   0.28963   0.29090   0.29317
 Alpha virt. eigenvalues --    0.29565   0.29785   0.30350   0.31087   0.31115
 Alpha virt. eigenvalues --    0.31461   0.31656   0.32301   0.32415   0.32553
 Alpha virt. eigenvalues --    0.33303   0.33457   0.33763   0.34175   0.34677
 Alpha virt. eigenvalues --    0.34896   0.35371   0.35760   0.36129   0.36531
 Alpha virt. eigenvalues --    0.36624   0.37440   0.37838   0.38310   0.38709
 Alpha virt. eigenvalues --    0.38858   0.39246   0.39595   0.40135   0.40373
 Alpha virt. eigenvalues --    0.40631   0.40998   0.41411   0.41907   0.42218
 Alpha virt. eigenvalues --    0.42842   0.43005   0.43098   0.43792   0.44108
 Alpha virt. eigenvalues --    0.44177   0.44357   0.44748   0.45555   0.45835
 Alpha virt. eigenvalues --    0.46189   0.46685   0.46843   0.47421   0.47695
 Alpha virt. eigenvalues --    0.48100   0.48335   0.49104   0.49464   0.49538
 Alpha virt. eigenvalues --    0.50012   0.50119   0.50745   0.51086   0.51278
 Alpha virt. eigenvalues --    0.51441   0.51705   0.52165   0.52327   0.53214
 Alpha virt. eigenvalues --    0.53643   0.53829   0.54279   0.54726   0.54929
 Alpha virt. eigenvalues --    0.55074   0.55543   0.55673   0.55825   0.56240
 Alpha virt. eigenvalues --    0.56760   0.57262   0.58075   0.58327   0.58726
 Alpha virt. eigenvalues --    0.59019   0.59430   0.59910   0.60154   0.60623
 Alpha virt. eigenvalues --    0.60963   0.61267   0.61751   0.62412   0.63034
 Alpha virt. eigenvalues --    0.63146   0.63529   0.63810   0.64312   0.64570
 Alpha virt. eigenvalues --    0.64901   0.65555   0.65893   0.66797   0.67298
 Alpha virt. eigenvalues --    0.67925   0.67993   0.68371   0.69350   0.69677
 Alpha virt. eigenvalues --    0.70106   0.70371   0.70759   0.71035   0.71519
 Alpha virt. eigenvalues --    0.71764   0.72238   0.72377   0.72813   0.73072
 Alpha virt. eigenvalues --    0.73977   0.74358   0.74988   0.75304   0.75665
 Alpha virt. eigenvalues --    0.76404   0.76438   0.77008   0.77295   0.77650
 Alpha virt. eigenvalues --    0.77982   0.78269   0.79058   0.79493   0.79841
 Alpha virt. eigenvalues --    0.80458   0.81146   0.81730   0.81911   0.83079
 Alpha virt. eigenvalues --    0.83226   0.83320   0.84040   0.84840   0.85812
 Alpha virt. eigenvalues --    0.86425   0.87044   0.87468   0.87943   0.88315
 Alpha virt. eigenvalues --    0.89390   0.89799   0.90909   0.91358   0.92034
 Alpha virt. eigenvalues --    0.92748   0.93012   0.93302   0.94327   0.94633
 Alpha virt. eigenvalues --    0.95078   0.95564   0.96515   0.96630   0.96933
 Alpha virt. eigenvalues --    0.98581   0.98829   0.99728   1.00305   1.00897
 Alpha virt. eigenvalues --    1.02402   1.03340   1.03574   1.04617   1.05263
 Alpha virt. eigenvalues --    1.05572   1.06153   1.06902   1.07894   1.08342
 Alpha virt. eigenvalues --    1.09236   1.10545   1.10675   1.11539   1.12329
 Alpha virt. eigenvalues --    1.12489   1.13435   1.14432   1.14783   1.15189
 Alpha virt. eigenvalues --    1.16018   1.16467   1.17377   1.17901   1.18394
 Alpha virt. eigenvalues --    1.19619   1.20029   1.20308   1.21765   1.22249
 Alpha virt. eigenvalues --    1.22875   1.23500   1.24481   1.25415   1.25987
 Alpha virt. eigenvalues --    1.26498   1.28292   1.28835   1.29997   1.30893
 Alpha virt. eigenvalues --    1.31459   1.32128   1.33710   1.33954   1.34682
 Alpha virt. eigenvalues --    1.34965   1.36000   1.36445   1.36851   1.38616
 Alpha virt. eigenvalues --    1.38992   1.39725   1.40739   1.41209   1.41491
 Alpha virt. eigenvalues --    1.43422   1.44086   1.44825   1.45754   1.46440
 Alpha virt. eigenvalues --    1.47178   1.47543   1.49847   1.50480   1.51066
 Alpha virt. eigenvalues --    1.51615   1.52470   1.53683   1.54651   1.55442
 Alpha virt. eigenvalues --    1.56117   1.57413   1.57974   1.58997   1.60445
 Alpha virt. eigenvalues --    1.61071   1.62229   1.62403   1.63244   1.64944
 Alpha virt. eigenvalues --    1.65953   1.66050   1.66748   1.68008   1.68009
 Alpha virt. eigenvalues --    1.68690   1.70018   1.70224   1.70670   1.71023
 Alpha virt. eigenvalues --    1.72068   1.72644   1.73004   1.73931   1.74031
 Alpha virt. eigenvalues --    1.74818   1.75175   1.76127   1.76456   1.76960
 Alpha virt. eigenvalues --    1.77344   1.78797   1.80188   1.81122   1.81557
 Alpha virt. eigenvalues --    1.82696   1.83079   1.84311   1.84839   1.85339
 Alpha virt. eigenvalues --    1.85952   1.86495   1.87649   1.87990   1.88386
 Alpha virt. eigenvalues --    1.89174   1.89603   1.89883   1.90530   1.90881
 Alpha virt. eigenvalues --    1.92016   1.92312   1.93066   1.95327   1.95665
 Alpha virt. eigenvalues --    1.96241   1.97131   1.97613   1.98436   1.99911
 Alpha virt. eigenvalues --    2.00480   2.01720   2.02472   2.02588   2.04046
 Alpha virt. eigenvalues --    2.04710   2.05715   2.06164   2.08078   2.08309
 Alpha virt. eigenvalues --    2.09911   2.10897   2.11744   2.12247   2.12838
 Alpha virt. eigenvalues --    2.13318   2.13889   2.14451   2.15422   2.16419
 Alpha virt. eigenvalues --    2.17796   2.18450   2.19303   2.20800   2.21287
 Alpha virt. eigenvalues --    2.21743   2.22424   2.23480   2.24320   2.24832
 Alpha virt. eigenvalues --    2.25367   2.26959   2.27595   2.28692   2.29824
 Alpha virt. eigenvalues --    2.30576   2.31007   2.31803   2.32557   2.33527
 Alpha virt. eigenvalues --    2.34468   2.36657   2.37805   2.39036   2.40118
 Alpha virt. eigenvalues --    2.41579   2.42824   2.43112   2.44838   2.45297
 Alpha virt. eigenvalues --    2.46668   2.47669   2.49260   2.50344   2.51447
 Alpha virt. eigenvalues --    2.52571   2.53837   2.54225   2.55014   2.55734
 Alpha virt. eigenvalues --    2.56695   2.57891   2.58258   2.59720   2.60812
 Alpha virt. eigenvalues --    2.61690   2.61935   2.63358   2.64352   2.64736
 Alpha virt. eigenvalues --    2.65330   2.66706   2.68490   2.69236   2.71259
 Alpha virt. eigenvalues --    2.71892   2.73124   2.74322   2.75212   2.75960
 Alpha virt. eigenvalues --    2.76712   2.79243   2.80406   2.81225   2.82859
 Alpha virt. eigenvalues --    2.84809   2.85992   2.86968   2.88421   2.89180
 Alpha virt. eigenvalues --    2.90535   2.92208   2.92538   2.93496   2.94855
 Alpha virt. eigenvalues --    2.96585   2.98142   3.03836   3.04674   3.06089
 Alpha virt. eigenvalues --    3.08951   3.12184   3.16058   3.19719   3.25413
 Alpha virt. eigenvalues --    3.27673   3.31202   3.32777   3.33567   3.35225
 Alpha virt. eigenvalues --    3.36292   3.37583   3.39045   3.40321   3.41743
 Alpha virt. eigenvalues --    3.44579   3.44968   3.47946   3.49763   3.51738
 Alpha virt. eigenvalues --    3.57356   3.61154   3.65689   3.67613   3.70050
 Alpha virt. eigenvalues --    3.72311   3.83640   3.88456   3.91164   3.96234
 Alpha virt. eigenvalues --    4.02783   4.03876   4.09912   4.13251   4.16864
 Alpha virt. eigenvalues --    4.36266   5.08410
          Condensed to atoms (all electrons):
               1          2          3          4          5          6
     1  N    8.195424   0.010808   0.256850  -0.388326  -0.371201  -0.775505
     2  C    0.010808   9.992207  -2.502282   1.653390  -1.302795  -0.838173
     3  C    0.256850  -2.502282  11.688297  -4.579571   0.980680  -0.381762
     4  C   -0.388326   1.653390  -4.579571  22.396999  -8.693697  -2.045899
     5  C   -0.371201  -1.302795   0.980680  -8.693697  23.989448  -3.337316
     6  C   -0.775505  -0.838173  -0.381762  -2.045899  -3.337316  16.217413
     7  C    0.881051  -0.952910   0.552798  -0.918187 -10.328103  -1.930272
     8  C    0.002517  -0.125887   0.012135  -0.223283   0.294288  -0.818118
     9  C    0.015643   0.006390  -0.012731  -0.021250   0.236054  -0.065128
    10  C    0.058735  -0.040767  -0.021178  -0.033075  -0.291244  -0.340502
    11  N   -0.092532   0.140092  -0.202595  -0.357840   2.198275   0.539630
    12  C   -0.040451   0.010027   0.048593  -0.227012   0.722538   0.107348
    13  H   -0.109264  -0.555518   0.131276   0.171584   0.035277   0.076477
    14  H   -0.054444   0.391508  -1.176996   0.674738  -0.154451  -0.010353
    15  H   -0.063125  -0.185365   0.680631  -2.477850   1.217545   0.207334
    16  H   -0.024798  -0.148340   0.117542  -0.241776  -0.917062  -0.942771
    17  H    0.011857   0.046284  -0.026352   0.011634   1.024254  -0.305813
    18  H    0.034516   0.003130  -0.017706   0.067338  -0.128799  -0.219130
    19  H   -0.020210   0.000920  -0.002532  -0.064419   0.485855   0.292840
    20  H    0.000895  -0.000873  -0.002381   0.004902  -0.053002  -0.012578
    21  H   -0.000829   0.001580  -0.000874   0.006249  -0.040635   0.013799
    22  H    0.005947  -0.002579  -0.000907   0.014855  -0.261169  -0.049520
    23  H   -0.002943  -0.001339   0.003002   0.021581   0.242602   0.034459
    24  H   -0.002669   0.015822  -0.024359   0.013008   0.151272   0.031366
    25  H   -0.002131  -0.002733   0.013724  -0.001172  -0.067754  -0.026086
    26  H    0.001689  -0.032145   0.051760  -0.052861   0.192431   0.018279
    27  O   -0.066888   0.038419  -0.019518   0.029070  -0.099927  -0.053037
    28  O    0.007664  -0.015413   0.009799  -0.021018  -0.013152  -0.100305
    29  O    0.006144   0.017837  -0.007590  -0.001221  -0.017871  -0.077648
    30  O    0.000089   0.000012   0.000037  -0.000261  -0.004165   0.000203
    31  H   -0.000385  -0.018214   0.007366  -0.003199   0.005972  -0.002532
    32  H   -0.001174   0.004749  -0.002599   0.009022  -0.008315   0.041871
    33  H   -0.001062   0.000234  -0.000340  -0.000990  -0.003158   0.013397
    34  H   -0.000081   0.000038  -0.000029  -0.000048   0.001384   0.000346
    35  H    0.000052  -0.000047   0.000084   0.000025  -0.001128   0.000120
    36  H    0.181577   0.077896  -0.070378   0.025165  -0.023924  -0.166901
    37  H   -0.013892  -0.004774   0.003360   0.001411   0.002747   0.015405
    38  H    0.013039  -0.001697  -0.001920  -0.012259   0.028496  -0.051976
    39  H   -0.003813  -0.047526   0.033745  -0.023393  -0.164635  -0.121343
    40  O   -0.000601   0.000389   0.000142   0.000115   0.000168   0.005190
    41  H   -0.000079  -0.000016   0.000114  -0.000151   0.000164  -0.000162
    42  H   -0.000081  -0.000073   0.000011   0.000044   0.000303   0.000121
               7          8          9         10         11         12
     1  N    0.881051   0.002517   0.015643   0.058735  -0.092532  -0.040451
     2  C   -0.952910  -0.125887   0.006390  -0.040767   0.140092   0.010027
     3  C    0.552798   0.012135  -0.012731  -0.021178  -0.202595   0.048593
     4  C   -0.918187  -0.223283  -0.021250  -0.033075  -0.357840  -0.227012
     5  C  -10.328103   0.294288   0.236054  -0.291244   2.198275   0.722538
     6  C   -1.930272  -0.818118  -0.065128  -0.340502   0.539630   0.107348
     7  C   28.424742  -1.657858   0.351952  -0.833422  -6.504582  -1.229664
     8  C   -1.657858   8.821111  -1.192093   1.010508  -0.799050  -0.276351
     9  C    0.351952  -1.192093   6.738130  -0.279770  -0.617651   0.005105
    10  C   -0.833422   1.010508  -0.279770   6.565744  -0.044968  -0.371584
    11  N   -6.504582  -0.799050  -0.617651  -0.044968  15.499422   1.168620
    12  C   -1.229664  -0.276351   0.005105  -0.371584   1.168620   4.936282
    13  H   -0.042381   0.005074   0.000227  -0.001708   0.007701   0.004863
    14  H    0.066786  -0.003926   0.000416   0.000697  -0.002168  -0.008333
    15  H   -0.250799  -0.041284  -0.008168  -0.008951   0.044216   0.049533
    16  H    0.173999  -0.041924  -0.023662   0.022047  -0.182736   0.058492
    17  H   -2.576579   0.663020   0.008091  -0.023811  -0.275559  -0.025004
    18  H    0.146857  -0.315683   0.457360   0.001229  -0.151779  -0.046349
    19  H   -0.129415  -1.058547   0.077937  -0.206406   0.467532   0.083522
    20  H    0.120269   0.236964  -0.516422   0.034097   0.161674   0.009288
    21  H    0.090279   0.194644  -0.226628   0.074621  -0.166710  -0.009747
    22  H    0.770501   0.111783   0.213553  -0.532133  -1.066999  -0.128125
    23  H   -0.061266  -0.042361   0.027254  -0.178180  -0.318110  -0.054644
    24  H   -0.145126  -0.000150   0.042881  -0.009976  -0.607672   0.341832
    25  H    0.231158  -0.087041   0.091081   0.000853  -0.307002   0.132387
    26  H   -0.218972   0.111519  -0.073106  -0.012833   0.184907   0.036979
    27  O    0.012089  -0.004849  -0.001230  -0.000459   0.000432   0.001035
    28  O    0.055826   0.022674   0.023650   0.018587  -0.148526  -0.018136
    29  O    0.004223  -0.005839   0.002106  -0.002707  -0.021249   0.010248
    30  O    0.021199  -0.013924   0.012575  -0.047011   0.007287   0.001176
    31  H   -0.004199   0.001708   0.000061   0.000477   0.001248   0.000249
    32  H   -0.004623   0.019019  -0.004529  -0.031962   0.010989   0.038295
    33  H   -0.011074  -0.004348  -0.000556  -0.000476   0.006871   0.002582
    34  H   -0.003139  -0.000811   0.001901  -0.002340   0.004024   0.001848
    35  H    0.001499   0.003506  -0.009995   0.007904  -0.005503  -0.001685
    36  H    0.037384  -0.016104  -0.000879  -0.001451  -0.005888  -0.005591
    37  H    0.013115   0.004181  -0.001092  -0.003110  -0.003662  -0.000835
    38  H    0.030101   0.005058   0.014597   0.024564  -0.039239  -0.023230
    39  H    0.534216   0.067507  -0.039082   0.016479  -0.302253  -0.233824
    40  O    0.000588   0.000152   0.000064  -0.000110   0.001231   0.000622
    41  H    0.000277   0.000066   0.000004   0.000060  -0.000089   0.000037
    42  H    0.000154   0.000069   0.000009  -0.000002  -0.000033  -0.000105
              13         14         15         16         17         18
     1  N   -0.109264  -0.054444  -0.063125  -0.024798   0.011857   0.034516
     2  C   -0.555518   0.391508  -0.185365  -0.148340   0.046284   0.003130
     3  C    0.131276  -1.176996   0.680631   0.117542  -0.026352  -0.017706
     4  C    0.171584   0.674738  -2.477850  -0.241776   0.011634   0.067338
     5  C    0.035277  -0.154451   1.217545  -0.917062   1.024254  -0.128799
     6  C    0.076477  -0.010353   0.207334  -0.942771  -0.305813  -0.219130
     7  C   -0.042381   0.066786  -0.250799   0.173999  -2.576579   0.146857
     8  C    0.005074  -0.003926  -0.041284  -0.041924   0.663020  -0.315683
     9  C    0.000227   0.000416  -0.008168  -0.023662   0.008091   0.457360
    10  C   -0.001708   0.000697  -0.008951   0.022047  -0.023811   0.001229
    11  N    0.007701  -0.002168   0.044216  -0.182736  -0.275559  -0.151779
    12  C    0.004863  -0.008333   0.049533   0.058492  -0.025004  -0.046349
    13  H    2.100640  -0.123219  -0.005877   0.008406   0.000439  -0.001743
    14  H   -0.123219   2.135213  -0.140322  -0.009045   0.002163   0.001431
    15  H   -0.005877  -0.140322   3.052271   0.007948  -0.177923  -0.009350
    16  H    0.008406  -0.009045   0.007948   4.614320  -0.060854  -0.198019
    17  H    0.000439   0.002163  -0.177923  -0.060854   3.593034   0.249201
    18  H   -0.001743   0.001431  -0.009350  -0.198019   0.249201   2.464681
    19  H    0.001133  -0.002077   0.015649   0.098194  -0.388505  -0.768773
    20  H    0.000096  -0.000047   0.000506   0.061030  -0.083227  -0.486921
    21  H    0.000033   0.000014   0.000334  -0.010531   0.079767   0.222738
    22  H   -0.000243   0.000194  -0.005404  -0.051900   0.116810   0.067649
    23  H    0.000115  -0.000373   0.005748   0.028897  -0.136933  -0.073602
    24  H    0.000630  -0.000367   0.007722   0.014139   0.095632  -0.003720
    25  H    0.000449  -0.000721   0.001524   0.008177   0.023336  -0.004062
    26  H   -0.003273  -0.000721  -0.000817  -0.015481  -0.005724   0.011015
    27  O    0.004216  -0.000102   0.000282   0.010826   0.000045  -0.001089
    28  O   -0.000197   0.000141  -0.001019   0.091975  -0.003857  -0.012856
    29  O    0.000500  -0.000305  -0.000006   0.075045   0.000107  -0.002564
    30  O    0.000006  -0.000001  -0.000027   0.004257   0.000785  -0.000847
    31  H    0.004504  -0.000492   0.000303   0.007110  -0.000165   0.000977
    32  H    0.000111  -0.000151   0.000486   0.000270   0.002134   0.006513
    33  H    0.000088  -0.000042   0.000424   0.007294  -0.000911  -0.002320
    34  H    0.000006  -0.000002   0.000023   0.001508  -0.000392  -0.000742
    35  H   -0.000004   0.000003  -0.000017  -0.002178   0.000230   0.001050
    36  H   -0.087388   0.010033  -0.002030  -0.032481  -0.001237  -0.003424
    37  H    0.003241  -0.000373  -0.000640  -0.019523   0.001098   0.003260
    38  H   -0.002179   0.000751  -0.001812  -0.031109   0.002337   0.003242
    39  H    0.000076   0.000991  -0.004355  -0.067700  -0.000541   0.020444
    40  O    0.000017   0.000003   0.000005  -0.004815   0.000012   0.000252
    41  H    0.000021  -0.000002  -0.000005  -0.000206   0.000015   0.000020
    42  H   -0.000009   0.000002  -0.000005  -0.000798   0.000014   0.000047
              19         20         21         22         23         24
     1  N   -0.020210   0.000895  -0.000829   0.005947  -0.002943  -0.002669
     2  C    0.000920  -0.000873   0.001580  -0.002579  -0.001339   0.015822
     3  C   -0.002532  -0.002381  -0.000874  -0.000907   0.003002  -0.024359
     4  C   -0.064419   0.004902   0.006249   0.014855   0.021581   0.013008
     5  C    0.485855  -0.053002  -0.040635  -0.261169   0.242602   0.151272
     6  C    0.292840  -0.012578   0.013799  -0.049520   0.034459   0.031366
     7  C   -0.129415   0.120269   0.090279   0.770501  -0.061266  -0.145126
     8  C   -1.058547   0.236964   0.194644   0.111783  -0.042361  -0.000150
     9  C    0.077937  -0.516422  -0.226628   0.213553   0.027254   0.042881
    10  C   -0.206406   0.034097   0.074621  -0.532133  -0.178180  -0.009976
    11  N    0.467532   0.161674  -0.166710  -1.066999  -0.318110  -0.607672
    12  C    0.083522   0.009288  -0.009747  -0.128125  -0.054644   0.341832
    13  H    0.001133   0.000096   0.000033  -0.000243   0.000115   0.000630
    14  H   -0.002077  -0.000047   0.000014   0.000194  -0.000373  -0.000367
    15  H    0.015649   0.000506   0.000334  -0.005404   0.005748   0.007722
    16  H    0.098194   0.061030  -0.010531  -0.051900   0.028897   0.014139
    17  H   -0.388505  -0.083227   0.079767   0.116810  -0.136933   0.095632
    18  H   -0.768773  -0.486921   0.222738   0.067649  -0.073602  -0.003720
    19  H    2.742024   0.233681  -0.351072  -0.049711   0.073583   0.010040
    20  H    0.233681   2.411124  -0.657174  -0.369033   0.221703  -0.000492
    21  H   -0.351072  -0.657174   2.214920   0.141257  -0.263604   0.005983
    22  H   -0.049711  -0.369033   0.141257   3.293570  -0.752290   0.025485
    23  H    0.073583   0.221703  -0.263604  -0.752290   2.697208   0.024310
    24  H    0.010040  -0.000492   0.005983   0.025485   0.024310   2.056012
    25  H    0.000778   0.009473  -0.001098   0.009471   0.016508  -0.370676
    26  H   -0.002504  -0.010585   0.000635   0.008065   0.011610  -0.387478
    27  O    0.000184  -0.000204  -0.000099   0.000020  -0.000036   0.000152
    28  O    0.000915   0.009085  -0.002036   0.055611  -0.005421  -0.012614
    29  O   -0.000060   0.001216  -0.000077   0.000705  -0.000159   0.000436
    30  O   -0.000192   0.000435   0.005498   0.000114  -0.006175   0.000136
    31  H   -0.000007  -0.000054   0.000007  -0.000009   0.000020  -0.000012
    32  H    0.000365  -0.012097   0.009049   0.020089  -0.008269   0.016307
    33  H    0.000370   0.000930  -0.000120  -0.002553   0.000441   0.000399
    34  H    0.000253   0.003947  -0.000618  -0.007027   0.001572   0.000048
    35  H   -0.000195  -0.000445  -0.000396   0.005007  -0.000318  -0.000418
    36  H    0.000473  -0.000117  -0.000107   0.000558   0.000094   0.000002
    37  H   -0.000739  -0.001462   0.000283   0.001203  -0.000534   0.000087
    38  H   -0.001790   0.000574  -0.001347   0.006021  -0.001322  -0.003904
    39  H   -0.021310   0.025549  -0.011584   0.040377   0.049113  -0.096187
    40  O    0.000001  -0.000164   0.000015   0.000171  -0.000043   0.000033
    41  H   -0.000001  -0.000012   0.000003   0.000077  -0.000019   0.000034
    42  H   -0.000002  -0.000021   0.000003  -0.000003  -0.000001  -0.000016
              25         26         27         28         29         30
     1  N   -0.002131   0.001689  -0.066888   0.007664   0.006144   0.000089
     2  C   -0.002733  -0.032145   0.038419  -0.015413   0.017837   0.000012
     3  C    0.013724   0.051760  -0.019518   0.009799  -0.007590   0.000037
     4  C   -0.001172  -0.052861   0.029070  -0.021018  -0.001221  -0.000261
     5  C   -0.067754   0.192431  -0.099927  -0.013152  -0.017871  -0.004165
     6  C   -0.026086   0.018279  -0.053037  -0.100305  -0.077648   0.000203
     7  C    0.231158  -0.218972   0.012089   0.055826   0.004223   0.021199
     8  C   -0.087041   0.111519  -0.004849   0.022674  -0.005839  -0.013924
     9  C    0.091081  -0.073106  -0.001230   0.023650   0.002106   0.012575
    10  C    0.000853  -0.012833  -0.000459   0.018587  -0.002707  -0.047011
    11  N   -0.307002   0.184907   0.000432  -0.148526  -0.021249   0.007287
    12  C    0.132387   0.036979   0.001035  -0.018136   0.010248   0.001176
    13  H    0.000449  -0.003273   0.004216  -0.000197   0.000500   0.000006
    14  H   -0.000721  -0.000721  -0.000102   0.000141  -0.000305  -0.000001
    15  H    0.001524  -0.000817   0.000282  -0.001019  -0.000006  -0.000027
    16  H    0.008177  -0.015481   0.010826   0.091975   0.075045   0.004257
    17  H    0.023336  -0.005724   0.000045  -0.003857   0.000107   0.000785
    18  H   -0.004062   0.011015  -0.001089  -0.012856  -0.002564  -0.000847
    19  H    0.000778  -0.002504   0.000184   0.000915  -0.000060  -0.000192
    20  H    0.009473  -0.010585  -0.000204   0.009085   0.001216   0.000435
    21  H   -0.001098   0.000635  -0.000099  -0.002036  -0.000077   0.005498
    22  H    0.009471   0.008065   0.000020   0.055611   0.000705   0.000114
    23  H    0.016508   0.011610  -0.000036  -0.005421  -0.000159  -0.006175
    24  H   -0.370676  -0.387478   0.000152  -0.012614   0.000436   0.000136
    25  H    2.150847  -0.660945  -0.000068   0.023195   0.001114   0.004472
    26  H   -0.660945   1.966190   0.000546   0.012713   0.003148  -0.001006
    27  O   -0.000068   0.000546   8.138817  -0.000128  -0.072841  -0.000147
    28  O    0.023195   0.012713  -0.000128   8.241018  -0.045718  -0.067166
    29  O    0.001114   0.003148  -0.072841  -0.045718   7.927988   0.000355
    30  O    0.004472  -0.001006  -0.000147  -0.067166   0.000355   7.906983
    31  H    0.000034  -0.000033   0.399749  -0.000827   0.004786   0.000019
    32  H   -0.008678  -0.003782   0.002730   0.373958   0.024403  -0.037686
    33  H   -0.000081  -0.000534   0.006116  -0.010901   0.308632  -0.000746
    34  H    0.000580  -0.000041  -0.000039   0.003036  -0.000133   0.336488
    35  H    0.000249   0.000048   0.000015   0.003088  -0.000040   0.339499
    36  H   -0.001049   0.000373   0.221430  -0.001275  -0.023605  -0.000200
    37  H    0.000267  -0.000003   0.010192  -0.001627   0.213352  -0.000567
    38  H   -0.000321   0.002210  -0.024858   0.025255   0.117549   0.008177
    39  H    0.068438   0.023666  -0.008862   0.033778  -0.051888   0.015527
    40  O    0.000212   0.000280  -0.000673   0.000839  -0.070345   0.000014
    41  H   -0.000006  -0.000024  -0.000285   0.000113   0.005277   0.000023
    42  H   -0.000024   0.000062  -0.000089  -0.000143  -0.001082  -0.000039
              31         32         33         34         35         36
     1  N   -0.000385  -0.001174  -0.001062  -0.000081   0.000052   0.181577
     2  C   -0.018214   0.004749   0.000234   0.000038  -0.000047   0.077896
     3  C    0.007366  -0.002599  -0.000340  -0.000029   0.000084  -0.070378
     4  C   -0.003199   0.009022  -0.000990  -0.000048   0.000025   0.025165
     5  C    0.005972  -0.008315  -0.003158   0.001384  -0.001128  -0.023924
     6  C   -0.002532   0.041871   0.013397   0.000346   0.000120  -0.166901
     7  C   -0.004199  -0.004623  -0.011074  -0.003139   0.001499   0.037384
     8  C    0.001708   0.019019  -0.004348  -0.000811   0.003506  -0.016104
     9  C    0.000061  -0.004529  -0.000556   0.001901  -0.009995  -0.000879
    10  C    0.000477  -0.031962  -0.000476  -0.002340   0.007904  -0.001451
    11  N    0.001248   0.010989   0.006871   0.004024  -0.005503  -0.005888
    12  C    0.000249   0.038295   0.002582   0.001848  -0.001685  -0.005591
    13  H    0.004504   0.000111   0.000088   0.000006  -0.000004  -0.087388
    14  H   -0.000492  -0.000151  -0.000042  -0.000002   0.000003   0.010033
    15  H    0.000303   0.000486   0.000424   0.000023  -0.000017  -0.002030
    16  H    0.007110   0.000270   0.007294   0.001508  -0.002178  -0.032481
    17  H   -0.000165   0.002134  -0.000911  -0.000392   0.000230  -0.001237
    18  H    0.000977   0.006513  -0.002320  -0.000742   0.001050  -0.003424
    19  H   -0.000007   0.000365   0.000370   0.000253  -0.000195   0.000473
    20  H   -0.000054  -0.012097   0.000930   0.003947  -0.000445  -0.000117
    21  H    0.000007   0.009049  -0.000120  -0.000618  -0.000396  -0.000107
    22  H   -0.000009   0.020089  -0.002553  -0.007027   0.005007   0.000558
    23  H    0.000020  -0.008269   0.000441   0.001572  -0.000318   0.000094
    24  H   -0.000012   0.016307   0.000399   0.000048  -0.000418   0.000002
    25  H    0.000034  -0.008678  -0.000081   0.000580   0.000249  -0.001049
    26  H   -0.000033  -0.003782  -0.000534  -0.000041   0.000048   0.000373
    27  O    0.399749   0.002730   0.006116  -0.000039   0.000015   0.221430
    28  O   -0.000827   0.373958  -0.010901   0.003036   0.003088  -0.001275
    29  O    0.004786   0.024403   0.308632  -0.000133  -0.000040  -0.023605
    30  O    0.000019  -0.037686  -0.000746   0.336488   0.339499  -0.000200
    31  H    0.557450   0.000168  -0.000298   0.000003  -0.000011  -0.088375
    32  H    0.000168   0.752830  -0.001035   0.001888  -0.008357  -0.001360
    33  H   -0.000298  -0.001035   0.536943   0.000160  -0.000044   0.001000
    34  H    0.000003   0.001888   0.000160   0.538050  -0.081690  -0.000025
    35  H   -0.000011  -0.008357  -0.000044  -0.081690   0.523315   0.000090
    36  H   -0.088375  -0.001360   0.001000  -0.000025   0.000090   0.586481
[...]
 366,0.00000288,0.00000947,-0.00002094,-0.00002108,0.00000266,0.0000386
 6,0.00002286,0.00002285,-0.00000159,0.00001526,0.00004163,-0.00001382,
 0.00002205,0.00000497,-0.00000494,0.00011859,0.00001975,-0.00009219,-0
 .00010387,0.00012099,-0.00009444,-0.00004072,-0.00017649,-0.00006878,0
 .00096579,0.00094191,-0.00064316,0.00172488,-0.00954987,-0.01490148,-0
 .02104677,0.02856032,-0.05954472,-0.00007200,-0.00033131,-0.00017311,-
 0.00017600,0.00023977,0.00006776,0.00221653,0.00191941,-0.00147072,0.0
 2429923,-0.01017842,0.01166617,-0.00000596,-0.00002411,0.00007134,0.00
 015502,-0.00008182,0.00010443,-0.00001738,0.00049716,0.00010467,-0.011
 85520,-0.00418697,0.00053956,0.00570168,-0.01215719,0.06822012,-0.0014
 5082,-0.00067761,-0.00056848,-0.00023728,0.00037677,-0.00009093,-0.000
 13282,-0.00027023,-0.00010148,-0.00058059,0.00048261,-0.00027804,0.001
 26222,-0.00138348,-0.00046309,0.00069379,0.00157885,0.00155779,-0.0000
 5874,-0.00727446,0.00653183,-0.00024750,0.00003485,0.00071981,-0.00033
 886,0.00008799,0.00115743,-0.01082904,0.00554490,-0.00076892,0.0053022
 4,0.01397005,0.00742691,0.00550775,0.00064545,-0.00646641,-0.00001189,
 -0.00002897,-0.00003339,-0.00010550,0.00005101,0.00002225,-0.00003443,
 -0.00034417,-0.00012217,0.00051002,0.00134395,-0.00110627,0.00237915,0
 .00303226,-0.00038357,-0.00005496,0.00009436,-0.00036264,0.00022928,-0
 .00000249,-0.00035362,-0.00001286,-0.00010322,-0.00024612,0.00032746,0
 .00009389,-0.00045287,0.00040277,-0.00073183,-0.00006837,0.00219247,-0
 .00053258,0.00067422,0.00088217,0.00065056,0.00375040,0.00010008,-0.00
 062484,0.00104177,-0.00025912,0.00085484,0.00100871,-0.00044526,-0.002
 48721,0.00030989,-0.21105418,-0.10315801,-0.11312264,0.00463578,-0.002
 35472,0.00054503,-0.00334522,0.00386993,0.00014201,-0.00010862,0.00007
 318,-0.00007929,0.01742837,0.00124637,0.00721349,-0.00162077,-0.000047
 75,0.00162679,0.00010987,-0.00008380,0.00037196,0.00057044,0.00021675,
 -0.00023436,0.00150366,0.00124357,0.00068437,-0.00077930,0.00347262,-0
 .00167989,-0.01038357,0.00085239,-0.00219474,0.19748517,-0.00077168,-0
 .00020758,-0.00047633,0.00021664,0.00069093,0.00045074,-0.00062117,0.0
 0018117,-0.00019658,-0.00008417,-0.00048101,-0.00025416,0.00047925,-0.
 00023046,-0.00030445,-0.00041964,-0.00138257,-0.00027891,-0.00449216,-
 0.00604932,0.00119396,-0.00019475,0.00038802,0.00036698,0.00014160,0.0
 0041230,0.00050156,0.00184000,0.00605473,0.00381657,0.01294029,-0.0066
 3811,0.00562384,0.00165587,0.00020263,-0.00519742,-0.00000271,0.000063
 47,0.00004155,-0.00005362,0.00004598,-0.00001068,0.00001835,-0.0000952
 0,0.00000367,0.00138246,-0.00082443,0.00185016,0.00112976,0.00095630,0
 .00034359,-0.00000994,0.00003963,0.00000952,0.00026336,-0.00013891,-0.
 00019373,0.00008900,-0.00027712,-0.00071978,-0.00006042,-0.00023509,-0
 .00026240,0.00131291,-0.00158328,0.00057911,0.00253540,-0.00169398,0.0
 0003620,0.00071969,0.00035717,0.00191848,0.00001741,-0.00026366,0.0011
 3036,-0.00027645,0.00003965,0.00020212,-0.00082915,-0.00263537,0.00028
 033,-0.06704379,-0.11372937,-0.06462408,0.01186398,-0.00619991,-0.0008
 3150,-0.00050918,0.00101303,0.00033421,-0.00004606,0.00002304,-0.00002
 032,-0.02606578,-0.01550168,-0.01621479,-0.00061063,-0.00032038,0.0021
 7348,0.00016173,-0.00009048,0.00024440,0.00043381,0.00018033,-0.000114
 06,0.00181857,0.00112138,0.00082390,0.00013294,0.00388623,-0.00178168,
 -0.01787130,0.01011785,0.00414323,0.08027348,0.13278801,-0.00064091,-0
 .00100961,-0.00068966,-0.00008726,0.00011938,-0.00001063,-0.00006493,-
 0.00022754,-0.00006064,-0.00039223,0.00028716,-0.00020309,0.00052727,-
 0.00088990,-0.00049022,0.00084065,0.00179169,0.00153603,0.00354237,-0.
 00350179,0.00626600,0.00032609,0.00048762,0.00076815,0.00057441,0.0004
 2591,0.00095177,-0.00234041,0.00396744,0.00236849,0.01210776,0.0088235
 6,-0.01211333,-0.00401651,-0.00251860,-0.00725224,-0.00001414,-0.00005
 717,-0.00002823,-0.00006158,0.00001575,0.00000920,-0.00004219,-0.00024
 631,-0.00007668,-0.00080173,0.00202290,-0.00092836,0.00161561,0.002398
 36,-0.00069317,-0.00003239,0.00042412,-0.00077718,-0.00011985,-0.00008
 968,-0.00045322,0.00028788,-0.00070041,-0.00083279,-0.00019644,-0.0001
 9598,-0.00048183,0.00014005,-0.00038116,0.00029349,0.00170612,-0.00086
 320,0.00013152,0.00103595,0.00029971,0.00029162,-0.00033720,0.00016499
 ,-0.00018217,-0.00019022,-0.00005459,0.00033970,-0.00017694,-0.0016403
 2,0.00020440,-0.10371784,-0.08046691,-0.08533294,0.00771304,-0.0049615
 9,0.00071446,-0.00127960,0.00181330,-0.00012660,-0.00010464,0.00003079
 ,-0.00005015,-0.00071275,-0.00304981,-0.00242877,-0.00069411,-0.000000
 40,0.00176047,0.00020759,0.00003725,0.00042800,0.00011361,-0.00001289,
 -0.00010965,0.00078099,0.00068711,0.00047092,0.00012687,0.00231059,-0.
 00116293,-0.01110061,0.00843681,-0.00078098,0.09513598,0.06632755,0.09
 943482,-0.00013068,-0.00012780,0.00002735,-0.00009999,0.00010730,-0.00
 003456,0.00006449,-0.00003701,0.00000658,-0.00000567,0.00007971,0.0000
 1966,-0.00003828,-0.00011194,-0.00004520,0.00010053,0.00009445,0.00012
 226,0.00007686,0.00015640,-0.00006862,0.00001478,0.00000138,0.00000960
 ,0.00000693,0.00000991,0.00000863,0.00015707,-0.00010722,0.00000451,-0
 .00042561,-0.00016892,-0.00009898,0.00007612,-0.00000652,0.00001051,0.
 00000547,-0.00001565,-0.00000153,-0.00000701,-0.00000636,-0.00000818,-
 0.00000293,0.00000565,-0.00000447,0.00007318,0.00003027,-0.00009280,-0
 .00004440,-0.00004304,-0.00001253,0.00001430,0.00001537,-0.00001712,-0
 .00002572,-0.00001050,0.00000131,0.00002313,-0.00001193,-0.00001988,-0
 .00003245,-0.00000796,0.00000393,0.00002473,-0.00001758,0.00001080,-0.
 00005047,-0.00000695,-0.00002030,-0.00009500,-0.00001822,0.00001549,0.
 00008269,-0.00007114,0.00004305,0.00004797,0.00011982,0.00001388,0.000
 66284,-0.00163344,0.00063201,-0.00187571,0.00036196,0.00002946,-0.0068
 2360,-0.00189421,0.01685521,-0.00013497,0.00028620,0.00007523,-0.00025
 196,-0.00009798,-0.00005118,0.00008438,-0.00051999,-0.00016647,-0.0021
 9388,-0.00250027,-0.00390330,0.00000685,-0.00006496,-0.00000407,0.0000
 1781,-0.00002488,-0.00003778,0.00014298,0.00017451,0.00001678,-0.00155
 511,0.00377656,-0.00095800,0.00301294,-0.00108409,0.00052387,0.0006303
 9,0.00050106,0.00023836,0.37950356,-0.00029900,-0.00007948,0.00005210,
 0.00003673,0.00014794,0.00006087,-0.00005630,0.00002773,-0.00001503,0.
 00001553,-0.00000320,-0.00000008,0.00004556,-0.00003869,-0.00000054,0.
 00009628,-0.00015938,-0.00003412,0.00006237,-0.00011218,0.00005252,0.0
 0001498,0.00002929,-0.00002740,-0.00002817,-0.00000690,0.00001133,0.00
 002651,-0.00010374,-0.00000835,-0.00002917,0.00018660,0.00001723,0.000
 06874,-0.00016188,0.00000657,0.00001491,0.00003880,-0.00002429,0.00000
 240,0.00000695,-0.00001126,-0.00000696,-0.00000500,-0.00000734,0.00003
 856,-0.00003679,-0.00000712,-0.00000671,0.00002240,-0.00000772,-0.0000
 0087,-0.00000675,-0.00001681,-0.00000114,0.00000544,-0.00000292,0.0000
 0390,0.00001042,0.00001829,-0.00000867,0.00001182,0.00000336,-0.000005
 35,0.00002824,-0.00001059,-0.00001044,0.00001210,-0.00000081,-0.000025
 17,0.00003005,0.00000559,-0.00001151,0.00001989,-0.00001110,0.00001374
 ,0.00005832,0.00001262,-0.00040313,0.00042930,0.00030741,-0.00017053,0
 .00063860,-0.00015427,-0.00125271,0.00796482,0.00098341,0.00016245,0.0
 0012699,-0.00009624,-0.00006910,-0.00004608,-0.00007067,-0.00016171,-0
 .00029169,0.00010363,-0.00255230,-0.01578766,-0.00040726,-0.00016022,0
 .00003806,0.00007768,-0.00004520,-0.00001958,0.00003812,0.00034355,0.0
 0019226,-0.00008722,0.00125129,-0.00127785,-0.00110205,0.00100859,-0.0
 0063065,0.00053230,-0.00015250,-0.00018010,-0.00010416,0.11467476,0.66
 507125,0.00059846,0.00038657,0.00030305,0.00012045,-0.00022503,-0.0000
 2679,-0.00001343,0.00008881,0.00006771,0.00005102,-0.00008445,0.000022
 25,0.00007067,0.00018087,0.00011613,-0.00020807,-0.00013854,-0.0002260
 5,-0.00008384,0.00002398,0.00003492,-0.00005306,-0.00003486,-0.0000103
 9,-0.00003520,-0.00002262,-0.00003902,-0.00016281,0.00004463,0.0000347
 8,0.00053529,0.00028740,0.00046756,0.00013783,-0.00002419,-0.00038472,
 -0.00002852,0.00002089,-0.00003478,0.00003328,0.00002724,-0.00000042,0
 .00003258,0.00001580,-0.00000035,-0.00017832,-0.00003654,0.00005010,0.
 00007738,0.00004275,0.00001659,-0.00000365,-0.00002790,0.00005130,0.00
 001901,0.00000917,0.00002325,-0.00002364,0.00003353,0.00005275,0.00003
 154,0.00000862,0.00002091,-0.00004383,-0.00001052,-0.00004986,0.000079
 42,0.00001633,0.00002670,0.00002687,0.00002425,0.00010009,0.00005183,-
 0.00011818,-0.00003385,0.00001544,0.00011764,-0.00007007,0.00035869,0.
 00323194,-0.00075273,0.00429191,-0.00084521,0.00098163,0.01862308,0.00
 321050,-0.01861821,0.00027731,-0.00040203,0.00010628,0.00010107,0.0000
 3550,0.00019942,-0.00000370,0.00075325,0.00006316,-0.00723456,-0.00096
 711,-0.00408511,-0.00002653,0.00004403,-0.00015082,-0.00009053,0.00003
 920,-0.00000473,-0.00131596,-0.00092155,-0.00071407,0.00134771,-0.0059
 2158,0.00156191,-0.00762217,0.00304577,-0.00281879,-0.00097596,-0.0010
 5816,-0.00088875,-0.18345032,0.15199822,0.18095553,0.00001055,-0.00000
 279,-0.00012023,0.00002242,-0.00006854,-0.00000127,-0.00001793,-0.0000
 1634,-0.00001657,-0.00001701,-0.00001572,-0.00001987,-0.00001556,0.000
 02277,-0.00000714,-0.00003746,0.00006856,0.00001335,-0.00003733,-0.000
 03776,0.00000335,0.00000198,-0.00000226,0.00000897,0.00001266,0.000001
 61,0.00000157,-0.00003429,0.00006459,-0.00001382,0.00006343,-0.0000700
 8,-0.00008569,-0.00010109,0.00009715,0.00009002,0.00000228,-0.00000615
 ,0.00001472,-0.00000295,-0.00000646,0.00000773,-0.00000516,-0.00000676
 ,0.00000720,0.00000425,0.00001018,0.00002830,0.00000237,-0.00000007,0.
 00000481,-0.00000423,0.00000234,-0.00000036,0.00000722,0.00000154,-0.0
 0000628,-0.00000386,-0.00000741,-0.00000940,0.00000903,-0.00000314,-0.
 00000893,0.00000256,0.00000005,0.00000845,0.00000530,-0.00000361,0.000
 00394,0.00005046,-0.00001274,-0.00003112,-0.00003674,0.00004509,-0.000
 00405,-0.00003053,-0.00010608,0.00000927,-0.00026860,-0.00025266,-0.00
 015142,-0.00025208,-0.00012299,-0.00014359,-0.00066101,-0.00112108,0.0
 0133386,-0.00002005,-0.00003302,-0.00002172,0.00010330,0.00000133,-0.0
 0001811,0.00001074,0.00005885,0.00000724,0.00036539,0.00276121,-0.0024
 9960,0.00001559,0.00000578,0.00001103,0.00001042,0.00000601,0.00000903
 ,0.00019041,0.00008898,0.00022207,-0.00007050,0.00048573,0.00035059,0.
 00046466,0.00003905,0.00006207,0.00005126,0.00012465,0.00014052,-0.097
 70222,0.15694364,0.10941160,0.08921288,0.00010939,-0.00000686,-0.00008
 387,-0.00008038,-0.00004488,-0.00005610,0.00005914,-0.00004747,-0.0000
 0223,-0.00002276,0.00003347,0.00000483,-0.00004229,-0.00001667,-0.0000
 1204,-0.00001577,0.00012794,0.00006329,-0.00002571,0.00010180,-0.00004
 913,-0.00000282,-0.00002018,0.00002230,0.00001673,0.00000893,-0.000004
 65,0.00001131,0.00002094,0.00000601,-0.00007757,-0.00014880,-0.0000405
 0,-0.00003189,0.00007441,0.00000728,-0.00000921,-0.00004327,0.00003231
 ,-0.00001028,-0.00001031,0.00000689,0.00000303,0.00000176,0.00000438,0
 .00000826,0.00002040,-0.00002463,-0.00000561,-0.00002256,0.00000224,0.
 00000288,0.00000787,0.00000571,-0.00000382,-0.00000336,0.00000137,0.00
 000211,-0.00001137,-0.00001234,-0.00000090,-0.00000961,-0.00000173,0.0
 0000834,-0.00001688,0.00000831,-0.00000412,-0.00000504,-0.00000285,-0.
 00000750,-0.00001270,-0.00000133,0.00002195,-0.00003443,0.00000970,0.0
 0000811,0.00000843,-0.00000424,0.00015472,-0.00071553,-0.00010666,-0.0
 0055874,-0.00009416,-0.00000309,-0.00228475,-0.00140152,0.00330012,-0.
 00007847,0.00001357,0.00002760,0.00002374,0.00002633,0.00001909,0.0000
 3767,-0.00002560,-0.00004223,0.00339574,0.00220191,-0.00470726,0.00004
 300,-0.00001262,-0.00001533,0.00002399,0.00000478,-0.00001377,-0.00004
 371,0.00006983,0.00019239,-0.00034925,0.00139163,-0.00023885,0.0007366
 8,-0.00018702,0.00008721,0.00022290,0.00022854,0.00011437,0.10996791,-
 0.37043850,-0.18033741,-0.12847304,0.39386316,-0.00028075,-0.00012621,
 -0.00005888,0.00000482,0.00011125,0.00003895,-0.00001994,-0.00000550,-
 0.00003355,-0.00001166,0.00001432,-0.00001198,-0.00001401,-0.00002914,
 -0.00003089,0.00009497,-0.00007304,0.00002701,0.00002684,-0.00005677,0
 .00002023,0.00001096,0.00001515,-0.00000550,0.00000533,-0.00000112,0.0
 0000874,0.00002090,0.00000879,-0.00001444,-0.00005106,-0.00001043,-0.0
 0009020,-0.00003114,0.00001633,0.00007717,0.00001641,0.00001056,0.0000
 1160,-0.00001307,-0.00001085,0.00000310,-0.00001485,-0.00000406,0.0000
 0266,0.00003168,-0.00001066,0.00000319,-0.00001689,0.00000296,-0.00000
 567,-0.00000174,0.00000127,-0.00001348,-0.00000108,-0.00000132,-0.0000
 0570,0.00000165,-0.00000262,-0.00000819,-0.00000440,0.00000257,-0.0000
 0460,0.00000515,0.00000760,0.00000790,-0.00001456,-0.00000384,-0.00000
 357,-0.00001158,-0.00000661,-0.00001536,-0.00001327,0.00003830,0.00001
 089,-0.00000511,-0.00003720,0.00003834,-0.00055438,-0.00001039,0.00021
 614,-0.00031005,0.00004418,-0.00007226,0.00074671,0.00178480,-0.002279
 03,-0.00004668,0.00003732,-0.00001887,-0.00001163,0.00001209,-0.000057
 64,0.00001524,-0.00006179,0.00000158,-0.00071146,-0.00496615,0.0019211
 3,0.00001787,-0.00000855,0.00002020,0.00001604,-0.00000610,0.00000387,
 0.00051095,0.00030839,0.00012322,0.00077388,-0.00068049,-0.00055260,0.
 00057136,-0.00006966,-0.00006178,0.00013816,0.00008195,0.00009956,0.09
 224038,-0.20364833,-0.12350993,-0.09350318,0.19913783,0.12111596,0.000
 00322,0.00002442,-0.00002604,0.00000974,-0.00000885,0.00001069,-0.0000
 1070,0.00000140,-0.00001012,-0.00000298,-0.00000964,-0.00000724,0.0000
 1524,0.00000700,0.00000817,-0.00000740,-0.00000609,-0.00001689,-0.0000
 1208,-0.00005221,0.00001995,0.00000326,0.00000249,-0.00000268,-0.00000
 552,0.00000120,0.00000124,-0.00003308,0.00000017,-0.00000297,0.0000808
 9,0.00005567,-0.00000630,-0.00002071,-0.00004181,0.00002733,-0.0000011
 6,-0.00000155,0.00000437,-0.00000158,-0.00000012,0.00000406,-0.0000011
 7,-0.00000419,0.00000099,-0.00000097,-0.00001327,0.00001882,0.00000737
 ,0.00000998,0.00000245,-0.00000448,-0.00000206,-0.00000008,0.00000655,
 0.00000481,-0.00000253,-0.00000388,0.00000069,0.00000541,0.00000754,0.
 00000237,-0.00000184,-0.00000480,0.00001090,-0.00000012,0.00000728,0.0
 0000506,0.00000448,0.00001812,0.00001355,-0.00000829,-0.00002286,0.000
 02508,-0.00001015,-0.00000062,-0.00001581,0.00000460,-0.00009123,0.000
 09397,-0.00013463,0.00015117,0.00015227,-0.00011601,0.00026964,0.00029
 286,0.00035201,0.00007837,-0.00002390,-0.00007508,0.00006084,0.0000168
 8,0.00001014,-0.00008966,-0.00000381,0.00009281,-0.00179361,-0.0012412
 6,-0.00091566,-0.00006145,0.00003947,0.00004930,-0.00000918,0.00000400
 ,0.00002766,0.00000988,0.00000643,0.00002701,0.00006628,-0.00015971,0.
 00028235,0.00004720,-0.00019879,-0.00000127,-0.00011302,-0.00008961,-0
 .00003664,-0.27333434,-0.26936763,0.06526167,0.00869942,0.01727099,0.0
 0039320,0.26608449,0.00013953,0.00005465,0.00001154,0.00000027,-0.0000
 5000,-0.00001442,0.00001872,-0.00000070,0.00000622,-0.00000088,-0.0000
 0642,-0.00000004,-0.00000836,0.00003127,0.00000790,-0.00003053,0.00003
 229,-0.00002101,-0.00002921,0.00002041,-0.00001055,-0.00000716,-0.0000
 0962,0.00000686,0.00000913,0.00000075,-0.00000515,-0.00003236,0.000063
 56,0.00000468,0.00007644,-0.00004410,0.00001703,-0.00002217,0.00004667
 ,-0.00000968,-0.00000780,-0.00000984,0.00000613,-0.00000020,-0.0000012
 3,0.00000552,0.00000335,0.00000191,0.00000432,-0.00003374,0.00000153,0
 .00001876,0.00000860,-0.00000148,0.00000414,-0.00000041,-0.00000041,0.
 00000928,0.00000354,-0.00000176,0.00000164,-0.00000615,-0.00000091,-0.
 00000523,0.00000832,-0.00000265,-0.00000124,-0.00000253,-0.00000844,0.
 00000308,0.00001159,-0.00000510,0.00000313,0.00001876,-0.00000343,-0.0
 0000257,-0.00001143,0.00000670,-0.00000190,-0.00000435,-0.00003368,-0.
 00000235,0.00016855,0.00025679,-0.00013823,0.00045658,-0.00035604,0.00
 001268,0.00173586,-0.00030624,-0.00256155,-0.00006988,-0.00012691,0.00
 004128,-0.00000592,0.00001951,0.00005498,0.00004948,0.00025524,-0.0000
 0335,-0.00224104,0.00059081,0.00445560,0.00010004,-0.00000097,-0.00004
 652,0.00002511,0.00001481,-0.00001854,-0.00021634,-0.00013164,-0.00006
 380,-0.00004755,-0.00035939,0.00020537,-0.00096377,0.00055102,-0.00002
 867,-0.00005566,-0.00003242,-0.00001434,-0.22177467,-0.28571117,0.0274
 8899,-0.03046040,-0.02487635,0.00819518,0.25319866,0.31013296,-0.00007
 779,-0.00003711,-0.00004643,-0.00000482,0.00002260,0.00001261,-0.00000
 631,-0.00000319,-0.00000754,-0.00000303,0.00000533,-0.00000361,-0.0000
 0370,-0.00001207,-0.00001189,0.00002260,-0.00000966,0.00000772,0.00000
 965,-0.00002050,0.00000448,0.00000782,0.00000558,-0.00000024,0.0000052
 6,0.00000488,0.00000761,0.00000979,0.00000152,-0.00000064,-0.00003803,
 -0.00000870,-0.00005853,-0.00001527,-0.00001994,0.00005081,0.00000490,
 0.00000217,0.00000327,-0.00000311,-0.00000277,0.00000106,-0.00000448,-
 0.00000200,0.00000132,0.00000935,0.00000037,0.00000647,-0.00000724,-0.
 00000166,-0.00000328,-0.00000186,0.00000383,-0.00000518,-0.00000029,-0
 .00000063,-0.00000294,-0.00000051,-0.00000348,-0.00000699,-0.00000180,
 -0.00000001,-0.00000242,0.00000616,0.00000539,0.00000955,-0.00000903,-
 0.00000435,-0.00000457,-0.00000638,0.00000088,-0.00001094,-0.00000743,
 0.00002071,0.00000823,0.00000259,-0.00001105,0.00000786,-0.00023868,-0
 .00012873,-0.00008527,-0.00015270,-0.00005806,-0.00008554,0.00120671,-
 0.00107934,-0.00378121,-0.00008397,0.00000690,-0.00004304,0.00007551,0
 .00005921,-0.00002037,0.00005474,0.00001527,0.00002533,0.00089297,0.00
 449787,0.00532562,0.00004526,-0.00001330,0.00004356,0.00003505,-0.0000
 0409,0.00000629,0.00016825,0.00010768,0.00009779,0.00009780,-0.0000173
 6,0.00013674,0.00015271,-0.00005008,-0.00013961,0.00009440,0.00006157,
 0.00008562,0.07808642,0.05157442,-0.03283654,-0.01508735,-0.01729299,0
 .00310270,-0.06523415,-0.03761511,0.02821215\\0.00000199,0.00000002,0.
 00000335,-0.00000165,-0.00000283,-0.00000226,-0.00000080,0.00000260,-0
 .00000133,0.00000084,-0.00000074,-0.00000079,0.00000113,0.00000126,0.0
 0000094,-0.00000374,-0.00000033,-0.00000260,-0.00000108,-0.00000199,0.
 00000235,0.00000048,0.00000108,-0.00000163,0.00000095,-0.00000023,-0.0
 0000105,-0.00000018,-0.00000011,0.00000256,0.00000197,0.00000008,-0.00
 000100,-0.00000023,-0.00000057,-0.00000081,-0.00000035,0.00000010,-0.0
 0000046,0.00000031,-0.00000051,0.00000091,0.00000015,0.00000011,-0.000
 00002,0.,0.00000198,0.00000101,-0.00000024,-0.00000034,0.00000023,-0.0
 0000021,0.00000006,0.00000011,0.00000014,-0.00000008,0.00000017,-0.000
 00020,-0.00000031,0.00000108,-0.00000006,-0.00000001,0.00000015,0.0000
 0047,0.00000043,-0.00000077,-0.00000002,0.00000011,0.00000016,-0.00000
 002,0.00000023,0.00000025,-0.00000008,0.00000013,0.00000043,-0.0000000
 1,0.00000042,0.00000059,0.00000498,0.00000630,0.00000469,0.00000003,-0
 .00000335,-0.00000181,-0.00000438,-0.00000378,-0.00000277,0.00000425,-
 0.00000060,-0.00000971,-0.00000070,-0.00000195,-0.00000126,-0.00000116
 ,0.00000212,0.00000513,-0.00000232,0.00000494,0.00000310,-0.00000372,0
 .00000211,0.00000237,0.00000189,-0.00000511,0.00000236,-0.00000121,-0.
 00000480,-0.00000211,0.00000190,0.00000017,0.00000037,0.00000177,0.000
 00381,-0.00000155,-0.00000079,0.00000195,0.00000075,-0.00000219,-0.000
 00420,0.00000108,0.00000108,0.00000157,-0.00000267,0.00000100,0.000000
 23,0.00000046\\\@


 IF YOU WISH TO UNDERSTAND THE FRAGRANCE OF THE ROSE, 
 OR THE TENACITY OF THE OAK; 
 IF YOU ARE NOT SATISFIED UNTIL YOU KNOW THE SECRET PATHS 
 BY WHICH THE SUNSHINE AND THE AIR ACHIEVE THESE WONDERS; 
 IF YOU WISH TO SEE THE PATTERN WHICH UNDERLIES ONE LARGE FIELD OF 
 HUMAN EXPERIENCE AND HUMAN MEASUREMENT, THEN TAKE UP CHEMISTRY.

                                         -- C. A. COULSON, 1973.
 Job cpu time:       1 days 16 hours 54 minutes 34.7 seconds.
 Elapsed time:       0 days  1 hours 27 minutes 43.4 seconds.
 File lengths (MBytes):  RWF=   1440 Int=      0 D2E=      0 Chk=     36 Scr=      8
 Normal termination of Gaussian 16 at Sat Mar 11 19:22:21 2023.
