 Entering Gaussian System, Link 0=g16
 Input=Nic5h3bMidPyrTS2_2.gjf
 Output=Nic5h3bMidPyrTS2_2.log
 Initial command:
 /sw/contrib/gaussian/g16/A03/g16/l1.exe "/gscratch/scrubbed/gds001/Gau-30674.inp" -scrdir="/gscratch/scrubbed/gds001/"
 Entering Link 1 = /sw/contrib/gaussian/g16/A03/g16/l1.exe PID=     30675.
  
 Copyright (c) 1988,1990,1992,1993,1995,1998,2003,2009,2016,
            Gaussian, Inc.  All Rights Reserved.
  
 This is part of the Gaussian(R) 16 program.  It is based on
 the Gaussian(R) 09 system (copyright 2009, Gaussian, Inc.),
 the Gaussian(R) 03 system (copyright 2003, Gaussian, Inc.),
 the Gaussian(R) 98 system (copyright 1998, Gaussian, Inc.),
 the Gaussian(R) 94 system (copyright 1995, Gaussian, Inc.),
 the Gaussian 92(TM) system (copyright 1992, Gaussian, Inc.),
 the Gaussian 90(TM) system (copyright 1990, Gaussian, Inc.),
 the Gaussian 88(TM) system (copyright 1988, Gaussian, Inc.),
 the Gaussian 86(TM) system (copyright 1986, Carnegie Mellon
 University), and the Gaussian 82(TM) system (copyright 1983,
 Carnegie Mellon University). Gaussian is a federally registered
 trademark of Gaussian, Inc.
  
 This software contains proprietary and confidential information,
 including trade secrets, belonging to Gaussian, Inc.
  
 This software is provided under written license and may be
 used, copied, transmitted, or stored only in accord with that
 written license.
  
 The following legend is applicable only to US Government
 contracts under FAR:
  
                    RESTRICTED RIGHTS LEGEND
  
 Use, reproduction and disclosure by the US Government is
 subject to restrictions as set forth in subparagraphs (a)
 and (c) of the Commercial Computer Software - Restricted
 Rights clause in FAR 52.227-19.
  
 Gaussian, Inc.
 340 Quinnipiac St., Bldg. 40, Wallingford CT 06492
  
  
 ---------------------------------------------------------------
 Warning -- This program may not be used in any manner that
 competes with the business of Gaussian, Inc. or will provide
 assistance to any competitor of Gaussian, Inc.  The licensee
 of this program is prohibited from giving any competitor of
 Gaussian, Inc. access to this program.  By using this program,
 the user acknowledges that Gaussian, Inc. is engaged in the
 business of creating and licensing software in the field of
 computational chemistry and represents and warrants to the
 licensee that it is not a competitor of Gaussian, Inc. and that
 it will not use this program in any manner prohibited above.
 ---------------------------------------------------------------
  

 Cite this work as:
 Gaussian 16, Revision A.03,
 M. J. Frisch, G. W. Trucks, H. B. Schlegel, G. E. Scuseria, 
 M. A. Robb, J. R. Cheeseman, G. Scalmani, V. Barone, 
 G. A. Petersson, H. Nakatsuji, X. Li, M. Caricato, A. V. Marenich, 
 J. Bloino, B. G. Janesko, R. Gomperts, B. Mennucci, H. P. Hratchian, 
 J. V. Ortiz, A. F. Izmaylov, J. L. Sonnenberg, D. Williams-Young, 
 F. Ding, F. Lipparini, F. Egidi, J. Goings, B. Peng, A. Petrone, 
 T. Henderson, D. Ranasinghe, V. G. Zakrzewski, J. Gao, N. Rega, 
 G. Zheng, W. Liang, M. Hada, M. Ehara, K. Toyota, R. Fukuda, 
 J. Hasegawa, M. Ishida, T. Nakajima, Y. Honda, O. Kitao, H. Nakai, 
 T. Vreven, K. Throssell, J. A. Montgomery, Jr., J. E. Peralta, 
 F. Ogliaro, M. J. Bearpark, J. J. Heyd, E. N. Brothers, K. N. Kudin, 
 V. N. Staroverov, T. A. Keith, R. Kobayashi, J. Normand, 
 K. Raghavachari, A. P. Rendell, J. C. Burant, S. S. Iyengar, 
 J. Tomasi, M. Cossi, J. M. Millam, M. Klene, C. Adamo, R. Cammi, 
 J. W. Ochterski, R. L. Martin, K. Morokuma, O. Farkas, 
 J. B. Foresman, and D. J. Fox, Gaussian, Inc., Wallingford CT, 2016.
 
 ******************************************
 Gaussian 16:  ES64L-G16RevA.03 25-Dec-2016
                 9-Mar-2023 
 ******************************************
 %nprocshared=28
 Will use up to   28 processors via shared memory.
 %mem=41GB
 ----------------------------------------------------------------
 # wB97XD/aug-cc-pVDZ opt=(TS,CalcAll,MaxStep=5,NoEigenTest) freq
 ----------------------------------------------------------------
 1/5=1,8=5,10=4,11=1,18=20,26=3,38=1/1,3;
 2/9=110,12=2,17=6,18=5,40=1/2;
 3/5=16,7=10,11=2,25=1,30=1,71=2,74=-58,140=1/1,2,3;
 4//1;
 5/5=2,38=5/2;
 8/6=4,10=90,11=11/1;
 11/6=1,8=1,9=11,15=111,16=1/1,2,10;
 10/6=1/2;
 6/7=2,8=2,9=2,10=2,18=1,28=1/1;
 7/10=1,25=1/1,2,3,16;
 1/5=1,8=5,10=4,11=1,18=20,26=3/3(3);
 2/9=110/2;
 7/8=1,9=1,25=1,44=-1/16;
 99//99;
 2/9=110/2;
 3/5=16,7=10,11=2,25=1,30=1,71=2,74=-58,140=1/1,2,3;
 4/5=5,16=3,69=1/1;
 5/5=2,38=5/2;
 8/6=4,10=90,11=11/1;
 11/6=1,8=1,9=11,15=111,16=1/1,2,10;
 10/6=1/2;
 7/10=1,25=1/1,2,3,16;
 1/5=1,8=5,10=4,11=1,18=20,26=3/3(-8);
 2/9=110/2;
 6/7=2,8=2,9=2,10=2,18=1,19=2,28=1/1;
 7/8=1,9=1,25=1,44=-1/16;
 99//99;
 ----
 blah
 ----
 Symbolic Z-matrix:
 Charge =  1 Multiplicity = 1
 N                    -2.59062   0.41202  -0.8053 
 C                    -3.4607    1.23777  -0.21309 
 C                    -3.05666   2.34699   0.52173 
 C                    -1.69329   2.59501   0.65834 
 C                    -0.7731    1.74642   0.04381 
 C                    -1.28712   0.67381  -0.68638 
 C                     0.71399   1.96972   0.16647 
 C                     1.47065   2.19076  -1.15365 
 C                     2.90831   1.69573  -0.86489 
 C                     2.84977   1.14616   0.56698 
 N                     1.42564   0.81897   0.76912 
 C                     1.08133   0.58322   2.16909 
 H                    -4.51727   0.99744  -0.33295 
 H                    -3.79707   2.99688   0.98423 
 H                    -1.34652   3.44888   1.24187 
 H                    -0.61939  -0.01567  -1.20447 
 H                     0.87191   2.84651   0.82143 
 H                     1.00784   1.60593  -1.9568 
 H                     1.43058   3.24316  -1.45201 
 H                     3.19436   0.90862  -1.57129 
 H                     3.64936   2.49683  -0.94852 
 H                     3.46642   0.25232   0.72035 
 H                     3.16249   1.91014   1.2989 
 H                     1.28854   1.47089   2.79003 
 H                     1.67061  -0.25819   2.55197 
 H                     0.01781   0.33079   2.25253 
 O                    -2.66597  -2.17535  -1.62707 
 O                     1.27602  -1.41407  -0.54631 
 O                    -0.52095  -2.98364  -0.42703 
 O                     3.86702  -2.21586  -0.64105 
 H                    -2.93731  -2.36118  -2.52854 
 H                     2.1794   -1.78912  -0.58441 
 H                    -0.81601  -3.27684   0.46309 
 H                     4.24799  -2.93276  -0.12613 
 H                     4.31712  -2.24056  -1.49049 
 H                    -2.81088  -1.21029  -1.45506 
 H                    -1.32965  -2.71     -0.95154 
 H                     0.38041  -2.19361  -0.44285 
 H                     1.27732  -0.51836  -0.00237 
 O                    -1.32794  -3.76914   2.03074 
 H                    -2.23882  -3.60161   2.29018 
 H                    -1.13887  -4.66618   2.32149 
 
 Add virtual bond connecting atoms H38        and O28        Dist= 2.25D+00.
 Add virtual bond connecting atoms H38        and O29        Dist= 2.27D+00.
 Add virtual bond connecting atoms H39        and N11        Dist= 2.93D+00.
 Add virtual bond connecting atoms H37        and O27        Dist= 3.00D+00.
 Add virtual bond connecting atoms O40        and H33        Dist= 3.25D+00.
 Add virtual bond connecting atoms H32        and O30        Dist= 3.29D+00.

 GradGradGradGradGradGradGradGradGradGradGradGradGradGradGradGradGradGrad
 Berny optimization.
 Initialization pass.
                           ----------------------------
                           !    Initial Parameters    !
                           ! (Angstroms and Degrees)  !
 --------------------------                            --------------------------
 ! Name  Definition              Value          Derivative Info.                !
 --------------------------------------------------------------------------------
 ! R1    R(1,2)                  1.3378         calculate D2E/DX2 analytically  !
 ! R2    R(1,6)                  1.3348         calculate D2E/DX2 analytically  !
 ! R3    R(2,3)                  1.3905         calculate D2E/DX2 analytically  !
 ! R4    R(2,13)                 1.0902         calculate D2E/DX2 analytically  !
 ! R5    R(3,4)                  1.3925         calculate D2E/DX2 analytically  !
 ! R6    R(3,14)                 1.0883         calculate D2E/DX2 analytically  !
 ! R7    R(4,5)                  1.3945         calculate D2E/DX2 analytically  !
 ! R8    R(4,15)                 1.0908         calculate D2E/DX2 analytically  !
 ! R9    R(5,6)                  1.3957         calculate D2E/DX2 analytically  !
 ! R10   R(5,7)                  1.5088         calculate D2E/DX2 analytically  !
 ! R11   R(6,16)                 1.0907         calculate D2E/DX2 analytically  !
 ! R12   R(7,8)                  1.5376         calculate D2E/DX2 analytically  !
 ! R13   R(7,11)                 1.4812         calculate D2E/DX2 analytically  !
 ! R14   R(7,17)                 1.1058         calculate D2E/DX2 analytically  !
 ! R15   R(8,9)                  1.5477         calculate D2E/DX2 analytically  !
 ! R16   R(8,18)                 1.096          calculate D2E/DX2 analytically  !
 ! R17   R(8,19)                 1.0946         calculate D2E/DX2 analytically  !
 ! R18   R(9,10)                 1.5348         calculate D2E/DX2 analytically  !
 ! R19   R(9,20)                 1.0956         calculate D2E/DX2 analytically  !
 ! R20   R(9,21)                 1.0945         calculate D2E/DX2 analytically  !
 ! R21   R(10,11)                1.4752         calculate D2E/DX2 analytically  !
 ! R22   R(10,22)                1.0967         calculate D2E/DX2 analytically  !
 ! R23   R(10,23)                1.1032         calculate D2E/DX2 analytically  !
 ! R24   R(11,12)                1.4608         calculate D2E/DX2 analytically  !
 ! R25   R(11,39)                1.551          calculate D2E/DX2 analytically  !
 ! R26   R(12,24)                1.1029         calculate D2E/DX2 analytically  !
 ! R27   R(12,25)                1.0963         calculate D2E/DX2 analytically  !
 ! R28   R(12,26)                1.0962         calculate D2E/DX2 analytically  !
 ! R29   R(27,31)                0.9596         calculate D2E/DX2 analytically  !
 ! R30   R(27,36)                0.9909         calculate D2E/DX2 analytically  !
 ! R31   R(27,37)                1.5899         calculate D2E/DX2 analytically  !
 ! R32   R(28,32)                0.9789         calculate D2E/DX2 analytically  !
 ! R33   R(28,38)                1.1918         calculate D2E/DX2 analytically  !
 ! R34   R(28,39)                1.0479         calculate D2E/DX2 analytically  !
 ! R35   R(29,33)                0.9825         calculate D2E/DX2 analytically  !
 ! R36   R(29,37)                1.002          calculate D2E/DX2 analytically  !
 ! R37   R(29,38)                1.1987         calculate D2E/DX2 analytically  !
 ! R38   R(30,32)                1.7417         calculate D2E/DX2 analytically  !
 ! R39   R(30,34)                0.9614         calculate D2E/DX2 analytically  !
 ! R40   R(30,35)                0.9616         calculate D2E/DX2 analytically  !
 ! R41   R(33,40)                1.721          calculate D2E/DX2 analytically  !
 ! R42   R(40,41)                0.9618         calculate D2E/DX2 analytically  !
 ! R43   R(40,42)                0.9618         calculate D2E/DX2 analytically  !
 ! A1    A(2,1,6)              118.335          calculate D2E/DX2 analytically  !
 ! A2    A(1,2,3)              122.5027         calculate D2E/DX2 analytically  !
 ! A3    A(1,2,13)             116.4618         calculate D2E/DX2 analytically  !
 ! A4    A(3,2,13)             121.0354         calculate D2E/DX2 analytically  !
 ! A5    A(2,3,4)              118.5827         calculate D2E/DX2 analytically  !
 ! A6    A(2,3,14)             120.2136         calculate D2E/DX2 analytically  !
 ! A7    A(4,3,14)             121.2014         calculate D2E/DX2 analytically  !
 ! A8    A(3,4,5)              119.6349         calculate D2E/DX2 analytically  !
 ! A9    A(3,4,15)             120.2103         calculate D2E/DX2 analytically  !
 ! A10   A(5,4,15)             120.1548         calculate D2E/DX2 analytically  !
 ! A11   A(4,5,6)              117.0792         calculate D2E/DX2 analytically  !
 ! A12   A(4,5,7)              121.636          calculate D2E/DX2 analytically  !
 ! A13   A(6,5,7)              121.2841         calculate D2E/DX2 analytically  !
 ! A14   A(1,6,5)              123.8476         calculate D2E/DX2 analytically  !
 ! A15   A(1,6,16)             115.5643         calculate D2E/DX2 analytically  !
 ! A16   A(5,6,16)             120.588          calculate D2E/DX2 analytically  !
 ! A17   A(5,7,8)              115.8828         calculate D2E/DX2 analytically  !
 ! A18   A(5,7,11)             113.0576         calculate D2E/DX2 analytically  !
 ! A19   A(5,7,17)             107.8354         calculate D2E/DX2 analytically  !
 ! A20   A(8,7,11)             102.9784         calculate D2E/DX2 analytically  !
 ! A21   A(8,7,17)             108.9217         calculate D2E/DX2 analytically  !
 ! A22   A(11,7,17)            107.8436         calculate D2E/DX2 analytically  !
 ! A23   A(7,8,9)              104.5345         calculate D2E/DX2 analytically  !
 ! A24   A(7,8,18)             110.1598         calculate D2E/DX2 analytically  !
 ! A25   A(7,8,19)             110.7461         calculate D2E/DX2 analytically  !
 ! A26   A(9,8,18)             110.9949         calculate D2E/DX2 analytically  !
 ! A27   A(9,8,19)             113.1026         calculate D2E/DX2 analytically  !
 ! A28   A(18,8,19)            107.3274         calculate D2E/DX2 analytically  !
 ! A29   A(8,9,10)             104.6645         calculate D2E/DX2 analytically  !
 ! A30   A(8,9,20)             110.6114         calculate D2E/DX2 analytically  !
 ! A31   A(8,9,21)             112.3691         calculate D2E/DX2 analytically  !
 ! A32   A(10,9,20)            110.7455         calculate D2E/DX2 analytically  !
 ! A33   A(10,9,21)            111.0501         calculate D2E/DX2 analytically  !
 ! A34   A(20,9,21)            107.4458         calculate D2E/DX2 analytically  !
 ! A35   A(9,10,11)            104.1275         calculate D2E/DX2 analytically  !
 ! A36   A(9,10,22)            113.6313         calculate D2E/DX2 analytically  !
 ! A37   A(9,10,23)            111.1099         calculate D2E/DX2 analytically  !
 ! A38   A(11,10,22)           110.0536         calculate D2E/DX2 analytically  !
 ! A39   A(11,10,23)           109.6537         calculate D2E/DX2 analytically  !
 ! A40   A(22,10,23)           108.194          calculate D2E/DX2 analytically  !
 ! A41   A(7,11,10)            103.637          calculate D2E/DX2 analytically  !
 ! A42   A(7,11,12)            113.7073         calculate D2E/DX2 analytically  !
 ! A43   A(7,11,39)            114.9324         calculate D2E/DX2 analytically  !
 ! A44   A(10,11,12)           113.2446         calculate D2E/DX2 analytically  !
 ! A45   A(10,11,39)           102.4392         calculate D2E/DX2 analytically  !
 ! A46   A(12,11,39)           108.3609         calculate D2E/DX2 analytically  !
 ! A47   A(11,12,24)           111.43           calculate D2E/DX2 analytically  !
 ! A48   A(11,12,25)           109.3825         calculate D2E/DX2 analytically  !
 ! A49   A(11,12,26)           109.8013         calculate D2E/DX2 analytically  !
 ! A50   A(24,12,25)           108.6689         calculate D2E/DX2 analytically  !
 ! A51   A(24,12,26)           108.9499         calculate D2E/DX2 analytically  !
 ! A52   A(25,12,26)           108.5524         calculate D2E/DX2 analytically  !
 ! A53   A(31,27,36)           108.0789         calculate D2E/DX2 analytically  !
 ! A54   A(31,27,37)           124.8676         calculate D2E/DX2 analytically  !
 ! A55   A(36,27,37)           112.1263         calculate D2E/DX2 analytically  !
 ! A56   A(32,28,38)           116.5047         calculate D2E/DX2 analytically  !
 ! A57   A(32,28,39)           110.2759         calculate D2E/DX2 analytically  !
 ! A58   A(38,28,39)           120.9924         calculate D2E/DX2 analytically  !
 ! A59   A(33,29,37)           108.262          calculate D2E/DX2 analytically  !
 ! A60   A(33,29,38)           115.7503         calculate D2E/DX2 analytically  !
 ! A61   A(37,29,38)           114.8341         calculate D2E/DX2 analytically  !
 ! A62   A(32,30,34)           123.3176         calculate D2E/DX2 analytically  !
 ! A63   A(32,30,35)           119.246          calculate D2E/DX2 analytically  !
 ! A64   A(34,30,35)           105.5739         calculate D2E/DX2 analytically  !
 ! A65   A(33,40,41)           118.5278         calculate D2E/DX2 analytically  !
 ! A66   A(33,40,42)           118.9271         calculate D2E/DX2 analytically  !
 ! A67   A(41,40,42)           105.491          calculate D2E/DX2 analytically  !
 ! A68   L(28,32,30,9,-1)      171.7092         calculate D2E/DX2 analytically  !
 ! A69   L(29,33,40,2,-1)      179.5            calculate D2E/DX2 analytically  !
 ! A70   L(27,37,29,4,-1)      174.6639         calculate D2E/DX2 analytically  !
 ! A71   L(28,38,29,1,-1)      179.7803         calculate D2E/DX2 analytically  !
 ! A72   L(11,39,28,1,-1)      184.8178         calculate D2E/DX2 analytically  !
 ! A73   L(28,32,30,9,-2)      178.9318         calculate D2E/DX2 analytically  !
 ! A74   L(29,33,40,2,-2)      180.6126         calculate D2E/DX2 analytically  !
 ! A75   L(27,37,29,4,-2)      175.3975         calculate D2E/DX2 analytically  !
 ! A76   L(28,38,29,1,-2)      175.7427         calculate D2E/DX2 analytically  !
 ! A77   L(11,39,28,1,-2)      177.2064         calculate D2E/DX2 analytically  !
 ! D1    D(6,1,2,3)             -0.3185         calculate D2E/DX2 analytically  !
 ! D2    D(6,1,2,13)           179.7764         calculate D2E/DX2 analytically  !
 ! D3    D(2,1,6,5)              1.3375         calculate D2E/DX2 analytically  !
 ! D4    D(2,1,6,16)          -178.7358         calculate D2E/DX2 analytically  !
 ! D5    D(1,2,3,4)             -0.8316         calculate D2E/DX2 analytically  !
 ! D6    D(1,2,3,14)           179.7107         calculate D2E/DX2 analytically  !
 ! D7    D(13,2,3,4)           179.0693         calculate D2E/DX2 analytically  !
 ! D8    D(13,2,3,14)           -0.3883         calculate D2E/DX2 analytically  !
 ! D9    D(2,3,4,5)              1.0063         calculate D2E/DX2 analytically  !
 ! D10   D(2,3,4,15)          -179.0587         calculate D2E/DX2 analytically  !
 ! D11   D(14,3,4,5)          -179.5416         calculate D2E/DX2 analytically  !
 ! D12   D(14,3,4,15)            0.3934         calculate D2E/DX2 analytically  !
 ! D13   D(3,4,5,6)             -0.0901         calculate D2E/DX2 analytically  !
 ! D14   D(3,4,5,7)           -179.7623         calculate D2E/DX2 analytically  !
 ! D15   D(15,4,5,6)           179.9749         calculate D2E/DX2 analytically  !
 ! D16   D(15,4,5,7)             0.3027         calculate D2E/DX2 analytically  !
 ! D17   D(4,5,6,1)             -1.1292         calculate D2E/DX2 analytically  !
 ! D18   D(4,5,6,16)           178.9476         calculate D2E/DX2 analytically  !
 ! D19   D(7,5,6,1)            178.5442         calculate D2E/DX2 analytically  !
 ! D20   D(7,5,6,16)            -1.379          calculate D2E/DX2 analytically  !
 ! D21   D(4,5,7,8)           -120.3166         calculate D2E/DX2 analytically  !
 ! D22   D(4,5,7,11)           121.1397         calculate D2E/DX2 analytically  !
 ! D23   D(4,5,7,17)             2.0097         calculate D2E/DX2 analytically  !
 ! D24   D(6,5,7,8)             60.025          calculate D2E/DX2 analytically  !
 ! D25   D(6,5,7,11)           -58.5188         calculate D2E/DX2 analytically  !
 ! D26   D(6,5,7,17)          -177.6488         calculate D2E/DX2 analytically  !
 ! D27   D(5,7,8,9)           -152.6938         calculate D2E/DX2 analytically  !
 ! D28   D(5,7,8,18)           -33.3881         calculate D2E/DX2 analytically  !
 ! D29   D(5,7,8,19)            85.1883         calculate D2E/DX2 analytically  !
 ! D30   D(11,7,8,9)           -28.7374         calculate D2E/DX2 analytically  !
 ! D31   D(11,7,8,18)           90.5682         calculate D2E/DX2 analytically  !
 ! D32   D(11,7,8,19)         -150.8553         calculate D2E/DX2 analytically  !
 ! D33   D(17,7,8,9)            85.5567         calculate D2E/DX2 analytically  !
 ! D34   D(17,7,8,18)         -155.1376         calculate D2E/DX2 analytically  !
 ! D35   D(17,7,8,19)          -36.5612         calculate D2E/DX2 analytically  !
 ! D36   D(5,7,11,10)          170.1152         calculate D2E/DX2 analytically  !
 ! D37   D(5,7,11,12)          -66.513          calculate D2E/DX2 analytically  !
 ! D38   D(5,7,11,39)           59.186          calculate D2E/DX2 analytically  !
 ! D39   D(8,7,11,10)           44.3141         calculate D2E/DX2 analytically  !
 ! D40   D(8,7,11,12)          167.6859         calculate D2E/DX2 analytically  !
 ! D41   D(8,7,11,39)          -66.6151         calculate D2E/DX2 analytically  !
 ! D42   D(17,7,11,10)         -70.7595         calculate D2E/DX2 analytically  !
 ! D43   D(17,7,11,12)          52.6123         calculate D2E/DX2 analytically  !
 ! D44   D(17,7,11,39)         178.3113         calculate D2E/DX2 analytically  !
 ! D45   D(7,8,9,10)             3.4567         calculate D2E/DX2 analytically  !
 ! D46   D(7,8,9,20)           122.7712         calculate D2E/DX2 analytically  !
 ! D47   D(7,8,9,21)          -117.1526         calculate D2E/DX2 analytically  !
 ! D48   D(18,8,9,10)         -115.2838         calculate D2E/DX2 analytically  !
 ! D49   D(18,8,9,20)            4.0307         calculate D2E/DX2 analytically  !
 ! D50   D(18,8,9,21)          124.1068         calculate D2E/DX2 analytically  !
 ! D51   D(19,8,9,10)          124.0169         calculate D2E/DX2 analytically  !
 ! D52   D(19,8,9,20)         -116.6686         calculate D2E/DX2 analytically  !
 ! D53   D(19,8,9,21)            3.4075         calculate D2E/DX2 analytically  !
 ! D54   D(8,9,10,11)           23.2363         calculate D2E/DX2 analytically  !
 ! D55   D(8,9,10,22)          142.9776         calculate D2E/DX2 analytically  !
 ! D56   D(8,9,10,23)          -94.7294         calculate D2E/DX2 analytically  !
 ! D57   D(20,9,10,11)         -95.9879         calculate D2E/DX2 analytically  !
 ! D58   D(20,9,10,22)          23.7534         calculate D2E/DX2 analytically  !
 ! D59   D(20,9,10,23)         146.0464         calculate D2E/DX2 analytically  !
 ! D60   D(21,9,10,11)         144.7182         calculate D2E/DX2 analytically  !
 ! D61   D(21,9,10,22)         -95.5406         calculate D2E/DX2 analytically  !
 ! D62   D(21,9,10,23)          26.7525         calculate D2E/DX2 analytically  !
 ! D63   D(9,10,11,7)          -42.3044         calculate D2E/DX2 analytically  !
 ! D64   D(9,10,11,12)        -165.9796         calculate D2E/DX2 analytically  !
 ! D65   D(9,10,11,39)          77.5448         calculate D2E/DX2 analytically  !
 ! D66   D(22,10,11,7)        -164.4387         calculate D2E/DX2 analytically  !
 ! D67   D(22,10,11,12)         71.8862         calculate D2E/DX2 analytically  !
 ! D68   D(22,10,11,39)        -44.5894         calculate D2E/DX2 analytically  !
 ! D69   D(23,10,11,7)          76.6592         calculate D2E/DX2 analytically  !
 ! D70   D(23,10,11,12)        -47.016          calculate D2E/DX2 analytically  !
 ! D71   D(23,10,11,39)       -163.4916         calculate D2E/DX2 analytically  !
 ! D72   D(7,11,12,24)         -57.9053         calculate D2E/DX2 analytically  !
 ! D73   D(7,11,12,25)        -178.0787         calculate D2E/DX2 analytically  !
 ! D74   D(7,11,12,26)          62.8987         calculate D2E/DX2 analytically  !
 ! D75   D(10,11,12,24)         60.0551         calculate D2E/DX2 analytically  !
 ! D76   D(10,11,12,25)        -60.1184         calculate D2E/DX2 analytically  !
 ! D77   D(10,11,12,26)       -179.141          calculate D2E/DX2 analytically  !
 ! D78   D(39,11,12,24)        172.9826         calculate D2E/DX2 analytically  !
 ! D79   D(39,11,12,25)         52.8091         calculate D2E/DX2 analytically  !
 ! D80   D(39,11,12,26)        -66.2135         calculate D2E/DX2 analytically  !
 ! D81   D(7,11,28,32)         133.9054         calculate D2E/DX2 analytically  !
 ! D82   D(7,11,28,38)         -85.2501         calculate D2E/DX2 analytically  !
 ! D83   D(10,11,28,32)         23.2529         calculate D2E/DX2 analytically  !
 ! D84   D(10,11,28,38)        164.0974         calculate D2E/DX2 analytically  !
 ! D85   D(12,11,28,32)        -96.0118         calculate D2E/DX2 analytically  !
 ! D86   D(12,11,28,38)         44.8327         calculate D2E/DX2 analytically  !
 ! D87   D(31,27,29,33)       -135.7054         calculate D2E/DX2 analytically  !
 ! D88   D(31,27,29,38)         96.124          calculate D2E/DX2 analytically  !
 ! D89   D(36,27,29,33)         89.8869         calculate D2E/DX2 analytically  !
 ! D90   D(36,27,29,38)        -38.2837         calculate D2E/DX2 analytically  !
 ! D91   D(32,28,29,33)         89.309          calculate D2E/DX2 analytically  !
 ! D92   D(32,28,29,37)       -142.4729         calculate D2E/DX2 analytically  !
 ! D93   D(39,28,29,33)        -51.396          calculate D2E/DX2 analytically  !
 ! D94   D(39,28,29,37)         76.822          calculate D2E/DX2 analytically  !
 ! D95   D(38,28,30,34)        -38.4387         calculate D2E/DX2 analytically  !
 ! D96   D(38,28,30,35)        102.1005         calculate D2E/DX2 analytically  !
 ! D97   D(39,28,30,34)        104.9664         calculate D2E/DX2 analytically  !
 ! D98   D(39,28,30,35)       -114.4944         calculate D2E/DX2 analytically  !
 ! D99   D(37,29,40,41)        -10.3006         calculate D2E/DX2 analytically  !
 ! D100  D(37,29,40,42)        120.3189         calculate D2E/DX2 analytically  !
 ! D101  D(38,29,40,41)        119.9612         calculate D2E/DX2 analytically  !
 ! D102  D(38,29,40,42)       -109.4193         calculate D2E/DX2 analytically  !
 --------------------------------------------------------------------------------
 Trust Radius=5.00D-02 FncErr=1.00D-07 GrdErr=1.00D-06 EigMax=2.50D+02 EigMin=1.00D-04
 Number of steps in this run=    232 maximum allowed number of steps=    252.
 Search for a saddle point of order  1.
 GradGradGradGradGradGradGradGradGradGradGradGradGradGradGradGradGradGrad

                          Input orientation:                          
 ---------------------------------------------------------------------
 Center     Atomic      Atomic             Coordinates (Angstroms)
 Number     Number       Type             X           Y           Z
 ---------------------------------------------------------------------
      1          7           0       -2.590622    0.412015   -0.805301
      2          6           0       -3.460699    1.237768   -0.213089
      3          6           0       -3.056656    2.346990    0.521726
      4          6           0       -1.693289    2.595012    0.658342
      5          6           0       -0.773103    1.746416    0.043812
      6          6           0       -1.287116    0.673813   -0.686381
      7          6           0        0.713986    1.969716    0.166465
      8          6           0        1.470649    2.190763   -1.153650
      9          6           0        2.908307    1.695730   -0.864893
     10          6           0        2.849768    1.146163    0.566980
     11          7           0        1.425636    0.818968    0.769121
     12          6           0        1.081328    0.583216    2.169088
     13          1           0       -4.517272    0.997438   -0.332952
     14          1           0       -3.797071    2.996881    0.984225
     15          1           0       -1.346519    3.448884    1.241867
     16          1           0       -0.619386   -0.015674   -1.204467
     17          1           0        0.871914    2.846506    0.821432
     18          1           0        1.007844    1.605925   -1.956804
     19          1           0        1.430581    3.243164   -1.452006
     20          1           0        3.194360    0.908619   -1.571289
     21          1           0        3.649356    2.496831   -0.948517
     22          1           0        3.466424    0.252324    0.720345
     23          1           0        3.162485    1.910136    1.298898
     24          1           0        1.288544    1.470890    2.790026
     25          1           0        1.670613   -0.258188    2.551968
     26          1           0        0.017806    0.330787    2.252527
     27          8           0       -2.665965   -2.175348   -1.627067
     28          8           0        1.276017   -1.414069   -0.546311
     29          8           0       -0.520952   -2.983643   -0.427031
     30          8           0        3.867016   -2.215857   -0.641052
     31          1           0       -2.937306   -2.361180   -2.528543
     32          1           0        2.179404   -1.789119   -0.584411
     33          1           0       -0.816007   -3.276837    0.463093
     34          1           0        4.247991   -2.932759   -0.126125
     35          1           0        4.317121   -2.240559   -1.490486
     36          1           0       -2.810875   -1.210294   -1.455055
     37          1           0       -1.329648   -2.709999   -0.951536
     38          1           0        0.380405   -2.193608   -0.442850
     39          1           0        1.277318   -0.518358   -0.002374
     40          8           0       -1.327935   -3.769135    2.030739
     41          1           0       -2.238815   -3.601611    2.290182
     42          1           0       -1.138868   -4.666177    2.321488
 ---------------------------------------------------------------------
                    Distance matrix (angstroms):
                    1          2          3          4          5
     1  N    0.000000
     2  C    1.337766   0.000000
     3  C    2.392136   1.390531   0.000000
     4  C    2.777217   2.392748   1.392461   0.000000
     5  C    2.409356   2.747343   2.409088   1.394455   0.000000
     6  C    1.334844   2.294889   2.718513   2.379971   1.395661
     7  C    3.780370   4.255327   3.806086   2.535333   1.508755
     8  C    4.447383   5.109897   4.829884   3.668411   2.581818
     9  C    5.647096   6.418630   6.158542   4.929872   3.792241
    10  C    5.658619   6.359158   6.027427   4.769369   3.709340
    11  N    4.332983   5.001640   4.742046   3.590863   2.494130
    12  C    4.728585   5.170417   4.790367   3.745421   3.051024
    13  H    2.068288   1.090171   2.164524   3.392608   3.836889
    14  H    3.367411   2.154341   1.088337   2.166471   3.404765
    15  H    3.867979   3.387578   2.158088   1.090802   2.159291
    16  H    2.056216   3.259909   3.808177   3.382160   2.164900
    17  H    4.534552   4.736012   3.971524   2.582656   2.126258
    18  H    3.962365   4.810817   4.817930   3.887596   2.682159
    19  H    4.960212   5.429655   4.983377   3.825210   3.055151
    20  H    5.856566   6.800210   6.747209   5.630656   4.364770
    21  H    6.580600   7.258028   6.866925   5.579919   4.594125
    22  H    6.248272   7.058855   6.854024   5.666981   4.545723
    23  H    6.306367   6.826767   6.282719   4.945494   4.134114
    24  H    5.394026   5.623909   4.979307   3.833935   3.444996
    25  H    5.466128   6.017789   5.766793   4.800251   4.034976
    26  H    4.020051   4.359114   4.063627   3.255148   2.740067
    27  O    2.715773   3.778928   5.022100   5.378246   4.664225
    28  O    4.283988   5.438727   5.835951   5.132319   3.812585
    29  O    3.994636   5.148611   5.978761   5.802913   4.760119
    30  O    6.973792   8.112095   8.373103   7.466584   6.139980
    31  H    3.283346   4.311345   5.611172   6.022263   5.307837
    32  H    5.258035   6.411762   6.763672   5.980200   4.648868
    33  H    4.285523   5.275725   6.054038   5.940232   5.040903
    34  H    7.642998   8.764973   9.036223   8.152941   6.865489
    35  H    7.431187   8.615392   8.914437   8.007823   6.645331
    36  H    1.761414   2.820950   4.077051   4.493974   3.891176
    37  H    3.370224   4.546597   5.543121   5.555815   4.600010
    38  H    3.968330   5.155697   5.775883   5.333265   4.134152
    39  H    4.058478   5.057389   5.221899   4.353633   3.055415
    40  O    5.207640   5.886639   6.532425   6.520684   5.888720
    41  H    5.080844   5.583812   6.259565   6.431068   5.982966
    42  H    6.137787   6.831658   7.490098   7.469826   6.814906
                    6          7          8          9         10
     6  C    0.000000
     7  C    2.532019   0.000000
     8  C    3.181941   1.537564   0.000000
     9  C    4.321777   2.440044   1.547675   0.000000
    10  C    4.348314   2.323837   2.440026   1.534833   0.000000
    11  N    3.081977   1.481169   2.362392   2.374242   1.475151
    12  C    3.710989   2.463295   3.711653   3.712220   2.451742
    13  H    3.265510   5.344231   6.160582   7.477285   7.423293
    14  H    3.806237   4.698237   5.741882   7.076321   6.912288
    15  H    3.379747   2.755015   3.906124   5.061179   4.833924
    16  H    1.090719   2.756648   3.039604   3.935585   4.064839
    17  H    3.414016   1.105750   2.165509   2.883552   2.620652
    18  H    2.783819   2.174159   1.096029   2.193649   3.158093
    19  H    3.817542   2.180511   1.094609   2.218767   3.238489
    20  H    4.574038   3.209045   2.188492   1.095612   2.178845
    21  H    5.268858   3.183933   2.209643   1.094490   2.181829
    22  H    4.975206   3.291221   3.354478   2.215377   1.096692
    23  H    5.026806   2.698352   2.992666   2.189193   1.103245
    24  H    4.399405   2.731669   4.012974   4.004075   2.735837
    25  H    4.483714   3.401370   4.446229   4.126090   2.702367
    26  H    3.233832   2.742701   4.143948   4.465017   3.394984
    27  O    3.302095   5.641133   6.033127   6.829251   6.802175
    28  O    3.308855   3.503417   3.660814   3.526573   3.204824
    29  O    3.745832   5.139365   5.591863   5.817910   5.422648
    30  O    5.909088   5.302141   5.042185   4.033577   3.714473
    31  H    3.915082   6.273090   6.483871   7.307355   7.441367
    32  H    4.253609   4.103670   4.082380   3.571294   3.223503
    33  H    4.141361   5.473133   6.143070   6.352990   5.745575
    34  H    6.630133   6.050542   5.917763   4.874776   4.367268
    35  H    6.367701   5.783985   5.277545   4.227351   4.225657
    36  H    2.542157   5.016616   5.476265   6.442229   6.456345
    37  H    3.394451   5.227437   5.648007   6.113773   5.885864
    38  H    3.325964   4.220878   4.573465   4.657828   4.274527
    39  H    2.909546   2.556631   2.949941   2.882057   2.359532
    40  O    5.208089   6.370194   7.313877   7.496344   6.614828
    41  H    5.295744   6.653487   7.692314   8.031761   7.169690
    42  H    6.130640   7.218883   8.118115   8.185750   7.264352
                   11         12         13         14         15
    11  N    0.000000
    12  C    1.460834   0.000000
    13  H    6.046865   6.146227   0.000000
    14  H    5.662706   5.570319   2.500283   0.000000
    15  H    3.850297   3.868622   4.306195   2.505173   0.000000
    16  H    2.962059   3.825176   4.120613   4.895257   4.303073
    17  H    2.102440   2.642444   5.813345   4.674242   2.336893
    18  H    2.867842   4.251390   5.790860   5.802725   4.378472
    19  H    3.287880   4.506620   6.455426   5.772714   3.874475
    20  H    2.934952   4.308272   7.810931   7.731209   5.914928
    21  H    3.272680   4.469469   8.325918   7.709398   5.537414
    22  H    2.118556   2.810165   8.087276   7.769208   5.801241
    23  H    2.118480   2.617090   7.904089   7.050919   4.764674
    24  H    2.127875   1.102936   6.609436   5.608301   3.640441
    25  H    2.097337   1.096273   6.941850   6.553538   4.955990
    26  H    2.102570   1.096249   5.262704   4.823892   3.550401
    27  O    5.607927   6.005220   3.894694   5.903406   6.450093
    28  O    2.595997   3.376454   6.278781   6.894581   5.807201
    29  O    4.436196   4.693572   5.641669   6.963567   6.696580
    30  O    4.142353   4.846829   8.984235   9.410228   7.925631
    31  H    6.326389   6.847381   4.312450   6.464329   7.106577
    32  H    3.033535   3.796775   7.257658   7.815668   6.572983
    33  H    4.679128   4.627127   5.709858   6.965476   6.791410
    34  H    4.779394   5.259072   9.608281  10.055672   8.596238
    35  H    4.777783   5.642388   9.480032   9.969708   8.480114
    36  H    5.197392   5.612516   3.007488   4.962156   5.579038
    37  H    4.796442   5.137739   4.928355   6.511822   6.537824
    38  H    3.411304   3.876115   5.846545   6.813885   6.136632
    39  H    1.551014   2.442770   5.998683   6.251376   4.916469
    40  O    5.497683   4.976610   6.203154   7.278104   7.261024
    41  H    5.939979   5.343294   5.763979   6.904620   7.183637
    42  H    6.250867   5.701633   7.108882   8.220509   8.189195
                   16         17         18         19         20
    16  H    0.000000
    17  H    3.810553   0.000000
    18  H    2.417327   3.045671   0.000000
    19  H    3.857935   2.374440   1.764675   0.000000
    20  H    3.941261   3.856718   2.327168   2.928352   0.000000
    21  H    4.959874   3.311975   2.964446   2.394468   1.765583
    22  H    4.524441   3.670352   3.878657   4.220058   2.399235
    23  H    4.927284   2.520214   3.915944   3.513393   3.040070
    24  H    4.669694   2.437470   4.757039   4.599561   4.792635
    25  H    4.406099   3.643048   4.923739   5.324367   4.548021
    26  H    3.532259   3.017677   4.508283   4.919496   5.004593
    27  O    3.005207   6.612923   5.282388   6.795043   6.622490
    28  O    2.445655   4.492941   3.343916   4.746998   3.182059
    29  O    3.069680   6.122857   5.073614   6.605466   5.501143
    30  O    5.028523   6.061107   4.950968   6.032808   3.328687
    31  H    3.553495   7.269971   5.623968   7.186518   7.014645
    32  H    3.370876   5.017464   3.844781   5.161136   3.046614
    33  H    3.668051   6.361825   5.746625   7.157176   6.143272
    34  H    5.776120   6.759857   5.869377   6.916486   4.237313
    35  H    5.422271   6.564499   5.095508   6.197162   3.344315
    36  H    2.508493   5.933208   4.771316   6.150061   6.369156
    37  H    2.797827   6.234183   5.010153   6.580994   5.826246
    38  H    2.514565   5.219458   4.137896   5.628477   4.337687
    39  H    2.301131   3.487882   2.899136   4.034101   2.858812
    40  O    5.005704   7.075907   7.088556   8.301281   7.436877
    41  H    5.262515   7.308356   7.462983   8.620869   8.048138
    42  H    5.859129   7.920468   7.889957   9.132305   8.062811
                   21         22         23         24         25
    21  H    0.000000
    22  H    2.802923   0.000000
    23  H    2.373211   1.781977   0.000000
    24  H    4.539019   3.242167   2.434760   0.000000
    25  H    4.874315   2.615416   2.915046   1.786717   0.000000
    26  H    5.303450   3.774481   3.645923   1.789837   1.779980
    27  O    7.884984   7.000723   7.695666   6.960165   6.320265
    28  O    4.592347   3.029714   4.244278   4.410702   3.330330
    29  O    6.906447   5.261855   6.363616   5.785032   4.594072
    30  O    4.727720   2.847067   4.613414   5.657996   4.341893
    31  H    8.335519   7.641560   8.372628   7.799343   7.174056
    32  H    4.545624   2.743410   4.265887   4.775784   3.526966
    33  H    7.434201   5.555211   6.590270   5.690752   4.433838
    34  H    5.524051   3.387051   5.163588   6.054287   4.579125
    35  H    4.814821   3.438884   5.132457   6.424167   5.222570
    36  H    7.465517   6.802654   7.280273   6.481874   6.086581
    37  H    7.204274   5.879868   6.825640   6.191450   5.223742
    38  H    5.739508   4.105986   5.254938   4.970387   3.792021
    39  H    3.951344   2.430732   3.338375   3.428517   2.597505
    40  O    8.538836   6.393367   7.276921   5.905958   4.646474
    41  H    9.074730   7.061654   7.780491   6.198578   5.150790
    42  H    9.215677   6.925607   7.924344   6.616302   5.232272
                   26         27         28         29         30
    26  H    0.000000
    27  O    5.341778   0.000000
    28  O    3.530030   4.157740   0.000000
    29  O    4.296014   2.587375   2.388909   0.000000
    30  O    5.447441   6.607095   2.713875   4.459772   0.000000
    31  H    6.232014   0.959593   4.751669   3.262297   7.062757
    32  H    4.149063   4.971308   0.978888   2.956954   1.741651
    33  H    4.112453   3.000732   2.977476   0.982518   4.927019
    34  H    5.848349   7.115426   3.363868   4.778698   0.961374
    35  H    6.253485   6.984726   3.289812   5.008998   0.961635
    36  H    4.911469   0.990917   4.191661   3.073328   6.802057
    37  H    4.618228   1.589949   2.938219   1.001986   5.229330
    38  H    3.710675   3.268497   1.191850   1.198687   3.492311
    39  H    2.718823   4.575448   1.047935   3.080867   3.161637
    40  O    4.320830   4.208328   4.355237   2.703489   6.044721
    41  H    4.534039   4.190647   5.018474   3.273558   6.913293
    42  H    5.129552   4.911959   4.963078   3.281326   6.311861
                   31         32         33         34         35
    31  H    0.000000
    32  H    5.503419   0.000000
    33  H    3.779977   3.504719   0.000000
    34  H    7.597816   2.407694   5.109760   0.000000
    35  H    7.329313   2.365292   5.589217   1.531470   0.000000
    36  H    1.578892   5.098622   3.453895   7.386510   7.202154
    37  H    2.278857   3.646402   1.608200   5.642781   5.691822
    38  H    3.922423   1.849337   1.850816   3.950301   4.074000
    39  H    5.247912   1.663538   3.493977   3.830084   3.797480
    40  O    5.035818   4.802177   1.721029   6.036766   6.826582
    41  H    5.024606   5.573964   2.338400   6.954463   7.689357
    42  H    5.663055   5.266179   2.342677   6.165533   7.083967
                   36         37         38         39         40
    36  H    0.000000
    37  H    2.167182   0.000000
    38  H    3.489374   1.857337   0.000000
    39  H    4.393447   3.535600   1.950624   0.000000
    40  O    4.571383   3.164765   3.394017   4.635563   0.000000
    41  H    4.480229   3.482857   4.038843   5.208210   0.961809
    42  H    5.385259   3.817816   4.007911   5.333169   0.961751
                   41         42
    41  H    0.000000
    42  H    1.531066   0.000000
 Stoichiometry    C10H25N2O5(1+)
 Framework group  C1[X(C10H25N2O5)]
 Deg. of freedom   120
 Full point group                 C1      NOp   1
 Largest Abelian subgroup         C1      NOp   1
 Largest concise Abelian subgroup C1      NOp   1
                         Standard orientation:                         
 ---------------------------------------------------------------------
 Center     Atomic      Atomic             Coordinates (Angstroms)
 Number     Number       Type             X           Y           Z
 ---------------------------------------------------------------------
      1          7           0        2.590622   -0.412014   -0.805301
      2          6           0        3.460699   -1.237767   -0.213089
      3          6           0        3.056657   -2.346989    0.521726
      4          6           0        1.693290   -2.595012    0.658342
      5          6           0        0.773103   -1.746416    0.043812
      6          6           0        1.287116   -0.673813   -0.686381
      7          6           0       -0.713986   -1.969716    0.166465
      8          6           0       -1.470648   -2.190763   -1.153650
      9          6           0       -2.908307   -1.695731   -0.864893
     10          6           0       -2.849768   -1.146164    0.566980
     11          7           0       -1.425636   -0.818968    0.769121
     12          6           0       -1.081328   -0.583216    2.169088
     13          1           0        4.517272   -0.997437   -0.332952
     14          1           0        3.797072   -2.996880    0.984225
     15          1           0        1.346520   -3.448884    1.241867
     16          1           0        0.619386    0.015674   -1.204467
     17          1           0       -0.871913   -2.846506    0.821432
     18          1           0       -1.007844   -1.605925   -1.956804
     19          1           0       -1.430580   -3.243164   -1.452006
     20          1           0       -3.194360   -0.908620   -1.571289
     21          1           0       -3.649355   -2.496832   -0.948517
     22          1           0       -3.466424   -0.252325    0.720345
     23          1           0       -3.162485   -1.910137    1.298898
     24          1           0       -1.288544   -1.470890    2.790026
     25          1           0       -1.670613    0.258188    2.551968
     26          1           0       -0.017806   -0.330787    2.252527
     27          8           0        2.665964    2.175349   -1.627067
     28          8           0       -1.276017    1.414069   -0.546311
     29          8           0        0.520951    2.983643   -0.427031
     30          8           0       -3.867017    2.215856   -0.641052
     31          1           0        2.937305    2.361181   -2.528543
     32          1           0       -2.179404    1.789119   -0.584411
     33          1           0        0.816006    3.276837    0.463093
     34          1           0       -4.247992    2.932758   -0.126125
     35          1           0       -4.317122    2.240558   -1.490486
     36          1           0        2.810875    1.210295   -1.455055
     37          1           0        1.329647    2.709999   -0.951536
     38          1           0       -0.380406    2.193608   -0.442850
     39          1           0       -1.277318    0.518358   -0.002374
     40          8           0        1.327934    3.769135    2.030739
     41          1           0        2.238814    3.601612    2.290182
     42          1           0        1.138867    4.666177    2.321488
 ---------------------------------------------------------------------
 Rotational constants (GHZ):           0.3686115           0.3247272           0.2170175
 Standard basis: Aug-CC-pVDZ (5D, 7F)
 There are   650 symmetry adapted cartesian basis functions of A   symmetry.
 There are   616 symmetry adapted basis functions of A   symmetry.
   616 basis functions,  1006 primitive gaussians,   650 cartesian basis functions
    69 alpha electrons       69 beta electrons
       nuclear repulsion energy      1383.9480684404 Hartrees.
 NAtoms=   42 NActive=   42 NUniq=   42 SFac= 1.00D+00 NAtFMM=   60 NAOKFM=F Big=F
 Integral buffers will be    131072 words long.
 Raffenetti 2 integral format.
 Two-electron integral symmetry is turned on.
 Nuclear repulsion after empirical dispersion term =     1383.9156604444 Hartrees.
 One-electron integrals computed using PRISM.
 NBasis=   616 RedAO= T EigKep=  1.89D-06  NBF=   616
 NBsUse=   616 1.00D-06 EigRej= -1.00D+00 NBFU=   616
 ExpMin= 2.97D-02 ExpMax= 1.17D+04 ExpMxC= 4.01D+02 IAcc=3 IRadAn=         5 AccDes= 0.00D+00
 Harris functional with IExCor= 4639 and IRadAn=       5 diagonalized for initial guess.
 HarFok:  IExCor= 4639 AccDes= 0.00D+00 IRadAn=         5 IDoV= 1 UseB2=F ITyADJ=14
 ICtDFT=  3500011 ScaDFX=  1.000000  1.000000  1.000000  1.000000
 FoFCou: FMM=F IPFlag=           0 FMFlag=      100000 FMFlg1=           0
         NFxFlg=           0 DoJE=T BraDBF=F KetDBF=T FulRan=T
         wScrn=  0.000000 ICntrl=       500 IOpCl=  0 I1Cent=   200000004 NGrid=           0
         NMat0=    1 NMatS0=      1 NMatT0=    0 NMatD0=    1 NMtDS0=    0 NMtDT0=    0
 Petite list used in FoFCou.
 Requested convergence on RMS density matrix=1.00D-08 within 128 cycles.
 Requested convergence on MAX density matrix=1.00D-06.
 Requested convergence on             energy=1.00D-06.
 No special actions if energy rises.
 SCF Done:  E(RwB97XD) =  -881.458527312     A.U. after   16 cycles
            NFock= 16  Conv=0.14D-08     -V/T= 2.0062
 DoSCS=F DFT=T ScalE2(SS,OS)=  1.000000  1.000000
 Range of M.O.s used for correlation:     1   616
 NBasis=   616 NAE=    69 NBE=    69 NFC=     0 NFV=     0
 NROrb=    616 NOA=    69 NOB=    69 NVA=   547 NVB=   547

 **** Warning!!: The largest alpha MO coefficient is  0.10891242D+03

 Symmetrizing basis deriv contribution to polar:
 IMax=3 JMax=2 DiffMx= 0.00D+00
 G2DrvN: will do    43 centers at a time, making    1 passes.
 Calling FoFCou, ICntrl=  3107 FMM=F I1Cent=   0 AccDes= 0.00D+00.
 End of G2Drv F.D. properties file   721 does not exist.
 End of G2Drv F.D. properties file   722 does not exist.
 End of G2Drv F.D. properties file   788 does not exist.
          IDoAtm=111111111111111111111111111111111111111111
          Differentiating once with respect to electric field.
                with respect to dipole field.
          Differentiating once with respect to nuclear coordinates.
 CalDSu exits because no D1Ps are significant.
          There are   129 degrees of freedom in the 1st order CPHF.  IDoFFX=6 NUNeed=     3.
    126 vectors produced by pass  0 Test12= 3.77D-14 1.00D-09 XBig12= 8.09D+01 3.45D+00.
 AX will form   126 AO Fock derivatives at one time.
    126 vectors produced by pass  1 Test12= 3.77D-14 1.00D-09 XBig12= 9.68D+00 5.90D-01.
    126 vectors produced by pass  2 Test12= 3.77D-14 1.00D-09 XBig12= 1.77D-01 5.87D-02.
    126 vectors produced by pass  3 Test12= 3.77D-14 1.00D-09 XBig12= 1.75D-03 4.02D-03.
    126 vectors produced by pass  4 Test12= 3.77D-14 1.00D-09 XBig12= 1.68D-05 3.96D-04.
    126 vectors produced by pass  5 Test12= 3.77D-14 1.00D-09 XBig12= 1.09D-07 2.41D-05.
    120 vectors produced by pass  6 Test12= 3.77D-14 1.00D-09 XBig12= 6.14D-10 1.98D-06.
     48 vectors produced by pass  7 Test12= 3.77D-14 1.00D-09 XBig12= 3.14D-12 1.31D-07.
      3 vectors produced by pass  8 Test12= 3.77D-14 1.00D-09 XBig12= 1.94D-14 7.88D-09.
      3 vectors produced by pass  9 Test12= 3.77D-14 1.00D-09 XBig12= 2.65D-15 3.28D-09.
 InvSVY:  IOpt=1 It=  1 EMax= 3.73D-14
 Solved reduced A of dimension   930 with   129 vectors.
 Isotropic polarizability for W=    0.000000      172.47 Bohr**3.
 End of Minotr F.D. properties file   721 does not exist.
 End of Minotr F.D. properties file   722 does not exist.
 End of Minotr F.D. properties file   788 does not exist.

 **********************************************************************

            Population analysis using the SCF density.

 **********************************************************************

 Orbital symmetries:
       Occupied  (A) (A) (A) (A) (A) (A) (A) (A) (A) (A) (A) (A)
                 (A) (A) (A) (A) (A) (A) (A) (A) (A) (A) (A) (A)
                 (A) (A) (A) (A) (A) (A) (A) (A) (A) (A) (A) (A)
                 (A) (A) (A) (A) (A) (A) (A) (A) (A) (A) (A) (A)
                 (A) (A) (A) (A) (A) (A) (A) (A) (A) (A) (A) (A)
                 (A) (A) (A) (A) (A) (A) (A) (A) (A)
       Virtual   (A) (A) (A) (A) (A) (A) (A) (A) (A) (A) (A) (A)
                 (A) (A) (A) (A) (A) (A) (A) (A) (A) (A) (A) (A)
                 (A) (A) (A) (A) (A) (A) (A) (A) (A) (A) (A) (A)
                 (A) (A) (A) (A) (A) (A) (A) (A) (A) (A) (A) (A)
                 (A) (A) (A) (A) (A) (A) (A) (A) (A) (A) (A) (A)
                 (A) (A) (A) (A) (A) (A) (A) (A) (A) (A) (A) (A)
                 (A) (A) (A) (A) (A) (A) (A) (A) (A) (A) (A) (A)
                 (A) (A) (A) (A) (A) (A) (A) (A) (A) (A) (A) (A)
                 (A) (A) (A) (A) (A) (A) (A) (A) (A) (A) (A) (A)
                 (A) (A) (A) (A) (A) (A) (A) (A) (A) (A) (A) (A)
                 (A) (A) (A) (A) (A) (A) (A) (A) (A) (A) (A) (A)
                 (A) (A) (A) (A) (A) (A) (A) (A) (A) (A) (A) (A)
                 (A) (A) (A) (A) (A) (A) (A) (A) (A) (A) (A) (A)
                 (A) (A) (A) (A) (A) (A) (A) (A) (A) (A) (A) (A)
                 (A) (A) (A) (A) (A) (A) (A) (A) (A) (A) (A) (A)
                 (A) (A) (A) (A) (A) (A) (A) (A) (A) (A) (A) (A)
                 (A) (A) (A) (A) (A) (A) (A) (A) (A) (A) (A) (A)
                 (A) (A) (A) (A) (A) (A) (A) (A) (A) (A) (A) (A)
                 (A) (A) (A) (A) (A) (A) (A) (A) (A) (A) (A) (A)
                 (A) (A) (A) (A) (A) (A) (A) (A) (A) (A) (A) (A)
                 (A) (A) (A) (A) (A) (A) (A) (A) (A) (A) (A) (A)
                 (A) (A) (A) (A) (A) (A) (A) (A) (A) (A) (A) (A)
                 (A) (A) (A) (A) (A) (A) (A) (A) (A) (A) (A) (A)
                 (A) (A) (A) (A) (A) (A) (A) (A) (A) (A) (A) (A)
                 (A) (A) (A) (A) (A) (A) (A) (A) (A) (A) (A) (A)
                 (A) (A) (A) (A) (A) (A) (A) (A) (A) (A) (A) (A)
                 (A) (A) (A) (A) (A) (A) (A) (A) (A) (A) (A) (A)
                 (A) (A) (A) (A) (A) (A) (A) (A) (A) (A) (A) (A)
                 (A) (A) (A) (A) (A) (A) (A) (A) (A) (A) (A) (A)
                 (A) (A) (A) (A) (A) (A) (A) (A) (A) (A) (A) (A)
                 (A) (A) (A) (A) (A) (A) (A) (A) (A) (A) (A) (A)
                 (A) (A) (A) (A) (A) (A) (A) (A) (A) (A) (A) (A)
                 (A) (A) (A) (A) (A) (A) (A) (A) (A) (A) (A) (A)
                 (A) (A) (A) (A) (A) (A) (A) (A) (A) (A) (A) (A)
                 (A) (A) (A) (A) (A) (A) (A) (A) (A) (A) (A) (A)
                 (A) (A) (A) (A) (A) (A) (A) (A) (A) (A) (A) (A)
                 (A) (A) (A) (A) (A) (A) (A) (A) (A) (A) (A) (A)
                 (A) (A) (A) (A) (A) (A) (A) (A) (A) (A) (A) (A)
                 (A) (A) (A) (A) (A) (A) (A) (A) (A) (A) (A) (A)
                 (A) (A) (A) (A) (A) (A) (A) (A) (A) (A) (A) (A)
                 (A) (A) (A) (A) (A) (A) (A) (A) (A) (A) (A) (A)
                 (A) (A) (A) (A) (A) (A) (A) (A) (A) (A) (A) (A)
                 (A) (A) (A) (A) (A) (A) (A) (A) (A) (A) (A) (A)
                 (A) (A) (A) (A) (A) (A) (A) (A) (A) (A) (A) (A)
                 (A) (A) (A) (A) (A) (A) (A) (A) (A) (A) (A) (A)
                 (A) (A) (A) (A) (A) (A) (A)
 The electronic state is 1-A.
 Alpha  occ. eigenvalues --  -19.42070 -19.41579 -19.40556 -19.40154 -19.37716
 Alpha  occ. eigenvalues --  -14.58642 -14.57452 -10.45089 -10.45059 -10.44870
 Alpha  occ. eigenvalues --  -10.43376 -10.43227 -10.43208 -10.43050 -10.42077
 Alpha  occ. eigenvalues --  -10.40531 -10.40309  -1.27378  -1.26395  -1.25674
 Alpha  occ. eigenvalues --   -1.23777  -1.21744  -1.17597  -1.16669  -1.03446
 Alpha  occ. eigenvalues --   -1.00380  -0.99032  -0.93465  -0.89208  -0.85088
 Alpha  occ. eigenvalues --   -0.83890  -0.79911  -0.79240  -0.78182  -0.76669
 Alpha  occ. eigenvalues --   -0.76650  -0.76192  -0.76108  -0.73738  -0.71996
 Alpha  occ. eigenvalues --   -0.70580  -0.69654  -0.68554  -0.65475  -0.65145
 Alpha  occ. eigenvalues --   -0.64429  -0.63792  -0.62893  -0.61622  -0.61028
 Alpha  occ. eigenvalues --   -0.60767  -0.60197  -0.59121  -0.58369  -0.57872
 Alpha  occ. eigenvalues --   -0.56554  -0.56132  -0.55344  -0.54966  -0.54669
 Alpha  occ. eigenvalues --   -0.54244  -0.53822  -0.53530  -0.51706  -0.51529
 Alpha  occ. eigenvalues --   -0.48216  -0.47102  -0.45465  -0.44860
 Alpha virt. eigenvalues --   -0.08104  -0.06894  -0.06850  -0.05820  -0.04423
 Alpha virt. eigenvalues --   -0.04202  -0.03266  -0.03016  -0.02656  -0.02297
 Alpha virt. eigenvalues --   -0.02022  -0.01393  -0.00731  -0.00547  -0.00339
 Alpha virt. eigenvalues --    0.00076   0.00286   0.00435   0.00773   0.01565
 Alpha virt. eigenvalues --    0.01863   0.02458   0.02686   0.02955   0.03256
 Alpha virt. eigenvalues --    0.03379   0.03563   0.04202   0.04592   0.04950
 Alpha virt. eigenvalues --    0.05367   0.05492   0.05714   0.05940   0.06318
 Alpha virt. eigenvalues --    0.06667   0.06874   0.06934   0.07160   0.07415
 Alpha virt. eigenvalues --    0.07880   0.08220   0.08287   0.08700   0.08886
 Alpha virt. eigenvalues --    0.08954   0.09206   0.09608   0.09845   0.10137
 Alpha virt. eigenvalues --    0.10472   0.10657   0.11113   0.11431   0.11765
 Alpha virt. eigenvalues --    0.11844   0.12097   0.12229   0.12531   0.12536
 Alpha virt. eigenvalues --    0.13205   0.13405   0.13927   0.14102   0.14412
 Alpha virt. eigenvalues --    0.14791   0.15402   0.15503   0.15639   0.15864
 Alpha virt. eigenvalues --    0.16102   0.16671   0.16823   0.16938   0.17247
 Alpha virt. eigenvalues --    0.17534   0.17760   0.17930   0.18069   0.18684
 Alpha virt. eigenvalues --    0.18719   0.19348   0.19475   0.19651   0.19903
 Alpha virt. eigenvalues --    0.20045   0.20395   0.20651   0.20853   0.21271
 Alpha virt. eigenvalues --    0.21903   0.22014   0.22308   0.22671   0.22841
 Alpha virt. eigenvalues --    0.23061   0.23382   0.23749   0.24265   0.24714
 Alpha virt. eigenvalues --    0.24849   0.25418   0.25756   0.25873   0.26098
 Alpha virt. eigenvalues --    0.26471   0.26871   0.27310   0.27718   0.27810
 Alpha virt. eigenvalues --    0.27983   0.28331   0.28697   0.29068   0.29214
 Alpha virt. eigenvalues --    0.29528   0.29838   0.30227   0.30695   0.31062
 Alpha virt. eigenvalues --    0.31394   0.31614   0.32064   0.32365   0.32958
 Alpha virt. eigenvalues --    0.33123   0.33498   0.33859   0.34136   0.34353
 Alpha virt. eigenvalues --    0.35191   0.35576   0.35761   0.36130   0.36533
 Alpha virt. eigenvalues --    0.37089   0.37656   0.37893   0.38011   0.38124
 Alpha virt. eigenvalues --    0.38521   0.38719   0.39369   0.39812   0.40216
 Alpha virt. eigenvalues --    0.40581   0.41218   0.41489   0.41646   0.42197
 Alpha virt. eigenvalues --    0.42482   0.43163   0.43378   0.43708   0.44045
 Alpha virt. eigenvalues --    0.44526   0.44711   0.45162   0.45415   0.45628
 Alpha virt. eigenvalues --    0.46030   0.46378   0.47018   0.47286   0.48031
 Alpha virt. eigenvalues --    0.48412   0.48719   0.49093   0.49415   0.49725
 Alpha virt. eigenvalues --    0.50047   0.50350   0.50650   0.51048   0.51455
 Alpha virt. eigenvalues --    0.51581   0.52153   0.52315   0.52357   0.52787
 Alpha virt. eigenvalues --    0.53102   0.53555   0.54152   0.54567   0.54782
 Alpha virt. eigenvalues --    0.55023   0.55375   0.55733   0.55991   0.56331
 Alpha virt. eigenvalues --    0.56497   0.57237   0.57930   0.58350   0.58477
 Alpha virt. eigenvalues --    0.58789   0.59399   0.59715   0.60358   0.60667
 Alpha virt. eigenvalues --    0.61199   0.61791   0.61873   0.62542   0.62806
 Alpha virt. eigenvalues --    0.63058   0.63505   0.63687   0.64215   0.64606
 Alpha virt. eigenvalues --    0.64926   0.65383   0.65933   0.66109   0.66838
 Alpha virt. eigenvalues --    0.67559   0.68133   0.68877   0.69133   0.69197
 Alpha virt. eigenvalues --    0.69952   0.70020   0.70698   0.71085   0.71299
 Alpha virt. eigenvalues --    0.71683   0.72177   0.72551   0.72671   0.72933
 Alpha virt. eigenvalues --    0.73824   0.74281   0.74409   0.75184   0.75343
 Alpha virt. eigenvalues --    0.75772   0.76400   0.77228   0.77517   0.78149
 Alpha virt. eigenvalues --    0.78753   0.79207   0.79377   0.80130   0.80304
 Alpha virt. eigenvalues --    0.80641   0.81152   0.81870   0.82723   0.83157
 Alpha virt. eigenvalues --    0.83660   0.83744   0.84466   0.85779   0.86091
 Alpha virt. eigenvalues --    0.86291   0.86876   0.87225   0.87619   0.88618
 Alpha virt. eigenvalues --    0.88855   0.89540   0.90699   0.91186   0.91894
 Alpha virt. eigenvalues --    0.92355   0.92964   0.93087   0.94396   0.94633
 Alpha virt. eigenvalues --    0.95502   0.96247   0.96626   0.96961   0.97507
 Alpha virt. eigenvalues --    0.98033   0.98949   0.99423   0.99944   1.01425
 Alpha virt. eigenvalues --    1.02278   1.02758   1.02791   1.03736   1.04311
 Alpha virt. eigenvalues --    1.05142   1.05587   1.06169   1.07592   1.08262
 Alpha virt. eigenvalues --    1.09256   1.09474   1.10098   1.11169   1.11996
 Alpha virt. eigenvalues --    1.12943   1.13610   1.14284   1.14554   1.15169
 Alpha virt. eigenvalues --    1.15463   1.16590   1.17832   1.18611   1.19168
 Alpha virt. eigenvalues --    1.20177   1.20578   1.21235   1.21964   1.22357
 Alpha virt. eigenvalues --    1.22672   1.23468   1.24381   1.24959   1.25725
 Alpha virt. eigenvalues --    1.27211   1.27794   1.28932   1.30538   1.30809
 Alpha virt. eigenvalues --    1.31909   1.32550   1.33633   1.33750   1.34313
 Alpha virt. eigenvalues --    1.35227   1.35500   1.36748   1.37970   1.38543
 Alpha virt. eigenvalues --    1.39158   1.39837   1.40770   1.42008   1.42930
 Alpha virt. eigenvalues --    1.43258   1.44720   1.45206   1.46323   1.46557
 Alpha virt. eigenvalues --    1.47458   1.48120   1.49324   1.50554   1.50935
 Alpha virt. eigenvalues --    1.51784   1.52684   1.53393   1.54208   1.55185
 Alpha virt. eigenvalues --    1.55929   1.57768   1.58785   1.59630   1.60236
 Alpha virt. eigenvalues --    1.61422   1.61860   1.62340   1.63232   1.64567
 Alpha virt. eigenvalues --    1.64747   1.65744   1.66236   1.67216   1.67950
 Alpha virt. eigenvalues --    1.68276   1.69900   1.70289   1.71082   1.71743
 Alpha virt. eigenvalues --    1.72164   1.72388   1.72846   1.73731   1.74366
 Alpha virt. eigenvalues --    1.74684   1.75043   1.75851   1.76474   1.77724
 Alpha virt. eigenvalues --    1.78266   1.80105   1.80909   1.81215   1.81870
 Alpha virt. eigenvalues --    1.82997   1.83389   1.83687   1.84387   1.85579
 Alpha virt. eigenvalues --    1.86367   1.87007   1.87497   1.87681   1.87960
 Alpha virt. eigenvalues --    1.88503   1.89509   1.89882   1.90343   1.91138
 Alpha virt. eigenvalues --    1.91702   1.92382   1.93346   1.94357   1.95188
 Alpha virt. eigenvalues --    1.96375   1.96619   1.99313   1.99355   2.00417
 Alpha virt. eigenvalues --    2.01544   2.01776   2.02068   2.02657   2.03418
 Alpha virt. eigenvalues --    2.04786   2.05333   2.06621   2.08577   2.09298
 Alpha virt. eigenvalues --    2.10300   2.10837   2.11700   2.12367   2.13152
 Alpha virt. eigenvalues --    2.13427   2.13729   2.14224   2.15321   2.16317
 Alpha virt. eigenvalues --    2.17282   2.17758   2.18925   2.19672   2.20119
 Alpha virt. eigenvalues --    2.20591   2.21400   2.23308   2.24019   2.24582
 Alpha virt. eigenvalues --    2.26138   2.27131   2.28253   2.28720   2.28931
 Alpha virt. eigenvalues --    2.30111   2.30217   2.31140   2.31534   2.32455
 Alpha virt. eigenvalues --    2.34179   2.35362   2.35678   2.38513   2.38761
 Alpha virt. eigenvalues --    2.41904   2.42415   2.43035   2.44730   2.46100
 Alpha virt. eigenvalues --    2.47178   2.47545   2.48088   2.50093   2.51332
 Alpha virt. eigenvalues --    2.52268   2.53433   2.54129   2.55730   2.56197
 Alpha virt. eigenvalues --    2.57374   2.58013   2.59591   2.59997   2.60981
 Alpha virt. eigenvalues --    2.62505   2.62734   2.63469   2.64805   2.65607
 Alpha virt. eigenvalues --    2.66088   2.67452   2.68184   2.69905   2.70458
 Alpha virt. eigenvalues --    2.72739   2.73810   2.74351   2.75799   2.76089
 Alpha virt. eigenvalues --    2.77781   2.79004   2.80702   2.81697   2.83634
 Alpha virt. eigenvalues --    2.83832   2.85824   2.87351   2.87821   2.88146
 Alpha virt. eigenvalues --    2.90834   2.91876   2.94008   2.94872   2.97198
 Alpha virt. eigenvalues --    2.98354   2.99709   3.01129   3.03620   3.06729
 Alpha virt. eigenvalues --    3.08168   3.11187   3.16037   3.19326   3.22961
 Alpha virt. eigenvalues --    3.29909   3.30214   3.31284   3.33682   3.34959
 Alpha virt. eigenvalues --    3.38882   3.39997   3.41867   3.42109   3.42561
 Alpha virt. eigenvalues --    3.44568   3.44666   3.45750   3.48009   3.50306
 Alpha virt. eigenvalues --    3.55026   3.58492   3.66221   3.66440   3.68545
 Alpha virt. eigenvalues --    3.72875   3.84122   3.89895   3.90160   3.93512
 Alpha virt. eigenvalues --    4.02279   4.03399   4.11518   4.13815   4.28149
 Alpha virt. eigenvalues --    4.34654   5.04274
          Condensed to atoms (all electrons):
               1          2          3          4          5          6
     1  N    7.959172   0.105114   0.351206  -0.572935  -0.243105  -0.551465
     2  C    0.105114  10.141378  -2.644492   1.668036  -1.201540  -0.907296
     3  C    0.351206  -2.644492  11.654872  -4.320856   0.627369  -0.430375
     4  C   -0.572935   1.668036  -4.320856  22.791291  -9.001405  -1.801375
     5  C   -0.243105  -1.201540   0.627369  -9.001405  24.717975  -3.866940
     6  C   -0.551465  -0.907296  -0.430375  -1.801375  -3.866940  16.795097
     7  C    0.735209  -1.102966   0.786323  -1.421419 -10.485938  -1.578657
     8  C   -0.039174  -0.142086   0.014215  -0.053123   0.234963  -0.913887
     9  C    0.025810   0.023733  -0.032389  -0.017161   0.261111  -0.012832
    10  C    0.034000  -0.051009   0.006598  -0.056590  -0.176370  -0.284841
    11  N   -0.045134   0.109125  -0.166178  -0.490145   2.242544   0.186665
    12  C   -0.000514   0.000928   0.055772  -0.189637   0.639037  -0.067736
    13  H   -0.161945  -0.487059   0.063483   0.252333  -0.070909   0.145671
    14  H   -0.070243   0.392549  -1.186747   0.611531  -0.091474   0.022969
    15  H   -0.044732  -0.203420   0.653409  -2.529707   1.271238   0.145128
    16  H   -0.064888  -0.044753   0.049380  -0.156384  -0.729646  -1.210982
    17  H    0.010722   0.047069  -0.033398   0.024506   0.986292  -0.240692
    18  H    0.032245  -0.003864  -0.014440   0.034229  -0.054979  -0.245183
    19  H   -0.021203   0.004940  -0.005610  -0.044531   0.501188   0.296815
    20  H    0.000772  -0.002139  -0.001240   0.009009  -0.077467  -0.037466
    21  H   -0.000053   0.003916  -0.003625   0.001262  -0.038630   0.031878
    22  H    0.005288  -0.001072  -0.000014   0.019869  -0.270407  -0.021344
    23  H   -0.004929  -0.004131   0.005277   0.026171   0.279976   0.021629
    24  H    0.000729   0.024746  -0.035376   0.041309   0.189712   0.021480
    25  H   -0.000383  -0.005697   0.015264  -0.027056  -0.061024  -0.038938
    26  H   -0.012014  -0.031929   0.052865   0.036374   0.018336   0.072355
    27  O   -0.044422   0.038398  -0.012229   0.020624  -0.095937   0.001590
    28  O    0.014062   0.004395   0.001393  -0.003289  -0.062284  -0.081916
    29  O    0.021847   0.030097  -0.011938  -0.005602   0.057978  -0.138205
    30  O    0.000444   0.000221  -0.000043   0.000315  -0.004083  -0.000159
    31  H   -0.003077  -0.013609   0.008638  -0.005271   0.009796   0.003396
    32  H    0.000064   0.006547  -0.006305   0.015518  -0.048639   0.064256
    33  H    0.000313   0.003182  -0.000355   0.000636  -0.004766   0.013381
    34  H   -0.000031   0.000058  -0.000053   0.000074   0.001757   0.000152
    35  H   -0.000041  -0.000110   0.000144  -0.000201  -0.002062   0.000102
    36  H    0.146404   0.084322  -0.063234   0.023514  -0.018796  -0.131172
    37  H   -0.007519  -0.002297  -0.000227   0.005963  -0.007883   0.006168
    38  H    0.007549  -0.010566   0.007337  -0.031771   0.086919  -0.077876
    39  H   -0.028652  -0.074114   0.057536  -0.066445  -0.166442  -0.134633
    40  O    0.000975  -0.000221   0.000573  -0.003162  -0.001231   0.005163
    41  H    0.000857  -0.002049   0.001885  -0.001845  -0.001375   0.001134
    42  H    0.000014   0.000290  -0.000371   0.000012   0.001617  -0.000314
               7          8          9         10         11         12
     1  N    0.735209  -0.039174   0.025810   0.034000  -0.045134  -0.000514
     2  C   -1.102966  -0.142086   0.023733  -0.051009   0.109125   0.000928
     3  C    0.786323   0.014215  -0.032389   0.006598  -0.166178   0.055772
     4  C   -1.421419  -0.053123  -0.017161  -0.056590  -0.490145  -0.189637
     5  C  -10.485938   0.234963   0.261111  -0.176370   2.242544   0.639037
     6  C   -1.578657  -0.913887  -0.012832  -0.284841   0.186665  -0.067736
     7  C   29.344109  -1.918282   0.343598  -1.005181  -7.084935  -1.077585
     8  C   -1.918282   8.782282  -1.136171   0.930003  -0.556439  -0.203187
     9  C    0.343598  -1.136171   6.664619  -0.232589  -0.821313   0.030390
    10  C   -1.005181   0.930003  -0.232589   6.278469   0.183141  -0.283502
    11  N   -7.084935  -0.556439  -0.821313   0.183141  18.477857   1.214343
    12  C   -1.077585  -0.203187   0.030390  -0.283502   1.214343   4.941027
    13  H   -0.042449   0.003409   0.000545  -0.001410   0.006670   0.003808
    14  H    0.046445  -0.000394   0.000155   0.000369  -0.003618  -0.010246
    15  H   -0.169761  -0.061320  -0.006025   0.000003   0.039650   0.055013
    16  H    0.085455   0.071347  -0.000927   0.044444  -0.278632   0.053073
    17  H   -2.670444   0.702877  -0.024328   0.025856  -0.549124  -0.098910
    18  H    0.026331  -0.227337   0.402295  -0.006806  -0.189093  -0.051417
    19  H   -0.129044  -1.049241   0.101484  -0.175043   0.380582   0.077034
    20  H    0.211891   0.238003  -0.514099   0.070259   0.119715   0.007569
    21  H    0.037002   0.177425  -0.184695   0.083215  -0.193238  -0.019096
    22  H    0.880065   0.025092   0.322868  -0.619300  -1.493991  -0.125101
    23  H   -0.060791   0.031845  -0.085660  -0.137376  -0.420125  -0.058608
    24  H   -0.240746   0.023233   0.058633   0.018847  -0.675809   0.346764
    25  H    0.257364  -0.094465   0.081932   0.006431  -0.366997   0.088100
    26  H   -0.061415   0.106075  -0.065037  -0.017822   0.045587  -0.019738
    27  O    0.008590  -0.002434  -0.001424  -0.000472   0.002086   0.000526
    28  O    0.121513  -0.006886   0.094259  -0.013413  -0.252295  -0.010070
    29  O   -0.020780  -0.004573   0.010730  -0.002439  -0.056967   0.030689
    30  O    0.027598  -0.019499   0.021838  -0.051403  -0.014433   0.000011
    31  H   -0.004723   0.001467  -0.000032   0.000428   0.001420   0.000209
    32  H    0.004836   0.039034  -0.017898  -0.015742  -0.009142   0.047099
    33  H   -0.014463  -0.004469  -0.000024  -0.000722   0.011766   0.003371
    34  H   -0.004780   0.000085   0.000052   0.000313   0.006336   0.002292
    35  H    0.005057   0.001600  -0.009040   0.005636  -0.007315  -0.003141
    36  H    0.036194  -0.008618  -0.000488  -0.001643  -0.008951  -0.005808
    37  H    0.002519   0.005455  -0.002281  -0.001722   0.002105   0.001583
    38  H    0.010581  -0.008281   0.026745   0.015438  -0.052237  -0.035629
    39  H    0.745189   0.028128  -0.095838  -0.036974  -0.636491  -0.341837
    40  O    0.001954  -0.000443   0.000024   0.000134   0.003351  -0.002481
    41  H    0.001837  -0.000083  -0.000031   0.000112   0.000162  -0.001555
    42  H   -0.000433   0.000050   0.000015  -0.000046   0.000088   0.000612
              13         14         15         16         17         18
     1  N   -0.161945  -0.070243  -0.044732  -0.064888   0.010722   0.032245
     2  C   -0.487059   0.392549  -0.203420  -0.044753   0.047069  -0.003864
     3  C    0.063483  -1.186747   0.653409   0.049380  -0.033398  -0.014440
     4  C    0.252333   0.611531  -2.529707  -0.156384   0.024506   0.034229
     5  C   -0.070909  -0.091474   1.271238  -0.729646   0.986292  -0.054979
     6  C    0.145671   0.022969   0.145128  -1.210982  -0.240692  -0.245183
     7  C   -0.042449   0.046445  -0.169761   0.085455  -2.670444   0.026331
     8  C    0.003409  -0.000394  -0.061320   0.071347   0.702877  -0.227337
     9  C    0.000545   0.000155  -0.006025  -0.000927  -0.024328   0.402295
    10  C   -0.001410   0.000369   0.000003   0.044444   0.025856  -0.006806
    11  N    0.006670  -0.003618   0.039650  -0.278632  -0.549124  -0.189093
    12  C    0.003808  -0.010246   0.055013   0.053073  -0.098910  -0.051417
    13  H    2.055964  -0.121226  -0.003088   0.013682  -0.000321  -0.002057
    14  H   -0.121226   2.160590  -0.145109  -0.010224   0.003381   0.001813
    15  H   -0.003088  -0.145109   3.097617   0.000613  -0.177610  -0.010613
    16  H    0.013682  -0.010224   0.000613   4.592031  -0.063307  -0.201327
    17  H   -0.000321   0.003381  -0.177610  -0.063307   3.804574   0.265259
    18  H   -0.002057   0.001813  -0.010613  -0.201327   0.265259   2.459241
    19  H    0.001758  -0.002913   0.016415   0.095571  -0.372315  -0.761477
    20  H    0.000066  -0.000075  -0.000075   0.035217  -0.074893  -0.458301
    21  H    0.000056   0.000006   0.000939  -0.008362   0.086238   0.218929
    22  H   -0.000173   0.000209  -0.005042  -0.023182   0.142973   0.073404
    23  H    0.000158  -0.000613   0.006407   0.017775  -0.145865  -0.073195
    24  H    0.000522  -0.000135   0.006329   0.016037   0.085714  -0.002987
    25  H    0.000411  -0.001027   0.002155  -0.004441   0.024477  -0.004543
    26  H   -0.003050  -0.000404  -0.007081  -0.000503   0.014649   0.011083
    27  O    0.004406  -0.000009   0.000120  -0.007673   0.000165   0.001865
    28  O    0.000441  -0.000064  -0.000599   0.090125   0.001572  -0.003411
    29  O    0.001585  -0.000424   0.000058   0.081727  -0.000953  -0.003355
    30  O    0.000012  -0.000002  -0.000023   0.004588   0.001232  -0.001124
    31  H    0.003530  -0.000449   0.000245   0.000851  -0.000174   0.000838
    32  H    0.000033  -0.000154   0.001093   0.014840  -0.005350  -0.009247
    33  H    0.000529  -0.000188   0.000729   0.000503  -0.001235  -0.002756
    34  H    0.000006  -0.000002   0.000026   0.000884  -0.000441  -0.000511
    35  H   -0.000006   0.000004  -0.000039  -0.002136   0.000579   0.001441
    36  H   -0.058987   0.008542  -0.003037  -0.024287   0.000222   0.000131
    37  H    0.001327  -0.000080  -0.000383  -0.005024   0.000111   0.002513
    38  H   -0.002395   0.000963  -0.002704  -0.038187   0.007489   0.016254
    39  H    0.000433   0.000670  -0.007570  -0.073855   0.053982   0.071523
    40  O   -0.000078   0.000014  -0.000078  -0.005100   0.000267   0.000089
    41  H   -0.000124  -0.000011   0.000004  -0.001881   0.000087   0.000033
    42  H    0.000013   0.000003  -0.000026  -0.000046  -0.000003   0.000006
              19         20         21         22         23         24
     1  N   -0.021203   0.000772  -0.000053   0.005288  -0.004929   0.000729
     2  C    0.004940  -0.002139   0.003916  -0.001072  -0.004131   0.024746
     3  C   -0.005610  -0.001240  -0.003625  -0.000014   0.005277  -0.035376
     4  C   -0.044531   0.009009   0.001262   0.019869   0.026171   0.041309
     5  C    0.501188  -0.077467  -0.038630  -0.270407   0.279976   0.189712
     6  C    0.296815  -0.037466   0.031878  -0.021344   0.021629   0.021480
     7  C   -0.129044   0.211891   0.037002   0.880065  -0.060791  -0.240746
     8  C   -1.049241   0.238003   0.177425   0.025092   0.031845   0.023233
     9  C    0.101484  -0.514099  -0.184695   0.322868  -0.085660   0.058633
    10  C   -0.175043   0.070259   0.083215  -0.619300  -0.137376   0.018847
    11  N    0.380582   0.119715  -0.193238  -1.493991  -0.420125  -0.675809
    12  C    0.077034   0.007569  -0.019096  -0.125101  -0.058608   0.346764
    13  H    0.001758   0.000066   0.000056  -0.000173   0.000158   0.000522
    14  H   -0.002913  -0.000075   0.000006   0.000209  -0.000613  -0.000135
    15  H    0.016415  -0.000075   0.000939  -0.005042   0.006407   0.006329
    16  H    0.095571   0.035217  -0.008362  -0.023182   0.017775   0.016037
    17  H   -0.372315  -0.074893   0.086238   0.142973  -0.145865   0.085714
    18  H   -0.761477  -0.458301   0.218929   0.073404  -0.073195  -0.002987
    19  H    2.736443   0.207501  -0.333028  -0.053871   0.083729   0.009036
    20  H    0.207501   2.339172  -0.644863  -0.377096   0.221902  -0.002548
    21  H   -0.333028  -0.644863   2.182221   0.175242  -0.296226   0.008806
    22  H   -0.053871  -0.377096   0.175242   3.500122  -0.770248   0.049216
    23  H    0.083729   0.221902  -0.296226  -0.770248   2.841267   0.000711
    24  H    0.009036  -0.002548   0.008806   0.049216   0.000711   2.201678
    25  H    0.000368   0.008495  -0.001836   0.012011   0.019252  -0.439226
    26  H   -0.000243  -0.007229  -0.001355   0.009923   0.023627  -0.398849
    27  O    0.000082  -0.000813  -0.000037   0.000129  -0.000061   0.000183
    28  O   -0.001541  -0.001980   0.001953   0.103768  -0.015413  -0.006645
    29  O    0.000169   0.002544   0.000239   0.002124  -0.000401   0.002134
    30  O   -0.000515  -0.002243   0.005547   0.017050  -0.008505   0.000299
    31  H    0.000032  -0.000031  -0.000013  -0.000013   0.000025  -0.000094
    32  H    0.003762  -0.001787   0.004892   0.026087  -0.013043   0.017090
    33  H    0.000595   0.000364  -0.000099  -0.001596   0.000212   0.000098
    34  H    0.000261   0.002325  -0.000472  -0.005613   0.001321   0.000108
    35  H   -0.000388   0.001313  -0.000347   0.002561   0.000533  -0.000634
    36  H   -0.000740  -0.000499   0.000131   0.000605  -0.000029   0.000575
    37  H   -0.000441  -0.000635   0.000158   0.000630  -0.000144   0.000826
    38  H   -0.003903  -0.002636  -0.001488  -0.001951   0.000256  -0.005673
    39  H   -0.032961   0.044194  -0.005270   0.051794   0.089300  -0.123264
    40  O   -0.000035  -0.000107   0.000019   0.000138  -0.000096  -0.000309
    41  H   -0.000012  -0.000023   0.000001   0.000081  -0.000045  -0.000261
    42  H   -0.000004   0.000003   0.000006  -0.000031   0.000003   0.000149
              25         26         27         28         29         30
     1  N   -0.000383  -0.012014  -0.044422   0.014062   0.021847   0.000444
     2  C   -0.005697  -0.031929   0.038398   0.004395   0.030097   0.000221
     3  C    0.015264   0.052865  -0.012229   0.001393  -0.011938  -0.000043
     4  C   -0.027056   0.036374   0.020624  -0.003289  -0.005602   0.000315
     5  C   -0.061024   0.018336  -0.095937  -0.062284   0.057978  -0.004083
     6  C   -0.038938   0.072355   0.001590  -0.081916  -0.138205  -0.000159
     7  C    0.257364  -0.061415   0.008590   0.121513  -0.020780   0.027598
     8  C   -0.094465   0.106075  -0.002434  -0.006886  -0.004573  -0.019499
     9  C    0.081932  -0.065037  -0.001424   0.094259   0.010730   0.021838
    10  C    0.006431  -0.017822  -0.000472  -0.013413  -0.002439  -0.051403
    11  N   -0.366997   0.045587   0.002086  -0.252295  -0.056967  -0.014433
    12  C    0.088100  -0.019738   0.000526  -0.010070   0.030689   0.000011
    13  H    0.000411  -0.003050   0.004406   0.000441   0.001585   0.000012
    14  H   -0.001027  -0.000404  -0.000009  -0.000064  -0.000424  -0.000002
    15  H    0.002155  -0.007081   0.000120  -0.000599   0.000058  -0.000023
    16  H   -0.004441  -0.000503  -0.007673   0.090125   0.081727   0.004588
    17  H    0.024477   0.014649   0.000165   0.001572  -0.000953   0.001232
    18  H   -0.004543   0.011083   0.001865  -0.003411  -0.003355  -0.001124
    19  H    0.000368  -0.000243   0.000082  -0.001541   0.000169  -0.000515
    20  H    0.008495  -0.007229  -0.000813  -0.001980   0.002544  -0.002243
    21  H   -0.001836  -0.001355  -0.000037   0.001953   0.000239   0.005547
    22  H    0.012011   0.009923   0.000129   0.103768   0.002124   0.017050
    23  H    0.019252   0.023627  -0.000061  -0.015413  -0.000401  -0.008505
    24  H   -0.439226  -0.398849   0.000183  -0.006645   0.002134   0.000299
    25  H    2.263843  -0.634360  -0.000387   0.018228   0.004573   0.005698
    26  H   -0.634360   1.958761   0.000644   0.004533   0.000581  -0.000788
    27  O   -0.000387   0.000644   8.012371   0.001389  -0.098496  -0.000213
    28  O    0.018228   0.004533   0.001389   8.399431  -0.070186  -0.073408
    29  O    0.004573   0.000581  -0.098496  -0.070186   8.407260   0.001919
    30  O    0.005698  -0.000788  -0.000213  -0.073408   0.001919   7.892543
    31  H    0.000080   0.000248   0.379976  -0.000471   0.006532   0.000022
    32  H   -0.016389  -0.005103   0.006681   0.401930   0.031501  -0.066049
    33  H   -0.000742  -0.000668   0.001467   0.003044   0.308141  -0.000641
    34  H    0.000000   0.000149  -0.000075   0.004423  -0.000281   0.337847
[...]
 0.00001027,0.00077988,-0.00301752,-0.00157824,-0.00029139,-0.00039814,
 0.00059783,0.00002280,-0.00002029,-0.00000301,0.00000708,-0.00000665,0
 .00000305,0.00000852,-0.00002151,0.00000055,-0.00027709,0.00072918,0.0
 0001935,0.00007926,-0.00021405,0.00003561,-0.00000121,0.00001884,-0.00
 003412,-0.00000737,-0.00001389,-0.00001623,-0.00000759,-0.00000229,0.0
 0000529,-0.00000837,0.00001483,0.00000448,0.00001016,0.00007766,0.0000
 5257,-0.00001642,-0.00004554,-0.00003165,0.00008402,0.00012327,-0.0002
 8016,-0.00025003,0.00002061,-0.00014191,0.00025237,-0.00018292,-0.0001
 1889,-0.00082336,0.00149928,-0.00129779,0.01542341,-0.00219227,-0.0290
 3551,-0.01771182,0.00256599,-0.05265303,-0.00042399,0.00008399,-0.0000
 9900,-0.00039785,0.00011624,0.00004901,-0.00080106,-0.00024400,-0.0027
 5986,0.01399055,0.01167751,0.00606118,-0.00012553,-0.00004331,0.000183
 89,0.00008582,0.00011999,0.00006181,-0.00039999,-0.00028882,-0.0001191
 7,-0.00254276,-0.01245761,0.00457621,0.00352557,-0.00067882,0.07442329
 ,-0.00006547,-0.00021405,0.00008590,0.00013414,-0.00043887,-0.00043691
 ,0.00048031,0.00018607,0.00012511,-0.00067802,0.00016815,0.00010594,0.
 00048705,0.00009032,0.00014453,-0.00120450,0.00140577,0.00076218,0.001
 26350,0.00524084,0.00391587,0.00032325,-0.00025850,0.00015977,0.000115
 73,-0.00042415,0.00024630,-0.00335183,-0.01002812,-0.00606599,-0.02443
 668,0.00071675,-0.00066688,0.00083785,0.00240327,0.00162418,0.00004779
 ,-0.00003056,-0.00005159,0.00000244,-0.00001408,0.00001595,0.00006719,
 -0.00008372,-0.00008282,-0.00155797,-0.00006261,-0.00187668,-0.0006700
 6,0.00108044,-0.00066827,0.00003628,-0.00002364,-0.00019734,-0.0001617
 9,-0.00003901,-0.00003023,-0.00023298,-0.00003487,0.00043445,-0.000080
 19,0.00034376,-0.00003966,-0.00120871,-0.00021771,-0.00064301,-0.00205
 698,-0.00044904,0.00040651,-0.00012966,-0.00015841,0.00066184,0.000149
 74,-0.00003516,-0.00041326,-0.00028406,0.00035490,0.00045058,-0.000250
 82,0.00051911,-0.00005037,-0.06987471,-0.01629511,-0.00519140,-0.00628
 821,-0.00310400,0.00225811,-0.00191107,-0.00022802,-0.00045775,-0.0000
 2032,-0.00000447,-0.00002692,0.00739419,0.02583810,0.01748033,-0.00060
 103,-0.00060756,-0.00074492,-0.00010400,-0.00006545,-0.00003195,0.0000
 2300,-0.00002616,-0.00002034,-0.00011791,-0.00048973,-0.00021589,0.000
 34473,-0.00072475,0.00046480,0.01291475,-0.00029861,-0.01037559,0.0907
 2154,-0.00031701,-0.00198642,-0.00090663,-0.00068503,0.00032029,0.0001
 6486,-0.00013504,-0.00051738,-0.00025991,-0.00057359,-0.00043711,-0.00
 054752,0.00222504,0.00065430,-0.00063295,-0.00057144,0.00104505,0.0017
 6269,0.00788068,-0.01014762,0.00699550,-0.00053593,-0.00000366,0.00099
 987,-0.00054375,-0.00011610,0.00155801,-0.01368157,-0.00292621,0.00152
 572,-0.00059369,0.01916937,0.01909480,0.00376080,0.00853745,-0.0087158
 4,-0.00000933,-0.00000798,-0.00001820,-0.00014852,-0.00007555,0.000008
 48,0.00033239,-0.00026047,-0.00015010,-0.00029319,0.00142005,-0.000203
 41,-0.00136285,0.00457549,0.00008350,-0.00014228,0.00006979,-0.0004077
 9,0.00032783,0.00030770,-0.00054191,0.00039573,-0.00007145,-0.00082121
 ,0.00020545,0.00018378,-0.00065072,0.00241554,0.00021645,0.00039400,0.
 00356130,0.00237397,0.00095116,-0.00033033,0.00124534,0.00564800,0.000
 69030,-0.00046470,0.00187922,-0.00106323,0.00003269,0.00120182,0.00280
 212,-0.00254800,0.00065206,0.00929375,-0.14673201,-0.08151111,0.013904
 87,0.00828478,-0.00114280,-0.00649375,0.00013421,-0.00033791,-0.000135
 51,-0.00011970,-0.00005489,0.01214988,-0.00454062,-0.00191096,-0.00107
 218,-0.00101418,0.00369216,0.00018574,0.00000259,0.00067724,0.00041769
 ,0.00084892,-0.00036734,-0.00026124,0.00287935,0.00107282,-0.00454033,
 0.00213726,-0.00305193,-0.02371902,-0.01835515,0.00227774,-0.00400086,
 0.13547776,0.00038182,-0.00134099,-0.00079293,-0.00023052,0.00000620,-
 0.00003118,0.00016436,-0.00024994,-0.00010911,-0.00058166,-0.00022288,
 -0.00028651,0.00136149,0.00014891,-0.00056033,-0.00120974,0.00188980,0
 .00193962,0.00669839,0.00127548,0.00946162,-0.00032217,0.00070019,0.00
 107469,-0.00006187,0.00069037,0.00118474,-0.00699706,0.00001394,0.0030
 3454,-0.00106710,0.02587552,-0.01483475,0.00041477,-0.00531808,-0.0109
 3060,0.00003883,-0.00004235,-0.00003897,-0.00007194,-0.00005395,0.0000
 0639,0.00023788,-0.00021772,-0.00012838,-0.00205348,0.00043502,-0.0011
 4183,-0.00160988,0.00390637,-0.00085093,-0.00045095,0.00026855,-0.0009
 9794,0.00004287,-0.00015762,-0.00059844,0.00088761,-0.00002960,-0.0009
 2418,0.00008667,-0.00022495,-0.00058486,0.00081119,-0.00008364,0.00037
 024,0.00235987,0.00137066,0.00040985,0.00039080,0.00129533,0.00081581,
 -0.00022139,-0.00032025,0.00012668,-0.00027019,-0.00022865,0.00066690,
 0.00156020,-0.00117972,0.00036286,0.00991559,-0.08852651,-0.07931760,0
 .01155592,0.00586061,-0.00105240,-0.00378347,0.00016279,-0.00049649,-0
 .00008459,-0.00010228,-0.00003825,0.00694805,0.00412782,0.00069867,-0.
 00017872,-0.00011099,0.00256365,0.00004818,0.00012904,0.00057671,0.000
 18442,0.00020073,-0.00019355,-0.00021566,0.00130598,0.00055475,-0.0020
 2398,0.00134241,-0.00182802,-0.02162928,-0.00597386,0.00399612,-0.0013
 2221,0.05322272,0.08892212,0.00012313,0.00013273,-0.00007390,0.0000004
 7,-0.00012223,-0.00008415,0.00010282,0.00004548,0.00001281,-0.00006747
 ,0.00001521,0.00000796,-0.00000991,-0.00008242,-0.00003195,-0.00020296
 ,0.00008206,0.00013066,-0.00021131,0.00012576,-0.00010434,0.00002722,-
 0.00002841,0.00003912,0.00000577,0.00002831,-0.00001213,0.00004197,0.0
 0006933,0.00001013,0.00011704,-0.00042328,-0.00011079,-0.00018516,0.00
 009909,-0.00002959,0.00003806,-0.00003239,0.00002788,0.00000670,-0.000
 01876,0.00000755,-0.00000615,0.00000900,0.00000536,-0.00002596,0.00003
 852,-0.00005748,0.00002894,-0.00004391,-0.00000084,-0.00001097,0.00001
 729,0.00000334,-0.00000180,-0.00001982,0.00000595,0.00002460,0.0000032
 8,-0.00002131,0.00000685,-0.00001961,0.00000182,0.00004424,-0.00000297
 ,0.00001224,-0.00000106,-0.00002506,-0.00001258,0.00001553,-0.00008208
 ,0.00001209,0.00017323,0.00003881,0.00004749,-0.00007317,0.00002507,-0
 .00001001,0.00129975,-0.00015594,0.00007957,-0.00062801,-0.00119287,0.
 00012001,0.00316049,-0.00472714,0.00934249,-0.00020832,-0.00010706,0.0
 0012778,-0.00001124,-0.00004544,0.00002559,0.00020325,0.00004204,-0.00
 017594,-0.00802502,0.00566079,-0.00310544,0.00014831,0.00005087,-0.000
 07434,0.00003319,0.00003229,-0.00005703,-0.00009592,-0.00008633,0.0001
 7567,-0.00341338,0.00013014,0.00039836,0.00122495,0.00119196,-0.000182
 49,-0.00009120,0.00087714,0.00033301,0.56980542,-0.00004177,-0.0001463
 2,0.00014605,-0.00014027,0.00004994,-0.00000260,-0.00000999,0.00003029
 ,0.00002274,-0.00002280,0.00004432,0.00004698,0.00008139,-0.00000961,-
 0.00000778,0.00012797,0.00002569,0.00000819,0.00001060,0.00011137,-0.0
 0000867,-0.00000918,0.00000821,-0.00001786,-0.00001926,-0.00002012,0.0
 0000484,0.00019759,-0.00000270,0.00002896,-0.00022302,-0.00014597,0.00
 003927,0.00031932,0.00004710,-0.00008802,-0.00001329,0.00001245,-0.000
 02621,-0.00000431,0.00000920,-0.00001364,-0.00000553,0.00000835,-0.000
 01397,0.00002732,0.00002734,-0.00007175,-0.00000466,-0.00001924,-0.000
 01116,0.00000554,0.00000804,-0.00001010,-0.00000743,-0.00001320,0.0000
 0445,-0.00000165,0.00001361,0.00001205,-0.00001443,-0.00001858,0.00001
 108,-0.00000248,0.00000680,-0.00000512,-0.00001530,-0.00001512,-0.0000
 1326,-0.00009274,-0.00007348,0.00004014,0.00009654,0.00001485,0.000018
 76,-0.00014680,0.00015374,-0.00001158,0.00036741,0.00031891,0.00047904
 ,-0.00076240,-0.00029175,0.00007474,-0.00433815,0.00191583,0.00798716,
 -0.00015473,0.00016539,-0.00001451,-0.00003237,-0.00021181,-0.00000927
 ,0.00036057,-0.00024675,-0.00001470,0.00491937,-0.00805193,-0.00124235
 ,-0.00004432,-0.00008650,0.00003296,0.00000777,-0.00003431,-0.00000481
 ,-0.00003223,-0.00007947,-0.00026993,-0.00066034,-0.00005140,-0.000877
 85,0.00117765,0.00083349,0.00002689,0.00007841,0.00006998,-0.00005934,
 -0.17247606,0.49545539,-0.00000883,0.00067912,0.00021492,0.00025919,-0
 .00005339,-0.00003615,-0.00008735,0.00002353,0.00008515,0.00010852,-0.
 00001585,0.00002341,-0.00011778,0.00014859,0.00013514,-0.00002526,-0.0
 0027596,-0.00028551,-0.00007435,-0.00006733,0.00004921,0.00000664,-0.0
 0006897,-0.00001176,-0.00000173,-0.00003763,-0.00003899,-0.00013404,-0
 .00013043,0.00005046,0.00001992,0.00078829,0.00066507,0.00014749,0.000
 15943,-0.00041652,-0.00003262,-0.00001252,-0.00003548,-0.00000965,0.00
 004788,-0.00000337,0.00000913,0.00004685,-0.00000183,-0.00007098,-0.00
 017891,0.00008995,0.00000413,0.00010571,0.00001833,0.00001934,-0.00002
 187,0.00005762,0.00000243,0.00002023,0.00002872,-0.00004583,-0.0000099
 4,0.00005590,0.00000830,0.00003169,0.00002542,-0.00001670,-0.00004121,
 -0.00006089,0.00003809,0.00008765,0.00002719,-0.00000251,0.00004400,0.
 00010852,0.00016210,-0.00002230,-0.00005864,-0.00010514,0.00009490,-0.
 00014043,-0.00186586,0.00142370,-0.00091568,0.00404112,0.00412943,0.00
 079001,0.01002508,0.01075656,-0.01768287,0.00055852,-0.00003533,0.0001
 4987,-0.00000237,0.00016996,0.00014580,-0.00080329,0.00049004,-0.00003
 879,-0.00463187,-0.00428040,-0.00297774,-0.00005839,-0.00000073,-0.000
 16708,-0.00009282,-0.00004997,0.00000113,0.00010836,-0.00132805,-0.000
 48920,0.00413934,-0.00140929,0.00189678,-0.00763020,-0.00604599,-0.001
 28185,0.00026141,-0.00206793,-0.00131363,-0.09296796,-0.19146846,0.149
 06602,-0.00005215,-0.00004550,0.00000727,0.00007792,0.00006824,0.00005
 618,-0.00006718,-0.00003574,-0.00000678,0.00004833,-0.00001553,-0.0000
 1853,-0.00002288,0.00004250,0.00000378,0.00003781,-0.00004068,-0.00005
 362,0.00009235,-0.00006803,0.00004782,-0.00001233,0.00001475,-0.000013
 22,0.00000534,-0.00000850,0.00000491,-0.00004499,-0.00000371,-0.000020
 21,0.00000768,0.00014030,-0.00000842,-0.00006354,-0.00002336,0.0000489
 2,-0.00003077,0.00003016,-0.00002761,0.00000042,0.00001354,-0.00000115
 ,0.00000106,-0.00000961,0.00000068,-0.00000221,-0.00001007,0.00004047,
 -0.00001180,0.00001280,0.00000134,0.00000232,-0.00000696,-0.00000399,0
 .00000222,0.00000851,-0.00000525,-0.00000717,-0.00000105,0.00000179,-0
 .00000181,0.00000855,-0.00000478,-0.00001298,0.00000128,-0.00000165,0.
 00000241,0.00000461,0.00000524,0.00003277,0.00003214,-0.00001412,-0.00
 006085,0.00000173,-0.00000822,0.00004670,-0.00008618,0.00001653,-0.000
 46647,0.00003018,-0.00001316,0.00026906,0.00032922,-0.00003771,0.00067
 188,0.00091670,-0.00166447,0.00006442,0.00001935,-0.00002678,0.0000331
 1,0.00001893,-0.00002817,-0.00006583,0.00002470,0.00002233,-0.00180520
 ,-0.00119240,0.00215566,-0.00002817,-0.00001105,0.00001361,-0.00001057
 ,-0.00000950,0.00001614,0.00010737,0.00005898,-0.00005564,0.00058801,-
 0.00018422,0.00049787,-0.00050899,-0.00040294,0.00002681,0.00001124,-0
 .00019905,-0.00005376,-0.49997300,0.10247638,0.10049763,0.51116238,0.0
 0005133,0.00006164,-0.00017262,0.00008046,-0.00008313,-0.00004056,0.00
 006546,-0.00000781,-0.00003369,-0.00004165,-0.00002529,-0.00002523,-0.
 00004158,-0.00004082,-0.00002136,-0.00015737,0.00005572,0.00007310,-0.
 00008982,-0.00000952,-0.00004288,0.00001947,-0.00001528,0.00002921,0.0
 0000818,0.00002322,-0.00000527,-0.00006817,0.00001784,-0.00001471,0.00
 016364,-0.00012236,-0.00010926,-0.00022942,-0.00001276,0.00004860,0.00
 003302,-0.00002260,0.00004398,0.00000799,-0.00002294,0.00001382,0.0000
 0140,-0.00000695,0.00001195,-0.00000962,0.00001826,0.00000207,0.000013
 33,-0.00001289,0.00000556,-0.00000813,0.00000226,0.00000379,0.00000113
 ,0.00000125,-0.00000192,0.00001471,-0.00000654,-0.00001437,0.00001175,
 0.00000126,-0.00000671,0.00001705,-0.00000051,0.00001024,0.00000391,-0
 .00000324,0.00000042,0.00003784,-0.00000743,-0.00001691,0.00002977,-0.
 00000017,0.00001589,0.00000898,-0.00005702,0.00002083,0.00026258,-0.00
 050143,-0.00017175,-0.00022794,-0.00058002,-0.00005114,0.00003991,-0.0
 0123322,0.00180467,-0.00001954,-0.00006195,0.00000518,0.00004556,0.000
 09580,-0.00001625,-0.00000797,0.00003735,-0.00002045,-0.00050114,0.001
 36706,-0.00325578,0.00002852,0.00002749,-0.00000560,0.00000654,0.00002
 240,-0.00000185,-0.00003800,0.00026507,0.00034196,-0.00065649,0.000449
 26,0.00003337,0.00054256,0.00060323,-0.00008103,-0.00007202,0.00041487
 ,0.00021454,0.05252476,-0.04965981,0.01054581,-0.09580698,0.05662694,-
 0.00007032,-0.00036409,-0.00001852,-0.00011430,0.00010864,0.00006820,-
 0.00001695,-0.00001381,-0.00004618,-0.00002093,0.00000353,-0.00001946,
 0.00001377,-0.00002490,-0.00004001,0.00018186,0.00004483,0.00003279,0.
 00008775,-0.00001629,0.00003208,-0.00001228,0.00002178,-0.00000995,0.0
 0000490,0.00000130,0.00001050,0.00000432,0.00002622,-0.00002099,-0.000
 01631,-0.00005055,-0.00010359,-0.00005099,-0.00001990,0.00007210,-0.00
 000751,0.00002921,0.00000943,0.00000403,-0.00002270,0.00000414,-0.0000
 0838,-0.00002185,0.00000344,0.00003163,0.00002521,0.00000430,-0.000015
 61,-0.00001381,-0.00000807,0.00000097,-0.00000077,-0.00001544,0.000001
 02,-0.00000072,-0.00000705,0.00000142,0.00000112,-0.00000698,-0.000005
 94,-0.00000196,-0.00000552,-0.00000600,0.00000783,0.00000693,-0.000006
 69,-0.00001519,-0.00000287,-0.00000129,-0.00001875,-0.00001322,-0.0000
 3538,0.00001455,0.00001005,0.00002218,-0.00002813,0.00006118,-0.000368
 43,-0.00036391,0.00037735,-0.00030478,-0.00028799,-0.00009193,-0.00135
 066,0.00099268,-0.00286101,-0.00005887,-0.00000115,-0.00002732,-0.0000
 2978,-0.00005912,-0.00005051,0.00007296,-0.00004543,0.00002471,0.00385
 405,-0.00234584,0.00370333,0.00000870,0.00000316,0.00002249,0.00001442
 ,0.00000665,0.00000621,0.00004538,0.00058569,0.00000623,0.00119065,0.0
 0017990,-0.00061315,0.00054032,0.00045742,-0.00002539,0.00000803,0.000
 18218,0.00013243,0.12142161,-0.00423093,-0.04030385,-0.10682826,0.0001
 6653,0.03617150,-0.00003681,-0.00008781,-0.00000716,-0.00002360,0.0000
 2262,0.00001367,-0.00001170,-0.00001723,-0.00000822,0.00000107,-0.0000
 0037,-0.00000027,0.00003057,0.00000213,-0.00000234,0.00003204,0.000001
 23,0.00001260,0.00006214,-0.00001445,0.00002055,-0.00000678,0.00001488
 ,-0.00001128,-0.00000863,-0.00000717,0.00000869,0.00004922,-0.00002485
 ,-0.00000289,-0.00008125,0.00003044,-0.00003457,0.00011261,-0.00006969
 ,0.00003651,-0.00000325,0.00000752,-0.00000451,-0.00000117,0.00000184,
 -0.00000308,0.00000165,-0.00000437,-0.00000389,0.00001949,0.00001825,-
 0.00000996,-0.00000736,-0.00000022,-0.00000232,0.00000004,-0.00000215,
 -0.00000777,-0.00000233,0.00000315,-0.00000361,-0.00000025,0.00000218,
 0.00000496,-0.00000430,0.00000053,-0.00000049,-0.00001486,0.00000806,0
 .00000256,-0.00000862,-0.00000206,-0.00000081,-0.00002844,0.00000443,-
 0.00000432,-0.00003863,-0.00000419,-0.00000122,-0.00001846,0.00002357,
 0.00001078,0.00000115,-0.00015044,0.00006124,-0.00052808,-0.00014010,-
 0.00009300,-0.00149112,-0.00029643,0.00232059,-0.00001807,0.00012060,-
 0.00010675,0.00002664,0.00000803,-0.00003088,0.00014342,-0.00018096,0.
 00008454,0.00210626,-0.00115046,-0.00349204,-0.00009582,-0.00006690,0.
 00009018,-0.00000602,-0.00001806,0.00003354,0.00000289,0.00013927,0.00
 003117,-0.00007717,0.00012948,-0.00006487,0.00093051,0.00047250,0.0000
 4186,0.00002347,-0.00001752,0.00001769,-0.06338987,0.06902169,-0.01163
 119,-0.01001592,0.04395599,-0.01818033,0.07237535,-0.00001026,0.000050
 72,-0.00002851,0.00002007,-0.00000872,0.00000039,0.00000472,-0.0000018
 4,-0.00000778,-0.00000113,-0.00000216,-0.00001303,-0.00000726,0.000011
 87,0.00001052,-0.00000784,0.00001057,-0.00003170,0.00002445,-0.0000383
 7,0.00000716,0.00000093,0.00000408,0.00000157,0.00000178,0.00000300,0.
 00000084,-0.00005954,-0.00000984,-0.00000713,0.00004810,0.00008787,-0.
 00002210,-0.00000447,-0.00004419,0.00004366,0.00000475,-0.00000609,0.0
 0000871,0.00000098,-0.00000424,0.00000655,0.00000278,-0.00000420,0.000
 00470,-0.00000318,-0.00001165,0.00001986,-0.00000150,0.00000781,0.0000
 0313,-0.00000043,-0.00000210,0.00000133,0.00000192,0.00000628,-0.00000
 271,-0.00000159,-0.00000572,-0.00000376,0.00000423,0.00000826,-0.00000
 372,-0.00000619,0.00000066,0.00000453,0.00000357,0.00000443,0.00000517
 ,0.00000098,0.00002597,-0.00001390,-0.00006475,-0.00001044,-0.00000496
 ,0.00003861,-0.00002994,0.00001870,-0.00009606,-0.00000494,-0.00018445
 ,0.00026616,0.00018068,-0.00009875,0.00095330,0.00062643,-0.00163778,0
 .00007252,-0.00005445,-0.00003185,0.00000141,0.00006562,0.00001915,-0.
 00013798,0.00006417,0.00006186,-0.00144325,-0.00122319,0.00230793,-0.0
 0001022,0.00003879,0.00001448,-0.00000245,0.00001545,0.00000999,-0.000
 00593,-0.00004019,0.00003248,0.00013215,-0.00002373,0.00028276,-0.0003
 4908,-0.00030190,0.00001607,0.00000335,-0.00007709,0.00000034,0.118451
 82,-0.44015223,0.17782908,-0.00609250,-0.00759722,0.00508935,-0.111732
 96,0.44844177,-0.00000465,-0.00011145,-0.00003290,-0.00003058,0.000013
 79,0.00001358,-0.00000053,-0.00000768,-0.00000879,-0.00000839,0.000002
 46,0.00000347,0.00001597,-0.00001732,-0.00002349,0.00002038,0.00001676
 ,0.00002951,0.00002822,0.00000456,0.00000169,-0.00000335,0.00001349,-0
 .00000085,-0.00000147,0.00000552,0.00000870,0.00001596,0.00001844,-0.0
 0000226,-0.00002615,-0.00008118,-0.00009617,0.00002672,-0.00003500,0.0
 0006074,0.00000086,0.00000673,0.00000207,0.00000149,-0.00000399,0.0000
 0058,-0.00000247,-0.00000735,-0.00000015,0.00000825,0.00001607,-0.0000
 0208,-0.00000367,-0.00001384,-0.00000414,-0.00000387,0.00000158,-0.000
 00807,-0.00000016,-0.00000215,-0.00000422,0.00000445,0.00000079,-0.000
 00909,-0.00000218,-0.00000388,-0.00000317,0.00000036,0.00000911,0.0000
 1211,-0.00000341,-0.00001647,-0.00000562,-0.00001316,-0.00001533,-0.00
 000899,-0.00002921,0.00000928,0.00002166,0.00000848,0.00000246,0.00001
 368,0.00005657,-0.00028953,0.00000416,-0.00023686,-0.00033768,-0.00005
 123,0.00133236,-0.00087398,-0.00221730,-0.00008726,-0.00005797,-0.0000
 2918,-0.00000308,0.00005803,-0.00003506,0.00006911,0.00002775,-0.00000
 098,-0.00264183,0.00415366,0.00199251,0.00005247,0.00003285,0.00003999
 ,0.00002408,0.00002202,0.00000041,0.00000256,0.00021073,0.00009510,-0.
 00012848,0.00014321,0.00001989,0.00045333,0.00032979,-0.00013568,-0.00
 000181,0.00025651,0.00015250,-0.03523622,0.18950960,-0.08742437,0.0054
 3052,-0.00928220,0.00353165,0.03091665,-0.18370819,0.08409977\\0.00000
 019,0.00000083,0.00000009,-0.00000006,0.00000062,0.00000033,0.00000058
 ,0.00000123,0.00000086,0.00000185,0.00000096,0.00000100,-0.00000023,-0
 .00000061,-0.00000033,-0.00000014,0.00000094,0.00000006,0.00000074,0.0
 0000064,-0.00000061,0.00000073,-0.00000060,0.00000044,0.00000030,-0.00
 000092,0.00000033,0.00000049,-0.00000094,0.00000041,-0.00000074,0.0000
 0021,0.00000047,0.00000008,-0.00000076,0.00000002,0.00000011,0.0000011
 7,0.00000038,0.00000065,0.00000079,0.00000078,0.00000081,0.,0.00000052
 ,0.,0.00000046,0.00000008,0.00000068,-0.00000031,0.00000045,0.00000032
 ,0.00000005,0.00000039,0.00000077,0.00000001,0.00000042,0.00000012,-0.
 00000042,0.00000001,0.00000055,-0.00000052,0.00000025,0.00000029,-0.00
 000079,-0.00000026,0.00000044,-0.00000089,0.00000020,0.00000046,-0.000
 00057,0.00000033,0.00000007,-0.00000073,-0.00000022,0.00000012,-0.0000
 0056,-0.00000002,-0.00000052,0.00000063,-0.00000037,-0.00000021,-0.000
 00015,-0.00000029,-0.00000049,0.00000019,-0.00000042,-0.00000058,-0.00
 000076,-0.00000044,-0.00000064,0.00000113,-0.00000018,-0.00000035,-0.0
 0000044,-0.00000040,-0.00000080,0.00000031,-0.00000059,-0.00000069,-0.
 00000086,-0.00000070,-0.00000065,-0.00000063,-0.00000054,-0.00000047,0
 .00000112,0.00000006,-0.00000083,0.00000048,-0.00000037,-0.00000047,-0
 .00000018,-0.00000026,-0.00000029,-0.00000048,-0.00000027,-0.00000048,
 0.00000010,-0.00000055,-0.00000074,0.00000026,-0.00000045,-0.00000098,
 -0.00000003,-0.00000061\\\@


 IBM COMPATIBILITY IS LIKE PREGNANCY. YOU ARE OR
 OR YOU ARE NOT. -- ADAM OSBORNE
 Job cpu time:       1 days 17 hours 47 minutes 23.9 seconds.
 Elapsed time:       0 days  1 hours 29 minutes 37.4 seconds.
 File lengths (MBytes):  RWF=   1440 Int=      0 D2E=      0 Chk=     36 Scr=      8
 Normal termination of Gaussian 16 at Fri Mar 10 00:59:42 2023.
