 Entering Gaussian System, Link 0=g16
 Input=Nic5h3bMidPyrTSOptFreq_2.gjf
 Output=Nic5h3bMidPyrTSOptFreq_2.log
 Initial command:
 /sw/contrib/gaussian/g16/A03/g16/l1.exe "/gscratch/scrubbed/gds001/Gau-6743.inp" -scrdir="/gscratch/scrubbed/gds001/"
 Entering Link 1 = /sw/contrib/gaussian/g16/A03/g16/l1.exe PID=      6744.
  
 Copyright (c) 1988,1990,1992,1993,1995,1998,2003,2009,2016,
            Gaussian, Inc.  All Rights Reserved.
  
 This is part of the Gaussian(R) 16 program.  It is based on
 the Gaussian(R) 09 system (copyright 2009, Gaussian, Inc.),
 the Gaussian(R) 03 system (copyright 2003, Gaussian, Inc.),
 the Gaussian(R) 98 system (copyright 1998, Gaussian, Inc.),
 the Gaussian(R) 94 system (copyright 1995, Gaussian, Inc.),
 the Gaussian 92(TM) system (copyright 1992, Gaussian, Inc.),
 the Gaussian 90(TM) system (copyright 1990, Gaussian, Inc.),
 the Gaussian 88(TM) system (copyright 1988, Gaussian, Inc.),
 the Gaussian 86(TM) system (copyright 1986, Carnegie Mellon
 University), and the Gaussian 82(TM) system (copyright 1983,
 Carnegie Mellon University). Gaussian is a federally registered
 trademark of Gaussian, Inc.
  
 This software contains proprietary and confidential information,
 including trade secrets, belonging to Gaussian, Inc.
  
 This software is provided under written license and may be
 used, copied, transmitted, or stored only in accord with that
 written license.
  
 The following legend is applicable only to US Government
 contracts under FAR:
  
                    RESTRICTED RIGHTS LEGEND
  
 Use, reproduction and disclosure by the US Government is
 subject to restrictions as set forth in subparagraphs (a)
 and (c) of the Commercial Computer Software - Restricted
 Rights clause in FAR 52.227-19.
  
 Gaussian, Inc.
 340 Quinnipiac St., Bldg. 40, Wallingford CT 06492
  
  
 ---------------------------------------------------------------
 Warning -- This program may not be used in any manner that
 competes with the business of Gaussian, Inc. or will provide
 assistance to any competitor of Gaussian, Inc.  The licensee
 of this program is prohibited from giving any competitor of
 Gaussian, Inc. access to this program.  By using this program,
 the user acknowledges that Gaussian, Inc. is engaged in the
 business of creating and licensing software in the field of
 computational chemistry and represents and warrants to the
 licensee that it is not a competitor of Gaussian, Inc. and that
 it will not use this program in any manner prohibited above.
 ---------------------------------------------------------------
  

 Cite this work as:
 Gaussian 16, Revision A.03,
 M. J. Frisch, G. W. Trucks, H. B. Schlegel, G. E. Scuseria, 
 M. A. Robb, J. R. Cheeseman, G. Scalmani, V. Barone, 
 G. A. Petersson, H. Nakatsuji, X. Li, M. Caricato, A. V. Marenich, 
 J. Bloino, B. G. Janesko, R. Gomperts, B. Mennucci, H. P. Hratchian, 
 J. V. Ortiz, A. F. Izmaylov, J. L. Sonnenberg, D. Williams-Young, 
 F. Ding, F. Lipparini, F. Egidi, J. Goings, B. Peng, A. Petrone, 
 T. Henderson, D. Ranasinghe, V. G. Zakrzewski, J. Gao, N. Rega, 
 G. Zheng, W. Liang, M. Hada, M. Ehara, K. Toyota, R. Fukuda, 
 J. Hasegawa, M. Ishida, T. Nakajima, Y. Honda, O. Kitao, H. Nakai, 
 T. Vreven, K. Throssell, J. A. Montgomery, Jr., J. E. Peralta, 
 F. Ogliaro, M. J. Bearpark, J. J. Heyd, E. N. Brothers, K. N. Kudin, 
 V. N. Staroverov, T. A. Keith, R. Kobayashi, J. Normand, 
 K. Raghavachari, A. P. Rendell, J. C. Burant, S. S. Iyengar, 
 J. Tomasi, M. Cossi, J. M. Millam, M. Klene, C. Adamo, R. Cammi, 
 J. W. Ochterski, R. L. Martin, K. Morokuma, O. Farkas, 
 J. B. Foresman, and D. J. Fox, Gaussian, Inc., Wallingford CT, 2016.
 
 ******************************************
 Gaussian 16:  ES64L-G16RevA.03 25-Dec-2016
                26-Dec-2022 
 ******************************************
 %nprocshared=28
 Will use up to   28 processors via shared memory.
 %mem=41GB
 ----------------------------------------------------------------
 # wB97XD/aug-cc-pVDZ opt=(TS,CalcAll,MaxStep=5,NoEigenTest) freq
 ----------------------------------------------------------------
 1/5=1,8=5,10=4,11=1,18=20,26=3,38=1/1,3;
 2/9=110,12=2,17=6,18=5,40=1/2;
 3/5=16,7=10,11=2,25=1,30=1,71=2,74=-58,140=1/1,2,3;
 4//1;
 5/5=2,38=5/2;
 8/6=4,10=90,11=11/1;
 11/6=1,8=1,9=11,15=111,16=1/1,2,10;
 10/6=1/2;
 6/7=2,8=2,9=2,10=2,18=1,28=1/1;
 7/10=1,25=1/1,2,3,16;
 1/5=1,8=5,10=4,11=1,18=20,26=3/3(3);
 2/9=110/2;
 7/8=1,9=1,25=1,44=-1/16;
 99//99;
 2/9=110/2;
 3/5=16,7=10,11=2,25=1,30=1,71=2,74=-58,140=1/1,2,3;
 4/5=5,16=3,69=1/1;
 5/5=2,38=5/2;
 8/6=4,10=90,11=11/1;
 11/6=1,8=1,9=11,15=111,16=1/1,2,10;
 10/6=1/2;
 7/10=1,25=1/1,2,3,16;
 1/5=1,8=5,10=4,11=1,18=20,26=3/3(-8);
 2/9=110/2;
 6/7=2,8=2,9=2,10=2,18=1,19=2,28=1/1;
 7/8=1,9=1,25=1,44=-1/16;
 99//99;
 ----
 blah
 ----
 Symbolic Z-matrix:
 Charge =  1 Multiplicity = 1
 N                     1.08291  -2.32093  -0.6068 
 C                     0.83798  -3.56909  -0.1862 
 C                    -0.39011  -3.92637   0.35095 
 C                    -1.37904  -2.95047   0.4704 
 C                    -1.13065  -1.64988   0.03444 
 C                     0.12568  -1.39386  -0.51126 
 C                    -2.15626  -0.54817   0.14718 
 C                    -2.63198   0.03917  -1.19557 
 C                    -2.97628   1.51312  -0.87367 
 C                    -2.65099   1.66577   0.61611 
 N                    -1.64255   0.62738   0.8685 
 C                    -1.40687   0.38852   2.28594 
 H                     1.65267  -4.28549  -0.2836 
 H                    -0.5634   -4.94814   0.68219 
 H                    -2.34527  -3.20311   0.90849 
 H                     0.38467  -0.40151  -0.88051 
 H                    -3.0304   -0.95387   0.69362 
 H                    -1.8305   -0.0223   -1.94107 
 H                    -3.48486  -0.52581  -1.58611 
 H                    -2.35895   2.19345  -1.47021 
 H                    -4.02491   1.75081  -1.07882 
 H                    -2.252     2.65335   0.87683 
 H                    -3.54801   1.48407   1.23672 
 H                    -2.32589   0.06029   2.80536 
 H                    -1.0512    1.31236   2.75701 
 H                    -0.63579  -0.38101   2.41466 
 O                     3.23278  -1.21447  -1.2595 
 O                     0.57617   1.83934  -0.30603 
 O                     3.02947   1.04489  -0.48668 
 O                    -0.46204   4.36442  -0.88906 
 H                     3.46092  -1.2702   -2.19226 
 H                     0.28812   2.74094  -0.52689 
 H                     3.58283   1.2891    0.28499 
 H                    -0.24196   5.14199  -0.36865 
 H                    -0.54667   4.67851  -1.79357 
 H                     2.33004  -1.78899  -1.03554 
 H                     3.14319  -0.10734  -0.88812 
 H                     2.09534   1.38329  -0.36384 
 H                    -0.18229   1.39662   0.15162 
 O                     4.59441   1.78808   1.58882 
 H                     4.90206   1.22435   2.30367 
 H                     5.28459   2.443     1.45182 
 
 Add virtual bond connecting atoms H37        and O27        Dist= 2.21D+00.
 Add virtual bond connecting atoms H37        and O29        Dist= 2.32D+00.
 Add virtual bond connecting atoms H36        and N1         Dist= 2.69D+00.
 Add virtual bond connecting atoms H38        and O28        Dist= 3.00D+00.
 Add virtual bond connecting atoms O40        and H33        Dist= 3.26D+00.
 Add virtual bond connecting atoms H32        and O30        Dist= 3.45D+00.

 GradGradGradGradGradGradGradGradGradGradGradGradGradGradGradGradGradGrad
 Berny optimization.
 Initialization pass.
                           ----------------------------
                           !    Initial Parameters    !
                           ! (Angstroms and Degrees)  !
 --------------------------                            --------------------------
 ! Name  Definition              Value          Derivative Info.                !
 --------------------------------------------------------------------------------
 ! R1    R(1,2)                  1.3397         calculate D2E/DX2 analytically  !
 ! R2    R(1,6)                  1.336          calculate D2E/DX2 analytically  !
 ! R3    R(1,36)                 1.422          calculate D2E/DX2 analytically  !
 ! R4    R(2,3)                  1.3872         calculate D2E/DX2 analytically  !
 ! R5    R(2,13)                 1.0892         calculate D2E/DX2 analytically  !
 ! R6    R(3,4)                  1.3945         calculate D2E/DX2 analytically  !
 ! R7    R(3,14)                 1.088          calculate D2E/DX2 analytically  !
 ! R8    R(4,5)                  1.394          calculate D2E/DX2 analytically  !
 ! R9    R(4,15)                 1.0906         calculate D2E/DX2 analytically  !
 ! R10   R(5,6)                  1.3934         calculate D2E/DX2 analytically  !
 ! R11   R(5,7)                  1.5094         calculate D2E/DX2 analytically  !
 ! R12   R(6,16)                 1.09           calculate D2E/DX2 analytically  !
 ! R13   R(7,8)                  1.5409         calculate D2E/DX2 analytically  !
 ! R14   R(7,11)                 1.4718         calculate D2E/DX2 analytically  !
 ! R15   R(7,17)                 1.1078         calculate D2E/DX2 analytically  !
 ! R16   R(8,9)                  1.5475         calculate D2E/DX2 analytically  !
 ! R17   R(8,18)                 1.0963         calculate D2E/DX2 analytically  !
 ! R18   R(8,19)                 1.095          calculate D2E/DX2 analytically  !
 ! R19   R(9,10)                 1.5325         calculate D2E/DX2 analytically  !
 ! R20   R(9,20)                 1.0954         calculate D2E/DX2 analytically  !
 ! R21   R(9,21)                 1.0946         calculate D2E/DX2 analytically  !
 ! R22   R(10,11)                1.4693         calculate D2E/DX2 analytically  !
 ! R23   R(10,22)                1.0966         calculate D2E/DX2 analytically  !
 ! R24   R(10,23)                1.1058         calculate D2E/DX2 analytically  !
 ! R25   R(11,12)                1.4566         calculate D2E/DX2 analytically  !
 ! R26   R(12,24)                1.1055         calculate D2E/DX2 analytically  !
 ! R27   R(12,25)                1.0963         calculate D2E/DX2 analytically  !
 ! R28   R(12,26)                1.0969         calculate D2E/DX2 analytically  !
 ! R29   R(27,31)                0.9619         calculate D2E/DX2 analytically  !
 ! R30   R(27,36)                1.0932         calculate D2E/DX2 analytically  !
 ! R31   R(27,37)                1.1712         calculate D2E/DX2 analytically  !
 ! R32   R(28,32)                0.9719         calculate D2E/DX2 analytically  !
 ! R33   R(28,38)                1.5872         calculate D2E/DX2 analytically  !
 ! R34   R(28,39)                0.9903         calculate D2E/DX2 analytically  !
 ! R35   R(29,33)                0.9805         calculate D2E/DX2 analytically  !
 ! R36   R(29,37)                1.2254         calculate D2E/DX2 analytically  !
 ! R37   R(29,38)                1.0011         calculate D2E/DX2 analytically  !
 ! R38   R(30,32)                1.8247         calculate D2E/DX2 analytically  !
 ! R39   R(30,34)                0.9612         calculate D2E/DX2 analytically  !
 ! R40   R(30,35)                0.9612         calculate D2E/DX2 analytically  !
 ! R41   R(33,40)                1.724          calculate D2E/DX2 analytically  !
 ! R42   R(40,41)                0.961          calculate D2E/DX2 analytically  !
 ! R43   R(40,42)                0.9613         calculate D2E/DX2 analytically  !
 ! A1    A(2,1,6)              119.5416         calculate D2E/DX2 analytically  !
 ! A2    A(2,1,36)             127.1221         calculate D2E/DX2 analytically  !
 ! A3    A(6,1,36)             112.9771         calculate D2E/DX2 analytically  !
 ! A4    A(1,2,3)              121.5584         calculate D2E/DX2 analytically  !
 ! A5    A(1,2,13)             116.6123         calculate D2E/DX2 analytically  !
 ! A6    A(3,2,13)             121.8287         calculate D2E/DX2 analytically  !
 ! A7    A(2,3,4)              118.7343         calculate D2E/DX2 analytically  !
 ! A8    A(2,3,14)             120.05           calculate D2E/DX2 analytically  !
 ! A9    A(4,3,14)             121.2104         calculate D2E/DX2 analytically  !
 ! A10   A(3,4,5)              119.9848         calculate D2E/DX2 analytically  !
 ! A11   A(3,4,15)             120.0402         calculate D2E/DX2 analytically  !
 ! A12   A(5,4,15)             119.9745         calculate D2E/DX2 analytically  !
 ! A13   A(4,5,6)              117.0347         calculate D2E/DX2 analytically  !
 ! A14   A(4,5,7)              122.449          calculate D2E/DX2 analytically  !
 ! A15   A(6,5,7)              120.5148         calculate D2E/DX2 analytically  !
 ! A16   A(1,6,5)              123.1278         calculate D2E/DX2 analytically  !
 ! A17   A(1,6,16)             115.9292         calculate D2E/DX2 analytically  !
 ! A18   A(5,6,16)             120.9402         calculate D2E/DX2 analytically  !
 ! A19   A(5,7,8)              115.0184         calculate D2E/DX2 analytically  !
 ! A20   A(5,7,11)             112.4843         calculate D2E/DX2 analytically  !
 ! A21   A(5,7,17)             107.7993         calculate D2E/DX2 analytically  !
 ! A22   A(8,7,11)             103.3205         calculate D2E/DX2 analytically  !
 ! A23   A(8,7,17)             109.0148         calculate D2E/DX2 analytically  !
 ! A24   A(11,7,17)            109.0361         calculate D2E/DX2 analytically  !
 ! A25   A(7,8,9)              104.506          calculate D2E/DX2 analytically  !
 ! A26   A(7,8,18)             110.2117         calculate D2E/DX2 analytically  !
 ! A27   A(7,8,19)             110.7684         calculate D2E/DX2 analytically  !
 ! A28   A(9,8,18)             110.9472         calculate D2E/DX2 analytically  !
 ! A29   A(9,8,19)             113.0993         calculate D2E/DX2 analytically  !
 ! A30   A(18,8,19)            107.3344         calculate D2E/DX2 analytically  !
 ! A31   A(8,9,10)             104.4697         calculate D2E/DX2 analytically  !
 ! A32   A(8,9,20)             110.6658         calculate D2E/DX2 analytically  !
 ! A33   A(8,9,21)             112.3945         calculate D2E/DX2 analytically  !
 ! A34   A(10,9,20)            110.361          calculate D2E/DX2 analytically  !
 ! A35   A(10,9,21)            111.3398         calculate D2E/DX2 analytically  !
 ! A36   A(20,9,21)            107.6357         calculate D2E/DX2 analytically  !
 ! A37   A(9,10,11)            104.0204         calculate D2E/DX2 analytically  !
 ! A38   A(9,10,22)            113.4574         calculate D2E/DX2 analytically  !
 ! A39   A(9,10,23)            110.918          calculate D2E/DX2 analytically  !
 ! A40   A(11,10,22)           110.2371         calculate D2E/DX2 analytically  !
 ! A41   A(11,10,23)           110.1341         calculate D2E/DX2 analytically  !
 ! A42   A(22,10,23)           108.0411         calculate D2E/DX2 analytically  !
 ! A43   A(7,11,10)            103.9298         calculate D2E/DX2 analytically  !
 ! A44   A(7,11,12)            113.7294         calculate D2E/DX2 analytically  !
 ! A45   A(10,11,12)           113.2094         calculate D2E/DX2 analytically  !
 ! A46   A(11,12,24)           111.8014         calculate D2E/DX2 analytically  !
 ! A47   A(11,12,25)           109.4168         calculate D2E/DX2 analytically  !
 ! A48   A(11,12,26)           110.0576         calculate D2E/DX2 analytically  !
 ! A49   A(24,12,25)           108.5427         calculate D2E/DX2 analytically  !
 ! A50   A(24,12,26)           108.7193         calculate D2E/DX2 analytically  !
 ! A51   A(25,12,26)           108.221          calculate D2E/DX2 analytically  !
 ! A52   A(31,27,36)           111.3503         calculate D2E/DX2 analytically  !
 ! A53   A(31,27,37)           112.3589         calculate D2E/DX2 analytically  !
 ! A54   A(36,27,37)           111.6327         calculate D2E/DX2 analytically  !
 ! A55   A(32,28,38)           122.8149         calculate D2E/DX2 analytically  !
 ! A56   A(32,28,39)           107.022          calculate D2E/DX2 analytically  !
 ! A57   A(38,28,39)           128.4214         calculate D2E/DX2 analytically  !
 ! A58   A(33,29,37)           116.0803         calculate D2E/DX2 analytically  !
 ! A59   A(33,29,38)           110.2344         calculate D2E/DX2 analytically  !
 ! A60   A(37,29,38)           116.3995         calculate D2E/DX2 analytically  !
 ! A61   A(32,30,34)           121.2091         calculate D2E/DX2 analytically  !
 ! A62   A(32,30,35)           120.9095         calculate D2E/DX2 analytically  !
 ! A63   A(34,30,35)           105.3849         calculate D2E/DX2 analytically  !
 ! A64   A(33,40,41)           125.4959         calculate D2E/DX2 analytically  !
 ! A65   A(33,40,42)           120.7097         calculate D2E/DX2 analytically  !
 ! A66   A(41,40,42)           106.0117         calculate D2E/DX2 analytically  !
 ! A67   L(28,32,30,8,-1)      173.7309         calculate D2E/DX2 analytically  !
 ! A68   L(29,33,40,12,-1)     182.3            calculate D2E/DX2 analytically  !
 ! A69   L(1,36,27,28,-1)      170.0555         calculate D2E/DX2 analytically  !
 ! A70   L(27,37,29,4,-1)      178.8691         calculate D2E/DX2 analytically  !
 ! A71   L(28,38,29,1,-1)      176.5227         calculate D2E/DX2 analytically  !
 ! A72   L(28,32,30,8,-2)      176.4328         calculate D2E/DX2 analytically  !
 ! A73   L(29,33,40,12,-2)     182.2905         calculate D2E/DX2 analytically  !
 ! A74   L(1,36,27,28,-2)      175.9923         calculate D2E/DX2 analytically  !
 ! A75   L(27,37,29,4,-2)      179.7866         calculate D2E/DX2 analytically  !
 ! A76   L(28,38,29,1,-2)      175.2253         calculate D2E/DX2 analytically  !
 ! D1    D(6,1,2,3)             -0.0924         calculate D2E/DX2 analytically  !
 ! D2    D(6,1,2,13)          -179.8239         calculate D2E/DX2 analytically  !
 ! D3    D(36,1,2,3)           172.5171         calculate D2E/DX2 analytically  !
 ! D4    D(36,1,2,13)           -7.2145         calculate D2E/DX2 analytically  !
 ! D5    D(2,1,6,5)              1.2346         calculate D2E/DX2 analytically  !
 ! D6    D(2,1,6,16)          -179.368          calculate D2E/DX2 analytically  !
 ! D7    D(36,1,6,5)          -172.3692         calculate D2E/DX2 analytically  !
 ! D8    D(36,1,6,16)            7.0282         calculate D2E/DX2 analytically  !
 ! D9    D(2,1,27,31)           91.1441         calculate D2E/DX2 analytically  !
 ! D10   D(2,1,27,37)         -144.0239         calculate D2E/DX2 analytically  !
 ! D11   D(6,1,27,31)          -99.3523         calculate D2E/DX2 analytically  !
 ! D12   D(6,1,27,37)           25.4797         calculate D2E/DX2 analytically  !
 ! D13   D(1,2,3,4)             -1.0038         calculate D2E/DX2 analytically  !
 ! D14   D(1,2,3,14)           179.8188         calculate D2E/DX2 analytically  !
 ! D15   D(13,2,3,4)           178.7138         calculate D2E/DX2 analytically  !
 ! D16   D(13,2,3,14)           -0.4636         calculate D2E/DX2 analytically  !
 ! D17   D(2,3,4,5)              0.9974         calculate D2E/DX2 analytically  !
 ! D18   D(2,3,4,15)          -178.7494         calculate D2E/DX2 analytically  !
 ! D19   D(14,3,4,5)          -179.8351         calculate D2E/DX2 analytically  !
 ! D20   D(14,3,4,15)            0.418          calculate D2E/DX2 analytically  !
 ! D21   D(3,4,5,6)              0.0459         calculate D2E/DX2 analytically  !
 ! D22   D(3,4,5,7)           -179.4943         calculate D2E/DX2 analytically  !
 ! D23   D(15,4,5,6)           179.7929         calculate D2E/DX2 analytically  !
 ! D24   D(15,4,5,7)             0.2527         calculate D2E/DX2 analytically  !
 ! D25   D(4,5,6,1)             -1.1962         calculate D2E/DX2 analytically  !
 ! D26   D(4,5,6,16)           179.4356         calculate D2E/DX2 analytically  !
 ! D27   D(7,5,6,1)            178.3534         calculate D2E/DX2 analytically  !
 ! D28   D(7,5,6,16)            -1.0148         calculate D2E/DX2 analytically  !
 ! D29   D(4,5,7,8)           -116.9218         calculate D2E/DX2 analytically  !
 ! D30   D(4,5,7,11)           125.152          calculate D2E/DX2 analytically  !
 ! D31   D(4,5,7,17)             4.912          calculate D2E/DX2 analytically  !
 ! D32   D(6,5,7,8)             63.5536         calculate D2E/DX2 analytically  !
 ! D33   D(6,5,7,11)           -54.3726         calculate D2E/DX2 analytically  !
 ! D34   D(6,5,7,17)          -174.6126         calculate D2E/DX2 analytically  !
 ! D35   D(5,7,8,9)           -149.5122         calculate D2E/DX2 analytically  !
 ! D36   D(5,7,8,18)           -30.2528         calculate D2E/DX2 analytically  !
 ! D37   D(5,7,8,19)            88.3791         calculate D2E/DX2 analytically  !
 ! D38   D(11,7,8,9)           -26.5426         calculate D2E/DX2 analytically  !
 ! D39   D(11,7,8,18)           92.7168         calculate D2E/DX2 analytically  !
 ! D40   D(11,7,8,19)         -148.6512         calculate D2E/DX2 analytically  !
 ! D41   D(17,7,8,9)            89.314          calculate D2E/DX2 analytically  !
 ! D42   D(17,7,8,18)         -151.4266         calculate D2E/DX2 analytically  !
 ! D43   D(17,7,8,19)          -32.7947         calculate D2E/DX2 analytically  !
 ! D44   D(5,7,11,10)          168.0182         calculate D2E/DX2 analytically  !
 ! D45   D(5,7,11,12)          -68.4391         calculate D2E/DX2 analytically  !
 ! D46   D(8,7,11,10)           43.3829         calculate D2E/DX2 analytically  !
 ! D47   D(8,7,11,12)          166.9256         calculate D2E/DX2 analytically  !
 ! D48   D(17,7,11,10)         -72.4586         calculate D2E/DX2 analytically  !
 ! D49   D(17,7,11,12)          51.0841         calculate D2E/DX2 analytically  !
 ! D50   D(7,8,9,10)             0.9345         calculate D2E/DX2 analytically  !
 ! D51   D(7,8,9,20)           119.7099         calculate D2E/DX2 analytically  !
 ! D52   D(7,8,9,21)          -119.9166         calculate D2E/DX2 analytically  !
 ! D53   D(18,8,9,10)         -117.827          calculate D2E/DX2 analytically  !
 ! D54   D(18,8,9,20)            0.9485         calculate D2E/DX2 analytically  !
 ! D55   D(18,8,9,21)          121.322          calculate D2E/DX2 analytically  !
 ! D56   D(19,8,9,10)          121.5015         calculate D2E/DX2 analytically  !
 ! D57   D(19,8,9,20)         -119.723          calculate D2E/DX2 analytically  !
 ! D58   D(19,8,9,21)            0.6504         calculate D2E/DX2 analytically  !
 ! D59   D(8,9,10,11)           25.1121         calculate D2E/DX2 analytically  !
 ! D60   D(8,9,10,22)          144.9139         calculate D2E/DX2 analytically  !
 ! D61   D(8,9,10,23)          -93.2645         calculate D2E/DX2 analytically  !
 ! D62   D(20,9,10,11)         -93.8702         calculate D2E/DX2 analytically  !
 ! D63   D(20,9,10,22)          25.9317         calculate D2E/DX2 analytically  !
 ! D64   D(20,9,10,23)         147.7533         calculate D2E/DX2 analytically  !
 ! D65   D(21,9,10,11)         146.6621         calculate D2E/DX2 analytically  !
 ! D66   D(21,9,10,22)         -93.5361         calculate D2E/DX2 analytically  !
 ! D67   D(21,9,10,23)          28.2855         calculate D2E/DX2 analytically  !
 ! D68   D(9,10,11,7)          -43.0258         calculate D2E/DX2 analytically  !
 ! D69   D(9,10,11,12)        -166.9069         calculate D2E/DX2 analytically  !
 ! D70   D(22,10,11,7)        -164.9868         calculate D2E/DX2 analytically  !
 ! D71   D(22,10,11,12)         71.1321         calculate D2E/DX2 analytically  !
 ! D72   D(23,10,11,7)          75.8881         calculate D2E/DX2 analytically  !
 ! D73   D(23,10,11,12)        -47.993          calculate D2E/DX2 analytically  !
 ! D74   D(7,11,12,24)         -58.3119         calculate D2E/DX2 analytically  !
 ! D75   D(7,11,12,25)        -178.5875         calculate D2E/DX2 analytically  !
 ! D76   D(7,11,12,26)          62.6198         calculate D2E/DX2 analytically  !
 ! D77   D(10,11,12,24)         60.022          calculate D2E/DX2 analytically  !
 ! D78   D(10,11,12,25)        -60.2536         calculate D2E/DX2 analytically  !
 ! D79   D(10,11,12,26)       -179.0463         calculate D2E/DX2 analytically  !
 ! D80   D(31,27,29,33)       -124.8626         calculate D2E/DX2 analytically  !
 ! D81   D(31,27,29,38)        103.279          calculate D2E/DX2 analytically  !
 ! D82   D(36,27,29,33)        109.3338         calculate D2E/DX2 analytically  !
 ! D83   D(36,27,29,38)        -22.5246         calculate D2E/DX2 analytically  !
 ! D84   D(32,28,29,33)         81.9177         calculate D2E/DX2 analytically  !
 ! D85   D(32,28,29,37)       -142.2641         calculate D2E/DX2 analytically  !
 ! D86   D(39,28,29,33)        -84.2842         calculate D2E/DX2 analytically  !
 ! D87   D(39,28,29,37)         51.5341         calculate D2E/DX2 analytically  !
 ! D88   D(38,28,30,34)        -64.27           calculate D2E/DX2 analytically  !
 ! D89   D(38,28,30,35)         74.9612         calculate D2E/DX2 analytically  !
 ! D90   D(39,28,30,34)        101.9893         calculate D2E/DX2 analytically  !
 ! D91   D(39,28,30,35)       -118.7795         calculate D2E/DX2 analytically  !
 ! D92   D(37,29,40,41)        -31.5919         calculate D2E/DX2 analytically  !
 ! D93   D(37,29,40,42)        112.9781         calculate D2E/DX2 analytically  !
 ! D94   D(38,29,40,41)        105.0836         calculate D2E/DX2 analytically  !
 ! D95   D(38,29,40,42)       -110.3463         calculate D2E/DX2 analytically  !
 --------------------------------------------------------------------------------
 Trust Radius=5.00D-02 FncErr=1.00D-07 GrdErr=1.00D-06 EigMax=2.50D+02 EigMin=1.00D-04
 Number of steps in this run=    224 maximum allowed number of steps=    252.
 Search for a saddle point of order  1.
 GradGradGradGradGradGradGradGradGradGradGradGradGradGradGradGradGradGrad

                          Input orientation:                          
 ---------------------------------------------------------------------
 Center     Atomic      Atomic             Coordinates (Angstroms)
 Number     Number       Type             X           Y           Z
 ---------------------------------------------------------------------
      1          7           0        1.082914   -2.320929   -0.606799
      2          6           0        0.837982   -3.569092   -0.186204
      3          6           0       -0.390110   -3.926368    0.350945
      4          6           0       -1.379036   -2.950474    0.470403
      5          6           0       -1.130653   -1.649876    0.034440
      6          6           0        0.125676   -1.393864   -0.511263
      7          6           0       -2.156258   -0.548169    0.147176
      8          6           0       -2.631982    0.039165   -1.195571
      9          6           0       -2.976276    1.513117   -0.873671
     10          6           0       -2.650990    1.665768    0.616112
     11          7           0       -1.642553    0.627383    0.868499
     12          6           0       -1.406868    0.388520    2.285938
     13          1           0        1.652666   -4.285485   -0.283601
     14          1           0       -0.563398   -4.948139    0.682194
     15          1           0       -2.345271   -3.203107    0.908490
     16          1           0        0.384674   -0.401507   -0.880514
     17          1           0       -3.030398   -0.953870    0.693622
     18          1           0       -1.830502   -0.022303   -1.941066
     19          1           0       -3.484858   -0.525808   -1.586111
     20          1           0       -2.358952    2.193447   -1.470210
     21          1           0       -4.024911    1.750813   -1.078820
     22          1           0       -2.252000    2.653349    0.876831
     23          1           0       -3.548008    1.484068    1.236717
     24          1           0       -2.325885    0.060289    2.805355
     25          1           0       -1.051196    1.312358    2.757009
     26          1           0       -0.635794   -0.381007    2.414662
     27          8           0        3.232778   -1.214470   -1.259495
     28          8           0        0.576167    1.839339   -0.306028
     29          8           0        3.029465    1.044891   -0.486682
     30          8           0       -0.462041    4.364424   -0.889056
     31          1           0        3.460922   -1.270199   -2.192258
     32          1           0        0.288123    2.740937   -0.526887
     33          1           0        3.582831    1.289096    0.284988
     34          1           0       -0.241964    5.141991   -0.368649
     35          1           0       -0.546668    4.678513   -1.793574
     36          1           0        2.330037   -1.788987   -1.035535
     37          1           0        3.143194   -0.107337   -0.888119
     38          1           0        2.095340    1.383290   -0.363838
     39          1           0       -0.182291    1.396623    0.151622
     40          8           0        4.594409    1.788077    1.588819
     41          1           0        4.902061    1.224347    2.303668
     42          1           0        5.284590    2.443002    1.451818
 ---------------------------------------------------------------------
                    Distance matrix (angstroms):
                    1          2          3          4          5
     1  N    0.000000
     2  C    1.339702   0.000000
     3  C    2.380023   1.387222   0.000000
     4  C    2.760052   2.393531   1.394494   0.000000
     5  C    2.400287   2.758187   2.414745   1.394028   0.000000
     6  C    1.335994   2.311852   2.724521   2.377154   1.393448
     7  C    3.768739   4.266449   3.817464   2.545510   1.509415
     8  C    4.440400   5.106759   4.810733   3.644624   2.572892
     9  C    5.590005   6.391402   6.146213   4.927612   3.772998
    10  C    5.597437   6.341955   6.037705   4.790489   3.693679
    11  N    4.277525   4.987570   4.751118   3.609568   2.478630
    12  C    4.680604   5.178178   4.836967   3.800766   3.049688
    13  H    2.070883   1.089227   2.168997   3.397351   3.846355
    14  H    3.357689   2.149361   1.088012   2.168130   3.408798
    15  H    3.850557   3.386060   2.157920   1.090575   2.156800
    16  H    2.060738   3.274317   3.813322   3.381255   2.166052
    17  H    4.525404   4.751615   3.990525   2.600625   2.127904
    18  H    3.943595   4.772846   4.750765   3.820103   2.653565
    19  H    5.004603   5.468845   4.989335   3.813495   3.071155
    20  H    5.742082   6.713860   6.681697   5.584455   4.306254
    21  H    6.549180   7.262636   6.891037   5.612740   4.602256
    22  H    6.169785   7.028286   6.858270   5.685955   4.526012
    23  H    6.270725   6.840763   6.326905   4.995682   4.136506
    24  H    5.378932   5.668499   5.066043   3.925967   3.468604
    25  H    5.391698   6.005002   5.802623   4.848483   4.024118
    26  H    3.980764   4.370401   4.109607   3.306768   2.742329
    27  O    2.504432   3.525797   4.803460   5.222555   4.572021
    28  O    4.201796   5.416090   5.882914   5.231441   3.899202
    29  O    3.890017   5.116808   6.091677   6.026096   4.983966
    30  O    6.867350   8.069990   8.383317   7.496449   6.121413
    31  H    3.045100   4.023553   5.324806   5.773931   5.117118
    32  H    5.124506   6.343097   6.758960   6.013831   4.648360
    33  H    4.480753   5.599840   6.556651   6.529047   5.560329
    34  H    7.583350   8.779666   9.098071   8.214921   6.861611
    35  H    7.283966   8.516095   8.869467   8.001242   6.612956
    36  H    1.422003   2.473129   3.726919   4.168228   3.624993
    37  H    3.037085   4.217871   5.348319   5.511767   4.636411
    38  H    3.847762   5.112591   5.906001   5.616828   4.445869
    39  H    3.999517   5.080690   5.330774   4.520074   3.192848
    40  O    5.833975   6.779433   7.683270   7.706281   6.856526
    41  H    5.968725   6.759679   7.638721   7.761583   7.057208
    42  H    6.677352   7.655110   8.601338   8.628828   7.740540
                    6          7          8          9         10
     6  C    0.000000
     7  C    2.521104   0.000000
     8  C    3.182220   1.540858   0.000000
     9  C    4.266613   2.442019   1.547479   0.000000
    10  C    4.282779   2.316501   2.434829   1.532503   0.000000
    11  N    3.019241   1.471775   2.363336   2.366115   1.469315
    12  C    3.653754   2.452198   3.707271   3.702822   2.442851
    13  H    3.277957   5.353597   6.155688   7.443055   7.399213
    14  H    3.812090   4.709903   5.716489   7.070398   6.935861
    15  H    3.375594   2.768397   3.875771   5.081047   4.887217
    16  H    1.090045   2.744812   3.064909   3.868051   3.965951
    17  H    3.406779   1.107844   2.171153   2.923245   2.648105
    18  H    2.784268   2.177936   1.096317   2.193090   3.172057
    19  H    3.865847   2.184024   1.095040   2.218883   3.216851
    20  H    4.467858   3.189589   2.188813   1.095352   2.171744
    21  H    5.238176   3.206283   2.209892   1.094633   2.183503
    22  H    4.894904   3.285008   3.357558   2.211100   1.096578
    23  H    4.983360   2.693335   2.973697   2.186655   1.105806
    24  H    4.373176   2.732199   4.012674   4.008609   2.734235
    25  H    4.403438   3.390273   4.443286   4.114374   2.695863
    26  H    3.188535   2.735187   4.146697   4.458553   3.388965
    27  O    3.200956   5.609313   5.997591   6.792712   6.814132
    28  O    3.270881   3.656738   3.784724   3.612269   3.360805
    29  O    3.792113   5.461807   5.793616   6.036383   5.819726
    30  O    5.800519   5.298841   4.848759   3.801522   3.786789
    31  H    3.736964   6.127560   6.311204   7.136038   7.339095
    32  H    4.138020   4.153020   4.034070   3.504868   3.331789
    33  H    4.447945   6.027576   6.509860   6.664425   6.253963
    34  H    6.547740   6.025655   5.695158   4.571678   4.342498
    35  H    6.242606   5.803059   5.121493   4.094991   4.394473
    36  H    2.300041   4.802632   5.290499   6.251964   6.282826
    37  H    3.301907   5.417597   5.785209   6.330402   6.243331
    38  H    3.407916   4.697633   4.984579   5.098831   4.854662
    39  H    2.884628   2.771061   3.107830   2.978447   2.526394
    40  O    5.874067   7.287516   7.939285   7.965848   7.311424
    41  H    6.131290   7.590266   8.391134   8.499827   7.751856
    42  H    6.722323   8.124987   8.686726   8.632178   8.017227
                   11         12         13         14         15
    11  N    0.000000
    12  C    1.456618   0.000000
    13  H    6.026780   6.148951   0.000000
    14  H    5.682053   5.635900   2.506553   0.000000
    15  H    3.894620   3.959514   4.310003   2.504280   0.000000
    16  H    2.868329   3.722927   4.129091   4.900282   4.301406
    17  H    2.111174   2.640706   5.829727   4.694721   2.361066
    18  H    2.889822   4.267998   5.749293   5.722841   4.301450
    19  H    3.278574   4.488519   6.498143   5.765167   3.832704
    20  H    2.904366   4.274678   7.712177   7.671969   5.897558
    21  H    3.275634   4.475666   8.324911   7.743333   5.595705
    22  H    2.115664   2.798085   8.046144   7.789216   5.857284
    23  H    2.121380   2.624037   7.914930   7.112572   4.850146
    24  H    2.130716   1.105496   6.652539   5.718262   3.774682
    25  H    2.094126   1.096306   6.920406   6.613367   5.047878
    26  H    2.102626   1.096949   5.269025   4.885221   3.626998
    27  O    5.629355   6.055245   3.588907   5.667574   6.306304
    28  O    2.787664   3.571497   6.218748   6.953060   5.952824
    29  O    4.882477   5.272504   5.509059   7.084585   6.991408
    30  O    4.295123   5.175046   8.925216   9.444730   8.002828
    31  H    6.246159   6.819162   4.000589   6.163187   6.860222
    32  H    3.184607   4.039659   7.161827   7.829997   6.657832
    33  H    5.299338   5.450865   5.926617   7.500139   7.463983
    34  H    4.886089   5.567703   9.616349  10.149794   8.700324
    35  H    4.969834   5.982174   9.352558   9.939926   8.523852
    36  H    5.024506   5.453272   2.693833   4.615496   5.257135
    37  H    5.150621   5.569881   4.477057   6.295877   6.552469
    38  H    4.007729   4.502926   5.686599   6.946227   6.509446
    39  H    1.799447   2.659166   5.986889   6.378303   5.138954
    40  O    6.384807   6.201618   7.003425   8.532382   8.575192
    41  H    6.726667   6.364079   6.900056   8.402381   8.606549
    42  H    7.184848   7.049274   7.840605   9.456228   9.507288
                   16         17         18         19         20
    16  H    0.000000
    17  H    3.800753   0.000000
    18  H    2.485070   3.041241   0.000000
    19  H    3.935301   2.363674   1.765334   0.000000
    20  H    3.822174   3.877965   2.326051   2.945411   0.000000
    21  H    4.910830   3.383181   2.950058   2.394161   1.767634
    22  H    4.401415   3.694793   3.908621   4.206312   2.394066
    23  H    4.848097   2.550767   3.913730   3.465826   3.040481
    24  H    4.598480   2.446277   4.772917   4.579487   4.778275
    25  H    4.269734   3.648369   4.945760   5.307001   4.511754
    26  H    3.449632   3.004044   4.530824   4.913687   4.968835
    27  O    2.986006   6.565817   5.246199   6.760737   6.551774
    28  O    2.321227   4.669971   3.454145   4.870776   3.177363
    29  O    3.040081   6.489230   5.183957   6.790600   5.596566
    30  O    4.840568   6.114375   4.714105   5.791172   2.940944
    31  H    3.455228   7.110949   5.442381   7.011804   6.810957
    32  H    3.163752   5.114081   3.758187   5.101859   2.862972
    33  H    3.800624   6.995189   5.998271   7.533068   6.261258
    34  H    5.602236   6.786995   5.627245   6.642479   3.793282
    35  H    5.244776   6.639186   4.875208   5.980047   3.092651
    36  H    2.394487   5.694003   4.609907   5.975932   6.167280
    37  H    2.774171   6.428978   5.084642   6.677828   5.992166
    38  H    2.525635   5.731817   4.458203   6.023057   4.660593
    39  H    2.149424   3.732331   3.018161   4.197905   2.828979
    40  O    5.349182   8.152137   7.550963   8.983808   7.607313
    41  H    5.761007   8.382171   8.056011   9.409242   8.240365
    42  H    6.127004   9.014024   8.259172   9.744027   8.186835
                   21         22         23         24         25
    21  H    0.000000
    22  H    2.789687   0.000000
    23  H    2.379139   1.782238   0.000000
    24  H    4.564140   3.232433   2.445681   0.000000
    25  H    4.873275   2.602932   2.928283   1.787413   0.000000
    26  H    5.313679   3.766213   3.653361   1.789914   1.776864
    27  O    7.842168   7.043203   7.713121   7.003339   6.392933
    28  O    4.666365   3.171797   4.417590   4.611684   3.508307
    29  O    7.114294   5.686842   6.813672   6.362918   5.219661
    30  O    4.422784   3.041396   4.726368   5.970608   4.791242
    31  H    8.148862   7.579645   8.274597   7.761022   7.178026
    32  H    4.459511   2.903501   4.405215   5.012260   3.823426
    33  H    7.742796   6.021355   7.196712   6.540271   5.252203
    34  H    5.129826   3.432900   5.185318   6.343558   5.009060
    35  H    4.602225   3.760387   5.328713   6.756016   5.682724
    36  H    7.274436   6.662324   7.101227   6.312675   5.952686
    37  H    7.407484   6.312254   7.198589   6.601566   5.735451
    38  H    6.172823   4.695921   5.866797   5.598334   4.432314
    39  H    4.050329   2.527644   3.537390   3.663753   2.747751
    40  O    9.022769   6.937502   8.155694   7.235723   5.784793
    41  H    9.560817   7.433606   8.521121   7.338251   5.971142
    42  H    9.672128   7.561418   8.887104   8.088802   6.566891
                   26         27         28         29         30
    26  H    0.000000
    27  O    5.399994   0.000000
    28  O    3.714962   4.158417   0.000000
    29  O    4.887239   2.396516   2.585044   0.000000
    30  O    5.784795   6.701714   2.791747   4.834441   0.000000
    31  H    6.228760   0.961874   4.642079   2.907712   6.988344
    32  H    4.387809   4.985274   0.971919   3.223840   1.824725
    33  H    5.012140   2.962399   3.113213   0.980472   5.215075
    34  H    6.197211   7.298769   3.403053   5.244274   0.961180
    35  H    6.581484   7.021161   3.396242   5.263070   0.961232
    36  H    4.762606   1.093238   4.095484   2.970068   6.758818
    37  H    5.026331   1.171191   3.273836   1.225445   5.744072
    38  H    4.276903   2.973941   1.587202   1.001096   3.962728
    39  H    2.913243   4.524572   0.990303   3.293406   3.157390
    40  O    5.722060   4.356859   4.442898   2.703531   6.192343
    41  H    5.766916   4.629305   5.089409   3.365245   6.987643
    42  H    6.629709   4.993821   5.061984   3.286044   6.495793
                   31         32         33         34         35
    31  H    0.000000
    32  H    5.378599   0.000000
    33  H    3.563930   3.690811   0.000000
    34  H    7.625818   2.463959   5.468190   0.000000
    35  H    7.183794   2.460807   5.732480   1.529074   0.000000
    36  H    1.698838   4.994832   3.576013   7.422828   7.118891
    37  H    1.775944   4.049023   1.876029   6.267742   6.110588
    38  H    3.499848   2.266236   1.625570   4.426155   4.459018
    39  H    5.087113   1.577607   3.769017   3.781802   3.832409
    40  O    4.993435   4.891651   1.724021   6.202493   6.798961
    41  H    5.339756   5.621433   2.412391   6.996442   7.642467
    42  H    5.512977   5.382260   2.364101   6.414159   7.038015
                   36         37         38         39         40
    36  H    0.000000
    37  H    1.873740   0.000000
    38  H    3.251092   1.896006   0.000000
    39  H    4.227203   3.794971   2.335269   0.000000
    40  O    4.980964   3.440035   3.197197   5.003562   0.000000
    41  H    5.181290   3.880013   3.875375   5.523732   0.960963
    42  H    5.729401   4.070026   3.819805   5.715961   0.961273
                   41         42
    41  H    0.000000
    42  H    1.535284   0.000000
 Stoichiometry    C10H25N2O5(1+)
 Framework group  C1[X(C10H25N2O5)]
 Deg. of freedom   120
 Full point group                 C1      NOp   1
 Largest Abelian subgroup         C1      NOp   1
 Largest concise Abelian subgroup C1      NOp   1
                         Standard orientation:                         
 ---------------------------------------------------------------------
 Center     Atomic      Atomic             Coordinates (Angstroms)
 Number     Number       Type             X           Y           Z
 ---------------------------------------------------------------------
      1          7           0       -1.082914    2.320929   -0.606799
      2          6           0       -0.837982    3.569092   -0.186204
      3          6           0        0.390110    3.926368    0.350945
      4          6           0        1.379036    2.950474    0.470403
      5          6           0        1.130653    1.649876    0.034440
      6          6           0       -0.125676    1.393864   -0.511263
      7          6           0        2.156258    0.548169    0.147176
      8          6           0        2.631982   -0.039165   -1.195571
      9          6           0        2.976276   -1.513117   -0.873671
     10          6           0        2.650990   -1.665768    0.616112
     11          7           0        1.642553   -0.627383    0.868499
     12          6           0        1.406868   -0.388520    2.285938
     13          1           0       -1.652665    4.285485   -0.283601
     14          1           0        0.563399    4.948139    0.682194
     15          1           0        2.345271    3.203107    0.908490
     16          1           0       -0.384674    0.401507   -0.880514
     17          1           0        3.030398    0.953870    0.693622
     18          1           0        1.830502    0.022303   -1.941066
     19          1           0        3.484858    0.525808   -1.586111
     20          1           0        2.358952   -2.193447   -1.470210
     21          1           0        4.024911   -1.750813   -1.078820
     22          1           0        2.252000   -2.653349    0.876831
     23          1           0        3.548008   -1.484068    1.236717
     24          1           0        2.325885   -0.060289    2.805355
     25          1           0        1.051196   -1.312358    2.757009
     26          1           0        0.635794    0.381007    2.414662
     27          8           0       -3.232778    1.214470   -1.259495
     28          8           0       -0.576167   -1.839339   -0.306028
     29          8           0       -3.029465   -1.044891   -0.486682
     30          8           0        0.462041   -4.364424   -0.889056
     31          1           0       -3.460922    1.270199   -2.192258
     32          1           0       -0.288123   -2.740937   -0.526887
     33          1           0       -3.582831   -1.289096    0.284988
     34          1           0        0.241963   -5.141991   -0.368649
     35          1           0        0.546667   -4.678513   -1.793574
     36          1           0       -2.330037    1.788987   -1.035535
     37          1           0       -3.143194    0.107337   -0.888119
     38          1           0       -2.095340   -1.383290   -0.363838
     39          1           0        0.182291   -1.396623    0.151622
     40          8           0       -4.594409   -1.788076    1.588819
     41          1           0       -4.902061   -1.224346    2.303668
     42          1           0       -5.284590   -2.443001    1.451818
 ---------------------------------------------------------------------
 Rotational constants (GHZ):           0.3371176           0.3261123           0.1990770
 Standard basis: Aug-CC-pVDZ (5D, 7F)
 There are   650 symmetry adapted cartesian basis functions of A   symmetry.
 There are   616 symmetry adapted basis functions of A   symmetry.
   616 basis functions,  1006 primitive gaussians,   650 cartesian basis functions
    69 alpha electrons       69 beta electrons
       nuclear repulsion energy      1368.4596424435 Hartrees.
 NAtoms=   42 NActive=   42 NUniq=   42 SFac= 1.00D+00 NAtFMM=   60 NAOKFM=F Big=F
 Integral buffers will be    131072 words long.
 Raffenetti 2 integral format.
 Two-electron integral symmetry is turned on.
 Nuclear repulsion after empirical dispersion term =     1368.4279036143 Hartrees.
 One-electron integrals computed using PRISM.
 NBasis=   616 RedAO= T EigKep=  1.89D-06  NBF=   616
 NBsUse=   616 1.00D-06 EigRej= -1.00D+00 NBFU=   616
 ExpMin= 2.97D-02 ExpMax= 1.17D+04 ExpMxC= 4.01D+02 IAcc=3 IRadAn=         5 AccDes= 0.00D+00
 Harris functional with IExCor= 4639 and IRadAn=       5 diagonalized for initial guess.
 HarFok:  IExCor= 4639 AccDes= 0.00D+00 IRadAn=         5 IDoV= 1 UseB2=F ITyADJ=14
 ICtDFT=  3500011 ScaDFX=  1.000000  1.000000  1.000000  1.000000
 FoFCou: FMM=F IPFlag=           0 FMFlag=      100000 FMFlg1=           0
         NFxFlg=           0 DoJE=T BraDBF=F KetDBF=T FulRan=T
         wScrn=  0.000000 ICntrl=       500 IOpCl=  0 I1Cent=   200000004 NGrid=           0
         NMat0=    1 NMatS0=      1 NMatT0=    0 NMatD0=    1 NMtDS0=    0 NMtDT0=    0
 Petite list used in FoFCou.
 Requested convergence on RMS density matrix=1.00D-08 within 128 cycles.
 Requested convergence on MAX density matrix=1.00D-06.
 Requested convergence on             energy=1.00D-06.
 No special actions if energy rises.
 SCF Done:  E(RwB97XD) =  -881.456417518     A.U. after   16 cycles
            NFock= 16  Conv=0.14D-08     -V/T= 2.0062
 DoSCS=F DFT=T ScalE2(SS,OS)=  1.000000  1.000000
 Range of M.O.s used for correlation:     1   616
 NBasis=   616 NAE=    69 NBE=    69 NFC=     0 NFV=     0
 NROrb=    616 NOA=    69 NOB=    69 NVA=   547 NVB=   547

 **** Warning!!: The largest alpha MO coefficient is  0.92220988D+02

 Symmetrizing basis deriv contribution to polar:
 IMax=3 JMax=2 DiffMx= 0.00D+00
 G2DrvN: will do    43 centers at a time, making    1 passes.
 Calling FoFCou, ICntrl=  3107 FMM=F I1Cent=   0 AccDes= 0.00D+00.
 End of G2Drv F.D. properties file   721 does not exist.
 End of G2Drv F.D. properties file   722 does not exist.
 End of G2Drv F.D. properties file   788 does not exist.
          IDoAtm=111111111111111111111111111111111111111111
          Differentiating once with respect to electric field.
                with respect to dipole field.
          Differentiating once with respect to nuclear coordinates.
 CalDSu exits because no D1Ps are significant.
          There are   129 degrees of freedom in the 1st order CPHF.  IDoFFX=6 NUNeed=     3.
    126 vectors produced by pass  0 Test12= 3.77D-14 1.00D-09 XBig12= 7.92D+01 3.91D+00.
 AX will form   126 AO Fock derivatives at one time.
    126 vectors produced by pass  1 Test12= 3.77D-14 1.00D-09 XBig12= 1.14D+01 6.31D-01.
    126 vectors produced by pass  2 Test12= 3.77D-14 1.00D-09 XBig12= 3.19D-01 8.88D-02.
    126 vectors produced by pass  3 Test12= 3.77D-14 1.00D-09 XBig12= 2.92D-03 6.67D-03.
    126 vectors produced by pass  4 Test12= 3.77D-14 1.00D-09 XBig12= 2.62D-05 4.55D-04.
    126 vectors produced by pass  5 Test12= 3.77D-14 1.00D-09 XBig12= 1.67D-07 2.70D-05.
    122 vectors produced by pass  6 Test12= 3.77D-14 1.00D-09 XBig12= 9.03D-10 1.93D-06.
     49 vectors produced by pass  7 Test12= 3.77D-14 1.00D-09 XBig12= 4.50D-12 1.25D-07.
      3 vectors produced by pass  8 Test12= 3.77D-14 1.00D-09 XBig12= 2.59D-14 6.91D-09.
      3 vectors produced by pass  9 Test12= 3.77D-14 1.00D-09 XBig12= 1.65D-15 2.17D-09.
 InvSVY:  IOpt=1 It=  1 EMax= 2.13D-14
 Solved reduced A of dimension   933 with   129 vectors.
 Isotropic polarizability for W=    0.000000      173.83 Bohr**3.
 End of Minotr F.D. properties file   721 does not exist.
 End of Minotr F.D. properties file   722 does not exist.
 End of Minotr F.D. properties file   788 does not exist.

 **********************************************************************

            Population analysis using the SCF density.

 **********************************************************************

 Orbital symmetries:
       Occupied  (A) (A) (A) (A) (A) (A) (A) (A) (A) (A) (A) (A)
                 (A) (A) (A) (A) (A) (A) (A) (A) (A) (A) (A) (A)
                 (A) (A) (A) (A) (A) (A) (A) (A) (A) (A) (A) (A)
                 (A) (A) (A) (A) (A) (A) (A) (A) (A) (A) (A) (A)
                 (A) (A) (A) (A) (A) (A) (A) (A) (A) (A) (A) (A)
                 (A) (A) (A) (A) (A) (A) (A) (A) (A)
       Virtual   (A) (A) (A) (A) (A) (A) (A) (A) (A) (A) (A) (A)
                 (A) (A) (A) (A) (A) (A) (A) (A) (A) (A) (A) (A)
                 (A) (A) (A) (A) (A) (A) (A) (A) (A) (A) (A) (A)
                 (A) (A) (A) (A) (A) (A) (A) (A) (A) (A) (A) (A)
                 (A) (A) (A) (A) (A) (A) (A) (A) (A) (A) (A) (A)
                 (A) (A) (A) (A) (A) (A) (A) (A) (A) (A) (A) (A)
                 (A) (A) (A) (A) (A) (A) (A) (A) (A) (A) (A) (A)
                 (A) (A) (A) (A) (A) (A) (A) (A) (A) (A) (A) (A)
                 (A) (A) (A) (A) (A) (A) (A) (A) (A) (A) (A) (A)
                 (A) (A) (A) (A) (A) (A) (A) (A) (A) (A) (A) (A)
                 (A) (A) (A) (A) (A) (A) (A) (A) (A) (A) (A) (A)
                 (A) (A) (A) (A) (A) (A) (A) (A) (A) (A) (A) (A)
                 (A) (A) (A) (A) (A) (A) (A) (A) (A) (A) (A) (A)
                 (A) (A) (A) (A) (A) (A) (A) (A) (A) (A) (A) (A)
                 (A) (A) (A) (A) (A) (A) (A) (A) (A) (A) (A) (A)
                 (A) (A) (A) (A) (A) (A) (A) (A) (A) (A) (A) (A)
                 (A) (A) (A) (A) (A) (A) (A) (A) (A) (A) (A) (A)
                 (A) (A) (A) (A) (A) (A) (A) (A) (A) (A) (A) (A)
                 (A) (A) (A) (A) (A) (A) (A) (A) (A) (A) (A) (A)
                 (A) (A) (A) (A) (A) (A) (A) (A) (A) (A) (A) (A)
                 (A) (A) (A) (A) (A) (A) (A) (A) (A) (A) (A) (A)
                 (A) (A) (A) (A) (A) (A) (A) (A) (A) (A) (A) (A)
                 (A) (A) (A) (A) (A) (A) (A) (A) (A) (A) (A) (A)
                 (A) (A) (A) (A) (A) (A) (A) (A) (A) (A) (A) (A)
                 (A) (A) (A) (A) (A) (A) (A) (A) (A) (A) (A) (A)
                 (A) (A) (A) (A) (A) (A) (A) (A) (A) (A) (A) (A)
                 (A) (A) (A) (A) (A) (A) (A) (A) (A) (A) (A) (A)
                 (A) (A) (A) (A) (A) (A) (A) (A) (A) (A) (A) (A)
                 (A) (A) (A) (A) (A) (A) (A) (A) (A) (A) (A) (A)
                 (A) (A) (A) (A) (A) (A) (A) (A) (A) (A) (A) (A)
                 (A) (A) (A) (A) (A) (A) (A) (A) (A) (A) (A) (A)
                 (A) (A) (A) (A) (A) (A) (A) (A) (A) (A) (A) (A)
                 (A) (A) (A) (A) (A) (A) (A) (A) (A) (A) (A) (A)
                 (A) (A) (A) (A) (A) (A) (A) (A) (A) (A) (A) (A)
                 (A) (A) (A) (A) (A) (A) (A) (A) (A) (A) (A) (A)
                 (A) (A) (A) (A) (A) (A) (A) (A) (A) (A) (A) (A)
                 (A) (A) (A) (A) (A) (A) (A) (A) (A) (A) (A) (A)
                 (A) (A) (A) (A) (A) (A) (A) (A) (A) (A) (A) (A)
                 (A) (A) (A) (A) (A) (A) (A) (A) (A) (A) (A) (A)
                 (A) (A) (A) (A) (A) (A) (A) (A) (A) (A) (A) (A)
                 (A) (A) (A) (A) (A) (A) (A) (A) (A) (A) (A) (A)
                 (A) (A) (A) (A) (A) (A) (A) (A) (A) (A) (A) (A)
                 (A) (A) (A) (A) (A) (A) (A) (A) (A) (A) (A) (A)
                 (A) (A) (A) (A) (A) (A) (A) (A) (A) (A) (A) (A)
                 (A) (A) (A) (A) (A) (A) (A) (A) (A) (A) (A) (A)
                 (A) (A) (A) (A) (A) (A) (A)
 The electronic state is 1-A.
 Alpha  occ. eigenvalues --  -19.41167 -19.40910 -19.40212 -19.39826 -19.36350
 Alpha  occ. eigenvalues --  -14.59993 -14.56530 -10.46458 -10.46243 -10.44393
 Alpha  occ. eigenvalues --  -10.44179 -10.43770 -10.43219 -10.41996 -10.41882
 Alpha  occ. eigenvalues --  -10.39917 -10.39239  -1.27171  -1.25306  -1.24520
 Alpha  occ. eigenvalues --   -1.23669  -1.20470  -1.19062  -1.15808  -1.04250
 Alpha  occ. eigenvalues --   -1.00563  -0.98895  -0.93294  -0.88013  -0.85985
 Alpha  occ. eigenvalues --   -0.85024  -0.79053  -0.78243  -0.77773  -0.76921
 Alpha  occ. eigenvalues --   -0.76419  -0.75624  -0.74811  -0.73634  -0.71761
 Alpha  occ. eigenvalues --   -0.71012  -0.69347  -0.68050  -0.65434  -0.64750
 Alpha  occ. eigenvalues --   -0.64400  -0.63070  -0.62424  -0.61967  -0.61662
 Alpha  occ. eigenvalues --   -0.60917  -0.59657  -0.59298  -0.57397  -0.57185
 Alpha  occ. eigenvalues --   -0.55768  -0.55559  -0.54420  -0.54067  -0.53972
 Alpha  occ. eigenvalues --   -0.53893  -0.53105  -0.52518  -0.50977  -0.50678
 Alpha  occ. eigenvalues --   -0.49421  -0.49323  -0.45878  -0.42930
 Alpha virt. eigenvalues --   -0.09517  -0.07733  -0.06298  -0.05251  -0.04733
 Alpha virt. eigenvalues --   -0.04234  -0.03220  -0.02892  -0.02560  -0.02202
 Alpha virt. eigenvalues --   -0.01831  -0.01225  -0.00739  -0.00492  -0.00140
 Alpha virt. eigenvalues --    0.00071   0.00616   0.00694   0.00954   0.01678
 Alpha virt. eigenvalues --    0.01988   0.02556   0.02708   0.02942   0.03352
 Alpha virt. eigenvalues --    0.03488   0.03881   0.04178   0.04649   0.05064
 Alpha virt. eigenvalues --    0.05186   0.05783   0.05970   0.06229   0.06648
 Alpha virt. eigenvalues --    0.06733   0.06893   0.07003   0.07368   0.07490
 Alpha virt. eigenvalues --    0.07691   0.08259   0.08360   0.08868   0.09106
 Alpha virt. eigenvalues --    0.09278   0.09481   0.09705   0.09937   0.10432
 Alpha virt. eigenvalues --    0.10507   0.11001   0.11054   0.11505   0.11884
 Alpha virt. eigenvalues --    0.12255   0.12405   0.12684   0.12718   0.12862
 Alpha virt. eigenvalues --    0.13425   0.13604   0.14310   0.14529   0.14811
 Alpha virt. eigenvalues --    0.14953   0.15243   0.15475   0.15737   0.16235
 Alpha virt. eigenvalues --    0.16359   0.16980   0.17099   0.17270   0.17449
 Alpha virt. eigenvalues --    0.17541   0.17766   0.18185   0.18474   0.18620
 Alpha virt. eigenvalues --    0.18995   0.19109   0.19507   0.19632   0.20175
 Alpha virt. eigenvalues --    0.20479   0.20556   0.20619   0.21167   0.21414
 Alpha virt. eigenvalues --    0.21700   0.22095   0.22311   0.22809   0.23103
 Alpha virt. eigenvalues --    0.23364   0.23495   0.23824   0.24299   0.24821
 Alpha virt. eigenvalues --    0.25109   0.25598   0.25745   0.26145   0.26413
 Alpha virt. eigenvalues --    0.26919   0.27057   0.27199   0.27690   0.27893
 Alpha virt. eigenvalues --    0.28241   0.28325   0.28808   0.29055   0.29224
 Alpha virt. eigenvalues --    0.29454   0.29949   0.30581   0.30872   0.31216
 Alpha virt. eigenvalues --    0.31372   0.31848   0.32370   0.32434   0.32658
 Alpha virt. eigenvalues --    0.33122   0.33407   0.33796   0.34077   0.34512
 Alpha virt. eigenvalues --    0.34844   0.35319   0.35356   0.36109   0.36581
 Alpha virt. eigenvalues --    0.36681   0.37183   0.37679   0.38027   0.38523
 Alpha virt. eigenvalues --    0.38816   0.39471   0.39700   0.39854   0.40314
 Alpha virt. eigenvalues --    0.40776   0.41019   0.41755   0.42000   0.42339
 Alpha virt. eigenvalues --    0.42883   0.43143   0.43311   0.43592   0.44009
 Alpha virt. eigenvalues --    0.44242   0.44803   0.44950   0.45774   0.46167
 Alpha virt. eigenvalues --    0.46366   0.46530   0.46947   0.47485   0.47859
 Alpha virt. eigenvalues --    0.48109   0.48681   0.48850   0.49148   0.49377
 Alpha virt. eigenvalues --    0.50157   0.50608   0.50907   0.50998   0.51140
 Alpha virt. eigenvalues --    0.51589   0.51792   0.52134   0.52565   0.53342
 Alpha virt. eigenvalues --    0.53501   0.53626   0.54146   0.54444   0.54684
 Alpha virt. eigenvalues --    0.54956   0.55360   0.55551   0.55860   0.56335
 Alpha virt. eigenvalues --    0.56679   0.56981   0.57847   0.57963   0.58958
 Alpha virt. eigenvalues --    0.59219   0.59315   0.59397   0.59706   0.60607
 Alpha virt. eigenvalues --    0.60637   0.60957   0.61250   0.62138   0.63063
 Alpha virt. eigenvalues --    0.63108   0.63342   0.63960   0.64073   0.64365
 Alpha virt. eigenvalues --    0.64739   0.65581   0.66006   0.66503   0.67146
 Alpha virt. eigenvalues --    0.67395   0.68082   0.68312   0.69394   0.69774
 Alpha virt. eigenvalues --    0.69970   0.70192   0.70816   0.71103   0.71471
 Alpha virt. eigenvalues --    0.71657   0.71857   0.72303   0.72910   0.73099
 Alpha virt. eigenvalues --    0.73871   0.74259   0.74966   0.75231   0.75586
 Alpha virt. eigenvalues --    0.75822   0.76692   0.76972   0.77795   0.77827
 Alpha virt. eigenvalues --    0.77941   0.78453   0.78767   0.79083   0.79770
 Alpha virt. eigenvalues --    0.80305   0.80923   0.81527   0.82301   0.83120
 Alpha virt. eigenvalues --    0.83483   0.83742   0.84519   0.85086   0.85686
 Alpha virt. eigenvalues --    0.86045   0.87069   0.87584   0.88074   0.88542
 Alpha virt. eigenvalues --    0.89331   0.89789   0.90282   0.91487   0.92178
 Alpha virt. eigenvalues --    0.92474   0.92937   0.93171   0.94056   0.94598
 Alpha virt. eigenvalues --    0.95437   0.95931   0.96304   0.96947   0.97214
 Alpha virt. eigenvalues --    0.98002   0.98729   0.99633   1.00483   1.00989
 Alpha virt. eigenvalues --    1.02573   1.02984   1.03657   1.04839   1.05522
 Alpha virt. eigenvalues --    1.05737   1.05920   1.06362   1.07456   1.08531
 Alpha virt. eigenvalues --    1.09231   1.09938   1.10790   1.11630   1.12043
 Alpha virt. eigenvalues --    1.12360   1.13652   1.14364   1.14778   1.15800
 Alpha virt. eigenvalues --    1.16057   1.17057   1.17534   1.18282   1.18623
 Alpha virt. eigenvalues --    1.19673   1.20510   1.21309   1.21395   1.22138
 Alpha virt. eigenvalues --    1.22948   1.23555   1.24938   1.25749   1.26861
 Alpha virt. eigenvalues --    1.27260   1.28541   1.29750   1.30565   1.31312
 Alpha virt. eigenvalues --    1.31986   1.32433   1.33655   1.34306   1.34911
 Alpha virt. eigenvalues --    1.35860   1.36084   1.36531   1.37025   1.38164
 Alpha virt. eigenvalues --    1.38508   1.39908   1.40704   1.41062   1.41335
 Alpha virt. eigenvalues --    1.43014   1.43787   1.44254   1.45580   1.46533
 Alpha virt. eigenvalues --    1.47074   1.47647   1.49092   1.50029   1.50809
 Alpha virt. eigenvalues --    1.51810   1.52976   1.53193   1.54462   1.55458
 Alpha virt. eigenvalues --    1.55994   1.56823   1.57864   1.58539   1.60450
 Alpha virt. eigenvalues --    1.60895   1.61756   1.62333   1.63539   1.65182
 Alpha virt. eigenvalues --    1.65694   1.65935   1.66549   1.67296   1.68065
 Alpha virt. eigenvalues --    1.68611   1.69182   1.70274   1.70852   1.71117
 Alpha virt. eigenvalues --    1.72023   1.73071   1.73472   1.74403   1.74475
 Alpha virt. eigenvalues --    1.74783   1.75789   1.75979   1.76607   1.77717
 Alpha virt. eigenvalues --    1.78305   1.79918   1.80081   1.80984   1.81638
 Alpha virt. eigenvalues --    1.82154   1.82577   1.84741   1.85001   1.85392
 Alpha virt. eigenvalues --    1.86082   1.86345   1.87890   1.88545   1.88703
 Alpha virt. eigenvalues --    1.89337   1.89583   1.90459   1.90726   1.91633
 Alpha virt. eigenvalues --    1.92355   1.92938   1.93441   1.95511   1.95678
 Alpha virt. eigenvalues --    1.96724   1.97129   1.98029   1.98968   2.00008
 Alpha virt. eigenvalues --    2.00451   2.01348   2.02082   2.03273   2.04075
 Alpha virt. eigenvalues --    2.04517   2.05014   2.06767   2.07706   2.08345
 Alpha virt. eigenvalues --    2.09769   2.11299   2.11961   2.12376   2.12955
 Alpha virt. eigenvalues --    2.13509   2.13783   2.14462   2.14983   2.17171
 Alpha virt. eigenvalues --    2.17388   2.18793   2.19601   2.20463   2.20839
 Alpha virt. eigenvalues --    2.21376   2.21793   2.23899   2.24186   2.25250
 Alpha virt. eigenvalues --    2.25585   2.27102   2.28517   2.28545   2.29616
 Alpha virt. eigenvalues --    2.30632   2.31273   2.31710   2.32456   2.33436
 Alpha virt. eigenvalues --    2.35220   2.36487   2.37798   2.39282   2.39623
 Alpha virt. eigenvalues --    2.40966   2.41855   2.42794   2.43186   2.44188
 Alpha virt. eigenvalues --    2.46228   2.48015   2.48522   2.50054   2.51448
 Alpha virt. eigenvalues --    2.52521   2.52972   2.53560   2.54916   2.55282
 Alpha virt. eigenvalues --    2.57071   2.57398   2.58236   2.59977   2.60704
 Alpha virt. eigenvalues --    2.61351   2.62589   2.63606   2.63930   2.65049
 Alpha virt. eigenvalues --    2.65344   2.67408   2.68343   2.68859   2.69752
 Alpha virt. eigenvalues --    2.70282   2.71045   2.72350   2.74813   2.74885
 Alpha virt. eigenvalues --    2.75692   2.77924   2.79674   2.80496   2.81804
 Alpha virt. eigenvalues --    2.83156   2.86538   2.87793   2.88942   2.90100
 Alpha virt. eigenvalues --    2.91418   2.93284   2.94048   2.94634   2.95056
 Alpha virt. eigenvalues --    2.96808   2.97379   3.03533   3.04563   3.05172
 Alpha virt. eigenvalues --    3.09118   3.11851   3.16934   3.18225   3.26083
 Alpha virt. eigenvalues --    3.28885   3.32167   3.33206   3.34854   3.35727
 Alpha virt. eigenvalues --    3.37974   3.39650   3.40385   3.41878   3.42998
 Alpha virt. eigenvalues --    3.44183   3.45674   3.47903   3.49484   3.54472
 Alpha virt. eigenvalues --    3.58095   3.64565   3.66839   3.67306   3.71086
 Alpha virt. eigenvalues --    3.76624   3.81725   3.90110   3.92228   3.96824
 Alpha virt. eigenvalues --    4.02400   4.06781   4.11992   4.17263   4.24531
 Alpha virt. eigenvalues --    4.38848   5.08374
          Condensed to atoms (all electrons):
               1          2          3          4          5          6
     1  N    8.486717   0.002744   0.162040  -0.269049  -0.612566  -1.083546
     2  C    0.002744  10.197957  -2.542218   1.566146  -1.254779  -1.044781
     3  C    0.162040  -2.542218  11.712763  -4.511353   0.814845  -0.113943
     4  C   -0.269049   1.566146  -4.511353  22.658726  -8.996494  -2.290353
     5  C   -0.612566  -1.254779   0.814845  -8.996494  24.478672  -2.917590
     6  C   -1.083546  -1.044781  -0.113943  -2.290353  -2.917590  16.483529
     7  C    1.049644  -0.847971   0.517839  -0.698542 -10.515691  -2.212513
     8  C   -0.018597  -0.116059   0.010343  -0.269019   0.406625  -0.803182
     9  C    0.019813   0.002987  -0.012296  -0.010628   0.270138  -0.078629
    10  C    0.060325  -0.031352  -0.030624  -0.012300  -0.428997  -0.317454
    11  N   -0.121545   0.149771  -0.227583  -0.371852   2.199109   0.596990
    12  C   -0.054657   0.000308   0.049378  -0.232090   0.721002   0.148211
    13  H   -0.102309  -0.568046   0.126891   0.176223   0.026965   0.086977
    14  H   -0.042355   0.401475  -1.144029   0.646827  -0.118114  -0.073029
    15  H   -0.076295  -0.192228   0.683998  -2.488502   1.240896   0.254179
    16  H    0.082987  -0.239268   0.152657  -0.221643  -1.001249  -1.111361
    17  H    0.012744   0.048235  -0.023251  -0.008144   1.085367  -0.317016
    18  H    0.028566   0.012781  -0.023659   0.058101  -0.086909  -0.223270
    19  H   -0.021623  -0.001034  -0.000452  -0.064216   0.481121   0.317576
    20  H    0.002986  -0.001672  -0.001704   0.006487  -0.048219  -0.023120
    21  H   -0.001384   0.001338  -0.000840   0.003506  -0.038376   0.011432
    22  H    0.005827  -0.001533  -0.001707   0.018508  -0.252569  -0.044504
    23  H   -0.002502  -0.001597   0.003199   0.020544   0.228034   0.032560
    24  H   -0.004125   0.013831  -0.021533   0.010180   0.150071   0.031835
    25  H   -0.002470  -0.002507   0.012905  -0.002440  -0.051701  -0.029927
    26  H    0.004017  -0.038562   0.055557  -0.050146   0.153622   0.037843
    27  O   -0.069808   0.039707  -0.023013   0.035975  -0.118860  -0.141065
    28  O    0.000670  -0.020397   0.011569  -0.020553  -0.009770  -0.086867
    29  O    0.013493   0.020674  -0.009119   0.001505  -0.024603  -0.098843
    30  O   -0.000000   0.000066  -0.000013  -0.000410  -0.003228   0.001871
    31  H   -0.002750  -0.025511   0.008767  -0.004125   0.007354   0.002005
    32  H   -0.001629   0.003771  -0.001450   0.008066  -0.005810   0.033527
    33  H    0.000852   0.000168  -0.000081  -0.001897  -0.002454   0.003479
    34  H   -0.000122   0.000016  -0.000010  -0.000094   0.001510   0.000124
    35  H    0.000106  -0.000005   0.000035   0.000064  -0.001343   0.000441
    36  H    0.255962   0.017623  -0.077593   0.028027  -0.078445  -0.130392
    37  H   -0.009061  -0.002867   0.005097   0.001066   0.014262   0.008107
    38  H    0.007988   0.000934  -0.004711  -0.006235   0.022827  -0.030884
    39  H    0.005822  -0.033024   0.025658  -0.021390  -0.156726  -0.113013
    40  O   -0.000640   0.000230   0.000141   0.000081   0.000370   0.005752
    41  H   -0.000116   0.000000   0.000107  -0.000120   0.000093   0.000024
    42  H   -0.000105  -0.000072   0.000008   0.000058   0.000211   0.000243
               7          8          9         10         11         12
     1  N    1.049644  -0.018597   0.019813   0.060325  -0.121545  -0.054657
     2  C   -0.847971  -0.116059   0.002987  -0.031352   0.149771   0.000308
     3  C    0.517839   0.010343  -0.012296  -0.030624  -0.227583   0.049378
     4  C   -0.698542  -0.269019  -0.010628  -0.012300  -0.371852  -0.232090
     5  C  -10.515691   0.406625   0.270138  -0.428997   2.199109   0.721002
     6  C   -2.212513  -0.803182  -0.078629  -0.317454   0.596990   0.148211
     7  C   28.510250  -1.793669   0.361872  -0.592639  -6.535417  -1.305169
     8  C   -1.793669   8.883078  -1.331757   1.025601  -0.719642  -0.223718
     9  C    0.361872  -1.331757   7.011237  -0.318237  -0.704341  -0.074973
    10  C   -0.592639   1.025601  -0.318237   6.354116  -0.044574  -0.334049
    11  N   -6.535417  -0.719642  -0.704341  -0.044574  15.343409   1.233673
    12  C   -1.305169  -0.223718  -0.074973  -0.334049   1.233673   4.949989
    13  H   -0.035603   0.005985   0.000288  -0.001647   0.007584   0.004218
    14  H    0.074502  -0.003987   0.000364   0.000831  -0.001482  -0.007933
    15  H   -0.276140  -0.034846  -0.008509  -0.011812   0.037918   0.047893
    16  H    0.245162  -0.071480   0.000490   0.012931  -0.159236   0.064748
    17  H   -2.611894   0.688563  -0.001133  -0.016050  -0.276058  -0.039734
    18  H    0.094865  -0.285764   0.453276   0.003156  -0.157018  -0.052030
    19  H   -0.108851  -1.090615   0.090757  -0.235011   0.467003   0.091957
    20  H    0.096000   0.256522  -0.546926   0.059451   0.192018   0.018018
    21  H    0.071499   0.218395  -0.279702   0.119994  -0.185060  -0.018206
    22  H    0.758476   0.103486   0.164077  -0.396077  -1.058512  -0.154559
    23  H   -0.061442  -0.046157   0.091982  -0.233668  -0.307174  -0.046602
    24  H   -0.146199   0.005768   0.034534  -0.005871  -0.573572   0.327296
    25  H    0.200765  -0.082141   0.085237   0.025506  -0.275877   0.132964
    26  H   -0.189416   0.107330  -0.073448  -0.032156   0.182469   0.038287
    27  O    0.023776  -0.008092  -0.001881  -0.000433   0.000339   0.002225
    28  O    0.034191   0.024264   0.002652   0.045473  -0.126374  -0.017720
    29  O    0.001805  -0.004354  -0.000213   0.001747  -0.015458   0.006317
    30  O    0.007927  -0.004714  -0.010180  -0.018599   0.012487   0.000708
    31  H   -0.004186   0.001949   0.000086   0.000400   0.001151   0.000145
    32  H    0.003115   0.018174  -0.005254  -0.024953   0.012328   0.033951
    33  H   -0.008412  -0.004308  -0.000389  -0.001005   0.006192   0.003695
    34  H   -0.002048  -0.001654   0.004550  -0.004106   0.002797   0.001027
    35  H    0.000872   0.004724  -0.012356   0.007473  -0.003051  -0.000668
    36  H    0.040606  -0.024788  -0.001601  -0.001976  -0.006086  -0.004493
    37  H    0.014731   0.003799  -0.000622  -0.001846  -0.002718  -0.001324
    38  H    0.014404   0.009023   0.011085   0.019692  -0.034756  -0.021120
    39  H    0.537267   0.034128   0.013026  -0.014772  -0.334170  -0.217186
    40  O    0.000368   0.000199   0.000027  -0.000034   0.001373   0.000361
    41  H    0.000178   0.000058   0.000004   0.000078  -0.000046  -0.000038
    42  H    0.000129   0.000066   0.000014  -0.000030  -0.000009  -0.000090
              13         14         15         16         17         18
     1  N   -0.102309  -0.042355  -0.076295   0.082987   0.012744   0.028566
     2  C   -0.568046   0.401475  -0.192228  -0.239268   0.048235   0.012781
     3  C    0.126891  -1.144029   0.683998   0.152657  -0.023251  -0.023659
     4  C    0.176223   0.646827  -2.488502  -0.221643  -0.008144   0.058101
     5  C    0.026965  -0.118114   1.240896  -1.001249   1.085367  -0.086909
     6  C    0.086977  -0.073029   0.254179  -1.111361  -0.317016  -0.223270
     7  C   -0.035603   0.074502  -0.276140   0.245162  -2.611894   0.094865
     8  C    0.005985  -0.003987  -0.034846  -0.071480   0.688563  -0.285764
     9  C    0.000288   0.000364  -0.008509   0.000490  -0.001133   0.453276
    10  C   -0.001647   0.000831  -0.011812   0.012931  -0.016050   0.003156
    11  N    0.007584  -0.001482   0.037918  -0.159236  -0.276058  -0.157018
    12  C    0.004218  -0.007933   0.047893   0.064748  -0.039734  -0.052030
    13  H    2.137842  -0.120870  -0.007058   0.007322   0.001192  -0.001333
    14  H   -0.120870   2.110203  -0.137008  -0.008708   0.001192   0.001036
    15  H   -0.007058  -0.137008   3.025803   0.004676  -0.172193  -0.007449
    16  H    0.007322  -0.008708   0.004676   4.790463  -0.062534  -0.212652
    17  H    0.001192   0.001192  -0.172193  -0.062534   3.575570   0.248068
    18  H   -0.001333   0.001036  -0.007449  -0.212652   0.248068   2.494913
    19  H    0.000955  -0.001814   0.015042   0.101175  -0.378343  -0.778854
    20  H    0.000114  -0.000048   0.000338   0.070465  -0.084160  -0.499723
    21  H    0.000024   0.000012   0.000088  -0.016674   0.081974   0.235594
    22  H   -0.000237   0.000190  -0.005058  -0.053579   0.111903   0.067476
    23  H    0.000088  -0.000297   0.005341   0.028926  -0.136209  -0.074760
    24  H    0.000485  -0.000143   0.006291   0.010094   0.103090  -0.001983
    25  H    0.000489  -0.000779   0.002068   0.013471   0.014337  -0.007097
    26  H   -0.003398  -0.000472  -0.000056  -0.019671  -0.002783   0.012188
    27  O    0.009261   0.000096   0.000041   0.016737   0.000416  -0.001979
    28  O   -0.000345   0.000189  -0.000813   0.073896  -0.006701  -0.017648
    29  O    0.000012  -0.000315   0.000072   0.082657  -0.000125  -0.003091
    30  O    0.000009  -0.000003  -0.000011   0.002971   0.000163   0.000943
    31  H    0.004685  -0.000424   0.000313   0.009505  -0.000123   0.001145
    32  H    0.000071  -0.000110   0.000426  -0.006372   0.003083   0.011296
    33  H   -0.000022  -0.000015   0.000334   0.010058  -0.000657  -0.002011
    34  H    0.000006  -0.000002   0.000021   0.001916  -0.000317  -0.000975
    35  H   -0.000005   0.000002  -0.000016  -0.002808   0.000225   0.001257
    36  H   -0.119253   0.012341  -0.001039  -0.063206  -0.002207  -0.005760
    37  H    0.004285  -0.000517  -0.000849  -0.023498   0.001041   0.003046
    38  H   -0.002123   0.000595  -0.001410  -0.025920   0.001034   0.001270
    39  H    0.000421   0.000826  -0.004359  -0.064472   0.000973   0.023511
    40  O    0.000035   0.000004   0.000006  -0.005284  -0.000005   0.000272
    41  H    0.000019  -0.000003   0.000000  -0.000422   0.000009   0.000020
    42  H   -0.000005   0.000002  -0.000003  -0.000597   0.000011   0.000046
              19         20         21         22         23         24
     1  N   -0.021623   0.002986  -0.001384   0.005827  -0.002502  -0.004125
     2  C   -0.001034  -0.001672   0.001338  -0.001533  -0.001597   0.013831
     3  C   -0.000452  -0.001704  -0.000840  -0.001707   0.003199  -0.021533
     4  C   -0.064216   0.006487   0.003506   0.018508   0.020544   0.010180
     5  C    0.481121  -0.048219  -0.038376  -0.252569   0.228034   0.150071
     6  C    0.317576  -0.023120   0.011432  -0.044504   0.032560   0.031835
     7  C   -0.108851   0.096000   0.071499   0.758476  -0.061442  -0.146199
     8  C   -1.090615   0.256522   0.218395   0.103486  -0.046157   0.005768
     9  C    0.090757  -0.546926  -0.279702   0.164077   0.091982   0.034534
    10  C   -0.235011   0.059451   0.119994  -0.396077  -0.233668  -0.005871
    11  N    0.467003   0.192018  -0.185060  -1.058512  -0.307174  -0.573572
    12  C    0.091957   0.018018  -0.018206  -0.154559  -0.046602   0.327296
    13  H    0.000955   0.000114   0.000024  -0.000237   0.000088   0.000485
    14  H   -0.001814  -0.000048   0.000012   0.000190  -0.000297  -0.000143
    15  H    0.015042   0.000338   0.000088  -0.005058   0.005341   0.006291
    16  H    0.101175   0.070465  -0.016674  -0.053579   0.028926   0.010094
    17  H   -0.378343  -0.084160   0.081974   0.111903  -0.136209   0.103090
    18  H   -0.778854  -0.499723   0.235594   0.067476  -0.074760  -0.001983
    19  H    2.751896   0.234917  -0.350946  -0.050358   0.069823   0.009565
    20  H    0.234917   2.431827  -0.689326  -0.366253   0.230061  -0.002899
    21  H   -0.350946  -0.689326   2.264652   0.149515  -0.271686   0.006722
    22  H   -0.050358  -0.366253   0.149515   3.168211  -0.721522   0.025107
    23  H    0.069823   0.230061  -0.271686  -0.721522   2.680602   0.016491
    24  H    0.009565  -0.002899   0.006722   0.025107   0.016491   2.041266
    25  H    0.002698   0.014347  -0.003427  -0.003808   0.027784  -0.360747
    26  H   -0.002861  -0.011480   0.000883   0.009152   0.007159  -0.400840
    27  O    0.000180  -0.000708  -0.000112   0.000129  -0.000080   0.000233
    28  O    0.002532   0.012296  -0.002218   0.039982   0.001430  -0.013205
    29  O    0.000062   0.001429  -0.000202   0.000726   0.000124   0.000298
    30  O    0.000160  -0.009482   0.007062   0.008675  -0.006232   0.000121
    31  H   -0.000064  -0.000040   0.000020  -0.000036   0.000019  -0.000019
    32  H    0.000710  -0.016927   0.009573   0.019199  -0.006870   0.016390
    33  H    0.000290   0.000645  -0.000067  -0.002060   0.000249   0.000506
    34  H    0.000263   0.006003  -0.000651  -0.008047   0.001696  -0.000070
    35  H   -0.000231   0.000957  -0.000480   0.005231  -0.000818  -0.000214
    36  H    0.001175  -0.000487  -0.000140   0.000734   0.000090   0.000313
    37  H   -0.000703  -0.001175   0.000236   0.001005  -0.000422  -0.000009
    38  H   -0.001173   0.002236  -0.001384   0.004792  -0.000616  -0.004280
    39  H   -0.027027   0.012166  -0.004986   0.061180   0.037271  -0.087030
    40  O    0.000002  -0.000158   0.000013   0.000191  -0.000036   0.000023
    41  H   -0.000002  -0.000007   0.000003   0.000059  -0.000013   0.000023
    42  H   -0.000002  -0.000024   0.000004  -0.000006  -0.000002  -0.000011
              25         26         27         28         29         30
     1  N   -0.002470   0.004017  -0.069808   0.000670   0.013493  -0.000000
     2  C   -0.002507  -0.038562   0.039707  -0.020397   0.020674   0.000066
     3  C    0.012905   0.055557  -0.023013   0.011569  -0.009119  -0.000013
     4  C   -0.002440  -0.050146   0.035975  -0.020553   0.001505  -0.000410
     5  C   -0.051701   0.153622  -0.118860  -0.009770  -0.024603  -0.003228
     6  C   -0.029927   0.037843  -0.141065  -0.086867  -0.098843   0.001871
     7  C    0.200765  -0.189416   0.023776   0.034191   0.001805   0.007927
     8  C   -0.082141   0.107330  -0.008092   0.024264  -0.004354  -0.004714
     9  C    0.085237  -0.073448  -0.001881   0.002652  -0.000213  -0.010180
    10  C    0.025506  -0.032156  -0.000433   0.045473   0.001747  -0.018599
    11  N   -0.275877   0.182469   0.000339  -0.126374  -0.015458   0.012487
    12  C    0.132964   0.038287   0.002225  -0.017720   0.006317   0.000708
    13  H    0.000489  -0.003398   0.009261  -0.000345   0.000012   0.000009
    14  H   -0.000779  -0.000472   0.000096   0.000189  -0.000315  -0.000003
    15  H    0.002068  -0.000056   0.000041  -0.000813   0.000072  -0.000011
    16  H    0.013471  -0.019671   0.016737   0.073896   0.082657   0.002971
    17  H    0.014337  -0.002783   0.000416  -0.006701  -0.000125   0.000163
    18  H   -0.007097   0.012188  -0.001979  -0.017648  -0.003091   0.000943
    19  H    0.002698  -0.002861   0.000180   0.002532   0.000062   0.000160
    20  H    0.014347  -0.011480  -0.000708   0.012296   0.001429  -0.009482
    21  H   -0.003427   0.000883  -0.000112  -0.002218  -0.000202   0.007062
    22  H   -0.003808   0.009152   0.000129   0.039982   0.000726   0.008675
    23  H    0.027784   0.007159  -0.000080   0.001430   0.000124  -0.006232
    24  H   -0.360747  -0.400840   0.000233  -0.013205   0.000298   0.000121
    25  H    2.107689  -0.655866  -0.000039   0.021780   0.000411   0.001799
    26  H   -0.655866   1.990950   0.001220   0.011976   0.002990  -0.000639
    27  O   -0.000039   0.001220   8.290592  -0.002103  -0.086121  -0.000198
    28  O    0.021780   0.011976  -0.002103   8.163848  -0.057480  -0.068655
    29  O    0.000411   0.002990  -0.086121  -0.057480   8.173873  -0.000736
    30  O    0.001799  -0.000639  -0.000198  -0.068655  -0.000736   7.838677
    31  H    0.000043  -0.000138   0.394899  -0.000626   0.002727   0.000043
    32  H   -0.007800  -0.005746   0.005025   0.352156   0.015033  -0.038331
    33  H    0.000356  -0.000700   0.014610  -0.013203   0.341045  -0.000627
    34  H    0.000848  -0.000080  -0.000069   0.002907  -0.000164   0.337974
    35  H   -0.000256   0.000154   0.000043   0.003498   0.000038   0.348558
    36  H   -0.001495   0.001102   0.132310  -0.000107  -0.028766  -0.000214
    37  H    0.000132  -0.000142   0.095323  -0.001323   0.064399  -0.000591
    38  H   -0.000568   0.004319  -0.038737   0.048817   0.178685   0.008244
    39  H    0.059105   0.028531  -0.012169   0.089706  -0.032872   0.020952
    40  O    0.000138   0.000112  -0.001400   0.001233  -0.069527   0.000050
    41  H   -0.000018  -0.000027  -0.000148   0.000049   0.005252   0.000030
    42  H   -0.000041   0.000068  -0.000225   0.000026  -0.000919  -0.000046
              31         32         33         34         35         36
[...]
 00000470,0.00000189,0.00000114,0.00000720,0.00002555,0.00000065,-0.000
 51265,-0.00032976,0.00043710,-0.00000826,-0.00001646,-0.00000851,0.000
 00969,-0.00001733,-0.00002597,0.00000037,-0.00000888,-0.00002375,0.000
 01624,0.00000164,0.00003582,-0.00002202,-0.00001679,-0.00000704,0.0000
 0536,-0.00002902,-0.00001647,-0.00003534,-0.00000201,0.00000116,-0.000
 08708,-0.00001061,-0.00005558,0.00008823,-0.00008806,-0.00006465,0.000
 03246,0.00014120,-0.00003757,-0.00115529,-0.00182713,-0.00023518,-0.00
 127087,0.00545156,-0.00853362,0.05055874,-0.04454011,-0.05166060,0.000
 05221,0.00026656,-0.00019018,0.00033589,-0.00009030,0.00018693,-0.0015
 4915,-0.00138949,-0.00064694,-0.02620244,0.01445086,0.00890461,0.00000
 408,0.00000395,0.00007145,-0.00013333,0.00007901,0.00010245,0.00004265
 ,-0.00049744,0.00015920,0.00489737,0.00452147,-0.00096893,-0.02609067,
 0.02685249,0.05593669,-0.00154341,-0.00074185,0.00053800,-0.00023698,0
 .00031736,0.00010280,-0.00004420,-0.00026227,0.00003829,-0.00054623,0.
 00049812,0.00019718,0.00106166,-0.00140953,0.00043316,0.00083930,0.001
 30657,-0.00129301,0.00019745,-0.00589534,-0.00570790,-0.00019663,0.000
 00413,-0.00058009,-0.00034790,0.00007040,-0.00102798,-0.00923758,0.004
 45901,0.00048813,0.00350473,0.01050655,-0.00397858,0.00390075,0.000156
 97,0.00581463,-0.00000839,-0.00004232,0.00002745,-0.00008933,0.0000404
 4,-0.00002312,-0.00001899,-0.00031029,0.00007795,0.00060734,0.00171506
 ,0.00110382,0.00194388,0.00257478,0.00051458,-0.00008049,0.00008328,0.
 00030075,0.00017330,0.00000903,0.00028911,-0.00004617,-0.00007724,0.00
 012471,0.00028964,0.00008820,0.00039527,0.00026295,-0.00044319,0.00009
 645,0.00187716,-0.00038941,-0.00046585,0.00087736,0.00065765,-0.002961
 11,0.00015399,-0.00045759,-0.00082927,-0.00017220,0.00075971,-0.000821
 15,-0.00080529,-0.00255974,-0.00026877,-0.25310312,-0.12703191,0.13804
 368,0.00268377,-0.00184451,-0.00070106,-0.00279785,0.00302841,0.000014
 35,-0.00010397,0.00011914,0.00008441,0.01460740,0.00386129,-0.00694956
 ,-0.00106049,-0.00022656,-0.00068385,0.00014138,-0.00012698,-0.0002508
 1,0.00046889,0.00014280,0.00018755,0.00191544,0.00134763,-0.00069431,-
 0.00053226,0.00347160,0.00133139,-0.00561125,0.00020103,0.00151829,0.2
 4070023,-0.00095423,-0.00031518,0.00050491,0.00022488,0.00075752,-0.00
 039097,-0.00063961,0.00016512,0.00016884,-0.00002959,-0.00052931,0.000
 16006,0.00040080,-0.00013718,0.00022094,-0.00059231,-0.00163199,0.0003
 7920,-0.00350702,-0.00495851,-0.00152886,-0.00020048,0.00031746,-0.000
 34003,0.00018051,0.00040587,-0.00038061,0.00116096,0.00521097,-0.00266
 838,0.00947444,-0.00434930,-0.00324550,0.00091277,-0.00004504,0.004532
 18,0.00001041,0.00005724,-0.00004170,-0.00005006,0.00003196,0.00001512
 ,0.00001921,-0.00007222,-0.00001449,0.00166768,-0.00160203,-0.00226546
 ,0.00100452,0.00089555,-0.00017155,-0.00000585,0.00003463,-0.00001102,
 0.00021830,-0.00013606,0.00015790,0.00009247,-0.00026446,0.00064312,-0
 .00006903,-0.00023324,0.00022725,0.00125624,-0.00136696,-0.00055963,0.
 00202788,-0.00143019,0.00000491,0.00071099,0.00035075,-0.00150925,0.00
 005364,-0.00016050,-0.00092717,-0.00019758,-0.00000277,-0.00012913,-0.
 00130173,-0.00314780,-0.00030870,-0.08678453,-0.11866211,0.06971366,0.
 00784919,-0.00527623,0.00004853,-0.00026409,0.00079725,-0.00040925,-0.
 00003205,0.00006481,0.00002383,-0.03033766,-0.01719187,0.01842270,-0.0
 0048796,-0.00053217,-0.00104864,0.00013818,-0.00007048,-0.00018242,0.0
 0035289,0.00021576,0.00010321,0.00259025,0.00142879,-0.00093891,0.0000
 3236,0.00433573,0.00152626,-0.01161183,0.00676908,-0.00199194,0.106289
 65,0.14012705,0.00065818,0.00099015,-0.00060166,0.00006759,-0.00004683
 ,-0.00000216,-0.00000973,0.00020943,-0.00000631,0.00034429,-0.00029299
 ,-0.00013432,-0.00035462,0.00081454,-0.00036925,-0.00096412,-0.0013725
 1,0.00119371,-0.00312447,0.00241306,0.00489425,-0.00030115,-0.00043441
 ,0.00061970,-0.00056244,-0.00044485,0.00078328,0.00176436,-0.00296074,
 0.00190095,-0.00795633,-0.00602825,-0.01034764,0.00360523,0.00227315,-
 0.00519176,0.00001563,0.00006454,-0.00001967,0.00004585,-0.00001009,0.
 00000912,0.00003249,0.00020936,-0.00003858,0.00095352,-0.00262892,-0.0
 0065218,-0.00118652,-0.00186739,-0.00068948,0.00004142,-0.00036457,-0.
 00068577,0.00014614,0.00009231,-0.00038033,-0.00029144,0.00069090,-0.0
 0076545,0.00023898,0.00020818,-0.00041695,-0.00006913,0.00016375,0.000
 26435,-0.00127670,0.00065858,0.00001685,-0.00084886,-0.00026428,0.0000
 4959,0.00032202,-0.00022620,-0.00031504,0.00012549,0.00008822,0.000212
 82,0.00031803,0.00156890,0.00019687,0.12853446,0.08819610,-0.09363883,
 -0.00447670,0.00364250,0.00069405,0.00095894,-0.00138440,-0.00026213,0
 .00009592,-0.00005976,-0.00004915,0.00240530,0.00223061,-0.00205150,0.
 00055993,0.00006350,0.00086041,-0.00019513,-0.00007879,0.00037173,-0.0
 0005413,0.00004114,-0.00007736,-0.00083313,-0.00062695,0.00040672,0.00
 002323,-0.00219194,-0.00073692,0.00630756,-0.00501658,-0.00106730,-0.1
 2480141,-0.07824748,0.10637890,-0.00026902,-0.00014605,0.00005374,-0.0
 0010279,0.00011389,0.00002349,0.00005854,-0.00004716,-0.00000133,-0.00
 001800,0.00008392,-0.00000866,-0.00006114,-0.00013093,0.00004969,0.000
 12807,0.00008941,-0.00010375,0.00007047,0.00011534,0.00005733,0.000019
 79,0.00000689,-0.00000647,0.00001246,0.00000910,-0.00001230,0.00014671
 ,-0.00007238,0.00000155,-0.00036988,-0.00015659,0.00008660,0.00005193,
 0.00002586,-0.00004775,0.00000630,-0.00000812,-0.00000245,-0.00001064,
 -0.00000453,0.00000645,-0.00000509,0.00000316,0.00000587,0.00010294,0.
 00006517,0.00006409,-0.00004517,-0.00003725,0.00001085,0.00001209,0.00
 001491,0.00002041,-0.00002462,-0.00001112,0.00000102,0.00002272,-0.000
 01447,0.00002558,-0.00003166,-0.00000715,-0.00000130,0.00002631,-0.000
 01607,-0.00001270,-0.00004981,-0.00001062,0.00001882,-0.00007666,-0.00
 002358,-0.00000340,0.00006032,-0.00004043,-0.00003720,0.00002525,0.000
 06623,-0.00001057,0.00039233,-0.00270945,-0.00073374,-0.00147726,0.000
 21465,-0.00006354,-0.00722264,-0.00541798,-0.01251154,-0.00016120,0.00
 024947,-0.00007731,-0.00028173,-0.00001097,0.00011603,0.00010857,-0.00
 040192,0.00015962,-0.00244301,-0.00259894,0.00204835,0.00004359,-0.000
 07800,0.00001922,0.00002087,-0.00002538,0.00003940,0.00053080,0.000370
 95,-0.00017563,-0.00125174,0.00486651,0.00128184,0.00203654,-0.0010692
 1,-0.00059456,0.00050874,0.00043176,-0.00019324,0.40811425,-0.00048054
 ,-0.00019177,0.00010049,0.00000170,0.00017468,-0.00004798,-0.00005711,
 -0.00000101,0.00002265,0.00000356,0.00001469,0.00000736,0.00002176,-0.
 00007258,0.00001497,0.00010536,-0.00010518,-0.00001276,0.00006386,-0.0
 0007728,-0.00004520,0.00001883,0.00002591,0.00002306,-0.00002143,-0.00
 000620,-0.00001356,0.00005863,-0.00010953,0.00001323,-0.00012580,0.000
 10223,0.00003515,0.00004313,-0.00008871,-0.00003988,0.00002099,0.00002
 914,0.00001467,-0.00000608,0.00000231,0.00000906,-0.00000828,-0.000005
 98,0.00000701,0.00007820,-0.00003684,0.00001042,-0.00001859,0.00001310
 ,0.00000934,-0.00000114,-0.00000201,0.00002328,-0.00000641,0.00000361,
 0.00000401,0.00001126,0.00000067,-0.00001020,-0.00001445,0.00000932,-0
 .00000183,0.00000130,0.00001948,0.00001022,-0.00002209,0.00001008,0.00
 000612,-0.00002971,0.00001101,0.00000023,0.00000657,0.00000780,0.00000
 349,0.00000312,0.00004254,-0.00001607,-0.00068582,-0.00060397,-0.00024
 994,-0.00068251,0.00075685,0.00016720,-0.00419751,0.00414019,-0.004579
 23,0.00015988,0.00020561,0.00009142,-0.00004002,0.00000776,0.00015496,
 -0.00018464,-0.00043388,-0.00005623,-0.00178668,-0.01101199,0.00211256
 ,-0.00019365,0.00002622,-0.00007601,-0.00005324,-0.00002353,-0.0000392
 2,0.00095728,0.00053026,-0.00022872,0.00058010,0.00066006,0.00082994,0
 .00162873,-0.00130950,-0.00095237,0.00002142,0.00001799,-0.00000713,0.
 18159165,0.43190782,-0.00076875,-0.00038033,0.00032998,-0.00010739,0.0
 0020593,-0.00002911,-0.00000789,-0.00007299,0.00004658,-0.00004362,0.0
 0006583,0.00001222,-0.00005982,-0.00016302,0.00007523,0.00016738,0.000
 05922,-0.00011404,0.00006954,-0.00005229,-0.00000642,0.00004147,0.0000
 2800,-0.00000059,0.00002381,0.00001609,-0.00003149,0.00010303,-0.00003
 884,0.00002057,-0.00031202,-0.00013103,0.00027434,-0.00007138,0.000005
 54,-0.00026735,0.00002337,-0.00000605,-0.00002907,-0.00002625,-0.00001
 564,-0.00000219,-0.00001992,-0.00001298,-0.00000212,0.00018497,0.00005
 703,0.00000846,-0.00005040,-0.00001674,0.00001287,-0.00000021,0.000018
 82,0.00003985,-0.00001395,-0.00000625,0.00001603,0.00001482,-0.0000236
 9,0.00003333,-0.00002286,-0.00000327,0.00001379,0.00002912,0.00001593,
 -0.00003025,-0.00005177,-0.00001178,0.00001829,-0.00001203,-0.00001314
 ,0.00006522,-0.00003876,0.00007908,-0.00000929,-0.00001205,-0.00007050
 ,-0.00003895,-0.00063250,-0.00376792,-0.00065526,-0.00219588,0.0005159
 0,0.00071621,-0.01359942,-0.00718514,-0.00843265,-0.00019964,0.0002545
 8,0.00013569,-0.00003084,0.00008138,0.00020521,0.00002415,-0.00042396,
 -0.00002147,0.00493398,0.00268480,-0.00701271,0.00001692,-0.00002592,-
 0.00014091,0.00007422,-0.00003582,-0.00001993,0.00178083,0.00108172,-0
 .00075297,-0.00095413,0.00583885,0.00143743,0.00350697,-0.00232248,-0.
 00212484,0.00044165,0.00054672,-0.00048111,0.09799132,-0.29794357,0.37
 851051,-0.00006902,-0.00003653,0.00008298,0.00001151,-0.00001633,-0.00
 001070,-0.00002087,-0.00000840,0.00001405,-0.00001140,-0.00001644,0.00
 001008,0.00000306,0.00000917,0.00000421,-0.00001908,0.00001805,-0.0000
 0300,-0.00001811,-0.00005589,-0.00001593,0.00000270,0.00000322,-0.0000
 0210,0.00000599,0.00000151,-0.00000331,-0.00003074,0.00003757,0.000009
 25,0.00005791,-0.00001176,0.00006974,-0.00006618,0.00002334,-0.0000816
 6,0.00000345,-0.00000430,-0.00001054,-0.00000280,-0.00000388,-0.000004
 71,-0.00000378,-0.00000637,-0.00000456,0.00001556,0.00000795,-0.000026
 50,0.00000315,0.00000578,-0.00000281,-0.00000422,0.00000104,0.00000273
 ,0.00000614,0.00000223,0.00000614,-0.00000395,-0.00000341,0.00000449,0
 .00000695,-0.00000065,0.00000707,0.00000036,0.00000758,-0.00000690,0.0
 0000502,-0.00000088,-0.00000350,0.00003873,-0.00000099,0.00002996,-0.0
 0004253,0.00005117,0.00001028,-0.00001965,-0.00007560,-0.00001116,-0.0
 0016714,-0.00040794,0.00002466,-0.00017045,-0.00003987,0.00022419,-0.0
 0119068,-0.00168962,-0.00111976,-0.00001045,-0.00002288,0.00004071,0.0
 0006035,-0.00001127,0.00000821,0.00000370,0.00004197,-0.00002714,0.001
 46107,0.00345080,0.00158858,0.00000404,0.00001307,-0.00003063,0.000008
 41,0.00000268,-0.00001183,0.00025194,0.00012527,-0.00016355,-0.0001502
 9,0.00058539,-0.00011013,0.00044692,-0.00000550,-0.00022660,-0.0000271
 3,0.00005130,-0.00011487,-0.08999559,0.09268718,-0.15371605,0.08144871
 ,0.00008503,0.00001313,0.00003820,-0.00005612,-0.00004348,0.00002798,0
 .00004756,-0.00002970,-0.00000052,-0.00001766,0.00002158,-0.00000335,-
 0.00003709,-0.00000737,0.00001107,-0.00001058,0.00008725,-0.00003602,-
 0.00002045,0.00005901,0.00003553,-0.00000112,-0.00001292,-0.00001703,0
 .00001394,0.00000608,0.00000417,0.00000155,0.00003239,-0.00000368,-0.0
 0002884,-0.00010412,0.00002396,-0.00002728,0.00006311,-0.00001300,-0.0
 0000798,-0.00002617,-0.00002240,-0.00000584,-0.00000633,-0.00000544,0.
 00000125,0.00000105,-0.00000350,0.00000896,0.00003739,0.00000715,-0.00
 000310,-0.00001580,-0.00000251,0.00000235,0.00000595,-0.00000473,-0.00
 000175,-0.00000282,-0.00000018,0.00000023,-0.00000754,0.00000940,0.000
 00030,-0.00000697,0.00000214,0.00000607,-0.00001186,-0.00000696,-0.000
 00065,-0.00000486,0.00000098,-0.00000072,-0.00001186,0.00000612,0.0000
 0848,-0.00001099,-0.00000635,0.00000272,-0.00001314,0.00000046,0.00022
 948,-0.00073162,-0.00001575,-0.00029093,-0.00012716,0.00000997,-0.0024
 5780,-0.00225382,-0.00229316,-0.00006170,-0.00001162,-0.00003153,-0.00
 000377,0.00002347,-0.00002428,0.00003322,0.00002631,0.00003515,0.00375
 627,0.00353791,0.00242775,0.00004502,-0.00000902,0.00002458,0.00001971
 ,0.00000520,0.00001340,-0.00008816,0.00000144,-0.00008532,-0.00039403,
 0.00139319,0.00009988,0.00022076,-0.00015922,-0.00014595,0.00011323,0.
 00014363,-0.00006424,0.05645020,-0.18771360,0.21822166,-0.07161008,0.2
 0183529,0.00024643,0.00011282,-0.00007990,0.00000558,-0.00007190,0.000
 01894,0.00001681,0.00000915,-0.00001902,0.00000666,-0.00001063,-0.0000
 0367,0.00001163,0.00002902,-0.00001821,-0.00005919,0.00003512,0.000015
 68,-0.00002091,0.00003375,0.00001294,-0.00000932,-0.00001038,-0.000004
 38,-0.00000527,-0.00000136,0.00000832,-0.00001821,-0.00000218,-0.00000
 812,0.00005156,0.00001227,-0.00007332,0.00001993,-0.00000051,0.0000703
 4,-0.00001068,-0.00000691,0.00000714,0.00000767,0.00000530,0.00000318,
 0.00000782,0.00000270,0.00000198,-0.00002553,0.00000141,0.00000279,0.0
 0001259,-0.00000067,-0.00000346,0.00000159,-0.00000255,-0.00001025,0.0
 0000150,0.00000154,-0.00000395,-0.00000163,0.00000362,-0.00000806,0.00
 000387,-0.00000097,-0.00000374,-0.00000589,-0.00000626,0.00000809,0.00
 001235,0.00000423,-0.00000367,0.00000663,0.00000360,-0.00001439,0.0000
 1161,-0.00002916,0.00000757,0.00000130,0.00002311,0.00002185,0.0004676
 8,0.00019342,0.00004462,0.00027664,-0.00000964,-0.00006811,-0.00008940
 ,-0.00081718,-0.00012538,0.00005875,-0.00003297,-0.00002622,-0.0000346
 2,-0.00002778,-0.00005031,-0.00003395,0.00004389,0.00000023,0.00001441
 ,0.00229779,-0.00105158,-0.00002642,0.00000903,0.00002752,-0.00002005,
 0.00000634,0.00000420,-0.00053290,-0.00030463,0.00017145,-0.00038695,0
 .00003776,-0.00032858,-0.00046358,-0.00002093,-0.00003664,-0.00010788,
 -0.00007553,0.00008283,-0.11660485,0.24005148,-0.31521054,0.12528789,-
 0.24283748,0.32251969,0.00001062,0.00001677,0.00000847,0.00001298,-0.0
 0000997,-0.00001106,-0.00001343,0.00000537,0.00000713,0.00000017,-0.00
 001293,0.00000305,0.00001670,0.00001293,-0.00000833,-0.00001633,-0.000
 00905,0.00001524,-0.00001098,-0.00003661,-0.00001861,0.00000024,0.0000
 0027,0.00000167,-0.00000796,-0.00000238,0.00000184,-0.00002787,-0.0000
 0590,0.00000082,0.00007117,0.00005104,-0.00000914,-0.00001281,-0.00001
 935,0.00000198,-0.00000072,-0.00000022,-0.00000232,0.00000017,0.000000
 15,-0.00000208,-0.00000015,-0.00000288,-0.00000169,-0.00000151,-0.0000
 2093,-0.00001278,0.00000858,0.00001008,-0.00000170,-0.00000391,-0.0000
 0336,-0.00000072,0.00000555,0.00000447,0.00000106,-0.00000317,0.000002
 13,-0.00000867,0.00000647,0.00000256,0.00000021,-0.00000633,0.00000634
 ,0.00000559,0.00000886,0.00000589,-0.00000398,0.00001413,0.00000625,0.
 00000032,-0.00001023,0.00001004,0.00000824,-0.00000254,-0.00000690,-0.
 00000327,-0.00005761,0.00018663,0.00012204,0.00016815,0.00016959,0.000
 03344,0.00017688,0.00031314,-0.00062519,0.00011782,-0.00000976,0.00004
 766,0.00004995,0.00000076,-0.00001563,-0.00010030,-0.00004052,-0.00004
 724,-0.00140018,-0.00087716,0.00175270,-0.00008999,0.00003750,-0.00002
 689,-0.00002696,0.00000545,-0.00002671,-0.00001270,-0.00001553,-0.0000
 0166,0.00003356,-0.00031590,-0.00026521,-0.00000997,-0.00017856,0.0000
 6379,-0.00010550,-0.00008566,0.00004956,-0.30860193,-0.26944880,0.0635
 1997,0.00817841,0.01407931,-0.00807368,0.30164267,0.00018406,0.0000757
 2,-0.00005130,0.00000137,-0.00005435,0.00001557,0.00002188,0.00000175,
 -0.00000953,-0.00000021,-0.00000451,-0.00000213,-0.00000625,0.00002576
 ,-0.00000406,-0.00002910,0.00003912,0.00000514,-0.00002186,0.00001983,
 0.00001372,-0.00000721,-0.00000786,-0.00000674,0.00000937,0.00000384,0
 .00000342,-0.00002599,0.00004784,-0.00000462,0.00005476,-0.00003689,-0
 .00000639,-0.00001592,0.00002133,0.00000452,-0.00000880,-0.00000932,-0
 .00000394,0.00000181,-0.00000082,-0.00000320,0.00000258,0.00000201,-0.
 00000279,-0.00002891,0.00000601,-0.00000570,0.00000689,-0.00000320,-0.
 00000358,0.00000079,0.00000010,-0.00000782,0.00000277,-0.00000183,-0.0
 0000101,-0.00000562,0.00000011,0.00000513,0.00000694,-0.00000289,0.000
 00146,-0.00000092,-0.00000488,-0.00000661,0.00000880,-0.00000469,-0.00
 000224,0.00001232,0.00000029,0.00000313,-0.00001133,0.00000488,0.00000
 010,0.00000100,-0.00002064,0.00000246,0.00031261,0.00031478,0.00005289
 ,0.00025569,-0.00026181,0.00002530,0.00096158,0.00016027,0.00074515,-0
 .00008305,-0.00010912,-0.00002132,-0.00005180,-0.00001410,-0.00006418,
 0.00004143,0.00020279,-0.00000918,-0.00200356,-0.00104815,-0.00124236,
 0.00009959,0.00000566,0.00001850,0.00003626,0.00001383,0.00001687,-0.0
 0038168,-0.00021392,0.00012199,-0.00012939,-0.00030484,-0.00011789,-0.
 00053343,0.00039433,-0.00010192,-0.00002475,-0.00001156,0.00000037,-0.
 23173074,-0.23692576,0.08294629,-0.02309767,-0.01597139,0.00135226,0.2
 5617570,0.25367228,0.00006907,0.00003354,-0.00004554,0.00000401,-0.000
 01119,0.00000970,0.00000629,0.00000233,-0.00000689,0.00000144,0.000000
 25,-0.00000245,0.00000367,0.00000099,-0.00000515,-0.00000658,0.0000111
 6,-0.00000069,0.00000011,0.00001927,0.00000849,-0.00000604,-0.00000237
 ,0.00000081,-0.00000539,-0.00000516,0.00000514,0.00000321,-0.00000618,
 0.00000169,0.00000104,0.00000161,-0.00003504,0.00001516,0.00000532,0.0
 0003544,-0.00000211,0.00000004,0.00000600,0.00000256,0.00000192,0.0000
 0231,0.00000241,0.00000126,0.00000251,-0.00000133,0.00000090,0.0000128
 2,0.00000177,-0.00000127,-0.00000253,0.00000323,-0.00000301,-0.0000020
 2,-0.00000126,0.00000021,-0.00000195,0.00000229,0.00000313,-0.00000360
 ,-0.00000098,0.00000009,-0.00000192,-0.00000327,-0.00000532,0.00000555
 ,0.00000257,0.00000319,-0.00000290,-0.00000297,0.00000019,-0.00000807,
 0.00000804,-0.00001461,-0.00000055,0.00000216,0.00001373,0.00000220,0.
 00023018,-0.00004935,-0.00013165,-0.00000220,0.00006884,-0.00011615,-0
 .00137816,-0.00010129,-0.00358934,0.00006365,0.00001254,-0.00006542,-0
 .00009964,-0.00006533,0.00000734,-0.00004006,-0.00004478,0.00005751,0.
 00060600,-0.00155219,0.00627362,-0.00002609,0.00000396,0.00005311,-0.0
 0003924,0.00000479,0.00001577,-0.00017358,-0.00010606,0.00008358,-0.00
 016952,0.00028177,0.00015562,0.00002191,-0.00005588,-0.00007678,-0.000
 01789,-0.00001269,0.00004471,0.02912099,0.06059758,-0.04655856,0.02828
 271,0.02462382,-0.00587787,-0.05647820,-0.08365573,0.04975115\\0.00000
 075,0.00000026,-0.00000026,0.00000428,-0.00000215,-0.00000075,-0.00000
 027,0.00000015,-0.00000037,0.00000161,0.00000089,-0.00000078,0.0000000
 9,0.00000082,-0.00000056,-0.00000410,0.00000069,0.00000155,0.00000102,
 0.00000250,0.00000117,0.00000070,0.00000035,0.00000030,0.00000022,-0.0
 0000030,-0.00000101,-0.00000131,0.00000172,-0.00000029,0.00000025,-0.0
 0000533,-0.00000112,-0.00000014,-0.00000026,0.00000004,0.00000076,0.00
 000031,-0.00000003,0.00000069,-0.00000030,-0.00000017,0.00000010,-0.00
 000051,-0.00000032,0.00000011,-0.00000159,-0.00000086,0.00000003,-0.00
 000077,-0.00000035,0.00000009,-0.00000018,-0.00000033,0.00000006,-0.00
 000037,-0.00000022,0.00000030,0.00000036,0.00000017,-0.00000038,-0.000
 00046,-0.00000036,-0.00000083,-0.00000105,0.00000028,-0.00000033,-0.00
 000073,-0.00000015,-0.00000014,-0.00000048,-0.00000023,-0.00000040,-0.
 00000043,-0.00000016,-0.00000025,-0.00000019,-0.00000013,0.00000032,0.
 00000066,0.00000029,-0.00000035,0.00000003,0.00000017,-0.00000036,0.00
 000038,0.00000025,-0.00000068,-0.00000003,-0.00000003,0.00000042,0.000
 00059,0.00000024,-0.00000029,0.00000015,0.00000010,-0.00000004,0.00000
 046,0.00000054,-0.00000073,-0.00000004,0.00000015,-0.00000048,0.,0.000
 00028,0.00000025,0.00000032,0.00000015,0.00000070,0.00000062,0.0000002
 0,0.00000003,0.00000053,0.00000037,-0.00000042,0.00000147,0.00000072,-
 0.00000044,0.00000063,0.00000034,-0.00000026,0.00000053,0.00000052,-0.
 00000058,0.00000077,0.00000066\\\@


 MORNING PEOPLE ARE USUALLY ADMIRED AS EARLY BIRDS.
 RECALL BEN FRANKLIN'S APHORISM THAT THE EARLY BIRD GETS THE WORM.
 I IDENTIFY WITH THE WORM. --  CRAIG JAGGER, MINNEAPOLIS, KS.
 Job cpu time:       1 days 16 hours 28 minutes 40.4 seconds.
 Elapsed time:       0 days  1 hours 26 minutes 48.4 seconds.
 File lengths (MBytes):  RWF=   1440 Int=      0 D2E=      0 Chk=     36 Scr=      8
 Normal termination of Gaussian 16 at Mon Dec 26 21:47:19 2022.
