 Entering Gaussian System, Link 0=g16
 Input=NicPySa4hYaba.gjf
 Output=NicPySa4hYaba.log
 Initial command:
 /sw/contrib/gaussian/g16/A03/g16/l1.exe "/gscratch/scrubbed/gds001/Gau-26835.inp" -scrdir="/gscratch/scrubbed/gds001/"
 Entering Link 1 = /sw/contrib/gaussian/g16/A03/g16/l1.exe PID=     26836.
  
 Copyright (c) 1988,1990,1992,1993,1995,1998,2003,2009,2016,
            Gaussian, Inc.  All Rights Reserved.
  
 This is part of the Gaussian(R) 16 program.  It is based on
 the Gaussian(R) 09 system (copyright 2009, Gaussian, Inc.),
 the Gaussian(R) 03 system (copyright 2003, Gaussian, Inc.),
 the Gaussian(R) 98 system (copyright 1998, Gaussian, Inc.),
 the Gaussian(R) 94 system (copyright 1995, Gaussian, Inc.),
 the Gaussian 92(TM) system (copyright 1992, Gaussian, Inc.),
 the Gaussian 90(TM) system (copyright 1990, Gaussian, Inc.),
 the Gaussian 88(TM) system (copyright 1988, Gaussian, Inc.),
 the Gaussian 86(TM) system (copyright 1986, Carnegie Mellon
 University), and the Gaussian 82(TM) system (copyright 1983,
 Carnegie Mellon University). Gaussian is a federally registered
 trademark of Gaussian, Inc.
  
 This software contains proprietary and confidential information,
 including trade secrets, belonging to Gaussian, Inc.
  
 This software is provided under written license and may be
 used, copied, transmitted, or stored only in accord with that
 written license.
  
 The following legend is applicable only to US Government
 contracts under FAR:
  
                    RESTRICTED RIGHTS LEGEND
  
 Use, reproduction and disclosure by the US Government is
 subject to restrictions as set forth in subparagraphs (a)
 and (c) of the Commercial Computer Software - Restricted
 Rights clause in FAR 52.227-19.
  
 Gaussian, Inc.
 340 Quinnipiac St., Bldg. 40, Wallingford CT 06492
  
  
 ---------------------------------------------------------------
 Warning -- This program may not be used in any manner that
 competes with the business of Gaussian, Inc. or will provide
 assistance to any competitor of Gaussian, Inc.  The licensee
 of this program is prohibited from giving any competitor of
 Gaussian, Inc. access to this program.  By using this program,
 the user acknowledges that Gaussian, Inc. is engaged in the
 business of creating and licensing software in the field of
 computational chemistry and represents and warrants to the
 licensee that it is not a competitor of Gaussian, Inc. and that
 it will not use this program in any manner prohibited above.
 ---------------------------------------------------------------
  

 Cite this work as:
 Gaussian 16, Revision A.03,
 M. J. Frisch, G. W. Trucks, H. B. Schlegel, G. E. Scuseria, 
 M. A. Robb, J. R. Cheeseman, G. Scalmani, V. Barone, 
 G. A. Petersson, H. Nakatsuji, X. Li, M. Caricato, A. V. Marenich, 
 J. Bloino, B. G. Janesko, R. Gomperts, B. Mennucci, H. P. Hratchian, 
 J. V. Ortiz, A. F. Izmaylov, J. L. Sonnenberg, D. Williams-Young, 
 F. Ding, F. Lipparini, F. Egidi, J. Goings, B. Peng, A. Petrone, 
 T. Henderson, D. Ranasinghe, V. G. Zakrzewski, J. Gao, N. Rega, 
 G. Zheng, W. Liang, M. Hada, M. Ehara, K. Toyota, R. Fukuda, 
 J. Hasegawa, M. Ishida, T. Nakajima, Y. Honda, O. Kitao, H. Nakai, 
 T. Vreven, K. Throssell, J. A. Montgomery, Jr., J. E. Peralta, 
 F. Ogliaro, M. J. Bearpark, J. J. Heyd, E. N. Brothers, K. N. Kudin, 
 V. N. Staroverov, T. A. Keith, R. Kobayashi, J. Normand, 
 K. Raghavachari, A. P. Rendell, J. C. Burant, S. S. Iyengar, 
 J. Tomasi, M. Cossi, J. M. Millam, M. Klene, C. Adamo, R. Cammi, 
 J. W. Ochterski, R. L. Martin, K. Morokuma, O. Farkas, 
 J. B. Foresman, and D. J. Fox, Gaussian, Inc., Wallingford CT, 2016.
 
 ******************************************
 Gaussian 16:  ES64L-G16RevA.03 25-Dec-2016
                27-Jan-2023 
 ******************************************
 %nprocshared=28
 Will use up to   28 processors via shared memory.
 %mem=41GB
 -----------------------------
 # wB97XD/aug-cc-pVDZ opt freq
 -----------------------------
 1/18=20,19=15,26=3,38=1/1,3;
 2/9=110,12=2,17=6,18=5,40=1/2;
 3/5=16,7=10,11=2,25=1,30=1,71=1,74=-58/1,2,3;
 4//1;
 5/5=2,38=5/2;
 6/7=2,8=2,9=2,10=2,28=1/1;
 7//1,2,3,16;
 1/18=20,19=15,26=3/3(2);
 2/9=110/2;
 99//99;
 2/9=110/2;
 3/5=16,7=10,11=2,25=1,30=1,71=1,74=-58/1,2,3;
 4/5=5,16=3,69=1/1;
 5/5=2,38=5/2;
 7//1,2,3,16;
 1/18=20,19=15,26=3/3(-5);
 2/9=110/2;
 6/7=2,8=2,9=2,10=2,19=2,28=1/1;
 99/9=1/99;
 ----
 blah
 ----
 Symbolic Z-matrix:
 Charge =  1 Multiplicity = 1
 C                     1.77589   2.22777  -0.5866 
 C                     1.5352    0.93089  -0.12124 
 C                     0.25263   0.63989   0.32088 
 N                    -0.71046   1.57396   0.29018 
 C                    -0.50042   2.81955  -0.16047 
 C                     0.75709   3.17823  -0.61225 
 C                     2.61225  -0.13421  -0.13056 
 N                     2.28484  -1.23172   0.7712 
 C                     2.80189  -2.46025   0.17396 
 C                     2.47987  -2.27714  -1.3024 
 C                     2.79427  -0.78982  -1.53224 
 O                    -3.17029   1.03201   1.11868 
 O                    -4.99186  -0.01419  -0.49457 
 H                     2.31683  -3.33374   0.62643 
 H                     3.06769  -2.93323  -1.95264 
 H                     1.41648  -2.48262  -1.47938 
 H                     3.83202  -0.66045  -1.86017 
 H                     2.15064  -0.33392  -2.29313 
 H                     3.89554  -2.55896   0.32581 
 H                     3.55906   0.35853   0.16445 
 H                    -0.00827  -0.34222   0.70806 
 H                    -1.35333   3.49334  -0.13943 
 H                     0.93358   4.18867  -0.97333 
 H                     2.77452   2.49751  -0.93255 
 C                     2.69306  -1.00972   2.14563 
 H                    -1.67394   1.32488   0.63698 
 H                    -3.51365   1.06785   2.0134 
 H                    -3.87252   0.63337   0.54984 
 H                    -5.70128   0.51148  -0.87041 
 H                    -5.33217  -0.92658  -0.42986 
 O                    -5.9112   -2.60239  -0.31022 
 H                    -5.93002  -3.20891  -1.05522 
 H                    -6.58787  -2.91162   0.29785 
 H                     2.21677  -0.1027    2.54264 
 H                     3.78997  -0.89466   2.24552 
 H                     2.37583  -1.85633   2.76602 
 O                    -8.34566  -2.5151    1.01649 
 H                    -8.97729  -2.00875   0.47699 
 H                    -8.50421  -2.17056   1.91118 
 
 Add virtual bond connecting atoms H26        and O12        Dist= 3.02D+00.
 Add virtual bond connecting atoms H28        and O13        Dist= 3.14D+00.
 Add virtual bond connecting atoms O31        and H30        Dist= 3.36D+00.
 Add virtual bond connecting atoms O37        and H33        Dist= 3.67D+00.

 GradGradGradGradGradGradGradGradGradGradGradGradGradGradGradGradGradGrad
 Berny optimization.
 Initialization pass.
                           ----------------------------
                           !    Initial Parameters    !
                           ! (Angstroms and Degrees)  !
 --------------------------                            --------------------------
 ! Name  Definition              Value          Derivative Info.                !
 --------------------------------------------------------------------------------
 ! R1    R(1,2)                  1.3987         estimate D2E/DX2                !
 ! R2    R(1,6)                  1.3936         estimate D2E/DX2                !
 ! R3    R(1,24)                 1.0907         estimate D2E/DX2                !
 ! R4    R(2,3)                  1.3875         estimate D2E/DX2                !
 ! R5    R(2,7)                  1.5148         estimate D2E/DX2                !
 ! R6    R(3,4)                  1.342          estimate D2E/DX2                !
 ! R7    R(3,21)                 1.0874         estimate D2E/DX2                !
 ! R8    R(4,5)                  1.3412         estimate D2E/DX2                !
 ! R9    R(4,26)                 1.0538         estimate D2E/DX2                !
 ! R10   R(5,6)                  1.3835         estimate D2E/DX2                !
 ! R11   R(5,22)                 1.0871         estimate D2E/DX2                !
 ! R12   R(6,23)                 1.0874         estimate D2E/DX2                !
 ! R13   R(7,8)                  1.4577         estimate D2E/DX2                !
 ! R14   R(7,11)                 1.5581         estimate D2E/DX2                !
 ! R15   R(7,20)                 1.1074         estimate D2E/DX2                !
 ! R16   R(8,9)                  1.4606         estimate D2E/DX2                !
 ! R17   R(8,25)                 1.4509         estimate D2E/DX2                !
 ! R18   R(9,10)                 1.5221         estimate D2E/DX2                !
 ! R19   R(9,14)                 1.0968         estimate D2E/DX2                !
 ! R20   R(9,19)                 1.1085         estimate D2E/DX2                !
 ! R21   R(10,11)                1.5375         estimate D2E/DX2                !
 ! R22   R(10,15)                1.0949         estimate D2E/DX2                !
 ! R23   R(10,16)                1.0974         estimate D2E/DX2                !
 ! R24   R(11,17)                1.096          estimate D2E/DX2                !
 ! R25   R(11,18)                1.0959         estimate D2E/DX2                !
 ! R26   R(12,26)                1.599          estimate D2E/DX2                !
 ! R27   R(12,27)                0.959          estimate D2E/DX2                !
 ! R28   R(12,28)                0.9877         estimate D2E/DX2                !
 ! R29   R(13,28)                1.6622         estimate D2E/DX2                !
 ! R30   R(13,29)                0.9596         estimate D2E/DX2                !
 ! R31   R(13,30)                0.9759         estimate D2E/DX2                !
 ! R32   R(25,34)                1.0987         estimate D2E/DX2                !
 ! R33   R(25,35)                1.1074         estimate D2E/DX2                !
 ! R34   R(25,36)                1.0965         estimate D2E/DX2                !
 ! R35   R(30,31)                1.7771         estimate D2E/DX2                !
 ! R36   R(31,32)                0.9609         estimate D2E/DX2                !
 ! R37   R(31,33)                0.9609         estimate D2E/DX2                !
 ! R38   R(33,37)                1.94           estimate D2E/DX2                !
 ! R39   R(37,38)                0.9728         estimate D2E/DX2                !
 ! R40   R(37,39)                0.9718         estimate D2E/DX2                !
 ! A1    A(2,1,6)              120.844          estimate D2E/DX2                !
 ! A2    A(2,1,24)             119.4971         estimate D2E/DX2                !
 ! A3    A(6,1,24)             119.6589         estimate D2E/DX2                !
 ! A4    A(1,2,3)              117.3581         estimate D2E/DX2                !
 ! A5    A(1,2,7)              121.8396         estimate D2E/DX2                !
 ! A6    A(3,2,7)              120.7803         estimate D2E/DX2                !
 ! A7    A(2,3,4)              120.6713         estimate D2E/DX2                !
 ! A8    A(2,3,21)             121.6446         estimate D2E/DX2                !
 ! A9    A(4,3,21)             117.683          estimate D2E/DX2                !
 ! A10   A(3,4,5)              122.8013         estimate D2E/DX2                !
 ! A11   A(3,4,26)             118.9516         estimate D2E/DX2                !
 ! A12   A(5,4,26)             118.2467         estimate D2E/DX2                !
 ! A13   A(4,5,6)              119.5285         estimate D2E/DX2                !
 ! A14   A(4,5,22)             116.503          estimate D2E/DX2                !
 ! A15   A(6,5,22)             123.9679         estimate D2E/DX2                !
 ! A16   A(1,6,5)              118.7943         estimate D2E/DX2                !
 ! A17   A(1,6,23)             121.4132         estimate D2E/DX2                !
 ! A18   A(5,6,23)             119.7918         estimate D2E/DX2                !
 ! A19   A(2,7,8)              111.4622         estimate D2E/DX2                !
 ! A20   A(2,7,11)             112.6103         estimate D2E/DX2                !
 ! A21   A(2,7,20)             107.0628         estimate D2E/DX2                !
 ! A22   A(8,7,11)             105.4238         estimate D2E/DX2                !
 ! A23   A(8,7,20)             111.2386         estimate D2E/DX2                !
 ! A24   A(11,7,20)            109.0871         estimate D2E/DX2                !
 ! A25   A(7,8,9)              107.5065         estimate D2E/DX2                !
 ! A26   A(7,8,25)             114.0563         estimate D2E/DX2                !
 ! A27   A(9,8,25)             114.6118         estimate D2E/DX2                !
 ! A28   A(8,9,10)             102.7404         estimate D2E/DX2                !
 ! A29   A(8,9,14)             110.1587         estimate D2E/DX2                !
 ! A30   A(8,9,19)             111.5998         estimate D2E/DX2                !
 ! A31   A(10,9,14)            113.7264         estimate D2E/DX2                !
 ! A32   A(10,9,19)            110.6277         estimate D2E/DX2                !
 ! A33   A(14,9,19)            107.9918         estimate D2E/DX2                !
 ! A34   A(9,10,11)            102.5983         estimate D2E/DX2                !
 ! A35   A(9,10,15)            112.977          estimate D2E/DX2                !
 ! A36   A(9,10,16)            109.8094         estimate D2E/DX2                !
 ! A37   A(11,10,15)           112.4026         estimate D2E/DX2                !
 ! A38   A(11,10,16)           110.8038         estimate D2E/DX2                !
 ! A39   A(15,10,16)           108.1951         estimate D2E/DX2                !
 ! A40   A(7,11,10)            104.3989         estimate D2E/DX2                !
 ! A41   A(7,11,17)            109.2759         estimate D2E/DX2                !
 ! A42   A(7,11,18)            112.3926         estimate D2E/DX2                !
 ! A43   A(10,11,17)           110.6425         estimate D2E/DX2                !
 ! A44   A(10,11,18)           112.7133         estimate D2E/DX2                !
 ! A45   A(17,11,18)           107.4123         estimate D2E/DX2                !
 ! A46   A(26,12,27)           127.5352         estimate D2E/DX2                !
 ! A47   A(26,12,28)           124.4537         estimate D2E/DX2                !
 ! A48   A(27,12,28)           107.327          estimate D2E/DX2                !
 ! A49   A(28,13,29)           122.0398         estimate D2E/DX2                !
 ! A50   A(28,13,30)           123.8723         estimate D2E/DX2                !
 ! A51   A(29,13,30)           106.2787         estimate D2E/DX2                !
 ! A52   A(8,25,34)            110.2829         estimate D2E/DX2                !
 ! A53   A(8,25,35)            112.3354         estimate D2E/DX2                !
 ! A54   A(8,25,36)            109.6605         estimate D2E/DX2                !
 ! A55   A(34,25,35)           108.1207         estimate D2E/DX2                !
 ! A56   A(34,25,36)           107.9114         estimate D2E/DX2                !
 ! A57   A(35,25,36)           108.4061         estimate D2E/DX2                !
 ! A58   A(30,31,32)           123.3284         estimate D2E/DX2                !
 ! A59   A(30,31,33)           125.1391         estimate D2E/DX2                !
 ! A60   A(32,31,33)           105.8869         estimate D2E/DX2                !
 ! A61   A(31,33,37)           143.7793         estimate D2E/DX2                !
 ! A62   A(33,37,38)           119.291          estimate D2E/DX2                !
 ! A63   A(33,37,39)           124.15           estimate D2E/DX2                !
 ! A64   A(38,37,39)           102.7156         estimate D2E/DX2                !
 ! A65   L(4,26,12,22,-1)      176.4527         estimate D2E/DX2                !
 ! A66   L(12,28,13,10,-1)     177.5545         estimate D2E/DX2                !
 ! A67   L(13,30,31,8,-1)      178.6225         estimate D2E/DX2                !
 ! A68   L(4,26,12,22,-2)      179.0224         estimate D2E/DX2                !
 ! A69   L(12,28,13,10,-2)     183.0191         estimate D2E/DX2                !
 ! A70   L(13,30,31,8,-2)      180.2052         estimate D2E/DX2                !
 ! D1    D(6,1,2,3)             -0.5804         estimate D2E/DX2                !
 ! D2    D(6,1,2,7)            177.7263         estimate D2E/DX2                !
 ! D3    D(24,1,2,3)           179.3542         estimate D2E/DX2                !
 ! D4    D(24,1,2,7)            -2.339          estimate D2E/DX2                !
 ! D5    D(2,1,6,5)              0.3846         estimate D2E/DX2                !
 ! D6    D(2,1,6,23)          -179.9189         estimate D2E/DX2                !
 ! D7    D(24,1,6,5)          -179.55           estimate D2E/DX2                !
 ! D8    D(24,1,6,23)            0.1465         estimate D2E/DX2                !
 ! D9    D(1,2,3,4)              0.3623         estimate D2E/DX2                !
 ! D10   D(1,2,3,21)          -179.2471         estimate D2E/DX2                !
 ! D11   D(7,2,3,4)           -177.9635         estimate D2E/DX2                !
 ! D12   D(7,2,3,21)             2.4272         estimate D2E/DX2                !
 ! D13   D(1,2,7,8)            161.4483         estimate D2E/DX2                !
 ! D14   D(1,2,7,11)           -80.303          estimate D2E/DX2                !
 ! D15   D(1,2,7,20)            39.589          estimate D2E/DX2                !
 ! D16   D(3,2,7,8)            -20.3021         estimate D2E/DX2                !
 ! D17   D(3,2,7,11)            97.9466         estimate D2E/DX2                !
 ! D18   D(3,2,7,20)          -142.1614         estimate D2E/DX2                !
 ! D19   D(2,3,4,5)              0.0606         estimate D2E/DX2                !
 ! D20   D(2,3,4,26)          -179.7081         estimate D2E/DX2                !
 ! D21   D(21,3,4,5)           179.685          estimate D2E/DX2                !
 ! D22   D(21,3,4,26)           -0.0836         estimate D2E/DX2                !
 ! D23   D(3,4,5,6)             -0.2717         estimate D2E/DX2                !
 ! D24   D(3,4,5,22)           179.9897         estimate D2E/DX2                !
 ! D25   D(26,4,5,6)           179.4985         estimate D2E/DX2                !
 ! D26   D(26,4,5,22)           -0.2401         estimate D2E/DX2                !
 ! D27   D(3,4,12,27)           85.199          estimate D2E/DX2                !
 ! D28   D(3,4,12,28)          -86.1336         estimate D2E/DX2                !
 ! D29   D(5,4,12,27)          -95.1706         estimate D2E/DX2                !
 ! D30   D(5,4,12,28)           93.4968         estimate D2E/DX2                !
 ! D31   D(4,5,6,1)              0.0452         estimate D2E/DX2                !
 ! D32   D(4,5,6,23)          -179.6564         estimate D2E/DX2                !
 ! D33   D(22,5,6,1)           179.7631         estimate D2E/DX2                !
 ! D34   D(22,5,6,23)            0.0615         estimate D2E/DX2                !
 ! D35   D(2,7,8,9)            145.9726         estimate D2E/DX2                !
 ! D36   D(2,7,8,25)           -85.7815         estimate D2E/DX2                !
 ! D37   D(11,7,8,9)            23.4925         estimate D2E/DX2                !
 ! D38   D(11,7,8,25)          151.7384         estimate D2E/DX2                !
 ! D39   D(20,7,8,9)           -94.6176         estimate D2E/DX2                !
 ! D40   D(20,7,8,25)           33.6283         estimate D2E/DX2                !
 ! D41   D(2,7,11,10)         -119.3519         estimate D2E/DX2                !
 ! D42   D(2,7,11,17)          122.2645         estimate D2E/DX2                !
 ! D43   D(2,7,11,18)            3.1233         estimate D2E/DX2                !
 ! D44   D(8,7,11,10)            2.3877         estimate D2E/DX2                !
 ! D45   D(8,7,11,17)         -115.9959         estimate D2E/DX2                !
 ! D46   D(8,7,11,18)          124.8629         estimate D2E/DX2                !
 ! D47   D(20,7,11,10)         121.9333         estimate D2E/DX2                !
 ! D48   D(20,7,11,17)           3.5497         estimate D2E/DX2                !
 ! D49   D(20,7,11,18)        -115.5915         estimate D2E/DX2                !
 ! D50   D(7,8,9,10)           -40.3019         estimate D2E/DX2                !
 ! D51   D(7,8,9,14)          -161.7986         estimate D2E/DX2                !
 ! D52   D(7,8,9,19)            78.252          estimate D2E/DX2                !
 ! D53   D(25,8,9,10)         -168.2273         estimate D2E/DX2                !
 ! D54   D(25,8,9,14)           70.276          estimate D2E/DX2                !
 ! D55   D(25,8,9,19)          -49.6734         estimate D2E/DX2                !
 ! D56   D(7,8,25,34)           58.9365         estimate D2E/DX2                !
 ! D57   D(7,8,25,35)          -61.7482         estimate D2E/DX2                !
 ! D58   D(7,8,25,36)          177.6359         estimate D2E/DX2                !
 ! D59   D(9,8,25,34)         -176.5335         estimate D2E/DX2                !
 ! D60   D(9,8,25,35)           62.7818         estimate D2E/DX2                !
 ! D61   D(9,8,25,36)          -57.8341         estimate D2E/DX2                !
 ! D62   D(8,9,10,11)           40.0865         estimate D2E/DX2                !
 ! D63   D(8,9,10,15)          161.3469         estimate D2E/DX2                !
 ! D64   D(8,9,10,16)          -77.7744         estimate D2E/DX2                !
 ! D65   D(14,9,10,11)         159.1197         estimate D2E/DX2                !
 ! D66   D(14,9,10,15)         -79.6198         estimate D2E/DX2                !
 ! D67   D(14,9,10,16)          41.2589         estimate D2E/DX2                !
 ! D68   D(19,9,10,11)         -79.1476         estimate D2E/DX2                !
 ! D69   D(19,9,10,15)          42.1129         estimate D2E/DX2                !
 ! D70   D(19,9,10,16)         162.9916         estimate D2E/DX2                !
 ! D71   D(9,10,11,7)          -25.7402         estimate D2E/DX2                !
 ! D72   D(9,10,11,17)          91.7066         estimate D2E/DX2                !
 ! D73   D(9,10,11,18)        -148.0052         estimate D2E/DX2                !
 ! D74   D(15,10,11,7)        -147.3932         estimate D2E/DX2                !
 ! D75   D(15,10,11,17)        -29.9464         estimate D2E/DX2                !
 ! D76   D(15,10,11,18)         90.3417         estimate D2E/DX2                !
 ! D77   D(16,10,11,7)          91.414          estimate D2E/DX2                !
 ! D78   D(16,10,11,17)       -151.1392         estimate D2E/DX2                !
 ! D79   D(16,10,11,18)        -30.851          estimate D2E/DX2                !
 ! D80   D(26,12,13,29)       -105.4369         estimate D2E/DX2                !
 ! D81   D(26,12,13,30)        107.9614         estimate D2E/DX2                !
 ! D82   D(27,12,13,29)         82.9135         estimate D2E/DX2                !
 ! D83   D(27,12,13,30)        -63.6881         estimate D2E/DX2                !
 ! D84   D(28,13,31,32)       -129.5698         estimate D2E/DX2                !
 ! D85   D(28,13,31,33)         80.1399         estimate D2E/DX2                !
 ! D86   D(29,13,31,32)         80.3706         estimate D2E/DX2                !
 ! D87   D(29,13,31,33)        -69.9197         estimate D2E/DX2                !
 ! D88   D(30,31,33,37)         45.7956         estimate D2E/DX2                !
 ! D89   D(32,31,33,37)       -108.216          estimate D2E/DX2                !
 ! D90   D(31,33,37,38)         27.7879         estimate D2E/DX2                !
 ! D91   D(31,33,37,39)       -105.4855         estimate D2E/DX2                !
 ! D92   D(33,37,38,39)       -141.8519         estimate D2E/DX2                !
 --------------------------------------------------------------------------------
 Trust Radius=3.00D-01 FncErr=1.00D-07 GrdErr=1.00D-06 EigMax=2.50D+02 EigMin=1.00D-04
 Number of steps in this run=    212 maximum allowed number of steps=    234.
 GradGradGradGradGradGradGradGradGradGradGradGradGradGradGradGradGradGrad

                          Input orientation:                          
 ---------------------------------------------------------------------
 Center     Atomic      Atomic             Coordinates (Angstroms)
 Number     Number       Type             X           Y           Z
 ---------------------------------------------------------------------
      1          6           0        1.775890    2.227768   -0.586600
      2          6           0        1.535195    0.930894   -0.121237
      3          6           0        0.252628    0.639892    0.320878
      4          7           0       -0.710459    1.573963    0.290181
      5          6           0       -0.500420    2.819550   -0.160465
      6          6           0        0.757087    3.178233   -0.612246
      7          6           0        2.612249   -0.134213   -0.130560
      8          7           0        2.284842   -1.231721    0.771204
      9          6           0        2.801888   -2.460253    0.173960
     10          6           0        2.479869   -2.277144   -1.302398
     11          6           0        2.794267   -0.789816   -1.532243
     12          8           0       -3.170287    1.032013    1.118675
     13          8           0       -4.991864   -0.014186   -0.494574
     14          1           0        2.316831   -3.333741    0.626425
     15          1           0        3.067687   -2.933229   -1.952637
     16          1           0        1.416480   -2.482621   -1.479376
     17          1           0        3.832020   -0.660453   -1.860171
     18          1           0        2.150643   -0.333924   -2.293133
     19          1           0        3.895537   -2.558959    0.325814
     20          1           0        3.559057    0.358529    0.164445
     21          1           0       -0.008269   -0.342221    0.708064
     22          1           0       -1.353330    3.493339   -0.139425
     23          1           0        0.933577    4.188666   -0.973328
     24          1           0        2.774522    2.497514   -0.932552
     25          6           0        2.693056   -1.009719    2.145634
     26          1           0       -1.673935    1.324882    0.636982
     27          1           0       -3.513647    1.067852    2.013397
     28          1           0       -3.872519    0.633366    0.549843
     29          1           0       -5.701280    0.511477   -0.870408
     30          1           0       -5.332171   -0.926584   -0.429858
     31          8           0       -5.911201   -2.602392   -0.310215
     32          1           0       -5.930015   -3.208909   -1.055224
     33          1           0       -6.587871   -2.911622    0.297852
     34          1           0        2.216765   -0.102702    2.542642
     35          1           0        3.789968   -0.894661    2.245521
     36          1           0        2.375831   -1.856327    2.766015
     37          8           0       -8.345662   -2.515102    1.016493
     38          1           0       -8.977295   -2.008750    0.476987
     39          1           0       -8.504209   -2.170560    1.911178
 ---------------------------------------------------------------------
                    Distance matrix (angstroms):
                    1          2          3          4          5
     1  C    0.000000
     2  C    1.398706   0.000000
     3  C    2.380167   1.387489   0.000000
     4  N    2.716273   2.371869   1.342001   0.000000
     5  C    2.390269   2.777101   2.355776   1.341151   0.000000
     6  C    1.393557   2.428389   2.751068   2.354092   1.383504
     7  C    2.546846   1.514789   2.524054   3.759691   4.291191
     8  N    3.751097   2.456690   2.799218   4.132200   5.003847
     9  C    4.858875   3.632015   4.016368   5.350232   6.236457
    10  C    4.615429   3.546697   4.013069   5.248383   6.013520
    11  C    3.322220   2.556764   3.455149   4.603454   5.075851
    12  O    5.366792   4.867152   3.536465   2.651578   3.458277
    13  O    7.130030   6.605684   5.347661   4.633410   5.321161
    14  H    5.717904   4.399666   4.488213   5.776080   6.813156
    15  H    5.492785   4.542467   5.085334   6.294394   7.002695
    16  H    4.807701   3.675693   3.787552   4.910303   5.790255
    17  H    3.767157   3.291152   4.388612   5.500068   5.811149
    18  H    3.100800   2.587600   3.373993   4.301099   4.639052
    19  H    5.313959   4.236761   4.848037   6.188498   6.963423
    20  H    2.690317   2.122553   3.322064   4.440930   4.758313
    21  H    3.385886   2.165835   1.087440   2.083137   3.315622
    22  H    3.404945   3.861351   3.306530   2.069263   1.087148
    23  H    2.168910   3.420684   3.838288   3.337062   2.142795
    24  H    1.090739   2.156029   3.373692   3.806982   3.380099
    25  C    4.334469   3.200832   3.465060   4.658544   5.493604
    26  H    3.770099   3.320939   2.069004   1.053849   2.060847
    27  H    6.007045   5.483268   4.151216   3.329187   4.107756
    28  H    5.978139   5.457311   4.131502   3.309195   4.081053
    29  H    7.676866   7.287231   6.073275   5.232986   5.734123
    30  H    7.778113   7.120828   5.848712   5.303905   6.119797
    31  O    9.082852   8.244309   6.993102   6.697024   7.661360
    32  H    9.442353   8.587180   7.411613   7.206230   8.162317
    33  H    9.856373   8.995819   7.707542   7.393545   8.373377
    34  H    3.926527   2.937535   3.057044   4.056282   4.819693
    35  H    4.671936   3.744088   4.309510   5.492841   6.163729
    36  H    5.317874   4.100182   4.088740   5.236586   6.221007
    37  O   11.292057  10.526189   9.185231   8.691623   9.559894
    38  H   11.606476  10.932146   9.603705   9.011732   9.776310
    39  H   11.457077  10.702306   9.333267   8.797250   9.656787
                    6          7          8          9         10
     6  C    0.000000
     7  C    3.827002   0.000000
     8  N    4.867819   1.457703   0.000000
     9  C    6.049120   2.353541   1.460592   0.000000
    10  C    5.762415   2.445993   2.330401   1.522123   0.000000
    11  C    4.554329   1.558095   2.400138   2.387791   1.537472
    12  O    4.798605   6.029792   5.916389   6.982498   6.981144
    13  O    6.576916   7.613767   7.485655   8.195898   7.848589
    14  H    6.809766   3.301102   2.107243   1.096807   2.205297
    15  H    6.669744   3.370739   3.305645   2.194714   1.094892
    16  H    5.764719   2.960437   2.717336   2.157168   1.097423
    17  H    5.074253   2.180900   3.105518   2.904848   2.180163
    18  H    4.135532   2.220290   3.195968   3.321437   2.205912
    19  H    6.606451   2.781097   2.134074   1.108544   2.175916
    20  H    4.050311   1.107370   2.126188   2.918720   3.203599
    21  H    3.837002   2.759288   2.460397   3.559257   3.738545
    22  H    2.185569   5.374479   6.032556   7.267001   7.024557
    23  H    1.087430   4.713330   5.852342   7.001070   6.656276
    24  H    2.153141   2.755995   4.129136   5.079820   4.798017
    25  C    5.375204   2.440102   1.450855   2.450182   3.679774
    26  H    3.302325   4.592325   4.714462   5.880019   5.830084
    27  H    5.439382   6.600615   6.360311   7.464384   7.622711
    28  H    5.409256   6.565390   6.437441   7.366103   7.228741
    29  H    6.992048   8.371323   8.337372   9.067842   8.654145
    30  H    7.345873   7.989446   7.717159   8.299377   7.975795
    31  O    8.830227   8.875437   8.379936   8.727689   8.455783
    32  H    9.257923   9.125735   8.644593   8.849718   8.464953
    33  H    9.584520   9.619758   9.042741   9.401418   9.229695
    34  H    4.780012   2.702482   2.101740   3.392797   4.425128
    35  H    5.826977   2.758816   2.133688   2.778263   4.026829
    36  H    6.275331   3.378123   2.092291   2.695366   4.091442
    37  O   10.859415  11.272098  10.710502  11.179479  11.073663
    38  H   11.083746  11.755872  11.292744  11.791727  11.597623
    39  H   10.988578  11.484382  10.889654  11.442450  11.445016
                   11         12         13         14         15
    11  C    0.000000
    12  O    6.776602   0.000000
    13  O    7.893174   2.648631   0.000000
    14  H    3.370363   7.029266   8.105128   0.000000
    15  H    2.201297   8.004275   8.695006   2.715834   0.000000
    16  H    2.183273   6.335689   6.937570   2.443243   1.775812
    17  H    1.095994   7.795529   8.952287   3.952901   2.399639
    18  H    1.095921   6.466724   7.372412   4.189313   2.777282
    19  H    2.791960   7.965524   9.280884   1.784087   2.452907
    20  H    2.186859   6.829949   8.584374   3.922934   3.944509
    21  H    3.615733   3.472100   5.137136   3.789716   4.822256
    22  H    6.122738   3.307911   5.066339   7.788814   8.008365
    23  H    5.344140   5.584141   7.280386   7.814039   7.498991
    24  H    3.341640   6.457242   8.174180   6.053381   5.533488
    25  C    3.685835   6.293020   8.186561   2.801896   4.542694
    26  H    5.398362   1.599021   3.752622   6.134256   6.878998
    27  H    7.470761   0.959014   3.105777   7.435872   8.663258
    28  H    7.127872   0.987734   1.662247   7.351997   8.194478
    29  H    8.620076   3.260879   0.959606   9.017556   9.483248
    30  H    8.202009   3.302696   0.975944   8.088101   8.769441
    31  O    8.975743   4.771083   2.752813   8.313403   9.133862
    32  H    9.066016   5.507028   3.376494   8.417482   9.046546
    33  H    9.791620   5.282602   3.401516   8.920755   9.914382
    34  H    4.172568   5.686439   7.822841   3.757860   5.379915
    35  H    3.908185   7.309378   9.241425   3.277303   4.722497
    36  H    4.448321   6.466503   8.264857   2.600784   4.889178
    37  O   11.557279   6.275108   4.448131  10.700985  11.800640
    38  H   12.003853   6.586300   4.561346  11.372564  12.322310
    39  H   11.891978   6.271782   4.772227  10.958945  12.223727
                   16         17         18         19         20
    16  H    0.000000
    17  H    3.049612   0.000000
    18  H    2.412073   1.766665   0.000000
    19  H    3.067615   2.896013   3.854130   0.000000
    20  H    3.919811   2.282959   2.915958   2.941257   0.000000
    21  H    3.375813   4.630866   3.697047   4.505524   3.675920
    22  H    6.721563   6.863149   5.618205   8.024797   5.835316
    23  H    6.707857   5.718515   4.865897   7.482741   4.780965
    24  H    5.190861   3.457099   3.202725   5.329923   2.528667
    25  C    4.115797   4.179198   4.522562   2.675416   2.558744
    26  H    5.341041   6.363401   5.095548   6.797063   5.342409
    27  H    7.007958   8.482358   7.252266   8.420077   7.344719
    28  H    6.465340   8.175699   6.730278   8.401418   7.446636
    29  H    7.745836   9.655924   8.024434  10.146794   9.319236
    30  H    7.004786   9.278956   7.734051   9.401398   9.003258
    31  O    7.421334  10.055041   8.606465   9.827438   9.933687
    32  H    7.394484  10.121260   8.665737   9.943398  10.210617
    33  H    8.210494  10.876532   9.472030  10.489375  10.661699
    34  H    4.741424   4.722806   4.841751   3.710229   2.769531
    35  H    4.693604   4.112582   4.858106   2.542894   2.440222
    36  H    4.397265   4.995218   5.288043   2.959354   3.615768
    37  O   10.076202  12.649540  11.219786  12.260747  12.276241
    38  H   10.586901  13.090407  11.589202  12.885472  12.761732
    39  H   10.488722  12.987918  11.600660  12.506715  12.448684
                   21         22         23         24         25
    21  H    0.000000
    22  H    4.151981   0.000000
    23  H    4.923727   2.531564   0.000000
    24  H    4.301121   4.319708   2.500147   0.000000
    25  C    3.131983   6.470878   6.312440   4.667178   0.000000
    26  H    2.357696   2.325468   4.194458   4.860789   5.176582
    27  H    3.997484   3.896742   6.199823   7.089684   6.546522
    28  H    3.988638   3.873093   6.169179   7.060857   6.953636
    29  H    5.969150   5.322641   7.586411   8.705597   9.048504
    30  H    5.475425   5.954095   8.106833   8.814512   8.428780
    31  O    6.402333   7.613231   9.664842  10.091488   9.088511
    32  H    6.811326   8.167304  10.091567  10.409000   9.457234
    33  H    7.075398   8.283427  10.421236  10.882419   9.652313
    34  H    2.893756   5.733286   5.694248   4.375979   1.098703
    35  H    4.134679   7.169102   6.660343   4.757954   1.107444
    36  H    3.494512   7.139128   7.252911   5.726629   1.096471
    37  O    8.621407   9.291406  11.619130  12.352473  11.197966
    38  H    9.125467   9.422197  11.778657  12.664850  11.831295
    39  H    8.773328   9.349855  11.740184  12.533454  11.259718
                   26         27         28         29         30
    26  H    0.000000
    27  H    2.311952   0.000000
    28  H    2.306417   1.568298   0.000000
    29  H    4.376455   3.662188   2.318693   0.000000
    30  H    4.426052   3.640645   2.350286   1.548659   0.000000
    31  O    5.854493   4.961666   3.919956   3.170814   1.777054
    32  H    6.444613   5.791887   4.644632   3.731990   2.440801
    33  H    6.496903   5.313206   4.472536   3.724041   2.459008
    34  H    4.561478   5.872642   6.449219   8.644164   8.154813
    35  H    6.112937   7.566249   7.995242  10.088113   9.506424
    36  H    5.572565   6.618399   7.081798   9.168958   8.395911
    37  O    7.707234   6.097520   5.489957   4.439970   3.700872
    38  H    8.029805   6.455810   5.748463   4.347332   3.909013
    39  H    7.777810   5.950081   5.582811   4.773568   4.133974
                   31         32         33         34         35
    31  O    0.000000
    32  H    0.960862   0.000000
    33  H    0.960859   1.533613   0.000000
    34  H    8.969452   9.432030   9.510559   0.000000
    35  H   10.176483  10.522772  10.749934   1.786182   0.000000
    36  H    8.871004   9.242209   9.356999   1.774936   1.787596
    37  O    2.773874   3.257105   1.939975  10.941374  12.304871
    38  H    3.220719   3.615794   2.560588  11.541531  12.937230
    39  H    3.441621   4.062534   2.612344  10.936821  12.364727
                   36         37         38         39
    36  H    0.000000
    37  O   10.883254   0.000000
    38  H   11.582588   0.972841   0.000000
    39  H   10.918093   0.971754   1.518847   0.000000
 Stoichiometry    C10H23N2O4(1+)
 Framework group  C1[X(C10H23N2O4)]
 Deg. of freedom   111
 Full point group                 C1      NOp   1
 Largest Abelian subgroup         C1      NOp   1
 Largest concise Abelian subgroup C1      NOp   1
                         Standard orientation:                         
 ---------------------------------------------------------------------
 Center     Atomic      Atomic             Coordinates (Angstroms)
 Number     Number       Type             X           Y           Z
 ---------------------------------------------------------------------
      1          6           0        2.773111    2.071183   -0.451769
      2          6           0        2.330589    0.804763   -0.055872
      3          6           0        0.999470    0.681857    0.315802
      4          7           0        0.179122    1.743466    0.284412
      5          6           0        0.583425    2.962938   -0.100440
      6          6           0        1.899703    3.156712   -0.479843
      7          6           0        3.247328   -0.401092   -0.065250
      8          7           0        2.725114   -1.474604    0.771268
      9          6           0        3.094580   -2.740409    0.143128
     10          6           0        2.875476   -2.457529   -1.336342
     11          6           0        3.405735   -1.022113   -1.485426
     12          8           0       -2.370594    1.524470    0.978567
     13          8           0       -4.237610    0.809050   -0.758579
     14          1           0        2.470217   -3.552906    0.534287
     15          1           0        3.397580   -3.165097   -1.988679
     16          1           0        1.803990   -2.503363   -1.569052
     17          1           0        4.466457   -1.028745   -1.761157
     18          1           0        2.870966   -0.451024   -2.252839
     19          1           0        4.154736   -2.998800    0.338511
     20          1           0        4.237774   -0.059068    0.292945
     21          1           0        0.584864   -0.267373    0.646845
     22          1           0       -0.166926    3.749502   -0.086962
     23          1           0        2.233490    4.144925   -0.787291
     24          1           0        3.815665    2.209644   -0.740942
     25          6           0        3.091166   -1.365097    2.170909
     26          1           0       -0.825819    1.620432    0.576906
     27          1           0       -2.749843    1.574569    1.857981
     28          1           0       -3.092343    1.251272    0.362076
     29          1           0       -4.846929    1.443842   -1.141480
     30          1           0       -4.704892   -0.047709   -0.749758
     31          8           0       -5.517687   -1.627875   -0.730749
     32          1           0       -5.583836   -2.196843   -1.502212
     33          1           0       -6.260458   -1.860982   -0.167541
     34          1           0        2.727075   -0.415491    2.586643
     35          1           0        4.187020   -1.410524    2.324120
     36          1           0        2.628144   -2.181171    2.738256
     37          8           0       -7.979270   -1.246973    0.489865
     38          1           0       -8.506190   -0.636085   -0.053818
     39          1           0       -8.132608   -0.917700    1.391183
 ---------------------------------------------------------------------
 Rotational constants (GHZ):           0.5144394           0.1480232           0.1267267
 Standard basis: Aug-CC-pVDZ (5D, 7F)
 There are   607 symmetry adapted cartesian basis functions of A   symmetry.
 There are   575 symmetry adapted basis functions of A   symmetry.
   575 basis functions,   941 primitive gaussians,   607 cartesian basis functions
    64 alpha electrons       64 beta electrons
       nuclear repulsion energy      1104.7486038990 Hartrees.
 NAtoms=   39 NActive=   39 NUniq=   39 SFac= 1.00D+00 NAtFMM=   60 NAOKFM=F Big=F
 Integral buffers will be    131072 words long.
 Raffenetti 2 integral format.
 Two-electron integral symmetry is turned on.
 Nuclear repulsion after empirical dispersion term =     1104.7249730085 Hartrees.
 One-electron integrals computed using PRISM.
 NBasis=   575 RedAO= T EigKep=  2.51D-06  NBF=   575
 NBsUse=   575 1.00D-06 EigRej= -1.00D+00 NBFU=   575
 ExpMin= 2.97D-02 ExpMax= 1.17D+04 ExpMxC= 4.01D+02 IAcc=3 IRadAn=         5 AccDes= 0.00D+00
 Harris functional with IExCor= 4639 and IRadAn=       5 diagonalized for initial guess.
 HarFok:  IExCor= 4639 AccDes= 0.00D+00 IRadAn=         5 IDoV= 1 UseB2=F ITyADJ=14
 ICtDFT=  3500011 ScaDFX=  1.000000  1.000000  1.000000  1.000000
 FoFCou: FMM=F IPFlag=           0 FMFlag=      100000 FMFlg1=           0
         NFxFlg=           0 DoJE=T BraDBF=F KetDBF=T FulRan=T
         wScrn=  0.000000 ICntrl=       500 IOpCl=  0 I1Cent=   200000004 NGrid=           0
         NMat0=    1 NMatS0=      1 NMatT0=    0 NMatD0=    1 NMtDS0=    0 NMtDT0=    0
 Petite list used in FoFCou.
 Requested convergence on RMS density matrix=1.00D-08 within 128 cycles.
 Requested convergence on MAX density matrix=1.00D-06.
 Requested convergence on             energy=1.00D-06.
 No special actions if energy rises.
 SCF Done:  E(RwB97XD) =  -805.017862706     A.U. after   14 cycles
            NFock= 14  Conv=0.64D-08     -V/T= 2.0063

 **********************************************************************

            Population analysis using the SCF density.

 **********************************************************************

 Orbital symmetries:
       Occupied  (A) (A) (A) (A) (A) (A) (A) (A) (A) (A) (A) (A)
                 (A) (A) (A) (A) (A) (A) (A) (A) (A) (A) (A) (A)
                 (A) (A) (A) (A) (A) (A) (A) (A) (A) (A) (A) (A)
                 (A) (A) (A) (A) (A) (A) (A) (A) (A) (A) (A) (A)
                 (A) (A) (A) (A) (A) (A) (A) (A) (A) (A) (A) (A)
                 (A) (A) (A) (A)
       Virtual   (A) (A) (A) (A) (A) (A) (A) (A) (A) (A) (A) (A)
                 (A) (A) (A) (A) (A) (A) (A) (A) (A) (A) (A) (A)
                 (A) (A) (A) (A) (A) (A) (A) (A) (A) (A) (A) (A)
                 (A) (A) (A) (A) (A) (A) (A) (A) (A) (A) (A) (A)
                 (A) (A) (A) (A) (A) (A) (A) (A) (A) (A) (A) (A)
                 (A) (A) (A) (A) (A) (A) (A) (A) (A) (A) (A) (A)
                 (A) (A) (A) (A) (A) (A) (A) (A) (A) (A) (A) (A)
                 (A) (A) (A) (A) (A) (A) (A) (A) (A) (A) (A) (A)
                 (A) (A) (A) (A) (A) (A) (A) (A) (A) (A) (A) (A)
                 (A) (A) (A) (A) (A) (A) (A) (A) (A) (A) (A) (A)
                 (A) (A) (A) (A) (A) (A) (A) (A) (A) (A) (A) (A)
                 (A) (A) (A) (A) (A) (A) (A) (A) (A) (A) (A) (A)
                 (A) (A) (A) (A) (A) (A) (A) (A) (A) (A) (A) (A)
                 (A) (A) (A) (A) (A) (A) (A) (A) (A) (A) (A) (A)
                 (A) (A) (A) (A) (A) (A) (A) (A) (A) (A) (A) (A)
                 (A) (A) (A) (A) (A) (A) (A) (A) (A) (A) (A) (A)
                 (A) (A) (A) (A) (A) (A) (A) (A) (A) (A) (A) (A)
                 (A) (A) (A) (A) (A) (A) (A) (A) (A) (A) (A) (A)
                 (A) (A) (A) (A) (A) (A) (A) (A) (A) (A) (A) (A)
                 (A) (A) (A) (A) (A) (A) (A) (A) (A) (A) (A) (A)
                 (A) (A) (A) (A) (A) (A) (A) (A) (A) (A) (A) (A)
                 (A) (A) (A) (A) (A) (A) (A) (A) (A) (A) (A) (A)
                 (A) (A) (A) (A) (A) (A) (A) (A) (A) (A) (A) (A)
                 (A) (A) (A) (A) (A) (A) (A) (A) (A) (A) (A) (A)
                 (A) (A) (A) (A) (A) (A) (A) (A) (A) (A) (A) (A)
                 (A) (A) (A) (A) (A) (A) (A) (A) (A) (A) (A) (A)
                 (A) (A) (A) (A) (A) (A) (A) (A) (A) (A) (A) (A)
                 (A) (A) (A) (A) (A) (A) (A) (A) (A) (A) (A) (A)
                 (A) (A) (A) (A) (A) (A) (A) (A) (A) (A) (A) (A)
                 (A) (A) (A) (A) (A) (A) (A) (A) (A) (A) (A) (A)
                 (A) (A) (A) (A) (A) (A) (A) (A) (A) (A) (A) (A)
                 (A) (A) (A) (A) (A) (A) (A) (A) (A) (A) (A) (A)
                 (A) (A) (A) (A) (A) (A) (A) (A) (A) (A) (A) (A)
                 (A) (A) (A) (A) (A) (A) (A) (A) (A) (A) (A) (A)
                 (A) (A) (A) (A) (A) (A) (A) (A) (A) (A) (A) (A)
                 (A) (A) (A) (A) (A) (A) (A) (A) (A) (A) (A) (A)
                 (A) (A) (A) (A) (A) (A) (A) (A) (A) (A) (A) (A)
                 (A) (A) (A) (A) (A) (A) (A) (A) (A) (A) (A) (A)
                 (A) (A) (A) (A) (A) (A) (A) (A) (A) (A) (A) (A)
                 (A) (A) (A) (A) (A) (A) (A) (A) (A) (A) (A) (A)
                 (A) (A) (A) (A) (A) (A) (A) (A) (A) (A) (A) (A)
                 (A) (A) (A) (A) (A) (A) (A) (A) (A) (A) (A) (A)
                 (A) (A) (A) (A) (A) (A) (A)
 The electronic state is 1-A.
 Alpha  occ. eigenvalues --  -19.38655 -19.38146 -19.37185 -19.36619 -14.66676
 Alpha  occ. eigenvalues --  -14.54669 -10.50146 -10.49373 -10.46806 -10.46059
 Alpha  occ. eigenvalues --  -10.45970 -10.44697 -10.41128 -10.41119 -10.40146
 Alpha  occ. eigenvalues --  -10.38906  -1.24968  -1.23167  -1.22104  -1.21447
 Alpha  occ. eigenvalues --   -1.20474  -1.15092  -1.07211  -1.03504  -0.98841
 Alpha  occ. eigenvalues --   -0.94491  -0.89649  -0.88210  -0.86945  -0.81498
 Alpha  occ. eigenvalues --   -0.78165  -0.77241  -0.74430  -0.73415  -0.72734
 Alpha  occ. eigenvalues --   -0.72580  -0.71955  -0.71631  -0.69744  -0.68489
 Alpha  occ. eigenvalues --   -0.68023  -0.66682  -0.63548  -0.63157  -0.62743
 Alpha  occ. eigenvalues --   -0.61694  -0.60550  -0.60135  -0.59251  -0.57802
 Alpha  occ. eigenvalues --   -0.56658  -0.55839  -0.55554  -0.54768  -0.53943
 Alpha  occ. eigenvalues --   -0.52514  -0.52021  -0.51950  -0.51175  -0.50786
 Alpha  occ. eigenvalues --   -0.50674  -0.49452  -0.48007  -0.40619
 Alpha virt. eigenvalues --   -0.13180  -0.09610  -0.06149  -0.05041  -0.04127
 Alpha virt. eigenvalues --   -0.03921  -0.03585  -0.02684  -0.02569  -0.02181
 Alpha virt. eigenvalues --   -0.02099  -0.01519  -0.00929  -0.00631  -0.00420
 Alpha virt. eigenvalues --    0.00011   0.00232   0.00406   0.01239   0.01350
 Alpha virt. eigenvalues --    0.02226   0.02340   0.02483   0.02797   0.03121
 Alpha virt. eigenvalues --    0.03201   0.03661   0.03908   0.04530   0.04709
 Alpha virt. eigenvalues --    0.05063   0.05199   0.05751   0.05905   0.06239
 Alpha virt. eigenvalues --    0.06654   0.06849   0.07063   0.07264   0.07506
 Alpha virt. eigenvalues --    0.08131   0.08466   0.08488   0.08852   0.09220
 Alpha virt. eigenvalues --    0.09478   0.09581   0.10079   0.10292   0.10594
 Alpha virt. eigenvalues --    0.10766   0.10996   0.11253   0.11472   0.11856
 Alpha virt. eigenvalues --    0.12267   0.12425   0.12830   0.13073   0.13410
 Alpha virt. eigenvalues --    0.13517   0.13689   0.14092   0.14317   0.14424
 Alpha virt. eigenvalues --    0.15047   0.15335   0.15693   0.15943   0.16233
 Alpha virt. eigenvalues --    0.16516   0.16733   0.17015   0.17077   0.17526
 Alpha virt. eigenvalues --    0.17606   0.17792   0.17892   0.18069   0.18465
 Alpha virt. eigenvalues --    0.18900   0.19216   0.19541   0.19688   0.19862
 Alpha virt. eigenvalues --    0.20318   0.20856   0.21136   0.21574   0.21821
 Alpha virt. eigenvalues --    0.22233   0.22337   0.22763   0.23186   0.23484
 Alpha virt. eigenvalues --    0.23583   0.23979   0.24429   0.24612   0.24930
 Alpha virt. eigenvalues --    0.25127   0.25310   0.25653   0.26348   0.26752
 Alpha virt. eigenvalues --    0.27100   0.27248   0.27698   0.28731   0.28910
 Alpha virt. eigenvalues --    0.29116   0.29520   0.29594   0.29832   0.30188
 Alpha virt. eigenvalues --    0.30414   0.30724   0.31161   0.31412   0.31969
 Alpha virt. eigenvalues --    0.32421   0.33160   0.33808   0.33884   0.34018
 Alpha virt. eigenvalues --    0.34398   0.34673   0.34938   0.35327   0.35698
 Alpha virt. eigenvalues --    0.36337   0.36548   0.36733   0.37702   0.37765
 Alpha virt. eigenvalues --    0.38246   0.38579   0.38989   0.39208   0.39503
 Alpha virt. eigenvalues --    0.40128   0.40272   0.40527   0.41578   0.42141
 Alpha virt. eigenvalues --    0.42516   0.42766   0.43434   0.43851   0.44419
 Alpha virt. eigenvalues --    0.44555   0.44746   0.45243   0.45426   0.45674
 Alpha virt. eigenvalues --    0.45756   0.46380   0.46728   0.47136   0.47302
 Alpha virt. eigenvalues --    0.47813   0.48181   0.48300   0.49177   0.49375
 Alpha virt. eigenvalues --    0.49879   0.50460   0.50516   0.50880   0.50992
 Alpha virt. eigenvalues --    0.51266   0.51326   0.51788   0.51957   0.52286
 Alpha virt. eigenvalues --    0.52893   0.53153   0.53593   0.53809   0.53844
 Alpha virt. eigenvalues --    0.54268   0.54523   0.55160   0.55435   0.55794
 Alpha virt. eigenvalues --    0.56478   0.56673   0.57233   0.57667   0.57818
 Alpha virt. eigenvalues --    0.58389   0.58801   0.59143   0.59316   0.59670
 Alpha virt. eigenvalues --    0.60476   0.60856   0.60969   0.61211   0.62533
 Alpha virt. eigenvalues --    0.62871   0.63220   0.63671   0.63894   0.64510
 Alpha virt. eigenvalues --    0.65399   0.65476   0.66224   0.66595   0.66884
 Alpha virt. eigenvalues --    0.67218   0.68110   0.68754   0.69071   0.69542
 Alpha virt. eigenvalues --    0.69833   0.70286   0.70642   0.71014   0.71642
 Alpha virt. eigenvalues --    0.72030   0.72351   0.72749   0.73391   0.73759
 Alpha virt. eigenvalues --    0.74320   0.74860   0.75579   0.75964   0.76172
 Alpha virt. eigenvalues --    0.76596   0.77289   0.77794   0.78379   0.78671
 Alpha virt. eigenvalues --    0.79115   0.79805   0.80087   0.80911   0.81266
 Alpha virt. eigenvalues --    0.81847   0.82014   0.82489   0.82888   0.83899
 Alpha virt. eigenvalues --    0.85124   0.85449   0.86224   0.86322   0.86479
 Alpha virt. eigenvalues --    0.87817   0.88495   0.89085   0.89616   0.90046
 Alpha virt. eigenvalues --    0.91378   0.93172   0.93551   0.93668   0.95198
 Alpha virt. eigenvalues --    0.95458   0.95663   0.96616   0.96863   0.97656
 Alpha virt. eigenvalues --    0.98562   0.99063   0.99138   0.99798   1.00761
 Alpha virt. eigenvalues --    1.01427   1.01701   1.02276   1.03015   1.04024
 Alpha virt. eigenvalues --    1.04505   1.06120   1.06331   1.07395   1.08260
 Alpha virt. eigenvalues --    1.08669   1.09222   1.10628   1.11528   1.11653
 Alpha virt. eigenvalues --    1.12137   1.13041   1.13551   1.14797   1.15633
 Alpha virt. eigenvalues --    1.17276   1.18035   1.19085   1.19294   1.20262
 Alpha virt. eigenvalues --    1.21091   1.22332   1.23414   1.23735   1.24737
 Alpha virt. eigenvalues --    1.26109   1.27020   1.27789   1.28525   1.29504
 Alpha virt. eigenvalues --    1.30751   1.31300   1.32275   1.33704   1.34765
 Alpha virt. eigenvalues --    1.35153   1.35537   1.35713   1.35935   1.37799
 Alpha virt. eigenvalues --    1.38311   1.38802   1.39498   1.40185   1.41288
 Alpha virt. eigenvalues --    1.41889   1.42990   1.43978   1.44313   1.45980
 Alpha virt. eigenvalues --    1.46560   1.47928   1.49000   1.49894   1.51347
 Alpha virt. eigenvalues --    1.51599   1.52854   1.53206   1.53743   1.54842
 Alpha virt. eigenvalues --    1.56780   1.57738   1.58489   1.59207   1.60960
 Alpha virt. eigenvalues --    1.61841   1.62740   1.63382   1.63985   1.64412
 Alpha virt. eigenvalues --    1.65316   1.66630   1.67508   1.68685   1.69444
 Alpha virt. eigenvalues --    1.71047   1.71341   1.72353   1.72548   1.73759
 Alpha virt. eigenvalues --    1.73955   1.74457   1.75237   1.75756   1.76380
 Alpha virt. eigenvalues --    1.77412   1.78878   1.79074   1.79790   1.80673
 Alpha virt. eigenvalues --    1.82172   1.83437   1.83517   1.83875   1.84273
 Alpha virt. eigenvalues --    1.84422   1.85617   1.86450   1.87111   1.88193
 Alpha virt. eigenvalues --    1.88582   1.89353   1.89824   1.90652   1.91021
 Alpha virt. eigenvalues --    1.91870   1.93235   1.93895   1.95041   1.95337
 Alpha virt. eigenvalues --    1.96845   1.97070   1.97361   1.97796   1.98021
 Alpha virt. eigenvalues --    2.00803   2.02634   2.03029   2.03343   2.05700
 Alpha virt. eigenvalues --    2.06303   2.07693   2.08305   2.08537   2.09277
 Alpha virt. eigenvalues --    2.09490   2.10048   2.10603   2.11581   2.12137
 Alpha virt. eigenvalues --    2.12476   2.13206   2.14819   2.16262   2.17491
 Alpha virt. eigenvalues --    2.19444   2.19812   2.20140   2.20505   2.22059
 Alpha virt. eigenvalues --    2.22700   2.23685   2.24335   2.24851   2.26237
 Alpha virt. eigenvalues --    2.27414   2.28394   2.28853   2.30108   2.30371
 Alpha virt. eigenvalues --    2.32317   2.33903   2.34228   2.35860   2.36935
 Alpha virt. eigenvalues --    2.37067   2.39352   2.41341   2.42466   2.43723
 Alpha virt. eigenvalues --    2.44229   2.44809   2.45038   2.47786   2.48055
 Alpha virt. eigenvalues --    2.48780   2.48841   2.51048   2.53459   2.54457
 Alpha virt. eigenvalues --    2.56110   2.56717   2.57266   2.57460   2.58211
 Alpha virt. eigenvalues --    2.58985   2.60983   2.63149   2.64084   2.64938
 Alpha virt. eigenvalues --    2.66430   2.67522   2.68405   2.69616   2.70994
 Alpha virt. eigenvalues --    2.73085   2.73508   2.74242   2.74906   2.76799
 Alpha virt. eigenvalues --    2.77382   2.78541   2.79106   2.81251   2.82374
 Alpha virt. eigenvalues --    2.84094   2.84743   2.85116   2.85561   2.87711
 Alpha virt. eigenvalues --    2.90033   2.90847   2.97409   3.02775   3.04338
 Alpha virt. eigenvalues --    3.11092   3.15116   3.16473   3.21578   3.25807
 Alpha virt. eigenvalues --    3.29901   3.31286   3.33030   3.35172   3.35709
 Alpha virt. eigenvalues --    3.38921   3.41690   3.45096   3.45478   3.46829
 Alpha virt. eigenvalues --    3.49091   3.50725   3.52861   3.56554   3.62209
 Alpha virt. eigenvalues --    3.62335   3.73853   3.78259   3.80236   3.82019
 Alpha virt. eigenvalues --    3.89315   3.98519   4.05123   4.06518   4.19322
 Alpha virt. eigenvalues --    4.54169
          Condensed to atoms (all electrons):
               1          2          3          4          5          6
     1  C   22.039840 -10.094858  -1.868719   0.174688   1.815319  -4.290078
     2  C  -10.094858  20.388615  -2.697455  -0.025392  -2.110922   2.041019
     3  C   -1.868719  -2.697455  15.700185  -1.582258  -0.561340  -1.040089
     4  N    0.174688  -0.025392  -1.582258   7.777849   0.426053   0.025597
     5  C    1.815319  -2.110922  -0.561340   0.426053  10.014913  -2.860435
     6  C   -4.290078   2.041019  -1.040089   0.025597  -2.860435  11.994783
     7  C   -0.238809  -4.475478  -3.054299   0.718547  -0.178984  -0.452361
     8  N   -0.359426   0.911459   0.888233  -0.156381  -0.049470   0.049441
     9  C    0.085977  -0.187809  -0.318129   0.053883  -0.006157  -0.007207
    10  C   -0.270666   0.463964   0.152938  -0.076762  -0.028591   0.062820
    11  C   -0.453270   0.419633  -0.460312   0.059552  -0.229880   0.365742
    12  O    0.061295  -0.117399   0.057102  -0.185534   0.074453  -0.065206
    13  O   -0.000634   0.002904  -0.009381   0.001223   0.009292   0.002182
    14  H    0.012893  -0.198446  -0.056956   0.010812  -0.000845  -0.000759
    15  H    0.000313  -0.069010  -0.005973  -0.003314  -0.005327   0.007983
    16  H   -0.017899   0.166792   0.080317  -0.009523   0.011381  -0.006320
    17  H   -0.064291   0.271089   0.108518  -0.010661   0.013200  -0.016330
    18  H    0.147286  -0.522755  -0.105425   0.028795  -0.024181   0.037927
    19  H   -0.008283   0.211835   0.015128  -0.001463   0.001960   0.002483
    20  H   -0.051970   0.497440  -0.063140   0.007683  -0.038412   0.061196
    21  H   -0.116661  -0.251334  -0.979350   0.023572  -0.093828   0.072292
    22  H    0.011429   0.120710   0.232873  -0.059871  -0.910184   0.326168
    23  H    0.715234  -0.277417   0.018346  -0.033060   0.491425  -1.162539
    24  H   -2.319106   1.178537   0.236452  -0.094890  -0.217020   0.811341
    25  C   -0.089225  -0.059392   0.178254  -0.013231  -0.017365  -0.027072
    26  H    0.094037  -0.480029   0.444515  -0.071203  -0.239160  -0.230194
    27  H   -0.005697   0.010611  -0.000181   0.002748  -0.012543   0.013170
    28  H    0.010658  -0.013977   0.008304  -0.002203  -0.002493  -0.006165
    29  H   -0.000698   0.001596   0.000477   0.000517  -0.001790   0.000343
    30  H   -0.000178  -0.000791  -0.000550   0.000052   0.001321   0.000449
    31  O   -0.000044   0.000235   0.000975  -0.000007   0.000081   0.000098
    32  H    0.000005   0.000035  -0.000006  -0.000040  -0.000034   0.000010
    33  H   -0.000019   0.000063  -0.000068   0.000083  -0.000072   0.000008
    34  H   -0.171372   0.180961  -0.079685  -0.001801  -0.041992   0.044394
    35  H    0.045647   0.042780   0.066782  -0.007298   0.004451  -0.002605
    36  H    0.032531  -0.038547  -0.018577   0.010472   0.007835  -0.010397
    37  O   -0.000000   0.000002  -0.000026   0.000012  -0.000022  -0.000001
    38  H    0.000002  -0.000006  -0.000000  -0.000009  -0.000000  -0.000002
    39  H   -0.000002   0.000005  -0.000002   0.000008  -0.000007  -0.000000
               7          8          9         10         11         12
     1  C   -0.238809  -0.359426   0.085977  -0.270666  -0.453270   0.061295
     2  C   -4.475478   0.911459  -0.187809   0.463964   0.419633  -0.117399
     3  C   -3.054299   0.888233  -0.318129   0.152938  -0.460312   0.057102
     4  N    0.718547  -0.156381   0.053883  -0.076762   0.059552  -0.185534
     5  C   -0.178984  -0.049470  -0.006157  -0.028591  -0.229880   0.074453
     6  C   -0.452361   0.049441  -0.007207   0.062820   0.365742  -0.065206
     7  C   18.077696  -2.656360   0.049500  -1.011462  -0.194808   0.001927
     8  N   -2.656360   9.389603   0.024958   0.106806  -0.411465   0.002493
     9  C    0.049500   0.024958   5.497008   0.208612   0.007140   0.000392
    10  C   -1.011462   0.106806   0.208612   5.651545   0.032998  -0.000529
    11  C   -0.194808  -0.411465   0.007140   0.032998   6.076544  -0.001204
    12  O    0.001927   0.002493   0.000392  -0.000529  -0.001204   7.999586
    13  O    0.000637  -0.000114  -0.000057   0.000025  -0.000001  -0.050286
    14  H    0.506483  -0.646205   0.018284  -0.060770   0.067419   0.000070
    15  H    0.068388  -0.008145   0.090888  -0.213455   0.250861   0.000003
    16  H   -0.143329   0.077673  -0.081225  -0.095813  -0.048279  -0.000243
    17  H    0.265821   0.139958  -0.205784   0.108869  -0.688866  -0.000044
    18  H   -0.090944   0.016341   0.156690   0.164381  -0.106952   0.000272
    19  H   -0.402306   0.379983  -0.311660   0.019788  -0.047156  -0.000041
    20  H   -1.473421  -0.197092  -0.038212   0.102844   0.365543   0.000184
    21  H    0.675122  -0.382652   0.029205   0.042690   0.026621  -0.009108
    22  H    0.008410   0.002721  -0.000667  -0.000119   0.005323   0.003144
    23  H   -0.010538  -0.002430  -0.000871   0.000496  -0.014749  -0.001554
    24  H   -0.480994   0.058430  -0.019352   0.027765   0.059091   0.001121
    25  C   -0.322437   0.460603  -0.225508  -0.007346  -0.010322  -0.000545
    26  H   -0.107005   0.023163   0.002045   0.006288  -0.038159   0.018717
    27  H    0.001981  -0.000153  -0.000009  -0.000067   0.000851   0.361689
    28  H   -0.000635   0.000180  -0.000110   0.000223  -0.000746   0.320250
    29  H    0.000009   0.000000  -0.000019   0.000031   0.000005   0.002113
    30  H    0.000358  -0.000142   0.000084  -0.000173   0.000188   0.000708
    31  O   -0.000003   0.000011   0.000010   0.000017   0.000007   0.000727
    32  H    0.000006  -0.000006   0.000011   0.000001   0.000010  -0.000130
    33  H   -0.000026   0.000005  -0.000007   0.000007  -0.000011   0.000396
    34  H    0.111088  -0.069047  -0.127663  -0.025655   0.059805   0.000404
    35  H   -0.113711   0.140973   0.053202   0.046493  -0.051442   0.000041
    36  H   -0.017981  -0.337056   0.081090   0.002121  -0.000827  -0.000218
    37  O   -0.000000   0.000000  -0.000000   0.000000  -0.000000   0.000208
    38  H    0.000000   0.000000  -0.000000   0.000000  -0.000000  -0.000067
    39  H   -0.000000  -0.000000   0.000000  -0.000000   0.000000   0.000020
              13         14         15         16         17         18
     1  C   -0.000634   0.012893   0.000313  -0.017899  -0.064291   0.147286
     2  C    0.002904  -0.198446  -0.069010   0.166792   0.271089  -0.522755
     3  C   -0.009381  -0.056956  -0.005973   0.080317   0.108518  -0.105425
     4  N    0.001223   0.010812  -0.003314  -0.009523  -0.010661   0.028795
     5  C    0.009292  -0.000845  -0.005327   0.011381   0.013200  -0.024181
     6  C    0.002182  -0.000759   0.007983  -0.006320  -0.016330   0.037927
     7  C    0.000637   0.506483   0.068388  -0.143329   0.265821  -0.090944
     8  N   -0.000114  -0.646205  -0.008145   0.077673   0.139958   0.016341
     9  C   -0.000057   0.018284   0.090888  -0.081225  -0.205784   0.156690
    10  C    0.000025  -0.060770  -0.213455  -0.095813   0.108869   0.164381
    11  C   -0.000001   0.067419   0.250861  -0.048279  -0.688866  -0.106952
    12  O   -0.050286   0.000070   0.000003  -0.000243  -0.000044   0.000272
    13  O    7.805340   0.000008   0.000000  -0.000054  -0.000002   0.000109
    14  H    0.000008   2.392536   0.014594  -0.205557  -0.020162   0.013434
    15  H    0.000000   0.014594   1.808929  -0.397682  -0.221920   0.050446
    16  H   -0.000054  -0.205557  -0.397682   2.042655   0.161341  -0.247077
    17  H   -0.000002  -0.020162  -0.221920   0.161341   2.173578  -0.455318
    18  H    0.000109   0.013434   0.050446  -0.247077  -0.455318   2.287231
    19  H   -0.000003  -0.384119  -0.148350   0.149873   0.066596  -0.018496
    20  H    0.000036   0.036642   0.027816  -0.037256  -0.252247   0.101538
    21  H    0.003308   0.015774   0.008815  -0.021762  -0.009288   0.022143
    22  H    0.002617  -0.000096  -0.000093   0.000159   0.001015  -0.000220
    23  H    0.000014  -0.000056   0.000084   0.000189  -0.001535  -0.002540
    24  H   -0.000041  -0.002259   0.001569   0.003207   0.001437  -0.012402
    25  C   -0.000044  -0.028486   0.006361  -0.008153  -0.000914   0.003638
    26  H   -0.019758  -0.002384   0.000003   0.005120   0.000938  -0.000221
    27  H    0.004744   0.000097  -0.000000  -0.000116   0.000008   0.000039
    28  H   -0.002588  -0.000049   0.000072  -0.000230  -0.000041   0.000106
    29  H    0.361746   0.000001   0.000001   0.000021  -0.000002  -0.000004
    30  H    0.319436   0.000018  -0.000014  -0.000091   0.000014  -0.000010
    31  O   -0.039846   0.000012   0.000004  -0.000038  -0.000001   0.000013
    32  H    0.001546   0.000009   0.000003  -0.000039  -0.000001   0.000008
    33  H    0.000842  -0.000009  -0.000001   0.000036  -0.000000  -0.000004
    34  H    0.000012  -0.008382  -0.001218  -0.001461  -0.000539  -0.000432
    35  H   -0.000006   0.017682   0.006778  -0.004325   0.000970   0.000345
    36  H   -0.000005   0.020095  -0.004461   0.006949   0.000700   0.000845
    37  O   -0.000116   0.000000   0.000000  -0.000001  -0.000000  -0.000000
    38  H   -0.000133   0.000000   0.000000  -0.000000  -0.000000   0.000000
    39  H    0.000480   0.000000  -0.000000  -0.000000   0.000000  -0.000000
              19         20         21         22         23         24
     1  C   -0.008283  -0.051970  -0.116661   0.011429   0.715234  -2.319106
     2  C    0.211835   0.497440  -0.251334   0.120710  -0.277417   1.178537
     3  C    0.015128  -0.063140  -0.979350   0.232873   0.018346   0.236452
     4  N   -0.001463   0.007683   0.023572  -0.059871  -0.033060  -0.094890
     5  C    0.001960  -0.038412  -0.093828  -0.910184   0.491425  -0.217020
     6  C    0.002483   0.061196   0.072292   0.326168  -1.162539   0.811341
     7  C   -0.402306  -1.473421   0.675122   0.008410  -0.010538  -0.480994
     8  N    0.379983  -0.197092  -0.382652   0.002721  -0.002430   0.058430
     9  C   -0.311660  -0.038212   0.029205  -0.000667  -0.000871  -0.019352
    10  C    0.019788   0.102844   0.042690  -0.000119   0.000496   0.027765
    11  C   -0.047156   0.365543   0.026621   0.005323  -0.014749   0.059091
    12  O   -0.000041   0.000184  -0.009108   0.003144  -0.001554   0.001121
    13  O   -0.000003   0.000036   0.003308   0.002617   0.000014  -0.000041
    14  H   -0.384119   0.036642   0.015774  -0.000096  -0.000056  -0.002259
    15  H   -0.148350   0.027816   0.008815  -0.000093   0.000084   0.001569
    16  H    0.149873  -0.037256  -0.021762   0.000159   0.000189   0.003207
    17  H    0.066596  -0.252247  -0.009288   0.001015  -0.001535   0.001437
    18  H   -0.018496   0.101538   0.022143  -0.000220  -0.002540  -0.012402
    19  H    1.970384  -0.052551   0.003486   0.000076  -0.000001   0.000625
    20  H   -0.052551   2.436631   0.044172  -0.000388  -0.000086  -0.043158
    21  H    0.003486   0.044172   3.045922   0.011302  -0.000326  -0.024098
    22  H    0.000076  -0.000388   0.011302   2.189343  -0.121245  -0.013452
    23  H   -0.000001  -0.000086  -0.000326  -0.121245   2.078559  -0.131701
    24  H    0.000625  -0.043158  -0.024098  -0.013452  -0.131701   2.832778
    25  C    0.006196   0.083998  -0.080440  -0.000144   0.002220   0.008716
    26  H    0.000256  -0.008265  -0.078072  -0.154199   0.013541   0.014016
    27  H   -0.000010   0.000038   0.002203   0.007659  -0.000320  -0.000097
    28  H   -0.000014   0.000088   0.003227  -0.001192   0.000067  -0.000071
    29  H    0.000000   0.000001   0.000117  -0.000129   0.000018  -0.000015
    30  H   -0.000004   0.000013  -0.001182   0.000550  -0.000015  -0.000006
    31  O    0.000000   0.000000  -0.000289  -0.000056   0.000004  -0.000001
    32  H   -0.000000   0.000000  -0.000032  -0.000016   0.000000   0.000000
    33  H    0.000000  -0.000001   0.000067  -0.000007   0.000001  -0.000001
    34  H   -0.000982   0.019902   0.003013   0.000680   0.000321  -0.004639
    35  H    0.010685  -0.003972   0.002084   0.000037  -0.000036   0.002997
    36  H   -0.004393   0.014071  -0.003243  -0.000040   0.000029   0.001814
    37  O   -0.000000   0.000000   0.000015  -0.000007   0.000000  -0.000000
    38  H   -0.000000   0.000000  -0.000001  -0.000001  -0.000000   0.000000
    39  H    0.000000  -0.000000  -0.000007  -0.000001   0.000000  -0.000000
              25         26         27         28         29         30
     1  C   -0.089225   0.094037  -0.005697   0.010658  -0.000698  -0.000178
     2  C   -0.059392  -0.480029   0.010611  -0.013977   0.001596  -0.000791
     3  C    0.178254   0.444515  -0.000181   0.008304   0.000477  -0.000550
     4  N   -0.013231  -0.071203   0.002748  -0.002203   0.000517   0.000052
     5  C   -0.017365  -0.239160  -0.012543  -0.002493  -0.001790   0.001321
     6  C   -0.027072  -0.230194   0.013170  -0.006165   0.000343   0.000449
     7  C   -0.322437  -0.107005   0.001981  -0.000635   0.000009   0.000358
     8  N    0.460603   0.023163  -0.000153   0.000180   0.000000  -0.000142
     9  C   -0.225508   0.002045  -0.000009  -0.000110  -0.000019   0.000084
    10  C   -0.007346   0.006288  -0.000067   0.000223   0.000031  -0.000173
    11  C   -0.010322  -0.038159   0.000851  -0.000746   0.000005   0.000188
    12  O   -0.000545   0.018717   0.361689   0.320250   0.002113   0.000708
    13  O   -0.000044  -0.019758   0.004744  -0.002588   0.361746   0.319436
    14  H   -0.028486  -0.002384   0.000097  -0.000049   0.000001   0.000018
    15  H    0.006361   0.000003  -0.000000   0.000072   0.000001  -0.000014
    16  H   -0.008153   0.005120  -0.000116  -0.000230   0.000021  -0.000091
    17  H   -0.000914   0.000938   0.000008  -0.000041  -0.000002   0.000014
    18  H    0.003638  -0.000221   0.000039   0.000106  -0.000004  -0.000010
    19  H    0.006196   0.000256  -0.000010  -0.000014   0.000000  -0.000004
    20  H    0.083998  -0.008265   0.000038   0.000088   0.000001   0.000013
    21  H   -0.080440  -0.078072   0.002203   0.003227   0.000117  -0.001182
    22  H   -0.000144  -0.154199   0.007659  -0.001192  -0.000129   0.000550
    23  H    0.002220   0.013541  -0.000320   0.000067   0.000018  -0.000015
    24  H    0.008716   0.014016  -0.000097  -0.000071  -0.000015  -0.000006
    25  C    4.576238  -0.005276   0.000242   0.000201   0.000004  -0.000003
    26  H   -0.005276   1.736891  -0.020469   0.003704   0.001326   0.000077
    27  H    0.000242  -0.020469   0.612266  -0.112348  -0.000171  -0.000573
    28  H    0.000201   0.003704  -0.112348   0.508490  -0.004873  -0.004782
    29  H    0.000004   0.001326  -0.000171  -0.004873   0.616924  -0.106972
    30  H   -0.000003   0.000077  -0.000573  -0.004782  -0.106972   0.535694
    31  O    0.000012  -0.001501   0.000916  -0.003167   0.001480   0.019241
    32  H   -0.000003  -0.000038  -0.000017   0.000802  -0.000876  -0.003682
    33  H    0.000003   0.000381  -0.000175   0.000151  -0.000177  -0.006050
    34  H    0.341117  -0.017229   0.000765  -0.000212  -0.000000   0.000012
    35  H    0.049669   0.004317  -0.000095   0.000066  -0.000001  -0.000005
    36  H    0.378328   0.001165  -0.000120   0.000031  -0.000000   0.000009
    37  O   -0.000000   0.000272  -0.000256   0.000393   0.000698  -0.005616
    38  H    0.000000   0.000022  -0.000038   0.000086   0.000088  -0.000939
    39  H   -0.000000   0.000060  -0.000052   0.000020  -0.000025  -0.000059
              31         32         33         34         35         36
     1  C   -0.000044   0.000005  -0.000019  -0.171372   0.045647   0.032531
     2  C    0.000235   0.000035   0.000063   0.180961   0.042780  -0.038547
     3  C    0.000975  -0.000006  -0.000068  -0.079685   0.066782  -0.018577
     4  N   -0.000007  -0.000040   0.000083  -0.001801  -0.007298   0.010472
     5  C    0.000081  -0.000034  -0.000072  -0.041992   0.004451   0.007835
     6  C    0.000098   0.000010   0.000008   0.044394  -0.002605  -0.010397
     7  C   -0.000003   0.000006  -0.000026   0.111088  -0.113711  -0.017981
     8  N    0.000011  -0.000006   0.000005  -0.069047   0.140973  -0.337056
     9  C    0.000010   0.000011  -0.000007  -0.127663   0.053202   0.081090
    10  C    0.000017   0.000001   0.000007  -0.025655   0.046493   0.002121
    11  C    0.000007   0.000010  -0.000011   0.059805  -0.051442  -0.000827
    12  O    0.000727  -0.000130   0.000396   0.000404   0.000041  -0.000218
    13  O   -0.039846   0.001546   0.000842   0.000012  -0.000006  -0.000005
    14  H    0.000012   0.000009  -0.000009  -0.008382   0.017682   0.020095
    15  H    0.000004   0.000003  -0.000001  -0.001218   0.006778  -0.004461
    16  H   -0.000038  -0.000039   0.000036  -0.001461  -0.004325   0.006949
    17  H   -0.000001  -0.000001  -0.000000  -0.000539   0.000970   0.000700
    18  H    0.000013   0.000008  -0.000004  -0.000432   0.000345   0.000845
    19  H    0.000000  -0.000000   0.000000  -0.000982   0.010685  -0.004393
    20  H    0.000000   0.000000  -0.000001   0.019902  -0.003972   0.014071
    21  H   -0.000289  -0.000032   0.000067   0.003013   0.002084  -0.003243
    22  H   -0.000056  -0.000016  -0.000007   0.000680   0.000037  -0.000040
    23  H    0.000004   0.000000   0.000001   0.000321  -0.000036   0.000029
    24  H   -0.000001   0.000000  -0.000001  -0.004639   0.002997   0.001814
    25  C    0.000012  -0.000003   0.000003   0.341117   0.049669   0.378328
    26  H   -0.001501  -0.000038   0.000381  -0.017229   0.004317   0.001165
    27  H    0.000916  -0.000017  -0.000175   0.000765  -0.000095  -0.000120
    28  H   -0.003167   0.000802   0.000151  -0.000212   0.000066   0.000031
    29  H    0.001480  -0.000876  -0.000177  -0.000000  -0.000001  -0.000000
    30  H    0.019241  -0.003682  -0.006050   0.000012  -0.000005   0.000009
    31  O    7.689055   0.356281   0.342990   0.000009   0.000000   0.000003
    32  H    0.356281   0.594357  -0.096028   0.000001   0.000000  -0.000002
    33  H    0.342990  -0.096028   0.576891  -0.000002   0.000000  -0.000000
    34  H    0.000009   0.000001  -0.000002   1.990015  -0.417930  -0.497715
    35  H    0.000000   0.000000   0.000000  -0.417930   1.584299  -0.307887
    36  H    0.000003  -0.000002  -0.000000  -0.497715  -0.307887   1.899486
    37  O   -0.029665   0.002151   0.023670  -0.000000   0.000000   0.000000
    38  H   -0.000697   0.000080  -0.002084   0.000000   0.000000   0.000000
    39  H    0.000253  -0.000394  -0.002799  -0.000000  -0.000000   0.000000
              37         38         39
     1  C   -0.000000   0.000002  -0.000002
     2  C    0.000002  -0.000006   0.000005
     3  C   -0.000026  -0.000000  -0.000002
     4  N    0.000012  -0.000009   0.000008
     5  C   -0.000022  -0.000000  -0.000007
     6  C   -0.000001  -0.000002  -0.000000
     7  C   -0.000000   0.000000  -0.000000
     8  N    0.000000   0.000000  -0.000000
     9  C   -0.000000  -0.000000   0.000000
    10  C    0.000000   0.000000  -0.000000
    11  C   -0.000000  -0.000000   0.000000
    12  O    0.000208  -0.000067   0.000020
    13  O   -0.000116  -0.000133   0.000480
    14  H    0.000000   0.000000   0.000000
    15  H    0.000000   0.000000  -0.000000
    16  H   -0.000001  -0.000000  -0.000000
    17  H   -0.000000  -0.000000   0.000000
    18  H   -0.000000   0.000000  -0.000000
    19  H   -0.000000  -0.000000   0.000000
    20  H    0.000000   0.000000  -0.000000
    21  H    0.000015  -0.000001  -0.000007
    22  H   -0.000007  -0.000001  -0.000001
    23  H    0.000000  -0.000000   0.000000
    24  H   -0.000000   0.000000  -0.000000
    25  C   -0.000000   0.000000  -0.000000
    26  H    0.000272   0.000022   0.000060
    27  H   -0.000256  -0.000038  -0.000052
    28  H    0.000393   0.000086   0.000020
    29  H    0.000698   0.000088  -0.000025
    30  H   -0.005616  -0.000939  -0.000059
    31  O   -0.029665  -0.000697   0.000253
    32  H    0.002151   0.000080  -0.000394
    33  H    0.023670  -0.002084  -0.002799
    34  H   -0.000000   0.000000  -0.000000
    35  H    0.000000   0.000000  -0.000000
    36  H    0.000000   0.000000   0.000000
    37  O    7.649643   0.343013   0.344816
    38  H    0.343013   0.573152  -0.079748
    39  H    0.344816  -0.079748   0.569276
 Mulliken charges:
               1
     1  C    1.174750
     2  C    0.710732
     3  C    0.712522
     4  N    0.012755
     5  C    0.759373
     6  C    0.258315
     7  C    0.939920
     8  N   -0.396891
     9  C    1.171467
    10  C    0.589684
    11  C    0.961114
    12  O   -0.475206
    13  O   -0.393430
    14  H   -0.511325
    15  H   -0.264948
    16  H   -0.379240
    17  H   -0.366106
    18  H   -0.444607
    19  H   -0.459521
    20  H   -0.539665
    21  H   -0.983478
    22  H   -0.662088
    23  H   -0.559529
    24  H   -0.876590
    25  C    0.800106
    26  H    0.102306
    27  H    0.133479
    28  H    0.298775
    29  H    0.128236
    30  H    0.253615
    31  O   -0.337121
    32  H    0.146026
    33  H    0.161947
    34  H   -0.284543
    35  H   -0.170985
    36  H   -0.216106
    37  O   -0.329183
    38  H    0.167282
    39  H    0.168158
 Sum of Mulliken charges =   1.00000
 Mulliken charges with hydrogens summed into heavy atoms:
               1
     1  C    0.298160
     2  C    0.710732
     3  C   -0.270956
     4  N    0.115061
     5  C    0.097285
     6  C   -0.301214
     7  C    0.400256
     8  N   -0.396891
     9  C    0.200621
    10  C   -0.054504
    11  C    0.150400
    12  O   -0.042952
    13  O   -0.011579
    25  C    0.128472
    31  O   -0.029148
    37  O    0.006257
 Electronic spatial extent (au):  <R**2>=           8577.7388
 Charge=              1.0000 electrons
 Dipole moment (field-independent basis, Debye):
    X=             -3.8582    Y=              4.5044    Z=              0.2023  Tot=              5.9344
 Quadrupole moment (field-independent basis, Debye-Ang):
   XX=              9.7796   YY=            -67.8654   ZZ=            -85.7222
   XY=             -0.5748   XZ=             -4.6811   YZ=              0.5714
 Traceless Quadrupole moment (field-independent basis, Debye-Ang):
   XX=             57.7157   YY=            -19.9294   ZZ=            -37.7862
   XY=             -0.5748   XZ=             -4.6811   YZ=              0.5714
 Octapole moment (field-independent basis, Debye-Ang**2):
  XXX=           -657.1893  YYY=             52.6703  ZZZ=             15.5205  XYY=             -7.0597
  XXY=             18.3340  XXZ=              2.5050  XZZ=            -70.9921  YZZ=            -10.4396
  YYZ=            -19.9873  XYZ=            -20.1292
 Hexadecapole moment (field-independent basis, Debye-Ang**3):
 XXXX=          -2144.2485 YYYY=          -1756.7811 ZZZZ=           -616.9962 XXXY=           -103.4349
 XXXZ=           -207.0376 YYYX=            104.3919 YYYZ=            -20.0817 ZZZX=            -24.1076
 ZZZY=             23.8957 XXYY=          -1444.4673 XXZZ=          -1051.1382 YYZZ=           -422.0650
 XXYZ=             37.4358 YYXZ=             24.4865 ZZXY=             20.7762
 N-N= 1.104724973008D+03 E-N=-4.074311785118D+03  KE= 7.999701971546D+02
 Calling FoFJK, ICntrl=      2127 FMM=F ISym2X=0 I1Cent= 0 IOpClX= 0 NMat=1 NMatS=1 NMatT=0.
 ***** Axes restored to original set *****
 -------------------------------------------------------------------
 Center     Atomic                   Forces (Hartrees/Bohr)
 Number     Number              X              Y              Z
 -------------------------------------------------------------------
      1        6           0.000005397   -0.000018392    0.000002321
[...]
 0006022,-0.00000951,0.00254152,0.00087297,0.00038770,-0.00551767,-0.00
 021086,-0.00320301,-0.00314842,0.00176875,0.00054401,0.00018668,-0.000
 02604,-0.00020806,-0.00004680,-0.00004870,0.00007463,0.00000960,0.0000
 0811,0.00002268,0.00000279,0.00000956,0.00000552,0.00004335,-0.0000792
 6,0.00009583,0.00003262,0.00000616,-0.00007417,0.00011483,-0.00012254,
 0.00007603,-0.00003329,0.00000717,-0.00000525,-0.00000544,-0.00005378,
 -0.00003943,0.00075884,0.00008673,0.00038702,-0.00039610,0.00007773,-0
 .00037911,-0.00006255,-0.00003007,-0.00010857,-0.00000467,0.00000429,0
 .00001149,0.00000425,0.00000582,0.00000782,-0.00000688,-0.00002711,0.0
 0001449,-0.01005285,-0.05056883,0.00011217,-0.00000698,0.00001165,-0.0
 0003552,-0.00001178,-0.00000024,-0.00000553,-0.00000842,-0.00001199,-0
 .00001151,0.00000056,-0.00000096,-0.00000073,0.00000135,-0.00000612,0.
 00000127,-0.00000502,0.00000422,-0.00000148,0.00000311,-0.00000035,0.0
 0000134,0.00000318,-0.00000028,-0.00000113,0.02680434,0.00188524,0.001
 89829,0.01332144,0.04653723,-0.00011872,0.00010774,0.00002786,0.000554
 47,0.00044568,0.00004222,-0.00003477,0.00002030,0.00003314,-0.00000954
 ,0.00018683,0.00001145,-0.00003512,0.00002682,-0.00003855,0.00001310,0
 .00004487,-0.00001797,-0.00461326,-0.00500658,0.00292283,-0.03781536,-
 0.00327427,-0.01994691,-0.00339183,0.00390954,0.00199458,0.00035390,-0
 .00004901,0.00011526,0.00021358,-0.00016397,0.00052130,0.00000247,-0.0
 0001047,0.00005747,0.00000061,0.00000461,0.00002288,0.00037296,-0.0003
 0347,-0.00019157,0.00018944,0.00002859,-0.00011449,0.00018273,-0.00000
 993,0.00016491,0.00006384,0.00001238,-0.00006714,0.00000942,0.00003670
 ,0.00007830,0.00189202,-0.00025231,0.00049511,0.00198651,0.00090027,0.
 00073528,0.00019733,-0.00017682,-0.00021458,-0.00000190,0.00000937,-0.
 00001536,-0.00001373,0.00000807,-0.00000869,0.00001439,-0.00000028,-0.
 00000237,-0.01303963,-0.00007626,-0.04926217,0.00006025,0.00000895,-0.
 00004121,-0.00002700,0.00001490,-0.00001785,-0.00001597,-0.00001311,-0
 .00002726,0.00000177,0.00000095,-0.00000447,0.00000285,0.00000265,-0.0
 0000859,0.00000128,-0.00000274,0.00001521,0.00000215,0.00000098,-0.000
 00658,-0.00000223,0.00000032,-0.00000617,0.01007848,0.00148507,0.00124
 999,0.02658748,0.00260993,0.05948784,-0.00007039,-0.00006749,0.0000423
 1,0.00020219,-0.00007516,0.00004126,0.00010849,0.00000817,0.00001999,-
 0.00002938,-0.00006505,0.00000188,0.00002476,0.00002495,-0.00001594,-0
 .00002389,0.00002502,0.00001100,0.00010111,-0.00078338,-0.00177686,0.0
 0333169,0.01002747,-0.00703936,0.00041451,-0.00011157,0.00017289,-0.00
 009712,0.00025470,0.00020201,0.00034616,0.00041528,-0.00034175,0.00001
 194,-0.00002780,0.00003063,0.00001043,-0.00000213,0.00001592,0.0001316
 1,-0.00003174,0.00020278,-0.00001037,-0.00001281,0.00003567,-0.0000275
 2,0.00000485,-0.00004246,0.00001680,-0.00003033,-0.00016310,0.00005483
 ,0.00001730,-0.00006206,-0.00033643,-0.00030220,-0.00005322,0.00037335
 ,0.00040231,-0.00027496,0.00001079,0.00006662,-0.00004100,0.00000292,0
 .00000003,0.00000584,-0.00000753,0.00000345,-0.00000571,-0.00000481,0.
 00000355,-0.00001067,-0.08172824,-0.07605618,0.05301997,0.00003045,0.0
 0002202,-0.00002564,-0.00001718,0.00001692,-0.00000614,-0.00001862,-0.
 00000137,-0.00001868,0.00000002,0.00000275,-0.00000354,-0.00000716,0.0
 0000069,-0.00000628,0.00001763,0.00000035,0.00000890,-0.00000496,-0.00
 000095,-0.00000593,-0.00001238,-0.00000143,0.00000180,0.00445454,0.010
 68550,-0.00806084,-0.00987401,-0.02429422,0.01633952,0.08262225,0.0000
 2118,0.00014012,-0.00006073,-0.00020729,0.00020832,-0.00007402,-0.0001
 3270,-0.00008773,-0.00002680,0.00013111,0.00006774,-0.00002814,-0.0000
 5330,-0.00008024,0.00001258,0.00007202,0.00000974,-0.00000220,-0.00009
 251,0.00088864,-0.00111906,0.00291418,0.00495629,-0.00401546,0.0006865
 7,0.00114929,-0.00089593,0.00004582,0.00025915,0.00013824,0.00005393,0
 .00003311,-0.00044870,0.00007976,0.00005167,-0.00006627,0.00001514,0.0
 0002339,-0.00001550,-0.00027404,0.00018709,0.00039067,-0.00000849,0.00
 001144,0.00000356,0.00001107,-0.00001582,0.00001859,0.00000814,0.00003
 010,-0.00000846,0.00002859,0.00008206,-0.00007316,-0.00016103,-0.00013
 929,0.00004515,0.00025799,0.00001081,-0.00029626,-0.00001467,-0.000096
 32,0.00012927,-0.00000671,0.00000234,-0.00000421,0.00000627,-0.0000023
 7,-0.00000143,0.00000612,0.00001420,-0.00002956,-0.07403546,-0.2108128
 1,0.11502275,-0.00019489,-0.00005612,0.00008274,0.00002568,-0.00002288
 ,0.00002739,-0.00000517,-0.00001333,0.00000078,-0.00000544,-0.00000361
 ,0.00000535,-0.00000586,-0.00002327,0.00001571,0.00000037,0.00001451,-
 0.00002280,-0.00000072,-0.00000191,0.00000824,-0.00000053,-0.00000165,
 0.00001028,-0.01006054,-0.01787336,0.01401864,0.00101007,-0.00006049,-
 0.00052579,0.07988177,0.22115004,-0.00015138,0.00022978,0.00001395,0.0
 0041622,-0.00044647,-0.00007393,-0.00002381,0.00007989,0.00001249,-0.0
 0013536,0.00006296,0.00003226,-0.00006442,-0.00000008,0.00000160,0.000
 06353,0.00001413,0.00000341,-0.00100392,-0.00333537,-0.00505458,0.0086
 0758,0.02782191,-0.02359729,0.00063981,0.00187117,0.00099377,-0.000211
 69,0.00025734,0.00016101,0.00015091,0.00133753,-0.00087341,-0.00005010
 ,-0.00003075,0.00002154,-0.00001078,-0.00002483,0.00000256,-0.00018333
 ,-0.00075054,-0.00018382,-0.00001717,-0.00007417,0.00007406,-0.0000126
 1,-0.00003176,0.00002320,0.00000924,-0.00007719,-0.00028884,0.00010286
 ,-0.00021595,-0.00042458,0.00015602,-0.00027182,-0.00010735,0.00006698
 ,-0.00012186,0.00007000,0.00005965,0.00001274,-0.00006296,-0.00000100,
 -0.00000274,-0.00000554,-0.00001517,0.00001102,-0.00000764,0.00000065,
 -0.00003085,-0.00000715,0.04876728,0.10648860,-0.12252229,0.00010086,0
 .00003923,-0.00004344,-0.00001001,0.00000819,-0.00000631,0.00001032,0.
 00001715,0.00001026,0.00000246,0.00000300,-0.00000237,0.00000274,0.000
 02379,-0.00000846,0.00000970,-0.00001721,0.00000894,-0.00000710,0.0000
 0415,-0.00000527,-0.00000555,0.00000192,-0.00000018,-0.00469080,-0.008
 71044,0.00684825,-0.00037663,-0.00192830,0.00201552,-0.05219656,-0.122
 21394,0.14298290,0.00000102,0.00003872,-0.00000867,-0.00003702,-0.0000
 6697,0.00002086,0.00008053,-0.00000812,-0.00001788,-0.00018185,-0.0000
 1978,0.00004217,-0.00000661,0.00006428,-0.00000982,0.00000667,-0.00000
 534,-0.00000225,0.00003375,0.00000726,0.00000369,-0.00008032,-0.000003
 51,-0.00000868,0.00003976,-0.00000372,-0.00001163,0.00003672,0.0000004
 3,0.00000564,0.00000406,0.00000571,-0.00000574,-0.00038450,-0.00043143
 ,-0.00022742,-0.00047305,-0.00187423,0.00020377,0.00001115,-0.00000861
 ,0.00000663,-0.00000752,0.00000373,0.00000055,-0.00001376,-0.00000348,
 -0.00001108,-0.00001309,-0.00000336,-0.00000072,0.00000797,0.00000303,
 -0.00000737,-0.00002522,-0.00000525,-0.00000536,-0.00001813,-0.0000030
 8,-0.00000389,0.00004736,0.00000505,0.00000978,0.00000919,0.00001880,0
 .00000082,-0.00000244,0.00000233,0.00000190,-0.00000208,0.00000218,0.0
 0000129,0.00003601,0.00001016,0.00002924,0.00035427,0.00010078,-0.0000
 7943,-0.00001629,0.00015350,0.00006175,0.00039500,0.00045361,0.0004219
 4,-0.00019271,0.00012868,-0.00007839,0.00063102,0.00279758,-0.00050757
 ,-0.00949375,-0.00357358,0.00931600,-0.00086910,-0.00096180,-0.0002560
 5,-0.00474997,0.00302469,-0.00268433,0.00000614,0.00000383,0.00000245,
 -0.00002476,-0.00000235,0.00000494,0.00001026,-0.00000409,0.00000501,0
 .54371797,0.00000389,-0.00000280,-0.00000076,0.00002147,-0.00001836,-0
 .00000729,0.00001101,-0.00003893,0.00000967,-0.00014138,-0.00002926,0.
 00004111,0.00002902,0.00004696,-0.00001739,-0.00003380,0.00001020,0.00
 000546,0.00001254,-0.00002988,0.00002704,-0.00002230,0.00004407,-0.000
 00381,0.00000393,-0.00003873,-0.00001088,-0.00000664,-0.00000133,0.000
 00642,0.00000180,0.00000190,-0.00001148,-0.00033101,-0.00005167,-0.000
 02093,-0.00034240,0.00014551,0.00020045,0.00000254,0.00000684,-0.00000
 685,-0.00000512,0.00000449,0.00000291,0.00000418,-0.00000687,-0.000000
 52,-0.00000203,0.00000487,0.00000245,-0.00000043,0.00000102,-0.0000076
 0,-0.00000763,0.00000573,0.00000097,-0.00000291,0.00000990,-0.00000145
 ,0.00001810,-0.00001968,0.00000074,0.00001453,0.00000786,-0.00000372,0
 .00000043,0.00000084,-0.00000066,-0.00000136,-0.00000210,0.00000051,0.
 00000805,-0.00000926,0.00000651,0.00029777,0.00004037,-0.00007632,0.00
 011663,0.00000819,0.00001844,0.00021386,0.00008216,0.00008809,0.000166
 91,0.00004315,-0.00020854,0.00017920,-0.00033279,-0.00015141,-0.003459
 97,0.00318245,0.00123201,-0.00096729,-0.00063122,0.00054701,0.00258132
 ,-0.00419185,0.00159439,-0.00000078,0.00000827,0.00000510,-0.00000498,
 0.00000077,0.00000092,0.00000243,0.00000103,-0.00000403,0.01011732,0.1
 9764794,-0.00000186,-0.00000801,0.00000165,0.00000514,0.00001332,-0.00
 000116,-0.00002112,0.00000892,0.00000049,0.00005054,0.00000825,-0.0000
 0127,-0.00000299,-0.00002220,0.00000048,0.00000292,-0.00000051,0.00000
 361,-0.00001227,0.00001275,-0.00001306,0.00002094,0.00000049,0.0000438
 3,-0.00000521,-0.00000355,-0.00000785,-0.00002690,-0.00000340,-0.00000
 283,-0.00000190,-0.00000140,-0.00000351,0.00025250,0.00021868,0.000395
 92,0.00049624,0.00119187,0.00018758,-0.00000628,-0.00000139,-0.0000045
 8,-0.00000057,0.00000155,0.00000183,0.00001155,0.00000196,-0.00000018,
 0.00000443,0.00000259,0.00000198,-0.00000206,-0.00000788,0.00000620,0.
 00000926,0.00000334,0.00000554,0.00000589,-0.00000114,0.00000309,-0.00
 001664,-0.00000075,-0.00002486,-0.00000546,-0.00000902,-0.00001253,-0.
 00000072,-0.00000225,-0.00000530,-0.00000031,-0.00000121,-0.00000383,-
 0.00000841,-0.00000137,-0.00004232,-0.00009600,-0.00003098,-0.00001477
 ,0.00006469,0.00002393,-0.00011895,-0.00040421,-0.00036433,-0.00055533
 ,-0.00003120,-0.00017851,0.00000263,-0.00055267,-0.00170412,0.00015245
 ,0.00842704,0.00123874,-0.00033637,-0.00040957,0.00048317,0.00033035,-
 0.00204735,0.00137922,-0.00848202,-0.00000007,0.00000883,-0.00000235,0
 .00000853,0.00000052,0.00000637,0.00000096,-0.00001029,0.00000023,0.13
 735348,-0.28595350,0.47018723,-0.00000103,-0.00000753,0.00000189,0.000
 00856,0.00001282,-0.00000415,-0.00001652,0.00000422,0.00000296,0.00004
 121,0.00000526,-0.00001038,0.00000042,-0.00001338,0.00000285,-0.000000
 52,0.00000016,0.00000031,-0.00000710,-0.00000272,-0.00000007,0.0000163
 2,0.00000179,-0.00000046,-0.00000889,-0.00000038,0.00000267,-0.0000063
 4,0.00000026,-0.00000068,-0.00000119,-0.00000110,0.00000139,0.00008462
 ,0.00006680,0.00002520,0.00012090,0.00011418,-0.00003645,-0.00000168,0
 .00000197,-0.00000153,0.00000093,-0.00000102,-0.00000013,0.00000300,0.
 00000012,0.00000183,0.00000283,0.00000063,0.00000003,-0.00000164,-0.00
 000027,0.00000115,0.00000510,0.00000114,0.00000105,0.00000390,0.000000
 88,0.00000094,-0.00000791,-0.00000076,-0.00000085,-0.00000252,-0.00000
 414,0.00000053,0.00000038,-0.00000050,-0.00000018,0.00000055,-0.000000
 77,-0.00000008,-0.00000807,-0.00000236,-0.00000376,-0.00008051,-0.0000
 1947,0.00002027,-0.00001127,-0.00002583,-0.00000676,-0.00007377,-0.000
 06923,-0.00005943,-0.00002872,-0.00005897,0.00004342,-0.00013552,-0.00
 009628,0.00006608,0.00025454,0.00007008,0.00078723,-0.00041098,-0.0000
 8988,0.00011274,-0.00074387,0.00020268,-0.00207216,-0.00000142,-0.0000
 0119,-0.00000031,0.00000520,0.00000042,-0.00000159,-0.00000209,0.00000
 154,-0.00000114,-0.47729648,0.03210658,-0.19073988,0.47740407,-0.00000
 257,0.00000549,-0.00000042,-0.00001369,0.00000156,0.00000559,0.0000034
 9,0.00001455,-0.00000613,0.00004108,0.00001108,-0.00001300,-0.00001578
 ,-0.00001205,0.00000677,0.00001640,-0.00000595,-0.00000249,-0.00000303
 ,0.00001324,-0.00001139,0.00000390,-0.00001874,0.00000073,0.00000012,0
 .00001492,0.00000443,0.00000571,0.00000111,-0.00000204,-0.00000053,-0.
 00000030,0.00000442,0.00010737,-0.00003277,0.00001348,0.00014224,-0.00
 024391,-0.00001418,-0.00000033,-0.00000329,0.00000328,0.00000171,-0.00
 000178,-0.00000120,-0.00000279,0.00000249,-0.00000034,-0.00000008,-0.0
 0000221,-0.00000114,0.00000086,-0.00000002,0.00000275,0.00000174,-0.00
 000254,-0.00000089,-0.00000005,-0.00000439,0.00000034,-0.00000288,0.00
 000824,0.00000029,-0.00000595,-0.00000123,0.00000064,-0.00000110,-0.00
 000015,0.00000032,0.00000048,0.00000111,-0.00000020,-0.00000116,0.0000
 0387,-0.00000055,-0.00008657,-0.00000525,0.00002172,-0.00004026,0.0000
 3169,-0.00000870,-0.00006722,0.00000837,-0.00003193,-0.00013768,-0.000
 00091,0.00008471,-0.00002445,0.00041718,-0.00006657,-0.00053520,-0.000
 16290,0.00068976,0.00005406,0.00000688,0.00010577,0.00112844,-0.000062
 66,-0.00171882,0.00000097,-0.00000288,-0.00000213,0.00000046,-0.000000
 31,-0.00000010,-0.00000037,-0.00000088,0.00000183,-0.00057360,-0.01653
 062,0.02505615,-0.02656340,0.01846550,0.00000075,-0.00000364,0.0000008
 3,0.00000322,0.00000733,-0.00000271,-0.00000713,0.00000024,0.00000229,
 0.00001937,0.00000147,-0.00000821,0.00000119,-0.00000506,0.00000239,-0
 .00000085,0.00000071,-0.00000173,-0.00000155,-0.00000337,0.00000274,0.
 00000575,-0.00000163,-0.00001267,-0.00000391,0.00000309,0.00000492,0.0
 0000229,0.00000096,-0.00000073,0.00000047,-0.00000088,0.00000288,0.000
 00887,0.00000486,-0.00006270,-0.00003053,0.00014707,-0.00016121,0.0000
 0014,0.00000141,0.00000041,0.00000216,-0.00000140,-0.00000051,-0.00000
 196,0.00000037,0.00000238,0.00000080,-0.00000042,-0.00000051,-0.000000
 87,0.00000227,-0.00000035,0.00000099,-0.00000055,-0.00000098,0.0000009
 2,0.00000027,-0.00000047,-0.00000333,0.00000002,0.00000493,-0.00000029
 ,-0.00000018,0.00000484,0.00000089,0.00000054,0.00000197,0.00000063,0.
 00000025,0.00000123,-0.00000224,-0.00000028,0.00000826,-0.00004003,-0.
 00000812,0.00001994,-0.00001954,-0.00001800,0.00001935,0.00003137,0.00
 001897,0.00006830,0.00007622,0.00005437,0.00005444,0.00000681,-0.00030
 372,0.00012025,0.00181587,0.00090202,-0.00263911,0.00044211,0.00001982
 ,0.00013766,-0.00239693,-0.00147922,0.00447489,-0.00000055,-0.00000333
 ,0.00000012,0.00000066,0.00000007,-0.00000224,-0.00000143,0.00000333,-
 0.00000064,-0.14514034,0.03496085,-0.09895738,0.18390315,-0.03507502,0
 .11003141,-0.00000017,-0.00001166,0.00000290,0.00001613,0.00001644,-0.
 00000863,-0.00001926,-0.00000872,0.00000792,0.00002102,-0.00000084,-0.
 00000731,0.00000723,-0.00000508,-0.00000032,-0.00000872,0.00000350,0.0
 0000117,-0.00000669,-0.00001433,0.00000877,0.00002090,0.00001095,-0.00
 001386,-0.00001485,-0.00000623,0.00000582,-0.00000508,0.00000138,0.000
 00073,-0.00000102,-0.00000116,0.00000102,-0.00002454,0.00005055,-0.000
 08273,-0.00008396,-0.00006482,-0.00005357,-0.00000170,0.00000568,-0.00
 000225,0.00000152,-0.00000110,-0.00000051,0.00000219,-0.00000124,0.000
 00423,0.00000307,0.00000133,-0.00000011,-0.00000205,0.00000201,-0.0000
 0118,0.00000573,0.00000238,0.00000012,0.00000471,0.00000391,0.00000019
 ,-0.00000748,-0.00000638,0.00000749,0.00000043,-0.00000209,0.00000258,
 0.00000055,-0.00000003,0.00000061,0.00000067,-0.00000095,0.00000073,-0
 .00001090,-0.00000654,0.00000583,-0.00003510,-0.00001647,0.00001963,0.
 00000164,-0.00006229,0.00002440,0.00006525,0.00001241,0.00009461,0.000
 02688,0.00000846,-0.00001004,0.00005772,0.00011221,0.00002447,-0.00307
 354,0.00049248,0.00048533,-0.00014394,-0.00022274,0.00023167,0.0054292
 3,-0.00153568,0.00014875,-0.00000288,-0.00000326,0.00000083,0.00000661
 ,0.00000118,-0.00000483,-0.00000464,0.00000610,-0.00000329,-0.05154020
 ,-0.04058349,0.04767955,0.00089549,0.02656963,-0.03867314,0.04841973,-
 0.00000138,0.00000023,0.00000059,-0.00001025,0.00001059,0.00000292,-0.
 00000594,0.00001624,-0.00000346,0.00006508,0.00001231,-0.00002033,-0.0
 0001211,-0.00002183,0.00000822,0.00001464,-0.00000417,-0.00000295,-0.0
 0000587,0.00001324,-0.00001243,0.00001170,-0.00002291,-0.00000128,-0.0
 0000211,0.00002197,0.00000564,0.00000412,0.00000047,-0.00000325,-0.000
 00072,-0.00000089,0.00000598,0.00011588,0.00001893,-0.00005003,0.00004
 553,-0.00003227,-0.00009603,-0.00000146,-0.00000324,0.00000383,0.00000
 267,-0.00000224,-0.00000189,-0.00000250,0.00000339,0.00000026,0.000000
 80,-0.00000245,-0.00000141,0.00000031,-0.00000034,0.00000339,0.0000038
 7,-0.00000316,-0.00000061,0.00000116,-0.00000467,0.00000060,-0.0000092
 4,0.00000959,0.00000224,-0.00000554,-0.00000298,0.00000344,0.00000001,
 -0.00000026,0.00000081,0.00000079,0.00000132,0.00000003,-0.00000404,0.
 00000556,-0.00000023,-0.00013605,-0.00001850,0.00004071,-0.00005535,-0
 .00002461,0.00001803,-0.00003289,-0.00000403,0.00003363,-0.00001733,0.
 00000691,0.00004078,0.00001852,0.00005401,0.00006508,0.00106395,0.0000
 8366,-0.00020770,-0.00016076,0.00018646,-0.00015269,-0.00111896,-0.000
 51290,0.00026352,0.00000014,-0.00000583,-0.00000209,0.00000253,-0.0000
 0043,-0.00000132,-0.00000199,0.00000096,0.00000199,-0.00938937,-0.1793
 6920,0.25865153,-0.00563235,-0.00191153,0.00077452,0.01525450,0.181502
 59,0.00000040,0.00000004,0.00000011,-0.00000065,0.00000022,-0.00000090
 ,0.00000257,-0.00000271,0.00000099,-0.00000936,-0.00000260,-0.00000175
 ,0.00000161,0.00000372,0.00000068,-0.00000174,0.00000040,-0.00000133,0
 .00000249,-0.00000577,0.00000425,-0.00000275,-0.00000227,-0.00001942,-
 0.00000024,0.00000503,0.00000431,0.00000867,0.00000135,0.00000065,-0.0
 0000002,0.00000051,0.00000164,-0.00007586,-0.00004913,-0.00011623,-0.0
 0014905,-0.00023960,-0.00004496,0.00000202,0.00000084,0.00000248,0.000
 00141,-0.00000100,-0.00000117,-0.00000454,0.00000045,0.00000059,-0.000
 00082,-0.00000117,-0.00000076,0.00000025,0.00000275,-0.00000175,-0.000
 00207,-0.00000159,-0.00000180,-0.00000132,0.00000031,-0.00000086,0.000
 00308,0.00000080,0.00000936,0.00000190,0.00000204,0.00000485,0.0000004
 3,0.00000064,0.00000214,0.00000031,0.00000052,0.00000161,0.00000100,0.
 ,0.00001770,0.00001914,0.00000581,0.00000914,-0.00000681,-0.00001262,0
 .00004677,0.00011811,0.00009415,0.00014615,0.00001901,0.00003969,-0.00
 001139,0.00015503,0.00029783,-0.00003675,-0.00038377,-0.00051598,0.000
 46020,0.00014926,0.00016578,-0.00018403,0.00051453,0.00089087,-0.00132
 471,-0.00000040,-0.00000498,0.00000082,-0.00000206,-0.00000008,-0.0000
 0332,-0.00000121,0.00000542,0.00000010,0.00157474,0.24773610,-0.362741
 01,0.00796429,0.01095426,-0.01311429,-0.00989757,-0.25937003,0.3768918
 5\\0.00000012,-0.00000109,0.00000032,0.00000187,0.00000097,-0.00000030
 ,-0.00000093,-0.00000009,0.00000012,-0.00000139,-0.00000113,0.00000018
 ,0.00000078,0.00000140,-0.00000079,-0.00000156,0.00000027,0.00000019,-
 0.00000114,0.00000047,0.00000009,-0.00000125,0.00000035,-0.00000039,0.
 00000106,-0.00000034,0.00000015,-0.00000119,0.00000003,0.00000038,0.00
 000132,-0.00000004,0.00000004,0.00000030,0.00000036,-0.00000143,0.0000
 0030,0.00000158,0.00000134,0.00000012,0.00000028,0.00000024,0.00000049
 ,-0.00000002,0.00000040,0.00000055,-0.00000017,-0.00000028,-0.00000041
 ,0.00000089,-0.00000064,-0.00000063,-0.00000030,0.00000046,0.00000010,
 0.00000027,0.00000019,0.00000076,-0.00000052,-0.00000023,-0.00000024,0
 .00000009,-0.00000006,-0.00000021,-0.00000029,-0.00000010,-0.00000002,
 -0.00000005,-0.00000025,-0.00000003,0.00000023,-0.00000005,-0.00000018
 ,0.00000021,0.00000061,0.00000353,0.00000071,0.00000016,-0.00000027,-0
 .00000061,0.00000032,-0.00000244,-0.00000141,-0.00000060,0.00000039,-0
 .00000073,-0.00000021,-0.00000147,-0.00000079,0.00000023,0.00000154,-0
 .00000167,-0.00000162,-0.00000011,-0.00000080,0.00000029,0.00000063,0.
 00000296,0.00000149,0.00000002,0.00000020,0.00000014,0.00000001,0.0000
 0030,-0.00000003,0.00000004,0.00000028,0.,0.00000470,-0.00000023,-0.00
 000386,-0.00000014,-0.00000251,0.00000498,-0.00000503,0.00000095,-0.00
 000148\\\@


 KEEP CLOSE TO NATURES HEART, YOURSELF;
 AND BREAK CLEAR AWAY, ONCE IN A WHILE, AND
 CLIMB A MOUNTAIN OR SPEND A WEEK IN THE
 WOODS.  WASH YOUR SPIRIT CLEAN...
                                         -- JOHN MUIR
 Job cpu time:       0 days 23 hours 11 minutes 22.6 seconds.
 Elapsed time:       0 days  0 hours 49 minutes 44.7 seconds.
 File lengths (MBytes):  RWF=   1240 Int=      0 D2E=      0 Chk=     32 Scr=      8
 Normal termination of Gaussian 16 at Fri Jan 27 16:20:30 2023.
