 Entering Gaussian System, Link 0=g16
 Input=NicPyWa4h3bLPyr.gjf
 Output=NicPyWa4h3bLPyr.log
 Initial command:
 /sw/contrib/gaussian/g16/A03/g16/l1.exe "/gscratch/scrubbed/gds001/Gau-23594.inp" -scrdir="/gscratch/scrubbed/gds001/"
 Entering Link 1 = /sw/contrib/gaussian/g16/A03/g16/l1.exe PID=     23595.
  
 Copyright (c) 1988,1990,1992,1993,1995,1998,2003,2009,2016,
            Gaussian, Inc.  All Rights Reserved.
  
 This is part of the Gaussian(R) 16 program.  It is based on
 the Gaussian(R) 09 system (copyright 2009, Gaussian, Inc.),
 the Gaussian(R) 03 system (copyright 2003, Gaussian, Inc.),
 the Gaussian(R) 98 system (copyright 1998, Gaussian, Inc.),
 the Gaussian(R) 94 system (copyright 1995, Gaussian, Inc.),
 the Gaussian 92(TM) system (copyright 1992, Gaussian, Inc.),
 the Gaussian 90(TM) system (copyright 1990, Gaussian, Inc.),
 the Gaussian 88(TM) system (copyright 1988, Gaussian, Inc.),
 the Gaussian 86(TM) system (copyright 1986, Carnegie Mellon
 University), and the Gaussian 82(TM) system (copyright 1983,
 Carnegie Mellon University). Gaussian is a federally registered
 trademark of Gaussian, Inc.
  
 This software contains proprietary and confidential information,
 including trade secrets, belonging to Gaussian, Inc.
  
 This software is provided under written license and may be
 used, copied, transmitted, or stored only in accord with that
 written license.
  
 The following legend is applicable only to US Government
 contracts under FAR:
  
                    RESTRICTED RIGHTS LEGEND
  
 Use, reproduction and disclosure by the US Government is
 subject to restrictions as set forth in subparagraphs (a)
 and (c) of the Commercial Computer Software - Restricted
 Rights clause in FAR 52.227-19.
  
 Gaussian, Inc.
 340 Quinnipiac St., Bldg. 40, Wallingford CT 06492
  
  
 ---------------------------------------------------------------
 Warning -- This program may not be used in any manner that
 competes with the business of Gaussian, Inc. or will provide
 assistance to any competitor of Gaussian, Inc.  The licensee
 of this program is prohibited from giving any competitor of
 Gaussian, Inc. access to this program.  By using this program,
 the user acknowledges that Gaussian, Inc. is engaged in the
 business of creating and licensing software in the field of
 computational chemistry and represents and warrants to the
 licensee that it is not a competitor of Gaussian, Inc. and that
 it will not use this program in any manner prohibited above.
 ---------------------------------------------------------------
  

 Cite this work as:
 Gaussian 16, Revision A.03,
 M. J. Frisch, G. W. Trucks, H. B. Schlegel, G. E. Scuseria, 
 M. A. Robb, J. R. Cheeseman, G. Scalmani, V. Barone, 
 G. A. Petersson, H. Nakatsuji, X. Li, M. Caricato, A. V. Marenich, 
 J. Bloino, B. G. Janesko, R. Gomperts, B. Mennucci, H. P. Hratchian, 
 J. V. Ortiz, A. F. Izmaylov, J. L. Sonnenberg, D. Williams-Young, 
 F. Ding, F. Lipparini, F. Egidi, J. Goings, B. Peng, A. Petrone, 
 T. Henderson, D. Ranasinghe, V. G. Zakrzewski, J. Gao, N. Rega, 
 G. Zheng, W. Liang, M. Hada, M. Ehara, K. Toyota, R. Fukuda, 
 J. Hasegawa, M. Ishida, T. Nakajima, Y. Honda, O. Kitao, H. Nakai, 
 T. Vreven, K. Throssell, J. A. Montgomery, Jr., J. E. Peralta, 
 F. Ogliaro, M. J. Bearpark, J. J. Heyd, E. N. Brothers, K. N. Kudin, 
 V. N. Staroverov, T. A. Keith, R. Kobayashi, J. Normand, 
 K. Raghavachari, A. P. Rendell, J. C. Burant, S. S. Iyengar, 
 J. Tomasi, M. Cossi, J. M. Millam, M. Klene, C. Adamo, R. Cammi, 
 J. W. Ochterski, R. L. Martin, K. Morokuma, O. Farkas, 
 J. B. Foresman, and D. J. Fox, Gaussian, Inc., Wallingford CT, 2016.
 
 ******************************************
 Gaussian 16:  ES64L-G16RevA.03 25-Dec-2016
                30-Jan-2023 
 ******************************************
 %nprocshared=28
 Will use up to   28 processors via shared memory.
 %mem=41GB
 -----------------------------
 # wB97XD/aug-cc-pVDZ opt freq
 -----------------------------
 1/18=20,19=15,26=3,38=1/1,3;
 2/9=110,12=2,17=6,18=5,40=1/2;
 3/5=16,7=10,11=2,25=1,30=1,71=1,74=-58/1,2,3;
 4//1;
 5/5=2,38=5/2;
 6/7=2,8=2,9=2,10=2,28=1/1;
 7//1,2,3,16;
 1/18=20,19=15,26=3/3(2);
 2/9=110/2;
 99//99;
 2/9=110/2;
 3/5=16,7=10,11=2,25=1,30=1,71=1,74=-58/1,2,3;
 4/5=5,16=3,69=1/1;
 5/5=2,38=5/2;
 7//1,2,3,16;
 1/18=20,19=15,26=3/3(-5);
 2/9=110/2;
 6/7=2,8=2,9=2,10=2,19=2,28=1/1;
 99/9=1/99;
 ----
 blah
 ----
 Symbolic Z-matrix:
 Charge =  1 Multiplicity = 1
 N                    -1.93672  -0.20152   0.58176 
 C                    -1.37072  -0.91871  -0.5745 
 C                    -1.67281  -0.00616  -1.78904 
 C                    -2.71138   1.0124   -1.26964 
 C                    -3.16132   0.42397   0.06344 
 C                     0.0895   -1.24388  -0.35522 
 C                     1.03352  -0.22517  -0.30707 
 N                     2.3239   -0.4975   -0.07816 
 C                     2.78403  -1.74593   0.1057 
 C                     1.90166  -2.80713   0.05962 
 C                     0.54783  -2.54855  -0.1692 
 O                     3.5299    1.85914  -0.11413 
 O                    -0.40745   1.90858   1.59934 
 H                    -3.53383   1.17132   0.77423 
 H                    -3.54608   1.15289  -1.96315 
 H                    -2.24052   1.98902  -1.10582 
 H                    -2.06496  -0.60909  -2.61466 
 H                    -0.77188   0.49413  -2.16089 
 H                    -3.95238  -0.3349   -0.08334 
 H                    -1.90825  -1.87704  -0.70201 
 H                     0.79626   0.82705  -0.45523 
 H                     3.85106  -1.85412   0.28261 
 H                     2.26734  -3.82091   0.20382 
 H                    -0.16053  -3.37693  -0.20255 
 C                    -2.16592  -1.06208   1.73655 
 H                     2.96818   0.33508  -0.04051 
 H                    -0.97786   1.17605   1.25657 
 H                    -0.80868   2.23589   2.40678 
 H                     2.76888   2.47878  -0.13336 
 H                     4.24836   2.28951   0.35376 
 O                     1.12513   3.03833  -0.27621 
 H                     0.88113   3.89552  -0.63138 
 H                     0.51902   2.84383   0.46999 
 H                    -2.62168  -0.47736   2.54421 
 H                    -1.21261  -1.46155   2.10489 
 H                    -2.83819  -1.90504   1.49496 
 O                    -1.53484   2.70619   4.00148 
 H                    -2.08071   3.38369   4.43377 
 H                    -1.04842   2.30902   4.74429 
 
 Add virtual bond connecting atoms H26        and O12        Dist= 3.07D+00.
 Add virtual bond connecting atoms H33        and O13        Dist= 3.28D+00.
 Add virtual bond connecting atoms H27        and N1         Dist= 3.42D+00.
 Add virtual bond connecting atoms O31        and H29        Dist= 3.29D+00.
 Add virtual bond connecting atoms O37        and H28        Dist= 3.43D+00.

 GradGradGradGradGradGradGradGradGradGradGradGradGradGradGradGradGradGrad
 Berny optimization.
 Initialization pass.
                           ----------------------------
                           !    Initial Parameters    !
                           ! (Angstroms and Degrees)  !
 --------------------------                            --------------------------
 ! Name  Definition              Value          Derivative Info.                !
 --------------------------------------------------------------------------------
 ! R1    R(1,2)                  1.4737         estimate D2E/DX2                !
 ! R2    R(1,5)                  1.4695         estimate D2E/DX2                !
 ! R3    R(1,25)                 1.4583         estimate D2E/DX2                !
 ! R4    R(1,27)                 1.809          estimate D2E/DX2                !
 ! R5    R(2,3)                  1.5489         estimate D2E/DX2                !
 ! R6    R(2,6)                  1.512          estimate D2E/DX2                !
 ! R7    R(2,20)                 1.1062         estimate D2E/DX2                !
 ! R8    R(3,4)                  1.5446         estimate D2E/DX2                !
 ! R9    R(3,17)                 1.095          estimate D2E/DX2                !
 ! R10   R(3,18)                 1.0955         estimate D2E/DX2                !
 ! R11   R(4,5)                  1.5251         estimate D2E/DX2                !
 ! R12   R(4,15)                 1.0943         estimate D2E/DX2                !
 ! R13   R(4,16)                 1.0965         estimate D2E/DX2                !
 ! R14   R(5,14)                 1.0966         estimate D2E/DX2                !
 ! R15   R(5,19)                 1.106          estimate D2E/DX2                !
 ! R16   R(6,7)                  1.3897         estimate D2E/DX2                !
 ! R17   R(6,11)                 1.3953         estimate D2E/DX2                !
 ! R18   R(7,8)                  1.3385         estimate D2E/DX2                !
 ! R19   R(7,21)                 1.0888         estimate D2E/DX2                !
 ! R20   R(8,9)                  1.3432         estimate D2E/DX2                !
 ! R21   R(8,26)                 1.0534         estimate D2E/DX2                !
 ! R22   R(9,10)                 1.3809         estimate D2E/DX2                !
 ! R23   R(9,22)                 1.087          estimate D2E/DX2                !
 ! R24   R(10,11)                1.3972         estimate D2E/DX2                !
 ! R25   R(10,23)                1.0873         estimate D2E/DX2                !
 ! R26   R(11,24)                1.0905         estimate D2E/DX2                !
 ! R27   R(12,26)                1.6259         estimate D2E/DX2                !
 ! R28   R(12,29)                0.9816         estimate D2E/DX2                !
 ! R29   R(12,30)                0.9593         estimate D2E/DX2                !
 ! R30   R(13,27)                0.9897         estimate D2E/DX2                !
 ! R31   R(13,28)                0.9592         estimate D2E/DX2                !
 ! R32   R(13,33)                1.7345         estimate D2E/DX2                !
 ! R33   R(25,34)                1.0963         estimate D2E/DX2                !
 ! R34   R(25,35)                1.0973         estimate D2E/DX2                !
 ! R35   R(25,36)                1.1049         estimate D2E/DX2                !
 ! R36   R(28,37)                1.8143         estimate D2E/DX2                !
 ! R37   R(29,31)                1.7422         estimate D2E/DX2                !
 ! R38   R(31,32)                0.9594         estimate D2E/DX2                !
 ! R39   R(31,33)                0.9808         estimate D2E/DX2                !
 ! R40   R(37,38)                0.9715         estimate D2E/DX2                !
 ! R41   R(37,39)                0.9727         estimate D2E/DX2                !
 ! A1    A(2,1,5)              104.5046         estimate D2E/DX2                !
 ! A2    A(2,1,25)             113.2346         estimate D2E/DX2                !
 ! A3    A(2,1,27)             117.3685         estimate D2E/DX2                !
 ! A4    A(5,1,25)             113.547          estimate D2E/DX2                !
 ! A5    A(5,1,27)             104.4271         estimate D2E/DX2                !
 ! A6    A(25,1,27)            103.7271         estimate D2E/DX2                !
 ! A7    A(1,2,3)              104.6912         estimate D2E/DX2                !
 ! A8    A(1,2,6)              111.2108         estimate D2E/DX2                !
 ! A9    A(1,2,20)             108.9921         estimate D2E/DX2                !
 ! A10   A(3,2,6)              115.3911         estimate D2E/DX2                !
 ! A11   A(3,2,20)             108.981          estimate D2E/DX2                !
 ! A12   A(6,2,20)             107.4396         estimate D2E/DX2                !
 ! A13   A(2,3,4)              104.8309         estimate D2E/DX2                !
 ! A14   A(2,3,17)             109.6746         estimate D2E/DX2                !
 ! A15   A(2,3,18)             112.0118         estimate D2E/DX2                !
 ! A16   A(4,3,17)             112.0764         estimate D2E/DX2                !
 ! A17   A(4,3,18)             111.4655         estimate D2E/DX2                !
 ! A18   A(17,3,18)            106.8605         estimate D2E/DX2                !
 ! A19   A(3,4,5)              103.7611         estimate D2E/DX2                !
 ! A20   A(3,4,15)             112.6083         estimate D2E/DX2                !
 ! A21   A(3,4,16)             110.4156         estimate D2E/DX2                !
 ! A22   A(5,4,15)             112.2394         estimate D2E/DX2                !
 ! A23   A(5,4,16)             109.862          estimate D2E/DX2                !
 ! A24   A(15,4,16)            107.9325         estimate D2E/DX2                !
 ! A25   A(1,5,4)              103.102          estimate D2E/DX2                !
 ! A26   A(1,5,14)             110.1534         estimate D2E/DX2                !
 ! A27   A(1,5,19)             110.5361         estimate D2E/DX2                !
 ! A28   A(4,5,14)             113.8192         estimate D2E/DX2                !
 ! A29   A(4,5,19)             111.0854         estimate D2E/DX2                !
 ! A30   A(14,5,19)            108.0999         estimate D2E/DX2                !
 ! A31   A(2,6,7)              120.2262         estimate D2E/DX2                !
 ! A32   A(2,6,11)             122.5257         estimate D2E/DX2                !
 ! A33   A(7,6,11)             117.2372         estimate D2E/DX2                !
 ! A34   A(6,7,8)              120.7735         estimate D2E/DX2                !
 ! A35   A(6,7,21)             123.7583         estimate D2E/DX2                !
 ! A36   A(8,7,21)             115.4666         estimate D2E/DX2                !
 ! A37   A(7,8,9)              122.8724         estimate D2E/DX2                !
 ! A38   A(7,8,26)             115.78           estimate D2E/DX2                !
 ! A39   A(9,8,26)             121.3452         estimate D2E/DX2                !
 ! A40   A(8,9,10)             119.3944         estimate D2E/DX2                !
 ! A41   A(8,9,22)             116.8127         estimate D2E/DX2                !
 ! A42   A(10,9,22)            123.7927         estimate D2E/DX2                !
 ! A43   A(9,10,11)            118.8429         estimate D2E/DX2                !
 ! A44   A(9,10,23)            119.8145         estimate D2E/DX2                !
 ! A45   A(11,10,23)           121.3424         estimate D2E/DX2                !
 ! A46   A(6,11,10)            120.8759         estimate D2E/DX2                !
 ! A47   A(6,11,24)            119.5286         estimate D2E/DX2                !
 ! A48   A(10,11,24)           119.5954         estimate D2E/DX2                !
 ! A49   A(26,12,29)           108.9506         estimate D2E/DX2                !
 ! A50   A(26,12,30)           131.0833         estimate D2E/DX2                !
 ! A51   A(29,12,30)           107.8784         estimate D2E/DX2                !
 ! A52   A(27,13,28)           107.6397         estimate D2E/DX2                !
 ! A53   A(27,13,33)           118.7807         estimate D2E/DX2                !
 ! A54   A(28,13,33)           125.9813         estimate D2E/DX2                !
 ! A55   A(1,25,34)            109.5106         estimate D2E/DX2                !
 ! A56   A(1,25,35)            110.1269         estimate D2E/DX2                !
 ! A57   A(1,25,36)            111.8812         estimate D2E/DX2                !
 ! A58   A(34,25,35)           107.9404         estimate D2E/DX2                !
 ! A59   A(34,25,36)           108.3628         estimate D2E/DX2                !
 ! A60   A(35,25,36)           108.9203         estimate D2E/DX2                !
 ! A61   A(8,26,12)            161.8975         estimate D2E/DX2                !
 ! A62   A(12,29,31)           159.3631         estimate D2E/DX2                !
 ! A63   A(29,31,32)           123.8657         estimate D2E/DX2                !
 ! A64   A(29,31,33)           117.1911         estimate D2E/DX2                !
 ! A65   A(32,31,33)           107.557          estimate D2E/DX2                !
 ! A66   A(13,33,31)           158.806          estimate D2E/DX2                !
 ! A67   A(28,37,38)           142.8236         estimate D2E/DX2                !
 ! A68   A(28,37,39)           111.4226         estimate D2E/DX2                !
 ! A69   A(38,37,39)           103.0565         estimate D2E/DX2                !
 ! A70   L(1,27,13,7,-1)       176.703          estimate D2E/DX2                !
 ! A71   L(13,28,37,14,-1)     180.3924         estimate D2E/DX2                !
 ! A72   L(1,27,13,7,-2)       180.0804         estimate D2E/DX2                !
 ! A73   L(13,28,37,14,-2)     174.6617         estimate D2E/DX2                !
 ! D1    D(5,1,2,3)             36.439          estimate D2E/DX2                !
 ! D2    D(5,1,2,6)            161.6964         estimate D2E/DX2                !
 ! D3    D(5,1,2,20)           -80.0382         estimate D2E/DX2                !
 ! D4    D(25,1,2,3)           160.5046         estimate D2E/DX2                !
 ! D5    D(25,1,2,6)           -74.2381         estimate D2E/DX2                !
 ! D6    D(25,1,2,20)           44.0273         estimate D2E/DX2                !
 ! D7    D(27,1,2,3)           -78.6297         estimate D2E/DX2                !
 ! D8    D(27,1,2,6)            46.6276         estimate D2E/DX2                !
 ! D9    D(27,1,2,20)          164.8931         estimate D2E/DX2                !
 ! D10   D(2,1,5,4)            -44.8781         estimate D2E/DX2                !
 ! D11   D(2,1,5,14)          -166.6883         estimate D2E/DX2                !
 ! D12   D(2,1,5,19)            73.9136         estimate D2E/DX2                !
 ! D13   D(25,1,5,4)          -168.7431         estimate D2E/DX2                !
 ! D14   D(25,1,5,14)           69.4468         estimate D2E/DX2                !
 ! D15   D(25,1,5,19)          -49.9514         estimate D2E/DX2                !
 ! D16   D(27,1,5,4)            78.9609         estimate D2E/DX2                !
 ! D17   D(27,1,5,14)          -42.8492         estimate D2E/DX2                !
 ! D18   D(27,1,5,19)         -162.2474         estimate D2E/DX2                !
 ! D19   D(2,1,13,28)         -173.185          estimate D2E/DX2                !
 ! D20   D(2,1,13,33)           34.1828         estimate D2E/DX2                !
 ! D21   D(5,1,13,28)           71.7366         estimate D2E/DX2                !
 ! D22   D(5,1,13,33)          -80.8957         estimate D2E/DX2                !
 ! D23   D(25,1,13,28)         -47.9375         estimate D2E/DX2                !
 ! D24   D(25,1,13,33)         159.4303         estimate D2E/DX2                !
 ! D25   D(2,1,25,34)         -177.8211         estimate D2E/DX2                !
 ! D26   D(2,1,25,35)           63.6306         estimate D2E/DX2                !
 ! D27   D(2,1,25,36)          -57.6572         estimate D2E/DX2                !
 ! D28   D(5,1,25,34)          -58.8471         estimate D2E/DX2                !
 ! D29   D(5,1,25,35)         -177.3954         estimate D2E/DX2                !
 ! D30   D(5,1,25,36)           61.3167         estimate D2E/DX2                !
 ! D31   D(27,1,25,34)          53.8724         estimate D2E/DX2                !
 ! D32   D(27,1,25,35)         -64.6759         estimate D2E/DX2                !
 ! D33   D(27,1,25,36)         174.0363         estimate D2E/DX2                !
 ! D34   D(1,2,3,4)            -13.8429         estimate D2E/DX2                !
 ! D35   D(1,2,3,17)          -134.3454         estimate D2E/DX2                !
 ! D36   D(1,2,3,18)           107.1787         estimate D2E/DX2                !
 ! D37   D(6,2,3,4)           -136.4221         estimate D2E/DX2                !
 ! D38   D(6,2,3,17)           103.0754         estimate D2E/DX2                !
 ! D39   D(6,2,3,18)           -15.4005         estimate D2E/DX2                !
 ! D40   D(20,2,3,4)           102.642          estimate D2E/DX2                !
 ! D41   D(20,2,3,17)          -17.8605         estimate D2E/DX2                !
 ! D42   D(20,2,3,18)         -136.3365         estimate D2E/DX2                !
 ! D43   D(1,2,6,7)            -67.7376         estimate D2E/DX2                !
 ! D44   D(1,2,6,11)           111.0313         estimate D2E/DX2                !
 ! D45   D(3,2,6,7)             51.2966         estimate D2E/DX2                !
 ! D46   D(3,2,6,11)          -129.9344         estimate D2E/DX2                !
 ! D47   D(20,2,6,7)           173.0649         estimate D2E/DX2                !
 ! D48   D(20,2,6,11)           -8.1662         estimate D2E/DX2                !
 ! D49   D(2,3,4,5)            -12.6664         estimate D2E/DX2                !
 ! D50   D(2,3,4,15)          -134.273          estimate D2E/DX2                !
 ! D51   D(2,3,4,16)           105.0047         estimate D2E/DX2                !
 ! D52   D(17,3,4,5)           106.2301         estimate D2E/DX2                !
 ! D53   D(17,3,4,15)          -15.3765         estimate D2E/DX2                !
 ! D54   D(17,3,4,16)         -136.0988         estimate D2E/DX2                !
 ! D55   D(18,3,4,5)          -134.0476         estimate D2E/DX2                !
 ! D56   D(18,3,4,15)          104.3458         estimate D2E/DX2                !
 ! D57   D(18,3,4,16)          -16.3765         estimate D2E/DX2                !
 ! D58   D(3,4,5,1)             34.8549         estimate D2E/DX2                !
 ! D59   D(3,4,5,14)           154.1576         estimate D2E/DX2                !
 ! D60   D(3,4,5,19)           -83.5539         estimate D2E/DX2                !
 ! D61   D(15,4,5,1)           156.7077         estimate D2E/DX2                !
 ! D62   D(15,4,5,14)          -83.9896         estimate D2E/DX2                !
 ! D63   D(15,4,5,19)           38.2989         estimate D2E/DX2                !
 ! D64   D(16,4,5,1)           -83.2002         estimate D2E/DX2                !
 ! D65   D(16,4,5,14)           36.1025         estimate D2E/DX2                !
 ! D66   D(16,4,5,19)          158.391          estimate D2E/DX2                !
 ! D67   D(2,6,7,8)            178.2133         estimate D2E/DX2                !
 ! D68   D(2,6,7,21)            -2.277          estimate D2E/DX2                !
 ! D69   D(11,6,7,8)            -0.6193         estimate D2E/DX2                !
 ! D70   D(11,6,7,21)          178.8904         estimate D2E/DX2                !
 ! D71   D(2,6,11,10)         -178.5995         estimate D2E/DX2                !
 ! D72   D(2,6,11,24)            1.3756         estimate D2E/DX2                !
 ! D73   D(7,6,11,10)            0.2042         estimate D2E/DX2                !
 ! D74   D(7,6,11,24)         -179.8207         estimate D2E/DX2                !
 ! D75   D(6,7,8,9)              0.528          estimate D2E/DX2                !
 ! D76   D(6,7,8,26)          -178.9161         estimate D2E/DX2                !
 ! D77   D(21,7,8,9)          -179.0205         estimate D2E/DX2                !
 ! D78   D(21,7,8,26)            1.5354         estimate D2E/DX2                !
 ! D79   D(7,8,9,10)             0.0144         estimate D2E/DX2                !
 ! D80   D(7,8,9,22)           179.8845         estimate D2E/DX2                !
 ! D81   D(26,8,9,10)          179.4283         estimate D2E/DX2                !
 ! D82   D(26,8,9,22)           -0.7016         estimate D2E/DX2                !
 ! D83   D(7,8,26,12)           -4.837          estimate D2E/DX2                !
 ! D84   D(9,8,26,12)          175.7096         estimate D2E/DX2                !
 ! D85   D(8,9,10,11)           -0.4259         estimate D2E/DX2                !
 ! D86   D(8,9,10,23)          179.7712         estimate D2E/DX2                !
 ! D87   D(22,9,10,11)         179.7135         estimate D2E/DX2                !
 ! D88   D(22,9,10,23)          -0.0894         estimate D2E/DX2                !
 ! D89   D(9,10,11,6)            0.309          estimate D2E/DX2                !
 ! D90   D(9,10,11,24)        -179.6661         estimate D2E/DX2                !
 ! D91   D(23,10,11,6)        -179.8912         estimate D2E/DX2                !
 ! D92   D(23,10,11,24)          0.1337         estimate D2E/DX2                !
 ! D93   D(29,12,26,8)          14.4051         estimate D2E/DX2                !
 ! D94   D(30,12,26,8)         151.2908         estimate D2E/DX2                !
 ! D95   D(26,12,29,31)        -12.765          estimate D2E/DX2                !
 ! D96   D(30,12,29,31)       -159.993          estimate D2E/DX2                !
 ! D97   D(27,13,37,38)       -102.3692         estimate D2E/DX2                !
 ! D98   D(27,13,37,39)         99.9126         estimate D2E/DX2                !
 ! D99   D(33,13,37,38)         48.8772         estimate D2E/DX2                !
 ! D100  D(33,13,37,39)       -108.841          estimate D2E/DX2                !
 ! D101  D(27,13,33,31)        -48.6242         estimate D2E/DX2                !
 ! D102  D(28,13,33,31)        165.6774         estimate D2E/DX2                !
 ! D103  D(12,29,31,32)       -147.5519         estimate D2E/DX2                !
 ! D104  D(12,29,31,33)         73.5804         estimate D2E/DX2                !
 ! D105  D(29,31,33,13)        -62.4638         estimate D2E/DX2                !
 ! D106  D(32,31,33,13)        152.488          estimate D2E/DX2                !
 --------------------------------------------------------------------------------
 Trust Radius=3.00D-01 FncErr=1.00D-07 GrdErr=1.00D-06 EigMax=2.50D+02 EigMin=1.00D-04
 Number of steps in this run=    230 maximum allowed number of steps=    234.
 GradGradGradGradGradGradGradGradGradGradGradGradGradGradGradGradGradGrad

                          Input orientation:                          
 ---------------------------------------------------------------------
 Center     Atomic      Atomic             Coordinates (Angstroms)
 Number     Number       Type             X           Y           Z
 ---------------------------------------------------------------------
      1          7           0       -1.936715   -0.201518    0.581763
      2          6           0       -1.370718   -0.918705   -0.574503
      3          6           0       -1.672810   -0.006157   -1.789040
      4          6           0       -2.711382    1.012402   -1.269639
      5          6           0       -3.161320    0.423973    0.063436
      6          6           0        0.089497   -1.243883   -0.355216
      7          6           0        1.033524   -0.225166   -0.307073
      8          7           0        2.323896   -0.497500   -0.078159
      9          6           0        2.784029   -1.745927    0.105698
     10          6           0        1.901660   -2.807126    0.059620
     11          6           0        0.547830   -2.548553   -0.169196
     12          8           0        3.529900    1.859135   -0.114126
     13          8           0       -0.407445    1.908577    1.599336
     14          1           0       -3.533832    1.171322    0.774230
     15          1           0       -3.546083    1.152887   -1.963154
     16          1           0       -2.240520    1.989023   -1.105823
     17          1           0       -2.064962   -0.609087   -2.614656
     18          1           0       -0.771883    0.494126   -2.160889
     19          1           0       -3.952377   -0.334895   -0.083344
     20          1           0       -1.908249   -1.877035   -0.702013
     21          1           0        0.796259    0.827051   -0.455226
     22          1           0        3.851055   -1.854122    0.282614
     23          1           0        2.267337   -3.820910    0.203824
     24          1           0       -0.160530   -3.376926   -0.202551
     25          6           0       -2.165921   -1.062079    1.736549
     26          1           0        2.968179    0.335076   -0.040509
     27          1           0       -0.977858    1.176050    1.256566
     28          1           0       -0.808675    2.235893    2.406783
     29          1           0        2.768875    2.478775   -0.133361
     30          1           0        4.248360    2.289513    0.353757
     31          8           0        1.125126    3.038326   -0.276206
     32          1           0        0.881126    3.895520   -0.631378
     33          1           0        0.519021    2.843832    0.469993
     34          1           0       -2.621680   -0.477363    2.544213
     35          1           0       -1.212612   -1.461546    2.104895
     36          1           0       -2.838191   -1.905035    1.494957
     37          8           0       -1.534844    2.706189    4.001475
     38          1           0       -2.080707    3.383685    4.433773
     39          1           0       -1.048422    2.309020    4.744290
 ---------------------------------------------------------------------
                    Distance matrix (angstroms):
                    1          2          3          4          5
     1  N    0.000000
     2  C    1.473656   0.000000
     3  C    2.393432   1.548904   0.000000
     4  C    2.345506   2.451483   1.544627   0.000000
     5  C    1.469544   2.327231   2.415024   1.525051   0.000000
     6  C    2.463735   1.511971   2.587188   3.711053   3.677611
     7  C    3.100469   2.516524   3.093289   4.059856   4.260912
     8  N    4.321563   3.751526   4.375179   5.390126   5.563880
     9  C    4.989716   4.290559   5.145896   6.300752   6.329094
    10  C    4.668506   3.831019   4.903041   6.134809   6.006145
    11  C    3.499354   2.549805   3.744184   4.951145   4.758973
    12  O    5.883403   5.651938   5.775192   6.403575   6.845703
    13  O    2.797610   3.694184   4.092487   3.787119   3.485235
    14  H    2.114832   3.296416   3.379381   2.208864   1.096596
    15  H    3.301678   3.309389   2.209717   1.094269   2.187790
    16  H    2.781854   3.081191   2.183993   1.096511   2.159727
    17  H    3.224849   2.177168   1.094966   2.203669   3.072685
    18  H    3.059885   2.207106   1.095547   2.196496   3.265265
    19  H    2.126746   2.692032   2.865989   2.182332   1.105982
    20  H    2.110983   1.106162   2.176521   3.052223   2.729604
    21  H    3.098782   2.785261   2.927387   3.605713   4.011722
    22  H    6.026514   5.373692   6.182217   7.327484   7.376392
    23  H    5.560296   4.718478   5.835118   7.093634   6.892681
    24  H    3.721988   2.765096   4.020699   5.187651   4.849982
    25  C    1.458297   2.448237   3.713207   3.692989   2.449179
    26  H    4.973242   4.547872   4.971175   5.850380   6.131025
    27  H    1.808994   2.809831   3.340103   3.068159   2.599362
    28  H    3.247175   4.376694   4.835126   4.316631   3.782759
    29  H    5.462412   5.373426   5.352077   5.785723   6.279184
    30  H    6.671760   6.536694   6.702383   7.259782   7.646429
    31  O    4.539556   4.687890   4.402952   4.450851   5.032278
    32  H    5.118365   5.315148   4.804774   4.650361   5.373618
    33  H    3.913731   4.338061   4.246150   4.100727   4.423338
    34  H    2.096778   3.389112   4.460882   4.095475   2.694044
    35  H    2.105214   2.738402   4.182424   4.444571   3.394142
    36  H    2.132734   2.721946   3.968436   4.021257   2.752806
    37  O    4.506738   5.840066   6.395774   5.660194   4.833434
    38  H    5.264256   6.640593   7.097944   6.208836   5.387714
    39  H    4.941507   6.229899   6.959475   6.372911   5.470661
                    6          7          8          9         10
     6  C    0.000000
     7  C    1.389708   0.000000
     8  N    2.372001   1.338517   0.000000
     9  C    2.779387   2.355284   1.343166   0.000000
    10  C    2.428941   2.748571   2.351944   1.380884   0.000000
    11  C    1.395291   2.377611   2.714685   2.391728   1.397166
    12  O    4.639312   3.257826   2.647540   3.687969   4.945235
    13  O    3.742356   3.203693   4.007920   5.076599   5.471796
    14  H    4.498597   4.896952   6.150164   6.990897   6.773720
    15  H    4.641919   5.061071   6.382291   7.263167   7.032156
    16  H    4.055129   4.032369   5.298376   6.376812   6.443521
    17  H    3.185864   3.882390   5.070340   5.674984   5.264714
    18  H    2.650114   2.685798   3.860691   4.774910   4.793408
    19  H    4.151737   4.992124   6.278381   6.885195   6.356266
    20  H    2.124180   3.396863   4.494815   4.763093   3.995067
    21  H    2.190498   1.088763   2.056767   3.299406   3.833304
    22  H    3.863747   3.307523   2.074318   1.086991   2.181303
    23  H    3.420026   3.835712   3.335831   2.140597   1.087324
    24  H    2.153066   3.371985   3.805120   3.380178   2.155466
    25  C    3.081468   3.887578   4.875487   5.256361   4.733127
    26  H    3.298327   2.031703   1.053423   2.094245   3.319777
    27  H    3.097283   2.907582   3.934951   4.900433   5.058655
    28  H    4.532570   4.100673   4.843488   5.835872   6.187660
    29  H    4.592001   3.217595   3.009862   4.231487   5.360042
    30  H    5.503060   4.134668   3.414316   4.300067   5.618652
    31  O    4.406369   3.264923   3.738762   5.078079   5.906360
    32  H    5.207341   4.136236   4.656851   5.999187   6.815015
    33  H    4.192240   3.207381   3.836997   5.131166   5.832103
    34  H    4.042861   4.642623   5.597853   6.064429   5.662297
    35  H    2.791955   3.520135   4.266380   4.477812   3.961367
    36  H    3.525850   4.589058   5.577006   5.793506   5.033900
    37  O    6.101009   5.809728   6.465053   7.324689   7.598975
    38  H    7.004184   6.722936   7.404165   8.289198   8.562628
    39  H    6.318460   6.022695   6.519593   7.255812   7.538173
                   11         12         13         14         15
    11  C    0.000000
    12  O    5.321982   0.000000
    13  O    4.889403   4.294308   0.000000
    14  H    5.602454   7.152522   3.316420   0.000000
    15  H    5.803367   7.347600   4.807645   2.737473   0.000000
    16  H    5.407565   5.856456   3.268719   2.424024   1.771619
    17  H    4.070440   6.606607   5.181093   4.100242   2.392222
    18  H    3.868640   4.955585   4.033953   4.086793   2.858190
    19  H    5.015926   7.797383   4.520080   1.783060   2.431513
    20  H    2.601375   6.624050   4.677550   3.756900   3.667888
    21  H    3.396797   2.941826   2.615306   4.514396   4.608248
    22  H    3.405534   3.748176   5.833222   7.995721   8.294771
    23  H    2.171345   5.827355   6.475255   7.674719   7.951748
    24  H    1.090453   6.406514   5.589661   5.746288   5.922913
    25  C    3.633994   6.663397   3.454832   2.790218   4.527552
    26  H    3.766957   1.625948   4.069378   6.606001   6.841125
    27  H    4.270034   4.760807   0.989676   2.601091   4.118606
    28  H    5.600598   5.031914   0.959214   3.350376   5.269028
    29  H    5.496213   0.981572   3.662837   6.500559   6.707072
    30  H    6.113451   0.959335   4.834573   7.873351   8.210563
    31  O    5.617645   2.683226   2.672595   5.127866   5.312332
    32  H    6.469218   3.380890   3.253374   5.374834   5.375485
    33  H    5.430213   3.221213   1.734490   4.394937   5.030365
    34  H    4.658134   7.097036   3.389445   2.585154   4.881454
    35  H    3.074448   6.200193   3.501659   3.753762   5.369299
    36  H    3.827357   7.570384   4.523611   3.235326   4.670174
    37  O    7.024552   6.580828   2.770828   4.094738   6.483412
    38  H    7.955374   7.381501   3.606908   4.516456   6.931411
    39  H    7.091289   6.690862   3.234492   4.820061   7.250155
                   16         17         18         19         20
    16  H    0.000000
    17  H    3.009580   0.000000
    18  H    2.346226   1.759272   0.000000
    19  H    3.062109   3.169394   3.888317   0.000000
    20  H    3.901265   2.300099   3.007000   2.634275   0.000000
    21  H    3.315944   3.861634   2.340768   4.902852   3.832408
    22  H    7.335176   6.703995   5.732062   7.958362   5.842910
    23  H    7.469355   6.085101   5.783447   7.135798   4.694114
    24  H    5.825433   4.135945   4.381082   4.862743   2.356620
    25  C    4.170596   4.375886   4.422119   2.651836   2.584015
    26  H    5.567852   5.731508   4.302252   6.953042   5.395421
    27  H    2.799307   4.399417   3.490909   3.595285   3.744728
    28  H    3.801253   5.906523   4.888633   4.763669   5.271608
    29  H    5.126361   6.249616   4.537253   7.286595   6.416536
    30  H    6.657795   7.554561   5.894888   8.621523   7.508569
    31  O    3.621723   5.380393   3.691020   6.098922   5.791671
    32  H    3.688428   5.736228   4.079378   6.446666   6.411552
    33  H    3.290739   5.302328   3.756207   5.513972   5.436159
    34  H    4.421663   5.190493   5.148157   2.948747   3.606390
    35  H    4.824078   4.871073   4.713365   3.682940   2.921519
    36  H    4.720694   4.377931   4.836405   2.489535   2.385844
    37  O    5.205459   7.419250   6.591666   5.637234   6.577855
    38  H    5.714696   8.100792   7.317933   6.142909   7.353993
    39  H    5.978906   7.981402   7.145054   6.223286   6.922757
                   21         22         23         24         25
    21  H    0.000000
    22  H    4.130965   0.000000
    23  H    4.919549   2.526386   0.000000
    24  H    4.318879   4.318232   2.501360   0.000000
    25  C    4.140918   6.240614   5.441890   3.624944   0.000000
    26  H    2.265230   2.382534   4.221741   4.857369   5.609720
    27  H    2.489884   5.783505   6.050551   4.850427   2.578972
    28  H    3.570958   6.553884   7.141410   6.223540   3.628767
    29  H    2.592875   4.485326   6.328607   6.547934   6.355031
    30  H    3.835394   4.163247   6.425278   7.201133   7.368058
    31  O    2.242753   5.628412   6.970236   6.543225   5.629875
    32  H    3.074692   6.535613   7.884316   7.359172   6.282465
    33  H    2.236134   5.762667   6.895378   6.293801   4.906039
    34  H    4.730797   6.993325   6.368612   4.691422   1.096326
    35  H    3.978374   5.395882   4.614186   3.178028   1.097292
    36  H    4.947397   6.798410   5.603929   3.495406   1.104938
    37  O    5.369114   7.977109   8.454688   7.521094   4.441620
    38  H    6.222188   8.936025   9.418288   8.419527   5.200682
    39  H    5.712621   7.825802   8.317820   7.588779   4.653989
                   26         27         28         29         30
    26  H    0.000000
    27  H    4.238024   0.000000
    28  H    4.885383   1.573178   0.000000
    29  H    2.154945   4.203213   4.394336   0.000000
    30  H    2.369416   5.419245   5.458149   1.569070   0.000000
    31  O    3.280237   3.200001   3.403221   1.742244   3.272944
    32  H    4.169134   3.796797   3.852300   2.412215   3.858499
    33  H    3.542999   2.375045   2.425597   2.357784   3.772102
    34  H    6.211873   2.663449   3.266134   6.705687   7.723416
    35  H    5.030867   2.780591   3.731669   6.032260   6.852674
    36  H    6.410124   3.607042   4.700813   7.301260   8.313590
    37  O    6.499002   3.191565   1.814261   5.972485   6.850176
    38  H    7.403004   4.023005   2.654088   6.722799   7.609260
    39  H    6.551628   3.667808   2.350907   6.196132   6.879902
                   31         32         33         34         35
    31  O    0.000000
    32  H    0.959409   0.000000
    33  H    0.980818   1.565307   0.000000
    34  H    5.861176   6.440197   5.019634   0.000000
    35  H    5.602099   6.369387   4.920136   1.774004   0.000000
    36  H    6.578884   7.211176   5.905350   1.784954   1.791986
    37  O    5.048199   5.358614   4.087624   3.666037   4.590301
    38  H    5.707937   5.889837   4.770910   4.332526   5.445505
    39  H    5.519200   5.927726   4.583941   3.883221   4.605489
                   36         37         38         39
    36  H    0.000000
    37  O    5.407840   0.000000
    38  H    6.097621   0.971519   0.000000
    39  H    5.614240   0.972688   1.522150   0.000000
 Stoichiometry    C10H23N2O4(1+)
 Framework group  C1[X(C10H23N2O4)]
 Deg. of freedom   111
 Full point group                 C1      NOp   1
 Largest Abelian subgroup         C1      NOp   1
 Largest concise Abelian subgroup C1      NOp   1
                         Standard orientation:                         
 ---------------------------------------------------------------------
 Center     Atomic      Atomic             Coordinates (Angstroms)
 Number     Number       Type             X           Y           Z
 ---------------------------------------------------------------------
      1          7           0        1.535547   -1.064508   -0.226378
      2          6           0        0.451023   -1.799628    0.448207
      3          6           0        0.719427   -1.595768    1.959995
      4          6           0        2.158913   -1.040627    2.034649
      5          6           0        2.710278   -1.272292    0.631756
      6          6           0       -0.905350   -1.340544   -0.037128
      7          6           0       -1.357408   -0.059997    0.258055
      8          7           0       -2.540827    0.370120   -0.195978
      9          6           0       -3.356821   -0.393149   -0.941411
     10          6           0       -2.974561   -1.680535   -1.262903
     11          6           0       -1.739772   -2.150365   -0.808339
     12          8           0       -2.758264    2.844871    0.719334
     13          8           0        1.230743    1.711273   -0.395952
     14          1           0        3.511185   -0.578069    0.350464
     15          1           0        2.761057   -1.534865    2.803138
     16          1           0        2.143749    0.033127    2.256362
     17          1           0        0.619323   -2.551772    2.484384
     18          1           0       -0.000156   -0.906616    2.415511
     19          1           0        3.094509   -2.303401    0.520504
     20          1           0        0.542140   -2.875657    0.208512
     21          1           0       -0.801565    0.652952    0.864806
     22          1           0       -4.295914    0.054994   -1.255771
     23          1           0       -3.631507   -2.305655   -1.862835
     24          1           0       -1.423258   -3.163160   -1.059640
     25          6           0        1.741857   -1.483378   -1.607905
     26          1           0       -2.797676    1.359209    0.059817
     27          1           0        1.374565    0.733565   -0.342458
     28          1           0        1.929783    2.078536   -0.940519
     29          1           0       -1.860100    3.010190    1.079133
     30          1           0       -3.109960    3.681818    0.409248
     31          8           0       -0.233635    2.688904    1.614669
     32          1           0        0.199639    3.166856    2.324810
     33          1           0        0.439243    2.512328    0.923251
     34          1           0        2.583795   -0.927671   -2.037160
     35          1           0        0.849756   -1.261363   -2.207001
     36          1           0        1.963576   -2.563301   -1.682046
     37          8           0        3.186910    2.687903   -2.098036
     38          1           0        4.039509    3.151649   -2.141212
     39          1           0        2.813711    2.831124   -2.984790
 ---------------------------------------------------------------------
 Rotational constants (GHZ):           0.4423763           0.3541876           0.2742731
 Standard basis: Aug-CC-pVDZ (5D, 7F)
 There are   607 symmetry adapted cartesian basis functions of A   symmetry.
 There are   575 symmetry adapted basis functions of A   symmetry.
   575 basis functions,   941 primitive gaussians,   607 cartesian basis functions
    64 alpha electrons       64 beta electrons
       nuclear repulsion energy      1239.1607290549 Hartrees.
 NAtoms=   39 NActive=   39 NUniq=   39 SFac= 1.00D+00 NAtFMM=   60 NAOKFM=F Big=F
 Integral buffers will be    131072 words long.
 Raffenetti 2 integral format.
 Two-electron integral symmetry is turned on.
 Nuclear repulsion after empirical dispersion term =     1239.1304074023 Hartrees.
 One-electron integrals computed using PRISM.
 NBasis=   575 RedAO= T EigKep=  1.69D-06  NBF=   575
 NBsUse=   575 1.00D-06 EigRej= -1.00D+00 NBFU=   575
 ExpMin= 2.97D-02 ExpMax= 1.17D+04 ExpMxC= 4.01D+02 IAcc=3 IRadAn=         5 AccDes= 0.00D+00
 Harris functional with IExCor= 4639 and IRadAn=       5 diagonalized for initial guess.
 HarFok:  IExCor= 4639 AccDes= 0.00D+00 IRadAn=         5 IDoV= 1 UseB2=F ITyADJ=14
 ICtDFT=  3500011 ScaDFX=  1.000000  1.000000  1.000000  1.000000
 FoFCou: FMM=F IPFlag=           0 FMFlag=      100000 FMFlg1=           0
         NFxFlg=           0 DoJE=T BraDBF=F KetDBF=T FulRan=T
         wScrn=  0.000000 ICntrl=       500 IOpCl=  0 I1Cent=   200000004 NGrid=           0
         NMat0=    1 NMatS0=      1 NMatT0=    0 NMatD0=    1 NMtDS0=    0 NMtDT0=    0
 Petite list used in FoFCou.
 Requested convergence on RMS density matrix=1.00D-08 within 128 cycles.
 Requested convergence on MAX density matrix=1.00D-06.
 Requested convergence on             energy=1.00D-06.
 No special actions if energy rises.
 SCF Done:  E(RwB97XD) =  -805.031218581     A.U. after   15 cycles
            NFock= 15  Conv=0.33D-08     -V/T= 2.0063

 **********************************************************************

            Population analysis using the SCF density.

 **********************************************************************

 Orbital symmetries:
       Occupied  (A) (A) (A) (A) (A) (A) (A) (A) (A) (A) (A) (A)
                 (A) (A) (A) (A) (A) (A) (A) (A) (A) (A) (A) (A)
                 (A) (A) (A) (A) (A) (A) (A) (A) (A) (A) (A) (A)
                 (A) (A) (A) (A) (A) (A) (A) (A) (A) (A) (A) (A)
                 (A) (A) (A) (A) (A) (A) (A) (A) (A) (A) (A) (A)
                 (A) (A) (A) (A)
       Virtual   (A) (A) (A) (A) (A) (A) (A) (A) (A) (A) (A) (A)
                 (A) (A) (A) (A) (A) (A) (A) (A) (A) (A) (A) (A)
                 (A) (A) (A) (A) (A) (A) (A) (A) (A) (A) (A) (A)
                 (A) (A) (A) (A) (A) (A) (A) (A) (A) (A) (A) (A)
                 (A) (A) (A) (A) (A) (A) (A) (A) (A) (A) (A) (A)
                 (A) (A) (A) (A) (A) (A) (A) (A) (A) (A) (A) (A)
                 (A) (A) (A) (A) (A) (A) (A) (A) (A) (A) (A) (A)
                 (A) (A) (A) (A) (A) (A) (A) (A) (A) (A) (A) (A)
                 (A) (A) (A) (A) (A) (A) (A) (A) (A) (A) (A) (A)
                 (A) (A) (A) (A) (A) (A) (A) (A) (A) (A) (A) (A)
                 (A) (A) (A) (A) (A) (A) (A) (A) (A) (A) (A) (A)
                 (A) (A) (A) (A) (A) (A) (A) (A) (A) (A) (A) (A)
                 (A) (A) (A) (A) (A) (A) (A) (A) (A) (A) (A) (A)
                 (A) (A) (A) (A) (A) (A) (A) (A) (A) (A) (A) (A)
                 (A) (A) (A) (A) (A) (A) (A) (A) (A) (A) (A) (A)
                 (A) (A) (A) (A) (A) (A) (A) (A) (A) (A) (A) (A)
                 (A) (A) (A) (A) (A) (A) (A) (A) (A) (A) (A) (A)
                 (A) (A) (A) (A) (A) (A) (A) (A) (A) (A) (A) (A)
                 (A) (A) (A) (A) (A) (A) (A) (A) (A) (A) (A) (A)
                 (A) (A) (A) (A) (A) (A) (A) (A) (A) (A) (A) (A)
                 (A) (A) (A) (A) (A) (A) (A) (A) (A) (A) (A) (A)
                 (A) (A) (A) (A) (A) (A) (A) (A) (A) (A) (A) (A)
                 (A) (A) (A) (A) (A) (A) (A) (A) (A) (A) (A) (A)
                 (A) (A) (A) (A) (A) (A) (A) (A) (A) (A) (A) (A)
                 (A) (A) (A) (A) (A) (A) (A) (A) (A) (A) (A) (A)
                 (A) (A) (A) (A) (A) (A) (A) (A) (A) (A) (A) (A)
                 (A) (A) (A) (A) (A) (A) (A) (A) (A) (A) (A) (A)
                 (A) (A) (A) (A) (A) (A) (A) (A) (A) (A) (A) (A)
                 (A) (A) (A) (A) (A) (A) (A) (A) (A) (A) (A) (A)
                 (A) (A) (A) (A) (A) (A) (A) (A) (A) (A) (A) (A)
                 (A) (A) (A) (A) (A) (A) (A) (A) (A) (A) (A) (A)
                 (A) (A) (A) (A) (A) (A) (A) (A) (A) (A) (A) (A)
                 (A) (A) (A) (A) (A) (A) (A) (A) (A) (A) (A) (A)
                 (A) (A) (A) (A) (A) (A) (A) (A) (A) (A) (A) (A)
                 (A) (A) (A) (A) (A) (A) (A) (A) (A) (A) (A) (A)
                 (A) (A) (A) (A) (A) (A) (A) (A) (A) (A) (A) (A)
                 (A) (A) (A) (A) (A) (A) (A) (A) (A) (A) (A) (A)
                 (A) (A) (A) (A) (A) (A) (A) (A) (A) (A) (A) (A)
                 (A) (A) (A) (A) (A) (A) (A) (A) (A) (A) (A) (A)
                 (A) (A) (A) (A) (A) (A) (A) (A) (A) (A) (A) (A)
                 (A) (A) (A) (A) (A) (A) (A) (A) (A) (A) (A) (A)
                 (A) (A) (A) (A) (A) (A) (A) (A) (A) (A) (A) (A)
                 (A) (A) (A) (A) (A) (A) (A)
 The electronic state is 1-A.
 Alpha  occ. eigenvalues --  -19.39698 -19.39059 -19.38046 -19.35278 -14.67380
 Alpha  occ. eigenvalues --  -14.57496 -10.50871 -10.50248 -10.47593 -10.46873
 Alpha  occ. eigenvalues --  -10.46680 -10.46060 -10.42852 -10.42816 -10.41117
 Alpha  occ. eigenvalues --  -10.40055  -1.25721  -1.23598  -1.23477  -1.22100
 Alpha  occ. eigenvalues --   -1.19523  -1.16849  -1.08030  -1.04481  -1.00140
 Alpha  occ. eigenvalues --   -0.95630  -0.90370  -0.89471  -0.88423  -0.82301
 Alpha  occ. eigenvalues --   -0.79433  -0.79067  -0.75003  -0.74515  -0.74294
 Alpha  occ. eigenvalues --   -0.73475  -0.72996  -0.72131  -0.70298  -0.69076
 Alpha  occ. eigenvalues --   -0.68573  -0.67756  -0.65222  -0.64417  -0.63638
 Alpha  occ. eigenvalues --   -0.62782  -0.61460  -0.61164  -0.59634  -0.58715
 Alpha  occ. eigenvalues --   -0.58154  -0.56624  -0.55889  -0.55431  -0.55312
 Alpha  occ. eigenvalues --   -0.53443  -0.53316  -0.52543  -0.52392  -0.51853
 Alpha  occ. eigenvalues --   -0.51589  -0.49616  -0.48829  -0.43759
 Alpha virt. eigenvalues --   -0.13580  -0.10753  -0.06256  -0.05339  -0.04949
 Alpha virt. eigenvalues --   -0.04375  -0.03302  -0.03129  -0.02973  -0.02687
 Alpha virt. eigenvalues --   -0.01910  -0.01267  -0.01056  -0.00677  -0.00221
 Alpha virt. eigenvalues --    0.00167   0.00790   0.00937   0.01356   0.01650
 Alpha virt. eigenvalues --    0.01881   0.02087   0.02739   0.02813   0.03025
 Alpha virt. eigenvalues --    0.03383   0.03809   0.04112   0.04468   0.04901
 Alpha virt. eigenvalues --    0.05040   0.05110   0.05362   0.05545   0.06118
 Alpha virt. eigenvalues --    0.06422   0.06691   0.06815   0.06949   0.07566
 Alpha virt. eigenvalues --    0.07980   0.08176   0.08542   0.08574   0.08831
 Alpha virt. eigenvalues --    0.09243   0.09519   0.09813   0.10137   0.10369
 Alpha virt. eigenvalues --    0.10870   0.11181   0.11327   0.11814   0.11885
 Alpha virt. eigenvalues --    0.12284   0.12662   0.12781   0.12891   0.13448
 Alpha virt. eigenvalues --    0.13732   0.13992   0.14423   0.14472   0.14989
 Alpha virt. eigenvalues --    0.15315   0.15437   0.16015   0.16288   0.16507
 Alpha virt. eigenvalues --    0.16803   0.17060   0.17154   0.17502   0.17684
 Alpha virt. eigenvalues --    0.17758   0.18304   0.18833   0.19155   0.19414
 Alpha virt. eigenvalues --    0.19601   0.19915   0.19995   0.20654   0.20920
 Alpha virt. eigenvalues --    0.21206   0.21411   0.21700   0.21893   0.22191
 Alpha virt. eigenvalues --    0.22410   0.23259   0.23439   0.23621   0.24194
 Alpha virt. eigenvalues --    0.24655   0.25147   0.25180   0.25716   0.25936
 Alpha virt. eigenvalues --    0.26056   0.26195   0.26671   0.26942   0.27330
 Alpha virt. eigenvalues --    0.27744   0.28381   0.28734   0.28906   0.29282
 Alpha virt. eigenvalues --    0.29683   0.29784   0.30628   0.30812   0.31454
 Alpha virt. eigenvalues --    0.31698   0.32003   0.32675   0.32859   0.33254
 Alpha virt. eigenvalues --    0.33433   0.33915   0.34228   0.34495   0.34646
 Alpha virt. eigenvalues --    0.35416   0.35718   0.35980   0.36498   0.36649
 Alpha virt. eigenvalues --    0.37117   0.37613   0.38590   0.38990   0.39459
 Alpha virt. eigenvalues --    0.39594   0.39975   0.40285   0.41014   0.41394
 Alpha virt. eigenvalues --    0.41766   0.42278   0.42420   0.42815   0.43107
 Alpha virt. eigenvalues --    0.43780   0.44025   0.44298   0.44922   0.45074
 Alpha virt. eigenvalues --    0.45475   0.45563   0.45908   0.46401   0.46829
 Alpha virt. eigenvalues --    0.47128   0.47786   0.47938   0.48462   0.49164
 Alpha virt. eigenvalues --    0.49528   0.49860   0.50157   0.50682   0.50821
 Alpha virt. eigenvalues --    0.51407   0.52137   0.52276   0.52688   0.52963
 Alpha virt. eigenvalues --    0.53160   0.53537   0.53862   0.54118   0.54784
 Alpha virt. eigenvalues --    0.54969   0.55358   0.55811   0.56301   0.56416
 Alpha virt. eigenvalues --    0.56981   0.57375   0.57766   0.57981   0.58436
 Alpha virt. eigenvalues --    0.58663   0.59269   0.59576   0.60284   0.60435
 Alpha virt. eigenvalues --    0.61181   0.61418   0.61878   0.62458   0.62815
 Alpha virt. eigenvalues --    0.63042   0.63245   0.63620   0.64049   0.64447
 Alpha virt. eigenvalues --    0.64712   0.65068   0.65461   0.66600   0.67002
 Alpha virt. eigenvalues --    0.68006   0.68280   0.68748   0.69084   0.69382
 Alpha virt. eigenvalues --    0.70025   0.70302   0.70977   0.71515   0.71716
 Alpha virt. eigenvalues --    0.72644   0.72750   0.72979   0.73870   0.73948
 Alpha virt. eigenvalues --    0.74620   0.75211   0.75379   0.75799   0.76359
 Alpha virt. eigenvalues --    0.76851   0.77062   0.77656   0.77766   0.78631
 Alpha virt. eigenvalues --    0.79223   0.79548   0.81237   0.82170   0.82359
 Alpha virt. eigenvalues --    0.82987   0.83369   0.83512   0.84131   0.84686
 Alpha virt. eigenvalues --    0.85316   0.85660   0.86692   0.87068   0.87723
 Alpha virt. eigenvalues --    0.87763   0.88619   0.90180   0.90549   0.91450
 Alpha virt. eigenvalues --    0.91885   0.92310   0.92405   0.93307   0.93991
 Alpha virt. eigenvalues --    0.94831   0.95335   0.96368   0.97201   0.97377
 Alpha virt. eigenvalues --    0.98308   0.99117   0.99740   1.00350   1.00825
 Alpha virt. eigenvalues --    1.02436   1.02844   1.03917   1.04223   1.04977
 Alpha virt. eigenvalues --    1.06221   1.06610   1.06954   1.07878   1.09117
 Alpha virt. eigenvalues --    1.09633   1.09886   1.10881   1.11941   1.12432
 Alpha virt. eigenvalues --    1.13132   1.14489   1.14935   1.15467   1.16872
 Alpha virt. eigenvalues --    1.17984   1.18184   1.18649   1.19311   1.19926
 Alpha virt. eigenvalues --    1.20807   1.21345   1.22615   1.23113   1.24069
 Alpha virt. eigenvalues --    1.25408   1.26296   1.26613   1.27946   1.29142
 Alpha virt. eigenvalues --    1.30784   1.31035   1.31858   1.33111   1.33523
 Alpha virt. eigenvalues --    1.35183   1.35418   1.35961   1.36895   1.37659
 Alpha virt. eigenvalues --    1.38344   1.39154   1.39439   1.40267   1.41384
 Alpha virt. eigenvalues --    1.41995   1.42770   1.42860   1.44316   1.45760
 Alpha virt. eigenvalues --    1.45936   1.47271   1.48249   1.48847   1.50311
 Alpha virt. eigenvalues --    1.52316   1.52829   1.53420   1.54663   1.56088
 Alpha virt. eigenvalues --    1.57751   1.58339   1.58766   1.59618   1.60493
 Alpha virt. eigenvalues --    1.60983   1.61838   1.62822   1.63970   1.64135
 Alpha virt. eigenvalues --    1.64841   1.64927   1.66476   1.67895   1.68401
 Alpha virt. eigenvalues --    1.68973   1.69764   1.70274   1.71729   1.72520
 Alpha virt. eigenvalues --    1.73203   1.73402   1.74849   1.75975   1.76055
 Alpha virt. eigenvalues --    1.77413   1.77868   1.78917   1.79435   1.80323
 Alpha virt. eigenvalues --    1.80738   1.80855   1.82479   1.82877   1.83304
 Alpha virt. eigenvalues --    1.83907   1.84319   1.85755   1.86219   1.87386
 Alpha virt. eigenvalues --    1.88585   1.88684   1.89069   1.90288   1.90762
 Alpha virt. eigenvalues --    1.91653   1.91842   1.92435   1.93371   1.94565
 Alpha virt. eigenvalues --    1.95826   1.96024   1.96645   1.96816   1.98304
 Alpha virt. eigenvalues --    1.99662   2.00031   2.01383   2.01822   2.02010
 Alpha virt. eigenvalues --    2.03609   2.04445   2.05287   2.06342   2.06937
 Alpha virt. eigenvalues --    2.08442   2.09621   2.10579   2.11868   2.12431
 Alpha virt. eigenvalues --    2.12766   2.13589   2.14805   2.15486   2.15855
 Alpha virt. eigenvalues --    2.16300   2.17432   2.18509   2.19671   2.20251
 Alpha virt. eigenvalues --    2.21034   2.23044   2.23975   2.25092   2.25387
 Alpha virt. eigenvalues --    2.26478   2.27151   2.27977   2.28546   2.29211
 Alpha virt. eigenvalues --    2.30166   2.30866   2.32206   2.33758   2.35062
 Alpha virt. eigenvalues --    2.35861   2.36080   2.38347   2.40034   2.41474
 Alpha virt. eigenvalues --    2.42050   2.42494   2.42978   2.45022   2.46213
 Alpha virt. eigenvalues --    2.47292   2.48118   2.48977   2.50112   2.50975
 Alpha virt. eigenvalues --    2.52467   2.52936   2.54098   2.55778   2.58230
 Alpha virt. eigenvalues --    2.58985   2.59595   2.61302   2.61886   2.63668
 Alpha virt. eigenvalues --    2.64558   2.65657   2.68015   2.68587   2.69251
 Alpha virt. eigenvalues --    2.70711   2.72543   2.73096   2.74325   2.75282
 Alpha virt. eigenvalues --    2.76205   2.77230   2.80206   2.80467   2.82077
 Alpha virt. eigenvalues --    2.82738   2.84085   2.85618   2.86432   2.88170
 Alpha virt. eigenvalues --    2.88708   2.90589   2.93044   2.95201   2.96104
 Alpha virt. eigenvalues --    2.99201   3.00694   3.03072   3.06138   3.10569
 Alpha virt. eigenvalues --    3.14793   3.18869   3.24210   3.26845   3.29477
 Alpha virt. eigenvalues --    3.34511   3.37658   3.39155   3.41241   3.42144
 Alpha virt. eigenvalues --    3.44377   3.45278   3.47427   3.49043   3.53305
 Alpha virt. eigenvalues --    3.53760   3.56973   3.60036   3.64168   3.66898
 Alpha virt. eigenvalues --    3.69373   3.71339   3.79861   3.85588   3.91429
 Alpha virt. eigenvalues --    4.00279   4.05157   4.06165   4.19418   4.37500
 Alpha virt. eigenvalues --    4.92311
          Condensed to atoms (all electrons):
               1          2          3          4          5          6
     1  N   15.346607  -5.616953  -0.607856  -0.668892  -0.505861   1.984531
     2  C   -5.616953  25.456299  -3.024355   0.594480  -0.518295  -7.361950
     3  C   -0.607856  -3.024355   9.709013  -0.978486   0.943931   0.781326
     4  C   -0.668892   0.594480  -0.978486   6.457761   0.074583   0.021287
     5  C   -0.505861  -0.518295   0.943931   0.074583   6.370207  -0.361152
     6  C    1.984531  -7.361950   0.781326   0.021287  -0.361152  24.594662
     7  C    0.090087  -1.845447  -1.055414  -0.072164  -0.433753  -4.792465
     8  N   -0.087646   0.600228   0.101211   0.007012   0.057554   0.163314
     9  C    0.034628  -0.352356  -0.062479   0.025095  -0.056629  -1.061574
    10  C    0.079984  -0.202041  -0.124481  -0.023849   0.013442   0.804596
    11  C   -0.765801  -0.841400  -0.225166  -0.042900  -0.029529 -10.974160
    12  O   -0.001016   0.003996  -0.003138  -0.001502  -0.000078  -0.097402
    13  O   -0.111746   0.070474   0.034206   0.029712   0.033061   0.059039
    14  H   -1.006953   0.535423   0.186479   0.061693  -0.161551  -0.236913
    15  H   -0.100334   0.233031   0.160963  -0.364230   0.113365  -0.063121
    16  H    0.223377  -0.145560   0.229482  -0.343725  -0.154091   0.088355
    17  H    0.421799   0.121222  -1.063482   0.078339  -0.292510   0.389134
    18  H   -0.059536   0.356296  -0.311659   0.379027   0.137346  -0.392432
    19  H   -0.182417   0.066812  -0.086057   0.071532  -0.266415   0.157265
    20  H    0.020931  -2.532593   0.620657   0.037826  -0.036271   0.841364
    21  H   -0.260150   0.093050  -0.260398  -0.005838   0.025274  -0.832661
    22  H    0.007946  -0.013817   0.003553   0.000638  -0.000999  -0.077718
    23  H   -0.004372   0.066992   0.006204   0.000894  -0.000460   0.110150
    24  H    0.017873   0.008031  -0.059619  -0.013961   0.004448   1.319386
    25  C    1.001055  -0.784869  -0.335620   0.036365  -0.306934   0.507862
    26  H   -0.006986   0.018293  -0.023071  -0.002299  -0.007226  -0.398598
    27  H    0.052506   0.007853   0.215450  -0.220774  -0.164479  -0.027223
    28  H   -0.068423   0.033307  -0.016053   0.042464   0.039252  -0.008124
    29  H   -0.000268   0.009945   0.002590   0.001269  -0.000688  -0.012310
    30  H    0.000289  -0.001722   0.000074  -0.000050   0.000204   0.005438
    31  O   -0.005652  -0.033763   0.032337  -0.014840   0.006232   0.025873
    32  H    0.006786   0.003780  -0.006966   0.003273   0.000043  -0.001505
    33  H   -0.002773  -0.032239   0.023910  -0.025518   0.003642   0.016279
    34  H   -0.394278   0.090118  -0.075564   0.061921  -0.030352   0.064960
    35  H    0.339191   0.104312   0.115436  -0.045438   0.068126  -0.157254
    36  H   -0.755022   0.040128  -0.059704   0.033196  -0.034076   0.154226
    37  O   -0.005169   0.000488   0.001324  -0.001206   0.002607  -0.001541
    38  H    0.004047  -0.000979   0.000351  -0.000543  -0.001706   0.000065
    39  H   -0.004121   0.000479   0.000183  -0.000610   0.001949  -0.000098
               7          8          9         10         11         12
     1  N    0.090087  -0.087646   0.034628   0.079984  -0.765801  -0.001016
     2  C   -1.845447   0.600228  -0.352356  -0.202041  -0.841400   0.003996
     3  C   -1.055414   0.101211  -0.062479  -0.124481  -0.225166  -0.003138
     4  C   -0.072164   0.007012   0.025095  -0.023849  -0.042900  -0.001502
     5  C   -0.433753   0.057554  -0.056629   0.013442  -0.029529  -0.000078
     6  C   -4.792465   0.163314  -1.061574   0.804596 -10.974160  -0.097402
     7  C   17.456380  -1.059271  -1.480570   0.340793  -1.655013   0.018903
     8  N   -1.059271   7.622273   0.404311  -0.159195  -0.223343  -0.146963
     9  C   -1.480570   0.404311   9.920554  -2.391238   1.467321   0.044517
    10  C    0.340793  -0.159195  -2.391238  11.523595  -4.119258  -0.031025
    11  C   -1.655013  -0.223343   1.467321  -4.119258  24.283157   0.045831
    12  O    0.018903  -0.146963   0.044517  -0.031025   0.045831   7.869662
    13  O   -0.122565   0.022535   0.006277  -0.004240  -0.025446   0.001558
    14  H   -0.039287   0.003497  -0.004516   0.001255   0.020589  -0.000043
    15  H    0.019988   0.001052   0.001429   0.001534   0.016948  -0.000112
    16  H    0.007201  -0.004889  -0.001776  -0.002638  -0.012703   0.000186
    17  H    0.252431  -0.025111  -0.005784   0.004809  -0.013469   0.000352
    18  H   -0.314810   0.080030   0.028428  -0.042140   0.013522  -0.003421
    19  H    0.006784   0.001076   0.000613  -0.005429   0.009322   0.000009
    20  H   -0.182366   0.003575   0.028795   0.002192   0.002093  -0.000147
    21  H   -0.774460  -0.249332  -0.252281   0.152805  -0.073810   0.081695
    22  H    0.144779  -0.126692  -0.533838   0.104474   0.227424   0.004512
    23  H   -0.215302   0.015321   0.396263  -1.140072   0.500276  -0.000454
    24  H    0.130982  -0.062659  -0.274489   0.711909  -2.635508   0.000636
    25  C    0.113607  -0.045198  -0.044877   0.114412  -0.233488  -0.000377
    26  H    0.614025   0.015131  -0.565545  -0.009885  -0.028462  -0.016213
    27  H    0.057245   0.008735   0.044626  -0.042109  -0.023788  -0.001867
    28  H   -0.006142   0.003995  -0.003099   0.002262   0.000659   0.002164
    29  H   -0.012472   0.016730   0.003032  -0.009783   0.008784   0.350397
    30  H    0.020076  -0.010812  -0.011988   0.008187  -0.003979   0.350485
    31  O   -0.043963  -0.004491  -0.016015   0.011314  -0.001862  -0.045276
    32  H    0.013616  -0.001568  -0.000442  -0.000095  -0.000946   0.005248
    33  H   -0.003163   0.005463   0.001199   0.002214   0.001192  -0.010264
    34  H    0.000949  -0.004721  -0.006213   0.020463  -0.064059  -0.000037
    35  H   -0.080124   0.005509   0.001960  -0.016237   0.113222  -0.000110
    36  H    0.054806  -0.000368   0.001464  -0.012469   0.056665  -0.000029
    37  O    0.000715  -0.000454  -0.000352   0.000249  -0.000070  -0.000012
    38  H    0.000611  -0.000139   0.000009  -0.000017   0.000122   0.000009
    39  H   -0.000306   0.000004  -0.000068   0.000021  -0.000193  -0.000085
              13         14         15         16         17         18
     1  N   -0.111746  -1.006953  -0.100334   0.223377   0.421799  -0.059536
     2  C    0.070474   0.535423   0.233031  -0.145560   0.121222   0.356296
     3  C    0.034206   0.186479   0.160963   0.229482  -1.063482  -0.311659
     4  C    0.029712   0.061693  -0.364230  -0.343725   0.078339   0.379027
     5  C    0.033061  -0.161551   0.113365  -0.154091  -0.292510   0.137346
     6  C    0.059039  -0.236913  -0.063121   0.088355   0.389134  -0.392432
     7  C   -0.122565  -0.039287   0.019988   0.007201   0.252431  -0.314810
     8  N    0.022535   0.003497   0.001052  -0.004889  -0.025111   0.080030
     9  C    0.006277  -0.004516   0.001429  -0.001776  -0.005784   0.028428
    10  C   -0.004240   0.001255   0.001534  -0.002638   0.004809  -0.042140
    11  C   -0.025446   0.020589   0.016948  -0.012703  -0.013469   0.013522
    12  O    0.001558  -0.000043  -0.000112   0.000186   0.000352  -0.003421
    13  O    8.052474   0.026171  -0.004377   0.013178   0.000590   0.004443
    14  H    0.026171   2.871686   0.075595  -0.291965  -0.034629   0.041924
    15  H   -0.004377   0.075595   2.085297  -0.564913  -0.318707   0.150564
    16  H    0.013178  -0.291965  -0.564913   2.219214   0.232358  -0.405782
    17  H    0.000590  -0.034629  -0.318707   0.232358   2.671567  -0.780600
    18  H    0.004443   0.041924   0.150564  -0.405782  -0.780600   2.611442
    19  H    0.000273  -0.542007  -0.186837   0.192265   0.050010  -0.044430
    20  H    0.000635   0.063860   0.058806  -0.086529  -0.401121   0.250131
    21  H   -0.073939  -0.036852   0.007368   0.050753   0.104817  -0.211803
    22  H   -0.000401  -0.000186   0.000023   0.000236   0.000535  -0.001223
    23  H    0.000039   0.000159   0.000081  -0.000167  -0.001316   0.002072
    24  H   -0.001694  -0.003790  -0.000036   0.002132   0.009542  -0.013218
    25  C   -0.031714  -0.151877  -0.003240   0.019449   0.057737  -0.030960
    26  H    0.008116   0.000377   0.000144  -0.000489   0.001956  -0.012363
    27  H    0.063232   0.109008   0.017379   0.019001   0.003028  -0.008228
    28  H    0.396618   0.003257  -0.002132  -0.003920  -0.002070   0.005314
    29  H    0.002944   0.000198  -0.000395   0.000990  -0.000588   0.002770
    30  H   -0.000996   0.000007   0.000001   0.000062   0.000060  -0.000618
    31  O   -0.030393   0.000115   0.000358  -0.000781  -0.000495   0.003730
    32  H   -0.005390   0.000625   0.000462  -0.000835  -0.000578  -0.000085
    33  H    0.047444  -0.002512   0.001784  -0.000713  -0.000280   0.000378
    34  H    0.008438   0.007379  -0.000194   0.006389  -0.000901  -0.003288
    35  H    0.008438   0.012361   0.002505  -0.012382  -0.008621   0.018080
    36  H   -0.007244  -0.002136  -0.003378   0.007871   0.017622  -0.013679
    37  O   -0.080521   0.004115  -0.000009  -0.001683  -0.000129   0.000852
    38  H    0.003306  -0.000086  -0.000021   0.000054   0.000034  -0.000055
    39  H    0.010697  -0.000439  -0.000016   0.000200   0.000012  -0.000070
              19         20         21         22         23         24
     1  N   -0.182417   0.020931  -0.260150   0.007946  -0.004372   0.017873
     2  C    0.066812  -2.532593   0.093050  -0.013817   0.066992   0.008031
     3  C   -0.086057   0.620657  -0.260398   0.003553   0.006204  -0.059619
     4  C    0.071532   0.037826  -0.005838   0.000638   0.000894  -0.013961
     5  C   -0.266415  -0.036271   0.025274  -0.000999  -0.000460   0.004448
     6  C    0.157265   0.841364  -0.832661  -0.077718   0.110150   1.319386
     7  C    0.006784  -0.182366  -0.774460   0.144779  -0.215302   0.130982
     8  N    0.001076   0.003575  -0.249332  -0.126692   0.015321  -0.062659
     9  C    0.000613   0.028795  -0.252281  -0.533838   0.396263  -0.274489
    10  C   -0.005429   0.002192   0.152805   0.104474  -1.140072   0.711909
    11  C    0.009322   0.002093  -0.073810   0.227424   0.500276  -2.635508
    12  O    0.000009  -0.000147   0.081695   0.004512  -0.000454   0.000636
    13  O    0.000273   0.000635  -0.073939  -0.000401   0.000039  -0.001694
    14  H   -0.542007   0.063860  -0.036852  -0.000186   0.000159  -0.003790
    15  H   -0.186837   0.058806   0.007368   0.000023   0.000081  -0.000036
    16  H    0.192265  -0.086529   0.050753   0.000236  -0.000167   0.002132
    17  H    0.050010  -0.401121   0.104817   0.000535  -0.001316   0.009542
    18  H   -0.044430   0.250131  -0.211803  -0.001223   0.002072  -0.013218
    19  H    2.224844  -0.080924   0.016922   0.000123  -0.000438   0.003462
    20  H   -0.080924   3.358219  -0.068788  -0.000264   0.005684  -0.153376
    21  H    0.016922  -0.068788   5.074453   0.036772  -0.021224  -0.008359
    22  H    0.000123  -0.000264   0.036772   2.246493  -0.113247  -0.008648
    23  H   -0.000438   0.005684  -0.021224  -0.113247   2.104960  -0.136990
    24  H    0.003462  -0.153376  -0.008359  -0.008648  -0.136990   3.001918
    25  C   -0.032342   0.011727   0.032702   0.002833  -0.009589   0.065522
    26  H   -0.000387   0.000053  -0.120363  -0.236939   0.014590   0.005540
    27  H   -0.003880   0.015766  -0.187656  -0.003812   0.003291  -0.000390
    28  H    0.000102   0.000549   0.029185   0.000165  -0.000072  -0.000108
    29  H    0.000153   0.000602  -0.028848   0.000563   0.000429  -0.000402
    30  H   -0.000002  -0.000111   0.005233   0.003698  -0.000345   0.000032
    31  O    0.000065   0.001282  -0.043393   0.000679   0.000223  -0.000305
    32  H   -0.000503   0.000080  -0.000329  -0.000275   0.000019   0.000024
    33  H    0.001027   0.000401  -0.023070   0.000311  -0.000169   0.000030
    34  H   -0.005795   0.022634   0.010514   0.000330  -0.001115   0.003851
    35  H   -0.002880   0.007029  -0.007447  -0.002200  -0.001012  -0.034369
    36  H    0.083972   0.020553   0.016950   0.000234  -0.000271   0.016272
    37  O    0.000179   0.000387  -0.004626  -0.000039   0.000008  -0.000057
    38  H   -0.000086  -0.000113   0.000344   0.000001  -0.000001   0.000020
    39  H    0.000225  -0.000026   0.000142  -0.000000   0.000000  -0.000005
              25         26         27         28         29         30
     1  N    1.001055  -0.006986   0.052506  -0.068423  -0.000268   0.000289
     2  C   -0.784869   0.018293   0.007853   0.033307   0.009945  -0.001722
     3  C   -0.335620  -0.023071   0.215450  -0.016053   0.002590   0.000074
     4  C    0.036365  -0.002299  -0.220774   0.042464   0.001269  -0.000050
     5  C   -0.306934  -0.007226  -0.164479   0.039252  -0.000688   0.000204
     6  C    0.507862  -0.398598  -0.027223  -0.008124  -0.012310   0.005438
     7  C    0.113607   0.614025   0.057245  -0.006142  -0.012472   0.020076
     8  N   -0.045198   0.015131   0.008735   0.003995   0.016730  -0.010812
     9  C   -0.044877  -0.565545   0.044626  -0.003099   0.003032  -0.011988
    10  C    0.114412  -0.009885  -0.042109   0.002262  -0.009783   0.008187
    11  C   -0.233488  -0.028462  -0.023788   0.000659   0.008784  -0.003979
    12  O   -0.000377  -0.016213  -0.001867   0.002164   0.350397   0.350485
    13  O   -0.031714   0.008116   0.063232   0.396618   0.002944  -0.000996
    14  H   -0.151877   0.000377   0.109008   0.003257   0.000198   0.000007
    15  H   -0.003240   0.000144   0.017379  -0.002132  -0.000395   0.000001
    16  H    0.019449  -0.000489   0.019001  -0.003920   0.000990   0.000062
    17  H    0.057737   0.001956   0.003028  -0.002070  -0.000588   0.000060
    18  H   -0.030960  -0.012363  -0.008228   0.005314   0.002770  -0.000618
    19  H   -0.032342  -0.000387  -0.003880   0.000102   0.000153  -0.000002
    20  H    0.011727   0.000053   0.015766   0.000549   0.000602  -0.000111
    21  H    0.032702  -0.120363  -0.187656   0.029185  -0.028848   0.005233
    22  H    0.002833  -0.236939  -0.003812   0.000165   0.000563   0.003698
    23  H   -0.009589   0.014590   0.003291  -0.000072   0.000429  -0.000345
    24  H    0.065522   0.005540  -0.000390  -0.000108  -0.000402   0.000032
    25  C    4.663569  -0.003990  -0.099250  -0.009298  -0.001052   0.000341
    26  H   -0.003990   1.617209   0.013501  -0.002937  -0.005034  -0.004790
    27  H   -0.099250   0.013501   1.004878  -0.325064   0.006810  -0.001933
    28  H   -0.009298  -0.002937  -0.325064   0.733590  -0.001500   0.000449
    29  H   -0.001052  -0.005034   0.006810  -0.001500   0.548304  -0.115264
    30  H    0.000341  -0.004790  -0.001933   0.000449  -0.115264   0.595038
    31  O   -0.003799  -0.001567   0.004494   0.015371   0.027873  -0.002830
    32  H    0.000441   0.001865  -0.005624   0.003439  -0.000745  -0.000381
    33  H    0.001717  -0.000615   0.038984  -0.030514  -0.005961   0.001273
    34  H    0.292885  -0.001319   0.035651  -0.001567  -0.000013   0.000055
    35  H   -0.098831   0.003792  -0.012801   0.004133  -0.000110   0.000014
    36  H    0.256684  -0.000168  -0.031139   0.003867  -0.000203   0.000018
    37  O   -0.008463   0.000497   0.027446  -0.044290   0.000078  -0.000048
    38  H    0.000929   0.000029  -0.000826   0.003739   0.000006  -0.000003
    39  H   -0.000466  -0.000013   0.001744  -0.007728  -0.000024   0.000002
              31         32         33         34         35         36
     1  N   -0.005652   0.006786  -0.002773  -0.394278   0.339191  -0.755022
     2  C   -0.033763   0.003780  -0.032239   0.090118   0.104312   0.040128
     3  C    0.032337  -0.006966   0.023910  -0.075564   0.115436  -0.059704
     4  C   -0.014840   0.003273  -0.025518   0.061921  -0.045438   0.033196
     5  C    0.006232   0.000043   0.003642  -0.030352   0.068126  -0.034076
     6  C    0.025873  -0.001505   0.016279   0.064960  -0.157254   0.154226
     7  C   -0.043963   0.013616  -0.003163   0.000949  -0.080124   0.054806
     8  N   -0.004491  -0.001568   0.005463  -0.004721   0.005509  -0.000368
     9  C   -0.016015  -0.000442   0.001199  -0.006213   0.001960   0.001464
    10  C    0.011314  -0.000095   0.002214   0.020463  -0.016237  -0.012469
    11  C   -0.001862  -0.000946   0.001192  -0.064059   0.113222   0.056665
    12  O   -0.045276   0.005248  -0.010264  -0.000037  -0.000110  -0.000029
    13  O   -0.030393  -0.005390   0.047444   0.008438   0.008438  -0.007244
    14  H    0.000115   0.000625  -0.002512   0.007379   0.012361  -0.002136
    15  H    0.000358   0.000462   0.001784  -0.000194   0.002505  -0.003378
    16  H   -0.000781  -0.000835  -0.000713   0.006389  -0.012382   0.007871
    17  H   -0.000495  -0.000578  -0.000280  -0.000901  -0.008621   0.017622
    18  H    0.003730  -0.000085   0.000378  -0.003288   0.018080  -0.013679
    19  H    0.000065  -0.000503   0.001027  -0.005795  -0.002880   0.083972
    20  H    0.001282   0.000080   0.000401   0.022634   0.007029   0.020553
    21  H   -0.043393  -0.000329  -0.023070   0.010514  -0.007447   0.016950
    22  H    0.000679  -0.000275   0.000311   0.000330  -0.002200   0.000234
    23  H    0.000223   0.000019  -0.000169  -0.001115  -0.001012  -0.000271
    24  H   -0.000305   0.000024   0.000030   0.003851  -0.034369   0.016272
    25  C   -0.003799   0.000441   0.001717   0.292885  -0.098831   0.256684
    26  H   -0.001567   0.001865  -0.000615  -0.001319   0.003792  -0.000168
    27  H    0.004494  -0.005624   0.038984   0.035651  -0.012801  -0.031139
    28  H    0.015371   0.003439  -0.030514  -0.001567   0.004133   0.003867
    29  H    0.027873  -0.000745  -0.005961  -0.000013  -0.000110  -0.000203
    30  H   -0.002830  -0.000381   0.001273   0.000055   0.000014   0.000018
    31  O    7.996837   0.315699   0.310925   0.000210  -0.000120  -0.000211
    32  H    0.315699   0.599320  -0.132602  -0.000099  -0.000024   0.000051
    33  H    0.310925  -0.132602   0.536717  -0.000082   0.000502  -0.000076
    34  H    0.000210  -0.000099  -0.000082   2.161446  -0.607485  -0.380317
    35  H   -0.000120  -0.000024   0.000502  -0.607485   1.957922  -0.495256
    36  H   -0.000211   0.000051  -0.000076  -0.380317  -0.495256   2.247223
    37  O   -0.000616  -0.001081   0.010422  -0.006100   0.006378  -0.002785
    38  H   -0.000025  -0.000001  -0.000613  -0.000334   0.000450  -0.000072
    39  H   -0.000131  -0.000046   0.000114  -0.000233  -0.000383  -0.000006
              37         38         39
     1  N   -0.005169   0.004047  -0.004121
     2  C    0.000488  -0.000979   0.000479
     3  C    0.001324   0.000351   0.000183
     4  C   -0.001206  -0.000543  -0.000610
     5  C    0.002607  -0.001706   0.001949
     6  C   -0.001541   0.000065  -0.000098
     7  C    0.000715   0.000611  -0.000306
     8  N   -0.000454  -0.000139   0.000004
     9  C   -0.000352   0.000009  -0.000068
    10  C    0.000249  -0.000017   0.000021
    11  C   -0.000070   0.000122  -0.000193
    12  O   -0.000012   0.000009  -0.000085
    13  O   -0.080521   0.003306   0.010697
    14  H    0.004115  -0.000086  -0.000439
    15  H   -0.000009  -0.000021  -0.000016
    16  H   -0.001683   0.000054   0.000200
    17  H   -0.000129   0.000034   0.000012
    18  H    0.000852  -0.000055  -0.000070
    19  H    0.000179  -0.000086   0.000225
    20  H    0.000387  -0.000113  -0.000026
    21  H   -0.004626   0.000344   0.000142
    22  H   -0.000039   0.000001  -0.000000
    23  H    0.000008  -0.000001   0.000000
    24  H   -0.000057   0.000020  -0.000005
    25  C   -0.008463   0.000929  -0.000466
    26  H    0.000497   0.000029  -0.000013
    27  H    0.027446  -0.000826   0.001744
    28  H   -0.044290   0.003739  -0.007728
    29  H    0.000078   0.000006  -0.000024
    30  H   -0.000048  -0.000003   0.000002
    31  O   -0.000616  -0.000025  -0.000131
    32  H   -0.001081  -0.000001  -0.000046
    33  H    0.010422  -0.000613   0.000114
    34  H   -0.006100  -0.000334  -0.000233
    35  H    0.006378   0.000450  -0.000383
    36  H   -0.002785  -0.000072  -0.000006
    37  O    7.793496   0.324528   0.353204
    38  H    0.324528   0.551863  -0.069630
    39  H    0.353204  -0.069630   0.555963
 Mulliken charges:
               1
     1  N   -1.409412
     2  C    0.793302
     3  C    1.210888
     4  C    0.808458
     5  C    1.467790
     6  C    0.769088
     7  C    0.845079
     8  N    0.074297
     9  C    0.715611
    10  C    0.435694
    11  C    1.227227
    12  O   -0.420592
    13  O   -0.403231
    14  H   -0.510032
    15  H   -0.336626
    16  H   -0.277213
    17  H   -0.467563
    18  H   -0.435947
    19  H   -0.446204
    20  H   -0.833200
    21  H   -1.193351
    22  H   -0.666025
    23  H   -0.581039
    24  H   -0.893628
    25  C    1.056397
    26  H    0.134144
    27  H    0.410216
    28  H    0.209157
    29  H    0.211196
    30  H    0.164835
    31  O   -0.503085
    32  H    0.205356
    33  H    0.265237
    34  H   -0.204128
    35  H   -0.186274
    36  H   -0.213195
    37  O   -0.367721
    38  H    0.184734
    39  H    0.159758
 Sum of Mulliken charges =   1.00000
 Mulliken charges with hydrogens summed into heavy atoms:
               1
     1  N   -1.409412
     2  C   -0.039898
     3  C    0.307379
     4  C    0.194619
     5  C    0.511554
     6  C    0.769088
     7  C   -0.348272
     8  N    0.208441
     9  C    0.049587
    10  C   -0.145345
    11  C    0.333599
    12  O   -0.044561
    13  O    0.216142
    25  C    0.452801
    31  O   -0.032492
    37  O   -0.023230
 Electronic spatial extent (au):  <R**2>=           4629.7250
 Charge=              1.0000 electrons
 Dipole moment (field-independent basis, Debye):
    X=             -1.7913    Y=              0.6630    Z=             -3.1313  Tot=              3.6679
 Quadrupole moment (field-independent basis, Debye-Ang):
   XX=            -50.7514   YY=            -60.5138   ZZ=            -78.4200
   XY=              7.8359   XZ=              2.4407   YZ=             -2.0625
[...]
 41,0.00017059,-0.00018318,-0.01245324,-0.01176043,-0.00329791,0.008435
 55,0.00994921,0.00201468,0.13227780,0.19794107,0.02100971,0.02786085,-
 0.00406375,0.00090387,0.00543202,0.00394249,-0.00033166,-0.00025648,0.
 00022385,-0.00015822,-0.00022374,0.00005077,0.00392614,-0.00018951,0.0
 0161334,-0.00012537,-0.00053307,-0.00024265,0.00003638,0.00014835,-0.0
 0005175,-0.00006982,-0.00003506,-0.00000613,0.00004309,-0.00007870,-0.
 00001597,0.00006584,-0.00000238,0.00001655,-0.00000926,-0.00000402,0.0
 0005997,-0.00001639,-0.00001303,0.00002408,0.00034707,0.00026304,0.001
 00319,-0.00039082,-0.00003602,-0.00025811,-0.00005905,-0.00009341,-0.0
 0007545,-0.00005678,-0.00011908,0.00002537,-0.00006183,-0.00002745,-0.
 00006077,0.00000348,-0.00007349,0.00009697,-0.00087776,-0.00125241,0.0
 0019541,-0.00111818,-0.00164567,0.00033708,-0.00007840,-0.00003238,0.0
 0000187,0.00000132,-0.00000632,0.00000463,0.00000305,-0.00000572,0.000
 00146,-0.00000390,-0.00001166,0.00001862,-0.03493013,-0.03959362,-0.06
 056708,0.00000047,0.00001984,-0.00000946,-0.00053070,-0.00033424,-0.00
 150087,0.00016272,0.00030093,-0.00013479,0.00000273,0.00000176,-0.0000
 1207,0.00001110,0.00000465,-0.00000945,-0.00001926,-0.00001168,0.00008
 302,-0.00000889,-0.00000006,-0.00001151,0.00006064,0.00004611,-0.00011
 751,-0.01611796,-0.01520207,-0.00321645,-0.00414288,-0.00684365,-0.001
 63815,0.03256385,0.03269680,0.06423086,0.00098203,0.00078765,0.0003072
 3,0.00002764,-0.00010271,-0.00015830,0.00001377,0.00000756,-0.00009077
 ,0.00002477,-0.00022502,0.00007344,-0.00068429,0.00066203,0.00012635,-
 0.00012259,0.00017996,-0.00003887,-0.00011610,-0.00022508,-0.00000775,
 0.00018196,0.00013784,0.00005864,0.00006863,-0.00000199,-0.00002086,-0
 .00007317,-0.00000352,-0.00000127,0.00010303,-0.00011640,-0.00000596,-
 0.00024639,0.00019874,0.00017889,0.00024664,0.00302752,0.00853905,0.00
 000199,-0.00018219,0.00002725,0.00003694,0.00003222,0.00003573,-0.0000
 4295,0.00008410,-0.00003756,0.00002405,0.00000247,0.00000311,0.0000438
 7,-0.00002589,-0.00006236,0.00017959,-0.00001840,0.00000269,0.00001020
 ,0.00008951,0.00007023,0.00004603,-0.00014047,-0.00019308,0.00000755,-
 0.00000328,-0.00001541,0.00000300,-0.00000509,0.00000094,-0.00000225,0
 .00001558,-0.00000047,-0.00017242,-0.00003830,0.00051903,-0.00005017,-
 0.00024524,-0.00008446,-0.00231648,-0.00165433,-0.00014906,-0.00591876
 ,-0.00016250,-0.00365842,0.00035262,-0.00013988,-0.00012130,0.00010548
 ,0.00001567,-0.00007547,-0.00061916,-0.00033285,0.00104075,-0.00011594
 ,0.00007842,-0.00012880,0.00090451,0.00086195,-0.00134086,-0.00025842,
 0.00003173,-0.00008896,0.00009403,-0.00016492,-0.00008170,0.00009439,0
 .00010039,0.00001294,0.24558995,-0.00004743,-0.00009572,-0.00032682,-0
 .00018660,0.00019052,0.00011312,0.00004718,-0.00000444,-0.00001765,-0.
 00004605,-0.00006249,-0.00001501,0.00027432,-0.00008156,0.00003972,-0.
 00006117,0.00000378,-0.00002780,-0.00002299,0.00000996,0.00000827,0.00
 008017,0.00010827,-0.00001569,-0.00001051,-0.00006449,0.00002564,0.000
 04516,0.00004608,-0.00000862,-0.00001780,0.00003000,-0.00000009,0.0000
 7723,0.00018939,-0.00001132,0.00245890,0.00241767,-0.00555172,-0.00000
 736,-0.00016957,0.00004348,-0.00001524,0.00000347,-0.00004654,0.000059
 97,0.00001195,-0.00000884,-0.00001534,0.00001258,-0.00001960,0.0000143
 0,0.00001090,-0.00002237,-0.00003411,0.00002986,0.00001969,0.00000650,
 -0.00002957,-0.00000710,-0.00005011,-0.00006015,0.00007555,-0.00001064
 ,-0.00000208,0.00000743,-0.00000183,0.00000469,0.00001066,-0.00000828,
 0.00002272,0.00001935,-0.00030541,0.00016726,0.00071744,-0.00013904,-0
 .00023337,0.00001120,-0.00001666,0.00004512,0.00046865,0.00154411,-0.0
 0547609,0.00292781,0.00000552,-0.00008132,-0.00000728,-0.00001293,-0.0
 0004059,-0.00000750,0.00037183,0.00062463,-0.00030379,0.00008362,-0.00
 010951,-0.00016163,-0.00054863,-0.00088040,0.00045667,0.00037721,0.000
 10296,-0.00004887,-0.00003295,0.00009543,-0.00001396,0.00005437,-0.000
 09536,-0.00025066,-0.28929459,0.42432241,-0.00065129,-0.00094584,-0.00
 033554,-0.00013052,0.00011522,0.00031996,-0.00000313,0.00001817,0.0000
 1807,0.00009279,0.00005199,0.00005009,0.00010188,0.00027157,0.00032721
 ,-0.00007124,-0.00026091,0.00000138,0.00010893,0.00034291,-0.00002476,
 -0.00008783,-0.00000998,-0.00003564,-0.00004447,-0.00013474,0.00002045
 ,0.00017839,0.00004645,0.00003187,-0.00011744,0.00016365,-0.00000440,0
 .00043457,-0.00014284,-0.00000805,0.00692953,-0.00583422,-0.00827171,0
 .00025816,0.00003166,-0.00003742,-0.00003597,-0.00004906,-0.00002794,-
 0.00002535,-0.00008958,0.00011308,-0.00000650,-0.00004645,-0.00001497,
 0.00001973,0.00000889,0.00002493,-0.00007338,-0.00016642,-0.00011324,-
 0.00000619,-0.00014135,-0.00009552,-0.00011238,0.00011649,0.00020694,-
 0.00000717,-0.00000416,-0.00000549,0.00000773,0.00000139,-0.00001172,-
 0.00001471,0.00000669,-0.00000808,0.00018309,0.00030141,-0.00044525,-0
 .00008514,0.00003026,0.00001167,0.00168085,0.00204544,0.00044031,-0.00
 123693,0.00426932,-0.00384055,-0.00057839,0.00020384,0.00002173,-0.000
 09212,-0.00001723,-0.00003399,0.00107049,0.00052316,-0.00100273,-0.000
 03039,-0.00012105,0.00005746,-0.00132099,-0.00118809,0.00147507,-0.000
 05842,0.00010264,-0.00024910,0.00006138,-0.00003618,-0.00003026,-0.000
 07760,-0.00013001,0.00003475,0.14986118,-0.02700709,0.53321521,-0.0002
 3411,-0.00011838,-0.00007700,-0.00001214,0.00003940,0.00000350,-0.0000
 0384,-0.00000582,0.00001365,-0.00000326,0.00007555,-0.00002213,0.00021
 720,-0.00021252,-0.00006514,0.00003568,-0.00003421,0.00000903,0.000022
 73,0.00002969,0.00000806,-0.00005026,-0.00005400,-0.00001956,-0.000018
 15,0.00001619,0.00000592,0.00000434,-0.00000282,-0.00000524,-0.0000192
 7,0.00001743,0.00000123,0.00005138,-0.00009103,-0.00005005,-0.00013054
 ,-0.00071532,0.00013001,0.00006735,0.00003367,0.00000769,-0.00001192,-
 0.00001048,-0.00002374,0.00001107,-0.00001738,0.00001146,-0.00000588,0
 .00000152,-0.00000245,-0.00001787,0.00001073,0.00001504,-0.00004449,-0
 .00000558,0.00000029,-0.00000050,-0.00001564,-0.00000886,0.00000740,0.
 00004532,0.00002179,-0.00000078,0.00000272,0.00000483,-0.00000166,0.00
 000143,0.00000121,0.00000125,-0.00000307,0.00000339,-0.00001622,0.0000
 1225,0.00000753,0.00003996,0.00010602,0.00002138,0.00025365,0.00023843
 ,0.00031257,-0.00072153,0.00183251,-0.00046710,-0.00009172,0.00005658,
 0.00003603,-0.00002839,0.00000690,0.00002654,0.00003854,-0.00013141,-0
 .00020380,0.00000112,0.00001449,0.00011555,-0.00005349,0.00011499,0.00
 021512,0.00012018,0.00007273,0.00004003,-0.00003062,0.00003614,0.00000
 746,-0.00000434,-0.00005122,-0.00005070,-0.16239056,0.23685444,-0.0088
 1159,0.17123747,-0.00003774,0.00005781,0.00010737,0.00004534,-0.000029
 45,-0.00005657,-0.00001565,-0.00001350,0.00002028,-0.00000592,0.000074
 33,-0.00001984,0.00008980,-0.00017046,-0.00009401,0.00003240,0.0000046
 6,0.00001876,0.00000444,-0.00000306,-0.00000502,-0.00003475,-0.0000406
 2,0.00001187,-0.00000024,0.00002436,-0.00001119,-0.00001779,-0.0000143
 6,0.00000418,-0.00000066,-0.00000862,-0.00000209,-0.00002046,-0.000075
 34,0.00001564,-0.00051980,0.00040286,0.00117901,-0.00003514,0.00006134
 ,-0.00004677,0.00000629,0.00000470,0.00001460,-0.00001683,-0.00000483,
 -0.00000655,0.00000115,0.00000343,0.00000571,-0.00001810,0.00000591,0.
 00001135,-0.00001459,0.00002856,0.00002829,-0.00000130,0.00001315,0.00
 000830,0.00001680,0.00002959,-0.00001804,0.00000371,0.00000065,-0.0000
 0258,-0.00000044,-0.00000129,-0.00000361,0.00000356,-0.00000735,-0.000
 00385,0.00000261,-0.00004674,-0.00006346,0.00004879,0.00008289,-0.0000
 0498,0.00002394,-0.00006182,0.00008652,0.00053021,-0.00079324,-0.00176
 926,-0.00001786,0.00003992,-0.00000760,0.00000789,0.00001525,-0.000004
 53,-0.00007187,-0.00018116,0.00006880,-0.00001965,0.00005417,0.0000475
 1,0.00012656,0.00020665,-0.00014463,0.00006185,-0.00000633,0.00002700,
 -0.00003647,0.00001547,0.00000464,0.00000556,-0.00000550,-0.00000078,0
 .25135105,-0.38015689,-0.00114205,-0.25328973,0.38678653,-0.00013785,0
 .00000710,-0.00007558,-0.00002578,0.00002540,-0.00001695,0.00001297,0.
 00000089,0.00001310,-0.00005368,0.00000097,-0.00003691,0.00024054,-0.0
 0028900,-0.00012390,0.00004353,0.00002503,0.00000820,-0.00000888,-0.00
 000880,-0.00000455,-0.00000246,-0.00000011,-0.00000585,-0.00000389,0.0
 0000891,0.00000579,-0.00001113,-0.00000431,-0.00000426,-0.00000942,-0.
 00000654,0.00000027,-0.00005595,0.00004155,-0.00002076,0.00075634,0.00
 052770,-0.00275625,-0.00007250,-0.00005898,0.00006256,-0.00000582,0.00
 000222,-0.00001810,0.00006047,0.00000854,-0.00003701,-0.00001055,0.000
 02379,0.00000203,-0.00001531,0.00000420,0.00000471,-0.00004135,0.00008
 720,0.00004550,0.00000306,0.00000535,-0.00000429,0.00000331,-0.0000161
 0,0.00002374,0.00000065,-0.00000106,0.00000273,-0.00000248,0.00000062,
 0.00000254,0.00000357,-0.00000455,0.00000347,-0.00006240,-0.00001428,0
 .00011293,-0.00000120,-0.00001227,0.00000918,0.00017177,0.00002635,0.0
 0020948,-0.00085788,-0.00196188,0.00401058,0.00008574,-0.00004883,0.00
 001285,0.00000977,-0.00000410,0.00001192,-0.00002623,0.00021520,-0.000
 12619,0.00011005,-0.00001456,-0.00006778,-0.00006435,-0.00033345,0.000
 17325,0.00009852,0.00003121,0.00002384,-0.00001932,0.00003603,-0.00000
 356,0.00001018,-0.00001036,-0.00003619,0.02209087,-0.04740505,-0.04829
 100,0.00417883,0.00967124,0.04723464,-0.00009972,0.00002988,0.00007346
 ,0.00005525,-0.00002837,-0.00001006,-0.00000446,0.00000184,0.00001939,
 -0.00001005,0.00001084,-0.00001892,0.00003903,-0.00004741,-0.00000947,
 0.00005250,-0.00000546,0.00000655,0.00003033,-0.00001627,0.00002284,-0
 .00005076,-0.00006143,-0.00001862,-0.00001368,0.00005274,-0.00000101,-
 0.00003014,-0.00001108,-0.00000669,0.00000742,0.00000334,0.00000335,-0
 .00003277,-0.00003328,-0.00010427,-0.00211647,0.00105284,0.00103843,0.
 00000137,0.00003167,0.00001316,-0.00000254,0.00000264,-0.00000081,0.00
 000413,-0.00000471,-0.00000311,-0.00000332,0.00000226,0.00000192,-0.00
 000974,-0.00000120,0.00001214,-0.00001649,-0.00001060,-0.00000900,-0.0
 0000717,0.00000446,-0.00000030,0.00001788,0.00001552,0.00000155,-0.000
 00299,0.00000547,0.00001183,-0.00000143,0.00000295,0.00000322,0.000003
 68,-0.00000579,-0.00000027,0.00008543,-0.00007850,-0.00012618,0.000052
 89,0.00010253,0.00004326,0.00004939,0.00008455,-0.00001917,0.00361100,
 -0.00188195,-0.00027835,0.00004838,-0.00001526,0.00005969,-0.00002738,
 -0.00000617,0.00006144,-0.00013598,-0.00007220,-0.00005095,0.00002973,
 0.00000079,0.00004011,0.00013786,0.00011195,0.00000197,0.00002091,-0.0
 0003026,-0.00004573,-0.00003127,0.00005385,0.00003626,-0.00002768,0.00
 000342,0.00000355,-0.07601302,0.04853086,-0.14730955,-0.00821774,0.001
 81306,-0.02639177,0.08260765,-0.00006600,-0.00014075,0.00010630,0.0000
 4134,-0.00006968,0.00000886,-0.00001122,0.00001567,0.00000116,0.000032
 66,-0.00000501,0.00002043,-0.00011894,0.00013962,0.00007266,-0.0000007
 6,-0.00004592,0.00000549,0.00003009,0.00005935,-0.00000841,-0.00004760
 ,-0.00005402,-0.00000392,0.00000330,0.00000348,-0.00000320,0.00001225,
 -0.00001347,0.00001014,-0.00001256,0.00001294,0.00000242,0.00002231,-0
 .00011186,0.00000274,0.00095167,-0.00091621,-0.00066265,0.00007131,0.0
 0001479,0.00002368,-0.00000039,-0.00001062,0.00000872,-0.00001323,-0.0
 0001771,0.00001551,0.00000443,-0.00001086,0.00000607,0.00000118,-0.000
 00565,0.00001024,0.00000359,-0.00004488,-0.00003609,-0.00000206,-0.000
 01779,-0.00002193,-0.00000254,0.00004641,0.00000702,0.00000551,0.00000
 021,-0.00000765,0.00000387,-0.00000319,-0.00000946,-0.00000013,-0.0000
 0851,-0.00001386,0.00011984,0.00002554,-0.00031418,0.00005374,0.000117
 99,-0.00000622,0.00000659,0.00046730,0.00008976,-0.00183010,0.00087809
 ,0.00091992,-0.00008074,0.00006278,0.00000928,-0.00000654,0.00002085,0
 .00000104,0.00004608,-0.00007407,-0.00010710,0.00000688,0.00002233,0.0
 0003969,-0.00003345,-0.00000794,0.00012356,-0.00019504,0.00009397,-0.0
 0013638,0.00007683,-0.00009383,-0.00005016,-0.00002241,-0.00000419,0.0
 0010200,0.03541826,-0.04080607,0.02881609,0.01513950,-0.00629168,0.039
 44474,-0.04960751,0.04677259,0.00006333,0.00014379,0.00009219,0.000040
 23,-0.00004991,-0.00004963,-0.00000668,0.00000165,0.00000178,-0.000008
 67,-0.00000432,0.00000525,-0.00005031,-0.00002009,-0.00001791,0.000024
 13,0.00004064,0.00000284,-0.00002069,-0.00003125,-0.00001617,0.0000130
 2,0.00000547,0.00001325,0.00001443,0.00001295,-0.00000414,-0.00002552,
 -0.00001332,-0.00000424,0.00001497,-0.00002872,0.00000313,-0.00008302,
 0.00003549,0.00002568,0.00079526,0.00002420,0.00060649,0.00000953,0.00
 001491,0.00001771,0.00000505,0.00000336,0.00000492,0.00000045,0.000010
 94,-0.00000642,0.00000257,0.00000686,0.00000604,-0.00000459,-0.0000041
 1,0.00000108,0.00001339,0.00001470,0.00000509,0.00000140,0.00002448,0.
 00000921,0.00001177,-0.00002189,-0.00001629,0.00000266,-0.00000194,0.0
 0000166,-0.00000105,-0.00000063,0.00000140,0.00000446,-0.00000594,-0.0
 0000074,0.00003202,-0.00003286,-0.00005653,0.00000892,-0.00001891,-0.0
 0001184,-0.00017880,-0.00014240,-0.00006832,-0.00172413,0.00011620,-0.
 00212953,0.00009717,-0.00003946,-0.00002134,0.00003219,0.00000003,-0.0
 0000639,-0.00012422,0.00001353,0.00015123,0.00001403,0.00001372,-0.000
 04547,0.00012226,0.00001582,-0.00018588,-0.00007726,-0.00004299,-0.000
 00194,-0.00000087,-0.00003132,0.00000397,0.00000992,0.00004101,0.00006
 383,-0.17658664,0.07634030,-0.47348283,0.00460922,-0.00792364,-0.00034
 418,0.17295007,-0.06846633,0.47545306\\-0.00000637,-0.00000536,-0.0000
 0408,-0.00000088,0.00000414,0.00000728,0.00000029,0.00000006,-0.000000
 67,-0.00000077,0.00000210,-0.00000214,0.00000231,-0.00000350,0.0000012
 9,-0.00000039,0.00000003,-0.00000112,0.00000689,0.00000052,0.00000260,
 -0.00000718,0.00000469,-0.00000210,0.00000053,-0.00000310,0.00000031,0
 .00000144,0.00000019,0.00000013,-0.00000070,0.00000099,0.00000145,-0.0
 0000685,-0.00000015,-0.00000307,0.00001398,-0.00000213,-0.00000409,0.0
 0000042,0.00000041,-0.00000024,0.00000014,-0.00000092,-0.00000078,-0.0
 0000032,-0.00000074,0.00000007,-0.00000045,-0.00000005,0.00000020,-0.0
 0000065,-0.00000057,-0.00000035,0.00000031,0.00000048,0.00000023,0.000
 00060,-0.00000146,0.00000101,-0.00000076,0.00000006,0.00000010,0.00000
 010,0.00000075,0.00000076,0.00000014,0.00000006,0.00000032,0.00000002,
 -0.00000005,0.00000057,0.00000123,0.00000299,0.00000040,0.00000925,-0.
 00000203,0.00000303,-0.00001047,-0.00000582,0.00000978,-0.00000371,0.0
 0000179,-0.00000718,-0.00000464,0.00000229,-0.00000293,0.00000043,-0.0
 0000258,0.00000132,0.00000410,0.00000471,0.00001156,0.00000100,0.00000
 136,0.00000070,0.00000076,-0.00000124,-0.00001859,0.00000108,0.0000008
 8,0.00000030,0.00000007,-0.00000094,0.00000003,0.00000006,-0.00000015,
 0.00000062,0.00000513,-0.00000519,-0.00000537,-0.00000107,0.00000305,0
 .00000337,-0.00000503,0.00000447,0.00000527\\\@


                                                                                    A
                                                                                  AA
                                                                                 AAA
                                                                                AAAA
                                                                               AAAAA
                                                                              AAAAAA   KKKKKKKK
                                                                             AAAAAAA   KKKKKKKK
                                                                            AAAAAAAA   KKKKKKKK
                                       ZZZZZZZZZZZZZZZZZZZZ                AAAA  AAA   KKKKKKKK
                                       ZZZZZZZZZZZZZZZZZZZ                AAAA   AAA   KKKKKKKK          K
                                       ZZZZZZZZZZZZZZZZZZ                AAAA    AAA   KKKKKKKK         KKK
                                       ZZZZZZZZZZZZZZZZZ                AAAA     AAA   KKKKKKKK        KKKKK
                                       ZZZZZZZZZZZZZZZZ                AAAA      AAA   KKKKKKKK       KKKKKKK
                                                ZZZZZZ                AAAA       AAA   KKKKKKKK      KKKKKKK
                                               ZZZZZZ                AAAA        AAA   KKKKKKKK     KKKKKKK
                                              ZZZZZZ                AAAA         AAA   KKKKKKKK    KKKKKKK
                                             ZZZZZZ                AAAA          AAA   KKKKKKKK   KKKKKKK
                                            ZZZZZZ                AAAAAAAAAAAAAAAAAA   KKKKKKKK  KKKKKKK
                                           ZZZZZZ                AAAAAAAAAAAAAAAAAAA   KKKKKKKK KKKKKKK
                                          ZZZZZZ                AAAAAAAAAAAAAAAAAAAA   KKKKKKKKKKKKKKK
                                         ZZZZZZ                AAAAAAAAAAAAAAAAAAAAA   KKKKKKKKKKKKKK
                                        ZZZZZZ                AAAAAA        AAAAAAAA   KKKKKKKKKKKKK
                                       ZZZZZZ                AAAAAA         AAAAAAAA   KKKKKKKKKKKK
                                      ZZZZZZ                AAAAAA          AAAAAAAA   KKKKKKKKKKK
                                     ZZZZZZ                AAAAAA           AAAAAAAA   KKKKKKKKKKKK
                                    ZZZZZZ                AAAAAA            AAAAAAAA   KKKKKKKKKKKKK
                                   ZZZZZZ                AAAAAA             AAAAAAAA   KKKKKKKKKKKKKK
                                  ZZZZZZ                AAAAAA              AAAAAAAA   KKKKKKKKKKKKKKK
                                 ZZZZZZ                AAAAAA               AAAAAAAA   KKKKK KKKKKKKKKK
                                ZZZZZZ                AAAAAA                AAAAAAAA   KKKKK  KKKKKKKKKK
                               ZZZZZZ                AAAAAA                            KKKKK   KKKKKKKKKK
                              ZZZZZZ                AAAAAA                             KKKKK    KKKKKKKKKK
                             ZZZZZZ                                                    KKKKK     KKKKKKKKKK
                            ZZZZZZ                                                     KKKKK      KKKKKKKKKK
                           ZZZZZZ                                                      KKKKK       KKKKKKKKKK
                          ZZZZZZ                                                       KKKKK        KKKKKKKKKK
                         ZZZZZZZZZZZZZZZZZZZZZZZZZZZZZZZZZZZZZZZZ                      KKKKK         KKKKKKKKKK
                        ZZZZZZZZZZZZZZZZZZZZZZZZZZZZZZZZZZZZZZZZZ                      KKKKK          KKKKKKKKKK
                       ZZZZZZZZZZZZZZZZZZZZZZZZZZZZZZZZZZZZZZZZZZ                      KKKKK           KKKKKKKKKK
                       ZZZZZZZZZZZZZZZZZZZZZZZZZZZZZZZZZZZZZZZZZZ                      KKKKK            KKKKKKKKKK
                       ZZZZZZZZZZZZZZZZZZZZZZZZZZZZZZZZZZZZZZZZZZ                      KKKKK             KKKKKKKKKK
                       ZZZZZZZZZZZZZZZZZZZZZZZZZZZZZZZZZZZZZZZZZZ                      KKKKK              KKKKKKKKKK
                       ZZZZZZZZZZZZZZZZZZZZZZZZZZZZZZZZZZZZZZZZZZ                      KKKKK               KKKKKKKKKK
                       ZZZZZZZZZZZZZZZZZZZZZZZZZZZZZZZZZZZZZZZZZZ                      KKKKK                KKKKKKKKKK
                       ZZZZZZZZZZZZZZZZZZZZZZZZZZZZZZZZZZZZZZZZZZ                      KKKKK
                                                                                       KKKKK
                                                                                          (J.P.)
 Job cpu time:       1 days  8 hours 38 minutes 16.2 seconds.
 Elapsed time:       0 days  1 hours  9 minutes 59.2 seconds.
 File lengths (MBytes):  RWF=   1240 Int=      0 D2E=      0 Chk=     32 Scr=      8
 Normal termination of Gaussian 16 at Mon Jan 30 19:29:06 2023.
