 Entering Gaussian System, Link 0=g16
 Input=NicPySs4hYiab.gjf
 Output=NicPySs4hYiab.log
 Initial command:
 /sw/contrib/gaussian/g16/A03/g16/l1.exe "/gscratch/scrubbed/gds001/Gau-29281.inp" -scrdir="/gscratch/scrubbed/gds001/"
 Entering Link 1 = /sw/contrib/gaussian/g16/A03/g16/l1.exe PID=     29282.
  
 Copyright (c) 1988,1990,1992,1993,1995,1998,2003,2009,2016,
            Gaussian, Inc.  All Rights Reserved.
  
 This is part of the Gaussian(R) 16 program.  It is based on
 the Gaussian(R) 09 system (copyright 2009, Gaussian, Inc.),
 the Gaussian(R) 03 system (copyright 2003, Gaussian, Inc.),
 the Gaussian(R) 98 system (copyright 1998, Gaussian, Inc.),
 the Gaussian(R) 94 system (copyright 1995, Gaussian, Inc.),
 the Gaussian 92(TM) system (copyright 1992, Gaussian, Inc.),
 the Gaussian 90(TM) system (copyright 1990, Gaussian, Inc.),
 the Gaussian 88(TM) system (copyright 1988, Gaussian, Inc.),
 the Gaussian 86(TM) system (copyright 1986, Carnegie Mellon
 University), and the Gaussian 82(TM) system (copyright 1983,
 Carnegie Mellon University). Gaussian is a federally registered
 trademark of Gaussian, Inc.
  
 This software contains proprietary and confidential information,
 including trade secrets, belonging to Gaussian, Inc.
  
 This software is provided under written license and may be
 used, copied, transmitted, or stored only in accord with that
 written license.
  
 The following legend is applicable only to US Government
 contracts under FAR:
  
                    RESTRICTED RIGHTS LEGEND
  
 Use, reproduction and disclosure by the US Government is
 subject to restrictions as set forth in subparagraphs (a)
 and (c) of the Commercial Computer Software - Restricted
 Rights clause in FAR 52.227-19.
  
 Gaussian, Inc.
 340 Quinnipiac St., Bldg. 40, Wallingford CT 06492
  
  
 ---------------------------------------------------------------
 Warning -- This program may not be used in any manner that
 competes with the business of Gaussian, Inc. or will provide
 assistance to any competitor of Gaussian, Inc.  The licensee
 of this program is prohibited from giving any competitor of
 Gaussian, Inc. access to this program.  By using this program,
 the user acknowledges that Gaussian, Inc. is engaged in the
 business of creating and licensing software in the field of
 computational chemistry and represents and warrants to the
 licensee that it is not a competitor of Gaussian, Inc. and that
 it will not use this program in any manner prohibited above.
 ---------------------------------------------------------------
  

 Cite this work as:
 Gaussian 16, Revision A.03,
 M. J. Frisch, G. W. Trucks, H. B. Schlegel, G. E. Scuseria, 
 M. A. Robb, J. R. Cheeseman, G. Scalmani, V. Barone, 
 G. A. Petersson, H. Nakatsuji, X. Li, M. Caricato, A. V. Marenich, 
 J. Bloino, B. G. Janesko, R. Gomperts, B. Mennucci, H. P. Hratchian, 
 J. V. Ortiz, A. F. Izmaylov, J. L. Sonnenberg, D. Williams-Young, 
 F. Ding, F. Lipparini, F. Egidi, J. Goings, B. Peng, A. Petrone, 
 T. Henderson, D. Ranasinghe, V. G. Zakrzewski, J. Gao, N. Rega, 
 G. Zheng, W. Liang, M. Hada, M. Ehara, K. Toyota, R. Fukuda, 
 J. Hasegawa, M. Ishida, T. Nakajima, Y. Honda, O. Kitao, H. Nakai, 
 T. Vreven, K. Throssell, J. A. Montgomery, Jr., J. E. Peralta, 
 F. Ogliaro, M. J. Bearpark, J. J. Heyd, E. N. Brothers, K. N. Kudin, 
 V. N. Staroverov, T. A. Keith, R. Kobayashi, J. Normand, 
 K. Raghavachari, A. P. Rendell, J. C. Burant, S. S. Iyengar, 
 J. Tomasi, M. Cossi, J. M. Millam, M. Klene, C. Adamo, R. Cammi, 
 J. W. Ochterski, R. L. Martin, K. Morokuma, O. Farkas, 
 J. B. Foresman, and D. J. Fox, Gaussian, Inc., Wallingford CT, 2016.
 
 ******************************************
 Gaussian 16:  ES64L-G16RevA.03 25-Dec-2016
                27-Jan-2023 
 ******************************************
 %nprocshared=28
 Will use up to   28 processors via shared memory.
 %mem=41GB
 -----------------------------
 # wB97XD/aug-cc-pVDZ opt freq
 -----------------------------
 1/18=20,19=15,26=3,38=1/1,3;
 2/9=110,12=2,17=6,18=5,40=1/2;
 3/5=16,7=10,11=2,25=1,30=1,71=1,74=-58/1,2,3;
 4//1;
 5/5=2,38=5/2;
 6/7=2,8=2,9=2,10=2,28=1/1;
 7//1,2,3,16;
 1/18=20,19=15,26=3/3(2);
 2/9=110/2;
 99//99;
 2/9=110/2;
 3/5=16,7=10,11=2,25=1,30=1,71=1,74=-58/1,2,3;
 4/5=5,16=3,69=1/1;
 5/5=2,38=5/2;
 7//1,2,3,16;
 1/18=20,19=15,26=3/3(-5);
 2/9=110/2;
 6/7=2,8=2,9=2,10=2,19=2,28=1/1;
 99/9=1/99;
 ----
 blah
 ----
 Symbolic Z-matrix:
 Charge =  1 Multiplicity = 1
 C                    -2.71964   1.64009  -0.51979 
 C                    -2.11139   0.21699  -0.60491 
 N                    -3.21163  -0.66524  -0.24976 
 C                    -4.39196  -0.07915  -0.87978 
 C                    -4.24779   1.4163   -0.59843 
 C                    -0.92991   0.02825   0.31607 
 C                     0.37039   0.07594  -0.15898 
 N                     1.41569  -0.05131   0.67515 
 C                     1.26404  -0.23825   1.99267 
 C                    -0.00867  -0.30688   2.535 
 C                    -1.10724  -0.1725    1.69086 
 C                    -2.99162  -2.05564  -0.60136 
 H                    -1.77141   0.02786  -1.64556 
 H                    -2.43826   2.12653   0.42181 
 H                    -2.34024   2.26672  -1.33479 
 H                    -4.72006   1.67051   0.357 
 H                    -4.71837   2.02617  -1.3765 
 H                    -4.39243  -0.27288  -1.97194 
 H                    -5.30447  -0.51845  -0.45986 
 H                    -2.12429  -0.23455   2.07794 
 H                     2.1766   -0.33218   2.57625 
 H                     2.39848  -0.00873   0.27173 
 H                     0.61356   0.2133   -1.21084 
 H                    -2.1187   -2.45264  -0.06625 
 H                    -2.8269   -2.19161  -1.68917 
 H                    -3.86398  -2.6504   -0.30706 
 H                    -0.13148  -0.46472   3.60397 
 O                     3.83198   0.05285  -0.32681 
 H                     4.35094  -0.71101  -0.63711 
 H                     4.3776    0.85487  -0.41702 
 O                     5.25567   2.40147  -0.52324 
 H                     5.41089   2.88176  -1.34086 
 H                     5.95964   2.6678    0.07408 
 O                     5.17391  -2.19866  -1.1707 
 H                     5.86748  -2.64207  -0.67502 
 H                     5.31728  -2.43659  -2.09057 
 O                     7.18802   3.30896   1.19923 
 H                     6.96289   4.06284   1.77193 
 H                     7.76952   2.77599   1.76841 
 
 Add virtual bond connecting atoms O28        and H22        Dist= 2.94D+00.
 Add virtual bond connecting atoms O31        and H30        Dist= 3.37D+00.
 Add virtual bond connecting atoms O34        and H29        Dist= 3.37D+00.
 Add virtual bond connecting atoms O37        and H33        Dist= 3.37D+00.

 GradGradGradGradGradGradGradGradGradGradGradGradGradGradGradGradGradGrad
 Berny optimization.
 Initialization pass.
                           ----------------------------
                           !    Initial Parameters    !
                           ! (Angstroms and Degrees)  !
 --------------------------                            --------------------------
 ! Name  Definition              Value          Derivative Info.                !
 --------------------------------------------------------------------------------
 ! R1    R(1,2)                  1.55           estimate D2E/DX2                !
 ! R2    R(1,5)                  1.5465         estimate D2E/DX2                !
 ! R3    R(1,14)                 1.0965         estimate D2E/DX2                !
 ! R4    R(1,15)                 1.0958         estimate D2E/DX2                !
 ! R5    R(2,3)                  1.4543         estimate D2E/DX2                !
 ! R6    R(2,6)                  1.5099         estimate D2E/DX2                !
 ! R7    R(2,13)                 1.111          estimate D2E/DX2                !
 ! R8    R(3,4)                  1.4607         estimate D2E/DX2                !
 ! R9    R(3,12)                 1.4509         estimate D2E/DX2                !
 ! R10   R(4,5)                  1.5285         estimate D2E/DX2                !
 ! R11   R(4,18)                 1.1092         estimate D2E/DX2                !
 ! R12   R(4,19)                 1.0964         estimate D2E/DX2                !
 ! R13   R(5,16)                 1.0957         estimate D2E/DX2                !
 ! R14   R(5,17)                 1.0949         estimate D2E/DX2                !
 ! R15   R(6,7)                  1.3852         estimate D2E/DX2                !
 ! R16   R(6,11)                 1.4006         estimate D2E/DX2                !
 ! R17   R(7,8)                  1.3434         estimate D2E/DX2                !
 ! R18   R(7,23)                 1.0883         estimate D2E/DX2                !
 ! R19   R(8,9)                  1.3393         estimate D2E/DX2                !
 ! R20   R(8,22)                 1.0632         estimate D2E/DX2                !
 ! R21   R(9,10)                 1.3851         estimate D2E/DX2                !
 ! R22   R(9,21)                 1.0873         estimate D2E/DX2                !
 ! R23   R(10,11)                1.3919         estimate D2E/DX2                !
 ! R24   R(10,27)                1.0875         estimate D2E/DX2                !
 ! R25   R(11,20)                1.09           estimate D2E/DX2                !
 ! R26   R(12,24)                1.0982         estimate D2E/DX2                !
 ! R27   R(12,25)                1.1086         estimate D2E/DX2                !
 ! R28   R(12,26)                1.0961         estimate D2E/DX2                !
 ! R29   R(22,28)                1.5546         estimate D2E/DX2                !
 ! R30   R(28,29)                0.9742         estimate D2E/DX2                !
 ! R31   R(28,30)                0.9742         estimate D2E/DX2                !
 ! R32   R(29,34)                1.7819         estimate D2E/DX2                !
 ! R33   R(30,31)                1.7816         estimate D2E/DX2                !
 ! R34   R(31,32)                0.9609         estimate D2E/DX2                !
 ! R35   R(31,33)                0.9609         estimate D2E/DX2                !
 ! R36   R(33,37)                1.7849         estimate D2E/DX2                !
 ! R37   R(34,35)                0.9609         estimate D2E/DX2                !
 ! R38   R(34,36)                0.9609         estimate D2E/DX2                !
 ! R39   R(37,38)                0.9731         estimate D2E/DX2                !
 ! R40   R(37,39)                0.9727         estimate D2E/DX2                !
 ! A1    A(2,1,5)              104.6029         estimate D2E/DX2                !
 ! A2    A(2,1,14)             110.7174         estimate D2E/DX2                !
 ! A3    A(2,1,15)             110.3844         estimate D2E/DX2                !
 ! A4    A(5,1,14)             111.1879         estimate D2E/DX2                !
 ! A5    A(5,1,15)             112.7715         estimate D2E/DX2                !
 ! A6    A(14,1,15)            107.2253         estimate D2E/DX2                !
 ! A7    A(1,2,3)              104.2812         estimate D2E/DX2                !
 ! A8    A(1,2,6)              112.8514         estimate D2E/DX2                !
 ! A9    A(1,2,13)             109.1367         estimate D2E/DX2                !
 ! A10   A(3,2,6)              111.5434         estimate D2E/DX2                !
 ! A11   A(3,2,13)             110.9158         estimate D2E/DX2                !
 ! A12   A(6,2,13)             108.0962         estimate D2E/DX2                !
 ! A13   A(2,3,4)              105.2244         estimate D2E/DX2                !
 ! A14   A(2,3,12)             114.0435         estimate D2E/DX2                !
 ! A15   A(4,3,12)             113.7347         estimate D2E/DX2                !
 ! A16   A(3,4,5)              103.7069         estimate D2E/DX2                !
 ! A17   A(3,4,18)             110.7899         estimate D2E/DX2                !
 ! A18   A(3,4,19)             110.2789         estimate D2E/DX2                !
 ! A19   A(5,4,18)             110.6196         estimate D2E/DX2                !
 ! A20   A(5,4,19)             113.5803         estimate D2E/DX2                !
 ! A21   A(18,4,19)            107.8661         estimate D2E/DX2                !
 ! A22   A(1,5,4)              104.1316         estimate D2E/DX2                !
 ! A23   A(1,5,16)             110.3655         estimate D2E/DX2                !
 ! A24   A(1,5,17)             112.3484         estimate D2E/DX2                !
 ! A25   A(4,5,16)             110.2946         estimate D2E/DX2                !
 ! A26   A(4,5,17)             111.9399         estimate D2E/DX2                !
 ! A27   A(16,5,17)            107.7694         estimate D2E/DX2                !
 ! A28   A(2,6,7)              121.4031         estimate D2E/DX2                !
 ! A29   A(2,6,11)             121.1691         estimate D2E/DX2                !
 ! A30   A(7,6,11)             117.413          estimate D2E/DX2                !
 ! A31   A(6,7,8)              120.9459         estimate D2E/DX2                !
 ! A32   A(6,7,23)             123.0629         estimate D2E/DX2                !
 ! A33   A(8,7,23)             115.991          estimate D2E/DX2                !
 ! A34   A(7,8,9)              122.4075         estimate D2E/DX2                !
 ! A35   A(7,8,22)             118.6767         estimate D2E/DX2                !
 ! A36   A(9,8,22)             118.9143         estimate D2E/DX2                !
 ! A37   A(8,9,10)             119.7431         estimate D2E/DX2                !
 ! A38   A(8,9,21)             116.425          estimate D2E/DX2                !
 ! A39   A(10,9,21)            123.8314         estimate D2E/DX2                !
 ! A40   A(9,10,11)            118.8778         estimate D2E/DX2                !
 ! A41   A(9,10,27)            119.7235         estimate D2E/DX2                !
 ! A42   A(11,10,27)           121.3986         estimate D2E/DX2                !
 ! A43   A(6,11,10)            120.609          estimate D2E/DX2                !
 ! A44   A(6,11,20)            118.3501         estimate D2E/DX2                !
 ! A45   A(10,11,20)           121.0353         estimate D2E/DX2                !
 ! A46   A(3,12,24)            110.4186         estimate D2E/DX2                !
 ! A47   A(3,12,25)            112.2005         estimate D2E/DX2                !
 ! A48   A(3,12,26)            109.5264         estimate D2E/DX2                !
 ! A49   A(24,12,25)           108.4028         estimate D2E/DX2                !
 ! A50   A(24,12,26)           107.7972         estimate D2E/DX2                !
 ! A51   A(25,12,26)           108.3724         estimate D2E/DX2                !
 ! A52   A(22,28,29)           125.6451         estimate D2E/DX2                !
 ! A53   A(22,28,30)           125.7805         estimate D2E/DX2                !
 ! A54   A(29,28,30)           108.5204         estimate D2E/DX2                !
 ! A55   A(30,31,32)           124.3501         estimate D2E/DX2                !
 ! A56   A(30,31,33)           124.3756         estimate D2E/DX2                !
 ! A57   A(32,31,33)           105.7873         estimate D2E/DX2                !
 ! A58   A(29,34,35)           124.3423         estimate D2E/DX2                !
 ! A59   A(29,34,36)           124.2155         estimate D2E/DX2                !
 ! A60   A(35,34,36)           105.7753         estimate D2E/DX2                !
 ! A61   A(33,37,38)           119.3435         estimate D2E/DX2                !
 ! A62   A(33,37,39)           125.6934         estimate D2E/DX2                !
 ! A63   A(38,37,39)           102.6157         estimate D2E/DX2                !
 ! A64   L(8,22,28,23,-1)      179.6611         estimate D2E/DX2                !
 ! A65   L(28,29,34,24,-1)     175.0242         estimate D2E/DX2                !
 ! A66   L(28,30,31,15,-1)     175.7542         estimate D2E/DX2                !
 ! A67   L(31,33,37,21,-1)     180.6402         estimate D2E/DX2                !
 ! A68   L(8,22,28,23,-2)      180.078          estimate D2E/DX2                !
 ! A69   L(28,29,34,24,-2)     181.2406         estimate D2E/DX2                !
 ! A70   L(28,30,31,15,-2)     177.1992         estimate D2E/DX2                !
 ! A71   L(31,33,37,21,-2)     185.7701         estimate D2E/DX2                !
 ! D1    D(5,1,2,3)            -19.2882         estimate D2E/DX2                !
 ! D2    D(5,1,2,6)           -140.517          estimate D2E/DX2                !
 ! D3    D(5,1,2,13)            99.2833         estimate D2E/DX2                !
 ! D4    D(14,1,2,3)           100.5698         estimate D2E/DX2                !
 ! D5    D(14,1,2,6)           -20.659          estimate D2E/DX2                !
 ! D6    D(14,1,2,13)         -140.8586         estimate D2E/DX2                !
 ! D7    D(15,1,2,3)          -140.8561         estimate D2E/DX2                !
 ! D8    D(15,1,2,6)            97.915          estimate D2E/DX2                !
 ! D9    D(15,1,2,13)          -22.2846         estimate D2E/DX2                !
 ! D10   D(2,1,5,4)             -6.1898         estimate D2E/DX2                !
 ! D11   D(2,1,5,16)           112.1682         estimate D2E/DX2                !
 ! D12   D(2,1,5,17)          -127.5281         estimate D2E/DX2                !
 ! D13   D(14,1,5,4)          -125.732          estimate D2E/DX2                !
 ! D14   D(14,1,5,16)           -7.374          estimate D2E/DX2                !
 ! D15   D(14,1,5,17)          112.9297         estimate D2E/DX2                !
 ! D16   D(15,1,5,4)           113.7928         estimate D2E/DX2                !
 ! D17   D(15,1,5,16)         -127.8492         estimate D2E/DX2                !
 ! D18   D(15,1,5,17)           -7.5455         estimate D2E/DX2                !
 ! D19   D(1,2,3,4)             39.0104         estimate D2E/DX2                !
 ! D20   D(1,2,3,12)           164.3338         estimate D2E/DX2                !
 ! D21   D(6,2,3,4)            161.1047         estimate D2E/DX2                !
 ! D22   D(6,2,3,12)           -73.5719         estimate D2E/DX2                !
 ! D23   D(13,2,3,4)           -78.3395         estimate D2E/DX2                !
 ! D24   D(13,2,3,12)           46.9839         estimate D2E/DX2                !
 ! D25   D(1,2,6,7)           -101.2358         estimate D2E/DX2                !
 ! D26   D(1,2,6,11)            77.3274         estimate D2E/DX2                !
 ! D27   D(3,2,6,7)            141.753          estimate D2E/DX2                !
 ! D28   D(3,2,6,11)           -39.6837         estimate D2E/DX2                !
 ! D29   D(13,2,6,7)            19.559          estimate D2E/DX2                !
 ! D30   D(13,2,6,11)         -161.8778         estimate D2E/DX2                !
 ! D31   D(2,3,4,5)            -43.3076         estimate D2E/DX2                !
 ! D32   D(2,3,4,18)            75.3995         estimate D2E/DX2                !
 ! D33   D(2,3,4,19)          -165.2515         estimate D2E/DX2                !
 ! D34   D(12,3,4,5)          -168.8232         estimate D2E/DX2                !
 ! D35   D(12,3,4,18)          -50.1161         estimate D2E/DX2                !
 ! D36   D(12,3,4,19)           69.2328         estimate D2E/DX2                !
 ! D37   D(2,3,12,24)           61.7411         estimate D2E/DX2                !
 ! D38   D(2,3,12,25)          -59.3069         estimate D2E/DX2                !
 ! D39   D(2,3,12,26)         -179.7            estimate D2E/DX2                !
 ! D40   D(4,3,12,24)         -177.5764         estimate D2E/DX2                !
 ! D41   D(4,3,12,25)           61.3756         estimate D2E/DX2                !
 ! D42   D(4,3,12,26)          -59.0175         estimate D2E/DX2                !
 ! D43   D(3,4,5,1)             29.4697         estimate D2E/DX2                !
 ! D44   D(3,4,5,16)           -88.9369         estimate D2E/DX2                !
 ! D45   D(3,4,5,17)           151.0795         estimate D2E/DX2                !
 ! D46   D(18,4,5,1)           -89.3547         estimate D2E/DX2                !
 ! D47   D(18,4,5,16)          152.2387         estimate D2E/DX2                !
 ! D48   D(18,4,5,17)           32.2552         estimate D2E/DX2                !
 ! D49   D(19,4,5,1)           149.1863         estimate D2E/DX2                !
 ! D50   D(19,4,5,16)           30.7797         estimate D2E/DX2                !
 ! D51   D(19,4,5,17)          -89.2039         estimate D2E/DX2                !
 ! D52   D(2,6,7,8)            177.8904         estimate D2E/DX2                !
 ! D53   D(2,6,7,23)            -2.2766         estimate D2E/DX2                !
 ! D54   D(11,6,7,8)            -0.7248         estimate D2E/DX2                !
 ! D55   D(11,6,7,23)          179.1082         estimate D2E/DX2                !
 ! D56   D(2,6,11,10)         -178.1445         estimate D2E/DX2                !
 ! D57   D(2,6,11,20)            2.7075         estimate D2E/DX2                !
 ! D58   D(7,6,11,10)            0.4741         estimate D2E/DX2                !
 ! D59   D(7,6,11,20)         -178.6739         estimate D2E/DX2                !
 ! D60   D(6,7,8,9)              0.4783         estimate D2E/DX2                !
 ! D61   D(6,7,8,22)          -179.9697         estimate D2E/DX2                !
 ! D62   D(23,7,8,9)          -179.3661         estimate D2E/DX2                !
 ! D63   D(23,7,8,22)            0.1859         estimate D2E/DX2                !
 ! D64   D(7,8,9,10)             0.052          estimate D2E/DX2                !
 ! D65   D(7,8,9,21)           179.7968         estimate D2E/DX2                !
 ! D66   D(22,8,9,10)         -179.499          estimate D2E/DX2                !
 ! D67   D(22,8,9,21)            0.2458         estimate D2E/DX2                !
 ! D68   D(7,8,28,29)          -91.0683         estimate D2E/DX2                !
 ! D69   D(7,8,28,30)           91.7151         estimate D2E/DX2                !
 ! D70   D(9,8,28,29)           88.4531         estimate D2E/DX2                !
 ! D71   D(9,8,28,30)          -88.7635         estimate D2E/DX2                !
 ! D72   D(8,9,10,11)           -0.2967         estimate D2E/DX2                !
 ! D73   D(8,9,10,27)          179.6298         estimate D2E/DX2                !
 ! D74   D(21,9,10,11)         179.9785         estimate D2E/DX2                !
 ! D75   D(21,9,10,27)          -0.095          estimate D2E/DX2                !
 ! D76   D(9,10,11,6)            0.0233         estimate D2E/DX2                !
 ! D77   D(9,10,11,20)         179.1482         estimate D2E/DX2                !
 ! D78   D(27,10,11,6)        -179.9019         estimate D2E/DX2                !
 ! D79   D(27,10,11,20)         -0.777          estimate D2E/DX2                !
 ! D80   D(22,28,31,32)       -105.8757         estimate D2E/DX2                !
 ! D81   D(22,28,31,33)        101.6744         estimate D2E/DX2                !
 ! D82   D(29,28,31,32)         76.6095         estimate D2E/DX2                !
 ! D83   D(29,28,31,33)        -75.8405         estimate D2E/DX2                !
 ! D84   D(22,28,34,35)       -101.9147         estimate D2E/DX2                !
 ! D85   D(22,28,34,36)        106.0506         estimate D2E/DX2                !
 ! D86   D(30,28,34,35)         75.6501         estimate D2E/DX2                !
 ! D87   D(30,28,34,36)        -76.3846         estimate D2E/DX2                !
 ! D88   D(30,31,37,38)       -110.3311         estimate D2E/DX2                !
 ! D89   D(30,31,37,39)         24.8456         estimate D2E/DX2                !
 ! D90   D(32,31,37,38)         92.1931         estimate D2E/DX2                !
 ! D91   D(32,31,37,39)       -132.6302         estimate D2E/DX2                !
 --------------------------------------------------------------------------------
 Trust Radius=3.00D-01 FncErr=1.00D-07 GrdErr=1.00D-06 EigMax=2.50D+02 EigMin=1.00D-04
 Number of steps in this run=    212 maximum allowed number of steps=    234.
 GradGradGradGradGradGradGradGradGradGradGradGradGradGradGradGradGradGrad

                          Input orientation:                          
 ---------------------------------------------------------------------
 Center     Atomic      Atomic             Coordinates (Angstroms)
 Number     Number       Type             X           Y           Z
 ---------------------------------------------------------------------
      1          6           0       -2.719638    1.640091   -0.519793
      2          6           0       -2.111391    0.216988   -0.604913
      3          7           0       -3.211627   -0.665235   -0.249760
      4          6           0       -4.391963   -0.079147   -0.879781
      5          6           0       -4.247793    1.416297   -0.598434
      6          6           0       -0.929912    0.028253    0.316069
      7          6           0        0.370391    0.075939   -0.158984
      8          7           0        1.415688   -0.051308    0.675150
      9          6           0        1.264041   -0.238253    1.992667
     10          6           0       -0.008668   -0.306881    2.535002
     11          6           0       -1.107236   -0.172504    1.690862
     12          6           0       -2.991624   -2.055639   -0.601363
     13          1           0       -1.771407    0.027864   -1.645562
     14          1           0       -2.438263    2.126530    0.421811
     15          1           0       -2.340239    2.266722   -1.334794
     16          1           0       -4.720058    1.670506    0.356996
     17          1           0       -4.718370    2.026173   -1.376500
     18          1           0       -4.392425   -0.272882   -1.971936
     19          1           0       -5.304474   -0.518450   -0.459863
     20          1           0       -2.124290   -0.234549    2.077944
     21          1           0        2.176601   -0.332179    2.576249
     22          1           0        2.398484   -0.008728    0.271732
     23          1           0        0.613559    0.213304   -1.210837
     24          1           0       -2.118696   -2.452641   -0.066248
     25          1           0       -2.826897   -2.191605   -1.689167
     26          1           0       -3.863980   -2.650397   -0.307058
     27          1           0       -0.131483   -0.464724    3.603967
     28          8           0        3.831975    0.052847   -0.326806
     29          1           0        4.350944   -0.711010   -0.637111
     30          1           0        4.377602    0.854869   -0.417023
     31          8           0        5.255670    2.401467   -0.523239
     32          1           0        5.410889    2.881760   -1.340863
     33          1           0        5.959644    2.667796    0.074081
     34          8           0        5.173909   -2.198658   -1.170700
     35          1           0        5.867475   -2.642070   -0.675015
     36          1           0        5.317280   -2.436593   -2.090569
     37          8           0        7.188016    3.308960    1.199234
     38          1           0        6.962894    4.062843    1.771925
     39          1           0        7.769520    2.775988    1.768413
 ---------------------------------------------------------------------
                    Distance matrix (angstroms):
                    1          2          3          4          5
     1  C    0.000000
     2  C    1.549978   0.000000
     3  N    2.372657   1.454294   0.000000
     4  C    2.425292   2.316087   1.460691   0.000000
     5  C    1.546456   2.450020   2.351168   1.528494   0.000000
     6  C    2.549472   1.509875   2.450982   3.664340   3.710972
     7  C    3.482102   2.525468   3.659021   4.819089   4.828799
     8  N    4.624894   3.761759   4.758614   6.012270   5.987562
     9  C    5.070535   4.283481   5.024181   6.345601   6.311232
    10  C    4.524581   3.815095   4.259374   5.561104   5.545985
    11  C    3.282124   2.535866   2.904696   4.172092   4.198603
    12  C    3.706622   2.437141   1.450948   2.438234   3.692196
    13  H    2.183065   1.110994   2.122000   2.732249   3.026006
    14  H    1.096546   2.192569   2.973727   3.221195   2.195388
    15  H    1.095827   2.187809   3.245456   3.149557   2.214545
    16  H    2.184345   3.137376   2.845910   2.167614   1.095675
    17  H    2.208605   3.265706   3.283823   2.187611   1.094887
    18  H    2.926842   2.704042   2.124645   1.109205   2.181915
    19  H    3.368125   3.279891   2.108482   1.096355   2.208851
    20  H    3.258366   2.720620   2.604995   3.730232   3.794411
    21  H    6.119516   5.367332   6.093460   7.426587   7.376220
    22  H    5.435098   4.599829   5.672416   6.887751   6.852801
    23  H    3.690998   2.791507   4.040736   5.024975   5.045292
    24  H    4.161405   2.723441   2.103092   3.385713   4.448028
    25  H    4.007597   2.736581   2.133006   2.750821   4.028101
    26  H    4.445567   3.373749   2.090386   2.686653   4.095145
    27  H    5.304167   4.701004   4.937479   6.197125   6.175955
    28  O    6.743902   5.952133   7.080530   8.243565   8.198502
    29  H    7.452152   6.528705   7.572623   8.769069   8.858059
    30  H    7.141285   6.522977   7.741776   8.831297   8.645551
    31  O    8.011569   7.684543   9.009693   9.967818   9.554686
    32  H    8.265674   8.014195   9.387197  10.250633   9.797394
    33  H    8.760068   8.462216   9.763513  10.752270  10.305838
    34  O    8.801577   7.696172   8.574190   9.802187  10.107614
    35  H    9.596849   8.475932   9.301549  10.576699  10.899305
    36  H    9.147608   8.027068   8.903288  10.064440  10.419302
    37  O   10.193222   9.964648  11.227038  12.243263  11.729940
    38  H   10.240758  10.138176  11.400123  12.374183  11.760200
    39  H   10.795767  10.479197  11.683349  12.769746  12.323414
                    6          7          8          9         10
     6  C    0.000000
     7  C    1.385185   0.000000
     8  N    2.374260   1.343360   0.000000
     9  C    2.774065   2.350942   1.339327   0.000000
    10  C    2.425834   2.747326   2.356514   1.385144   0.000000
    11  C    1.400644   2.380554   2.722408   2.391310   1.391934
    12  C    3.071635   4.005305   5.007118   5.304957   4.668294
    13  H    2.134505   2.607590   3.943291   4.745679   4.549332
    14  H    2.586324   3.525732   4.433971   4.665495   4.036087
    15  H    3.118512   3.678257   4.849755   5.507970   5.199517
    16  H    4.130845   5.359249   6.380693   6.490626   5.554365
    17  H    4.605311   5.584017   6.793516   7.229672   6.551663
    18  H    4.161087   5.108120   6.386731   6.907596   6.287366
    19  H    4.476354   5.713836   6.831329   7.017037   6.087655
    20  H    2.144716   3.365068   3.812198   3.389406   2.165639
    21  H    3.858594   3.303098   2.066895   1.087270   2.185805
    22  H    3.328897   2.075053   1.063225   2.073948   3.317479
    23  H    2.178988   1.088299   2.066489   3.299919   3.832632
    24  H    2.777446   3.549348   4.336812   4.537131   3.977814
    25  H    3.542216   4.207834   5.307579   5.840142   5.416475
    26  H    4.021468   5.038326   5.966145   6.115862   5.332242
    27  H    3.419179   3.834579   3.338056   2.143610   1.087513
    28  O    4.805149   3.465727   2.617863   3.472604   4.803112
    29  H    5.416872   4.085670   3.282219   4.082671   5.406648
    30  H    5.421293   4.090361   3.284347   4.086047   5.413269
    31  O    6.678174   5.422796   4.711444   5.406571   6.663426
    32  H    7.147985   5.888641   5.350591   6.167921   7.386566
    33  H    7.381851   6.165370   5.329385   5.845920   7.108135
    34  O    6.665302   5.410282   4.705582   5.397884   6.646063
    35  H    7.370030   6.154006   5.324791   5.838362   7.091289
    36  H    7.134058   5.874993   5.344269   6.159080   7.368670
    37  O    8.800214   7.666628   6.699689   6.950232   8.163996
    38  H    8.982974   7.942601   6.992900   7.143184   8.263138
    39  H    9.237937   8.108775   7.039887   7.173367   8.401902
                   11         12         13         14         15
    11  C    0.000000
    12  C    3.514457   0.000000
    13  H    3.407785   2.630640   0.000000
    14  H    2.944092   4.340925   3.020451   0.000000
    15  H    4.077342   4.432271   2.330801   1.764915   0.000000
    16  H    4.269469   4.217830   3.924672   2.327820   2.980128
    17  H    5.223330   4.499298   3.570746   2.905664   2.390630
    18  H    4.921243   2.649328   2.658327   3.912282   3.326711
    19  H    4.728859   2.780692   3.766551   3.998554   4.160454
    20  H    1.089991   3.353703   3.749384   2.901043   4.236717
    21  H    3.404848   6.306987   5.791380   5.655424   6.515550
    22  H    3.785608   5.831415   4.589700   5.289232   5.496735
    23  H    3.395562   4.303127   2.431345   3.954692   3.599557
    24  H    3.051149   1.098163   2.961038   4.616182   4.891899
    25  H    4.296347   1.108575   2.458049   4.822194   4.498788
    26  H    4.210852   1.096065   3.652881   5.038150   5.249389
    27  H    2.167362   5.328810   5.521734   4.707648   6.060591
    28  O    5.340185   7.147209   5.756529   6.646538   6.634268
    29  H    5.958286   7.464758   6.248687   7.434129   7.357009
    30  H    5.965075   7.925309   6.324837   6.984038   6.925678
    31  O    7.212083   9.374954   7.501561   7.756630   7.640328
    32  H    7.810623   9.773791   7.734529   8.080011   7.775493
    33  H    7.786018  10.143582   8.348387   8.422513   8.428158
    34  O    7.193512   8.186607   7.308920   8.898792   8.742366
    35  H    7.768058   8.878793   8.150032   9.639910   9.586351
    36  H    7.791003   8.449896   7.518049   9.342515   9.018313
    37  O    9.009633  11.646722   9.956390   9.729736   9.914393
    38  H    9.114369  11.923118  10.210205   9.692980   9.971261
    39  H    9.353952  12.031736  10.499367  10.316684  10.587562
                   16         17         18         19         20
    16  H    0.000000
    17  H    1.769607   0.000000
    18  H    3.050906   2.397173   0.000000
    19  H    2.408387   2.767462   1.782835   0.000000
    20  H    3.650878   4.875787   4.641921   4.078558   0.000000
    21  H    7.516631   8.290155   7.990094   8.075838   4.330762
    22  H    7.314420   7.583344   7.156834   7.754393   4.875334
    23  H    5.747087   5.634129   5.086799   6.010203   4.302612
    24  H    4.893522   5.341801   3.681418   3.747694   3.085048
    25  H    4.763060   4.633042   2.492455   3.232495   4.302889
    26  H    4.454665   4.872781   2.950195   2.577512   3.814587
    27  H    6.013073   7.214510   7.020194   6.578559   2.520517
    28  O    8.730503   8.837662   8.393647   9.155260   6.429814
    29  H    9.430957   9.502175   8.855519   9.658964   7.037556
    30  H    9.166885   9.221131   8.977915   9.779082   7.048850
    31  O   10.041129  10.017503  10.116156  10.956577   8.257030
    32  H   10.343401  10.165392  10.317702  11.276373   8.841863
    33  H   10.729896  10.795177  10.954410  11.718260   8.819811
    34  O   10.732887  10.758659   9.791085  10.636019   8.226489
    35  H   11.478642  11.590716  10.609458  11.374027   8.788814
    36  H   11.117868  11.006382   9.948572  10.916049   8.809226
    37  O   12.049735  12.249162  12.529665  13.170572  10.002381
    38  H   12.009024  12.268355  12.718423  13.283728  10.056746
    39  H   12.617597  12.899616  13.084293  13.665572  10.346334
                   21         22         23         24         25
    21  H    0.000000
    22  H    2.337659   0.000000
    23  H    4.133119   2.330937   0.000000
    24  H    5.470715   5.147024   3.985293   0.000000
    25  H    6.832732   5.992886   4.224822   1.789848   0.000000
    26  H    7.083517   6.821427   5.391285   1.772883   1.787808
    27  H    2.530025   4.208617   4.919060   4.622911   6.185842
    28  O    3.363961   1.554650   3.341476   6.461876   7.157805
    29  H    3.898328   2.265236   3.892501   6.724240   7.404079
    30  H    3.900406   2.266515   3.899970   7.298257   7.924908
    31  O    5.153670   3.821587   5.177842   8.840389   9.369290
    32  H    6.011139   4.475485   5.491078   9.315317   9.680985
    33  H    5.438024   4.459227   6.021310   9.565466  10.194416
    34  O    5.148517   3.818296   5.159066   7.380136   8.017590
    35  H    5.434047   4.456985   6.003657   8.011580   8.764903
    36  H    6.005965   4.471506   5.469998   7.706612   8.157742
    37  O    6.345734   5.899740   7.656044  11.018728  11.785481
    38  H    6.547653   6.297786   8.001867  11.327210  12.121769
    39  H    6.449345   6.232393   8.164010  11.334962  12.203110
                   26         27         28         29         30
    26  H    0.000000
    27  H    5.831365   0.000000
    28  O    8.156938   5.606055   0.000000
    29  H    8.447197   6.175723   0.974215   0.000000
    30  H    8.956710   6.183974   0.974211   1.581495   0.000000
    31  O   10.427659   7.366838   2.753454   3.243302   1.781643
    32  H   10.848811   8.146667   3.394706   3.811397   2.455494
    33  H   11.177300   7.705492   3.394944   3.809205   2.455757
    34  O    9.090291   7.345145   2.753583   1.781877   3.244405
    35  H    9.738413   7.683620   3.395156   2.455666   3.809838
    36  H    9.355328   8.124348   3.393273   2.454380   3.810180
    37  O   12.646322   8.578956   4.918748   5.251790   4.066113
    38  H   12.907787   8.613096   5.503398   5.951085   4.665440
    39  H   13.003521   8.734834   5.225869   5.443562   4.468997
                   31         32         33         34         35
    31  O    0.000000
    32  H    0.960876   0.000000
    33  H    0.960886   1.532638   0.000000
    34  O    4.646186   5.088788   5.084214   0.000000
    35  H    5.082775   5.582519   5.363238   0.960912   0.000000
    36  H    5.085975   5.371750   5.581499   0.960899   1.532556
    37  O    2.743067   3.129341   1.784925   6.325114   6.377413
    38  H    3.307954   3.673299   2.415645   7.146041   7.221033
    39  H    3.422189   3.904091   2.481556   6.334247   6.240470
                   36         37         38         39
    36  H    0.000000
    37  O    6.879959   0.000000
    38  H    7.737543   0.973136   0.000000
    39  H    6.933702   0.972714   1.518767   0.000000
 Stoichiometry    C10H23N2O4(1+)
 Framework group  C1[X(C10H23N2O4)]
 Deg. of freedom   111
 Full point group                 C1      NOp   1
 Largest Abelian subgroup         C1      NOp   1
 Largest concise Abelian subgroup C1      NOp   1
                         Standard orientation:                         
 ---------------------------------------------------------------------
 Center     Atomic      Atomic             Coordinates (Angstroms)
 Number     Number       Type             X           Y           Z
 ---------------------------------------------------------------------
      1          6           0        3.075490   -1.688760   -0.860965
      2          6           0        2.684381   -0.207925   -0.623070
      3          7           0        3.878938    0.390860   -0.049085
      4          6           0        4.995502   -0.209521   -0.774652
      5          6           0        4.621930   -1.689535   -0.854013
      6          6           0        1.493311   -0.055834    0.292321
      7          6           0        0.228016    0.205774   -0.207004
      8          7           0       -0.832563    0.297723    0.612347
      9          6           0       -0.728695    0.153533    1.939832
     10          6           0        0.508633   -0.099073    2.508897
     11          6           0        1.621370   -0.203748    1.679234
     12          6           0        3.881451    1.841655   -0.069987
     13          1           0        2.433322    0.263485   -1.597262
     14          1           0        2.675266   -2.328324   -0.065232
     15          1           0        2.655415   -2.047166   -1.807494
     16          1           0        4.999018   -2.224320    0.024801
     17          1           0        5.042009   -2.170360   -1.743461
     18          1           0        5.084321    0.225969   -1.790917
     19          1           0        5.937156   -0.022651   -0.245161
     20          1           0        2.613751   -0.388116    2.090657
     21          1           0       -1.649066    0.250317    2.510538
     22          1           0       -1.787387    0.499292    0.190295
     23          1           0        0.026170    0.351005   -1.266514
     24          1           0        3.046605    2.234841    0.525327
     25          1           0        3.798494    2.245892   -1.098894
     26          1           0        4.812791    2.212813    0.372963
     27          1           0        0.593574   -0.210099    3.587388
     28          8           0       -3.179442    0.796117   -0.435016
     29          1           0       -3.564910    1.680824   -0.568448
     30          1           0       -3.829141    0.129083   -0.721449
     31          8           0       -4.913737   -1.199321   -1.204403
     32          1           0       -5.091081   -1.450739   -2.114689
     33          1           0       -5.680713   -1.483984   -0.700402
     34          8           0       -4.134041    3.358947   -0.755735
     35          1           0       -4.782804    3.778303   -0.184247
     36          1           0       -4.190492    3.819627   -1.597112
     37          8           0       -7.049037   -2.169262    0.218314
     38          1           0       -6.966975   -3.059292    0.603160
     39          1           0       -7.578240   -1.697722    0.884472
 ---------------------------------------------------------------------
 Rotational constants (GHZ):           0.6618749           0.1425992           0.1345487
 Standard basis: Aug-CC-pVDZ (5D, 7F)
 There are   607 symmetry adapted cartesian basis functions of A   symmetry.
 There are   575 symmetry adapted basis functions of A   symmetry.
   575 basis functions,   941 primitive gaussians,   607 cartesian basis functions
    64 alpha electrons       64 beta electrons
       nuclear repulsion energy      1110.3950687502 Hartrees.
 NAtoms=   39 NActive=   39 NUniq=   39 SFac= 1.00D+00 NAtFMM=   60 NAOKFM=F Big=F
 Integral buffers will be    131072 words long.
 Raffenetti 2 integral format.
 Two-electron integral symmetry is turned on.
 Nuclear repulsion after empirical dispersion term =     1110.3714692594 Hartrees.
 One-electron integrals computed using PRISM.
 NBasis=   575 RedAO= T EigKep=  2.25D-06  NBF=   575
 NBsUse=   575 1.00D-06 EigRej= -1.00D+00 NBFU=   575
 ExpMin= 2.97D-02 ExpMax= 1.17D+04 ExpMxC= 4.01D+02 IAcc=3 IRadAn=         5 AccDes= 0.00D+00
 Harris functional with IExCor= 4639 and IRadAn=       5 diagonalized for initial guess.
 HarFok:  IExCor= 4639 AccDes= 0.00D+00 IRadAn=         5 IDoV= 1 UseB2=F ITyADJ=14
 ICtDFT=  3500011 ScaDFX=  1.000000  1.000000  1.000000  1.000000
 FoFCou: FMM=F IPFlag=           0 FMFlag=      100000 FMFlg1=           0
         NFxFlg=           0 DoJE=T BraDBF=F KetDBF=T FulRan=T
         wScrn=  0.000000 ICntrl=       500 IOpCl=  0 I1Cent=   200000004 NGrid=           0
         NMat0=    1 NMatS0=      1 NMatT0=    0 NMatD0=    1 NMtDS0=    0 NMtDT0=    0
 Petite list used in FoFCou.
 Requested convergence on RMS density matrix=1.00D-08 within 128 cycles.
 Requested convergence on MAX density matrix=1.00D-06.
 Requested convergence on             energy=1.00D-06.
 No special actions if energy rises.
 SCF Done:  E(RwB97XD) =  -805.020770669     A.U. after   14 cycles
            NFock= 14  Conv=0.67D-08     -V/T= 2.0063

 **********************************************************************

            Population analysis using the SCF density.

 **********************************************************************

 Orbital symmetries:
       Occupied  (A) (A) (A) (A) (A) (A) (A) (A) (A) (A) (A) (A)
                 (A) (A) (A) (A) (A) (A) (A) (A) (A) (A) (A) (A)
                 (A) (A) (A) (A) (A) (A) (A) (A) (A) (A) (A) (A)
                 (A) (A) (A) (A) (A) (A) (A) (A) (A) (A) (A) (A)
                 (A) (A) (A) (A) (A) (A) (A) (A) (A) (A) (A) (A)
                 (A) (A) (A) (A)
       Virtual   (A) (A) (A) (A) (A) (A) (A) (A) (A) (A) (A) (A)
                 (A) (A) (A) (A) (A) (A) (A) (A) (A) (A) (A) (A)
                 (A) (A) (A) (A) (A) (A) (A) (A) (A) (A) (A) (A)
                 (A) (A) (A) (A) (A) (A) (A) (A) (A) (A) (A) (A)
                 (A) (A) (A) (A) (A) (A) (A) (A) (A) (A) (A) (A)
                 (A) (A) (A) (A) (A) (A) (A) (A) (A) (A) (A) (A)
                 (A) (A) (A) (A) (A) (A) (A) (A) (A) (A) (A) (A)
                 (A) (A) (A) (A) (A) (A) (A) (A) (A) (A) (A) (A)
                 (A) (A) (A) (A) (A) (A) (A) (A) (A) (A) (A) (A)
                 (A) (A) (A) (A) (A) (A) (A) (A) (A) (A) (A) (A)
                 (A) (A) (A) (A) (A) (A) (A) (A) (A) (A) (A) (A)
                 (A) (A) (A) (A) (A) (A) (A) (A) (A) (A) (A) (A)
                 (A) (A) (A) (A) (A) (A) (A) (A) (A) (A) (A) (A)
                 (A) (A) (A) (A) (A) (A) (A) (A) (A) (A) (A) (A)
                 (A) (A) (A) (A) (A) (A) (A) (A) (A) (A) (A) (A)
                 (A) (A) (A) (A) (A) (A) (A) (A) (A) (A) (A) (A)
                 (A) (A) (A) (A) (A) (A) (A) (A) (A) (A) (A) (A)
                 (A) (A) (A) (A) (A) (A) (A) (A) (A) (A) (A) (A)
                 (A) (A) (A) (A) (A) (A) (A) (A) (A) (A) (A) (A)
                 (A) (A) (A) (A) (A) (A) (A) (A) (A) (A) (A) (A)
                 (A) (A) (A) (A) (A) (A) (A) (A) (A) (A) (A) (A)
                 (A) (A) (A) (A) (A) (A) (A) (A) (A) (A) (A) (A)
                 (A) (A) (A) (A) (A) (A) (A) (A) (A) (A) (A) (A)
                 (A) (A) (A) (A) (A) (A) (A) (A) (A) (A) (A) (A)
                 (A) (A) (A) (A) (A) (A) (A) (A) (A) (A) (A) (A)
                 (A) (A) (A) (A) (A) (A) (A) (A) (A) (A) (A) (A)
                 (A) (A) (A) (A) (A) (A) (A) (A) (A) (A) (A) (A)
                 (A) (A) (A) (A) (A) (A) (A) (A) (A) (A) (A) (A)
                 (A) (A) (A) (A) (A) (A) (A) (A) (A) (A) (A) (A)
                 (A) (A) (A) (A) (A) (A) (A) (A) (A) (A) (A) (A)
                 (A) (A) (A) (A) (A) (A) (A) (A) (A) (A) (A) (A)
                 (A) (A) (A) (A) (A) (A) (A) (A) (A) (A) (A) (A)
                 (A) (A) (A) (A) (A) (A) (A) (A) (A) (A) (A) (A)
                 (A) (A) (A) (A) (A) (A) (A) (A) (A) (A) (A) (A)
                 (A) (A) (A) (A) (A) (A) (A) (A) (A) (A) (A) (A)
                 (A) (A) (A) (A) (A) (A) (A) (A) (A) (A) (A) (A)
                 (A) (A) (A) (A) (A) (A) (A) (A) (A) (A) (A) (A)
                 (A) (A) (A) (A) (A) (A) (A) (A) (A) (A) (A) (A)
                 (A) (A) (A) (A) (A) (A) (A) (A) (A) (A) (A) (A)
                 (A) (A) (A) (A) (A) (A) (A) (A) (A) (A) (A) (A)
                 (A) (A) (A) (A) (A) (A) (A) (A) (A) (A) (A) (A)
                 (A) (A) (A) (A) (A) (A) (A) (A) (A) (A) (A) (A)
                 (A) (A) (A) (A) (A) (A) (A)
 The electronic state is 1-A.
 Alpha  occ. eigenvalues --  -19.39981 -19.39477 -19.36777 -19.36476 -14.66053
 Alpha  occ. eigenvalues --  -14.54376 -10.49849 -10.49474 -10.46099 -10.45701
 Alpha  occ. eigenvalues --  -10.45623 -10.44261 -10.40707 -10.40660 -10.39702
 Alpha  occ. eigenvalues --  -10.38372  -1.24529  -1.24279  -1.23336  -1.21483
 Alpha  occ. eigenvalues --   -1.20385  -1.14868  -1.06635  -1.03364  -0.98226
 Alpha  occ. eigenvalues --   -0.94020  -0.89128  -0.87718  -0.86636  -0.81398
 Alpha  occ. eigenvalues --   -0.77589  -0.76306  -0.74701  -0.73650  -0.73364
 Alpha  occ. eigenvalues --   -0.72893  -0.72240  -0.72173  -0.69614  -0.67658
 Alpha  occ. eigenvalues --   -0.67554  -0.66487  -0.63575  -0.63056  -0.62366
 Alpha  occ. eigenvalues --   -0.61544  -0.61190  -0.60060  -0.58981  -0.57494
 Alpha  occ. eigenvalues --   -0.56207  -0.55911  -0.55158  -0.54244  -0.53452
 Alpha  occ. eigenvalues --   -0.52803  -0.52120  -0.51654  -0.51571  -0.51027
 Alpha  occ. eigenvalues --   -0.49989  -0.49941  -0.47832  -0.40443
 Alpha virt. eigenvalues --   -0.12775  -0.09367  -0.06266  -0.04798  -0.04642
 Alpha virt. eigenvalues --   -0.04213  -0.03050  -0.02927  -0.02584  -0.02088
 Alpha virt. eigenvalues --   -0.01667  -0.01383  -0.01035  -0.00704  -0.00550
 Alpha virt. eigenvalues --   -0.00190   0.00458   0.00728   0.01233   0.01668
 Alpha virt. eigenvalues --    0.01994   0.02138   0.02730   0.03310   0.03659
 Alpha virt. eigenvalues --    0.03842   0.04024   0.04222   0.04488   0.04885
 Alpha virt. eigenvalues --    0.05082   0.05627   0.05969   0.06116   0.06385
 Alpha virt. eigenvalues --    0.06706   0.06916   0.06953   0.07520   0.07950
 Alpha virt. eigenvalues --    0.08262   0.08350   0.08623   0.08918   0.09228
 Alpha virt. eigenvalues --    0.09601   0.09744   0.10304   0.10605   0.10981
 Alpha virt. eigenvalues --    0.11021   0.11304   0.11710   0.11927   0.12362
 Alpha virt. eigenvalues --    0.12572   0.12734   0.12980   0.13153   0.13477
 Alpha virt. eigenvalues --    0.13732   0.14052   0.14354   0.14651   0.14770
 Alpha virt. eigenvalues --    0.15167   0.15437   0.15761   0.16128   0.16292
 Alpha virt. eigenvalues --    0.16765   0.16957   0.17234   0.17349   0.17611
 Alpha virt. eigenvalues --    0.17945   0.18072   0.18275   0.18921   0.19006
 Alpha virt. eigenvalues --    0.19323   0.19873   0.20150   0.20410   0.20691
 Alpha virt. eigenvalues --    0.20989   0.21190   0.21518   0.21944   0.22204
 Alpha virt. eigenvalues --    0.22393   0.22585   0.22774   0.23516   0.23846
 Alpha virt. eigenvalues --    0.23987   0.24340   0.24806   0.25164   0.25415
 Alpha virt. eigenvalues --    0.25694   0.26006   0.26742   0.26759   0.26916
 Alpha virt. eigenvalues --    0.27490   0.27662   0.27827   0.28199   0.28447
 Alpha virt. eigenvalues --    0.28664   0.29132   0.29460   0.29951   0.30394
 Alpha virt. eigenvalues --    0.30853   0.31155   0.31395   0.31919   0.32484
 Alpha virt. eigenvalues --    0.32592   0.32983   0.33288   0.33691   0.34118
 Alpha virt. eigenvalues --    0.34553   0.34732   0.35327   0.36107   0.36518
 Alpha virt. eigenvalues --    0.36644   0.37077   0.37891   0.38132   0.38350
 Alpha virt. eigenvalues --    0.38794   0.38915   0.39262   0.39518   0.40310
 Alpha virt. eigenvalues --    0.40894   0.41460   0.41678   0.42484   0.42694
 Alpha virt. eigenvalues --    0.42824   0.43222   0.43429   0.43725   0.43965
 Alpha virt. eigenvalues --    0.44285   0.44656   0.44974   0.45136   0.45720
 Alpha virt. eigenvalues --    0.46056   0.46219   0.46588   0.46862   0.47069
 Alpha virt. eigenvalues --    0.47277   0.47930   0.48381   0.48900   0.49698
 Alpha virt. eigenvalues --    0.50167   0.50453   0.50710   0.51004   0.51222
 Alpha virt. eigenvalues --    0.51514   0.51865   0.52032   0.52125   0.52679
 Alpha virt. eigenvalues --    0.52724   0.52819   0.53478   0.53848   0.54280
 Alpha virt. eigenvalues --    0.54365   0.54952   0.55237   0.55510   0.55972
 Alpha virt. eigenvalues --    0.56151   0.56676   0.56861   0.57730   0.58144
 Alpha virt. eigenvalues --    0.58344   0.58662   0.58952   0.59928   0.60443
 Alpha virt. eigenvalues --    0.60928   0.61129   0.62302   0.62682   0.63169
 Alpha virt. eigenvalues --    0.63968   0.64072   0.64636   0.64779   0.65121
 Alpha virt. eigenvalues --    0.65468   0.66003   0.66591   0.66694   0.67370
 Alpha virt. eigenvalues --    0.67991   0.68639   0.69348   0.69426   0.69877
 Alpha virt. eigenvalues --    0.70200   0.70835   0.71360   0.71443   0.72319
 Alpha virt. eigenvalues --    0.72583   0.72929   0.73078   0.73777   0.74184
 Alpha virt. eigenvalues --    0.74503   0.74938   0.75367   0.76145   0.76588
 Alpha virt. eigenvalues --    0.77166   0.77945   0.78086   0.78365   0.79213
 Alpha virt. eigenvalues --    0.79702   0.79948   0.80616   0.81030   0.81396
 Alpha virt. eigenvalues --    0.82201   0.82939   0.83336   0.84545   0.84905
 Alpha virt. eigenvalues --    0.85274   0.86427   0.86758   0.87100   0.87556
 Alpha virt. eigenvalues --    0.88238   0.89413   0.89594   0.90743   0.91465
 Alpha virt. eigenvalues --    0.92422   0.92762   0.93466   0.93919   0.94084
 Alpha virt. eigenvalues --    0.94719   0.95958   0.96673   0.97858   0.98362
 Alpha virt. eigenvalues --    0.99202   0.99605   0.99872   1.00711   1.01954
 Alpha virt. eigenvalues --    1.02461   1.02666   1.03485   1.04000   1.04805
 Alpha virt. eigenvalues --    1.05996   1.06204   1.07397   1.07483   1.08064
 Alpha virt. eigenvalues --    1.09097   1.09712   1.10218   1.10749   1.12235
 Alpha virt. eigenvalues --    1.13707   1.14065   1.15568   1.16807   1.17019
 Alpha virt. eigenvalues --    1.17133   1.18256   1.18604   1.19411   1.20506
 Alpha virt. eigenvalues --    1.21686   1.22964   1.23238   1.24328   1.24966
 Alpha virt. eigenvalues --    1.26200   1.27471   1.28551   1.29726   1.30642
 Alpha virt. eigenvalues --    1.31502   1.31980   1.32137   1.33786   1.33948
 Alpha virt. eigenvalues --    1.34401   1.35831   1.36345   1.36839   1.37743
 Alpha virt. eigenvalues --    1.37946   1.39251   1.39798   1.40507   1.42036
 Alpha virt. eigenvalues --    1.43771   1.43919   1.44654   1.45733   1.46900
 Alpha virt. eigenvalues --    1.48123   1.48551   1.50071   1.50184   1.51629
 Alpha virt. eigenvalues --    1.52641   1.53831   1.54367   1.55731   1.55979
 Alpha virt. eigenvalues --    1.57442   1.58376   1.59519   1.61238   1.61430
 Alpha virt. eigenvalues --    1.62968   1.63394   1.64731   1.65483   1.65797
 Alpha virt. eigenvalues --    1.67106   1.67311   1.68340   1.68966   1.69730
 Alpha virt. eigenvalues --    1.70603   1.71842   1.72316   1.73035   1.73275
 Alpha virt. eigenvalues --    1.73486   1.74093   1.74674   1.74976   1.76485
 Alpha virt. eigenvalues --    1.77570   1.78028   1.78884   1.79691   1.80318
 Alpha virt. eigenvalues --    1.81287   1.82651   1.83005   1.83774   1.84095
 Alpha virt. eigenvalues --    1.85100   1.85277   1.86882   1.87070   1.87830
 Alpha virt. eigenvalues --    1.89118   1.89377   1.89940   1.90810   1.92097
 Alpha virt. eigenvalues --    1.92837   1.93166   1.93905   1.95399   1.95970
 Alpha virt. eigenvalues --    1.97043   1.97688   1.98290   1.98687   2.00523
 Alpha virt. eigenvalues --    2.01151   2.01409   2.02295   2.03839   2.04614
 Alpha virt. eigenvalues --    2.06989   2.07469   2.08058   2.08750   2.09875
 Alpha virt. eigenvalues --    2.10545   2.12235   2.12827   2.13675   2.14608
 Alpha virt. eigenvalues --    2.15004   2.15472   2.16640   2.17008   2.17428
 Alpha virt. eigenvalues --    2.18012   2.18914   2.19159   2.21167   2.22455
 Alpha virt. eigenvalues --    2.23958   2.24050   2.24509   2.24952   2.25720
 Alpha virt. eigenvalues --    2.27887   2.28899   2.30112   2.30432   2.31558
 Alpha virt. eigenvalues --    2.32029   2.33973   2.34064   2.36212   2.37079
 Alpha virt. eigenvalues --    2.38284   2.40825   2.42033   2.42284   2.44616
 Alpha virt. eigenvalues --    2.45631   2.46411   2.47852   2.48346   2.49830
 Alpha virt. eigenvalues --    2.50831   2.51150   2.52441   2.53397   2.55443
 Alpha virt. eigenvalues --    2.56167   2.56912   2.57496   2.57997   2.59572
 Alpha virt. eigenvalues --    2.61489   2.61882   2.62491   2.64133   2.65340
 Alpha virt. eigenvalues --    2.67033   2.67602   2.69034   2.69823   2.72012
 Alpha virt. eigenvalues --    2.72089   2.73867   2.74025   2.74702   2.75693
 Alpha virt. eigenvalues --    2.78454   2.79579   2.79847   2.81047   2.83161
 Alpha virt. eigenvalues --    2.83460   2.84899   2.85759   2.87729   2.89005
 Alpha virt. eigenvalues --    2.91404   2.94045   2.96884   3.03436   3.05427
 Alpha virt. eigenvalues --    3.14305   3.15175   3.16737   3.21712   3.28308
 Alpha virt. eigenvalues --    3.29125   3.30176   3.32953   3.35271   3.37076
 Alpha virt. eigenvalues --    3.37991   3.40513   3.42298   3.43551   3.44485
 Alpha virt. eigenvalues --    3.45868   3.51348   3.52047   3.53780   3.64110
 Alpha virt. eigenvalues --    3.66366   3.68003   3.72401   3.80505   3.87961
 Alpha virt. eigenvalues --    3.90426   3.99050   4.06436   4.10049   4.28639
 Alpha virt. eigenvalues --    4.91542
          Condensed to atoms (all electrons):
               1          2          3          4          5          6
     1  C    7.222239  -0.857523  -0.436663   0.376814  -0.710219   0.368467
     2  C   -0.857523  20.246225  -2.252676  -0.218459  -0.893920  -5.547558
     3  N   -0.436663  -2.252676   8.848344   0.115217   0.151332   0.805279
     4  C    0.376814  -0.218459   0.115217   5.695582   0.079871  -0.223460
     5  C   -0.710219  -0.893920   0.151332   0.079871   6.140378   0.585148
     6  C    0.368467  -5.547558   0.805279  -0.223460   0.585148  23.860589
     7  C   -0.755962  -1.982302   0.045203  -0.264648   0.156068  -7.687984
     8  N    0.023099   0.476007  -0.058005   0.019189  -0.013563   0.310487
     9  C   -0.147639  -0.945958   0.058189  -0.061305  -0.009850  -0.504175
    10  C    0.301611   0.123853  -0.149957   0.078081   0.065774   1.456342
    11  C   -0.231885  -0.671662   0.372241  -0.098480  -0.352855  -8.415790
    12  C   -0.068451  -0.407389   0.431301  -0.206781   0.009090   0.239498
    13  H    0.372748  -2.223150  -0.129190  -0.127797   0.054980   0.451217
    14  H   -0.347850   0.048359   0.029365   0.065343   0.279694  -0.506673
    15  H   -0.723412   0.192475   0.153762  -0.154428   0.241261   0.209240
    16  H    0.118521  -0.034993   0.087827  -0.029721  -0.224767   0.047818
    17  H    0.324120  -0.018009  -0.032523   0.136350  -0.324559  -0.041811
    18  H   -0.127852  -0.279259   0.460790  -0.286820   0.074053   0.182879
    19  H    0.132032   0.554929  -0.705810  -0.098077  -0.043274  -0.226401
    20  H    0.057227   0.062896  -0.214658   0.025010   0.010431   0.135003
    21  H    0.005153   0.017818   0.003643  -0.001226  -0.000396   0.248998
    22  H   -0.032673  -0.079240   0.004737  -0.006577   0.005670  -0.834703
    23  H    0.160208   0.068127   0.058556   0.018045   0.001675   0.128822
    24  H    0.128091   0.186421  -0.171001  -0.075357  -0.068504   0.048286
    25  H   -0.024133  -0.297289   0.223358   0.014238   0.056900   0.004210
    26  H   -0.057340  -0.070867  -0.257848   0.029530   0.051091   0.132292
    27  H   -0.008764   0.016912  -0.004375   0.001300   0.005044  -0.383835
    28  O   -0.002511  -0.004124   0.000478   0.000155  -0.000198  -0.143410
    29  H    0.001384   0.004240   0.000131   0.000320  -0.000205   0.015419
    30  H   -0.000935   0.005038  -0.000218  -0.000006  -0.000074   0.001060
    31  O    0.000177  -0.000102  -0.000001  -0.000003   0.000010   0.002646
    32  H    0.000047   0.000129  -0.000013   0.000004  -0.000005   0.000569
    33  H    0.000056  -0.000263   0.000014  -0.000003   0.000011   0.000563
    34  O    0.000023   0.000229   0.000003   0.000001  -0.000000   0.002520
    35  H   -0.000002   0.000039  -0.000004  -0.000001  -0.000001   0.000020
    36  H   -0.000020  -0.000004  -0.000003  -0.000005   0.000006   0.000394
    37  O    0.000001   0.000012  -0.000000   0.000000  -0.000000   0.000118
    38  H   -0.000002   0.000013  -0.000000   0.000000  -0.000000  -0.000009
    39  H    0.000000   0.000002  -0.000000   0.000000   0.000000  -0.000022
               7          8          9         10         11         12
     1  C   -0.755962   0.023099  -0.147639   0.301611  -0.231885  -0.068451
     2  C   -1.982302   0.476007  -0.945958   0.123853  -0.671662  -0.407389
     3  N    0.045203  -0.058005   0.058189  -0.149957   0.372241   0.431301
     4  C   -0.264648   0.019189  -0.061305   0.078081  -0.098480  -0.206781
     5  C    0.156068  -0.013563  -0.009850   0.065774  -0.352855   0.009090
     6  C   -7.687984   0.310487  -0.504175   1.456342  -8.415790   0.239498
     7  C   19.515319  -0.994863  -0.599266  -1.438708  -1.077788  -0.028518
     8  N   -0.994863   7.502599  -0.010390   0.408068  -0.478006  -0.018400
     9  C   -0.599266  -0.010390  10.525552  -3.229914   1.143993   0.011447
    10  C   -1.438708   0.408068  -3.229914  13.993553  -5.694592  -0.001992
    11  C   -1.077788  -0.478006   1.143993  -5.694592  21.806641  -0.063865
    12  C   -0.028518  -0.018400   0.011447  -0.001992  -0.063865   4.482383
    13  H    0.459107  -0.012282   0.045074  -0.081905  -0.027484   0.051700
    14  H    0.133408   0.019264  -0.023679  -0.013448   0.103255   0.017659
    15  H   -0.017212  -0.012286   0.003938   0.032213  -0.042954   0.016863
    16  H    0.021086  -0.001943   0.002250   0.012254   0.009284  -0.015842
    17  H    0.002490  -0.000470   0.000695  -0.005290   0.000230   0.014054
    18  H    0.017915  -0.000247  -0.000617   0.004539   0.024330  -0.015862
    19  H   -0.019096   0.001940  -0.003185   0.000803  -0.006255  -0.013704
    20  H    0.218215  -0.025435  -0.211744   1.112758  -2.393082  -0.028233
    21  H   -0.001723   0.006728  -0.937791   0.341392   0.061346   0.003094
    22  H    0.731587   0.065825  -0.401363  -0.188482   0.007534  -0.001438
    23  H   -1.073573   0.073191  -0.048272   0.060313  -0.001465   0.006293
    24  H   -0.224321   0.024677  -0.011120   0.057617  -0.038869   0.262113
    25  H    0.087662  -0.009681   0.003392   0.000282   0.025618   0.141930
    26  H    0.026384  -0.003716   0.004403  -0.002916  -0.045169   0.349219
    27  H    0.057368  -0.042744   0.537878  -1.343459   0.878083  -0.007830
    28  O    0.119585  -0.220422   0.007904  -0.061949   0.052503  -0.000540
    29  H   -0.017033   0.009911  -0.005396   0.008706   0.000881  -0.000385
    30  H   -0.006358   0.004641   0.001428   0.002902   0.010659   0.000014
    31  O   -0.003899  -0.001042   0.004395   0.000720  -0.000342   0.000001
    32  H   -0.003259   0.000853   0.000189   0.000407  -0.000226  -0.000004
    33  H    0.002824   0.000196  -0.000808   0.000106  -0.001029   0.000007
    34  O   -0.002247  -0.001761   0.004105   0.001296  -0.000269  -0.000011
    35  H    0.001013   0.000016  -0.001042  -0.000253  -0.000006  -0.000002
    36  H   -0.002188   0.000666   0.000070   0.000425  -0.000386   0.000023
    37  O    0.000199   0.000207   0.000189   0.000024  -0.000002  -0.000000
    38  H    0.000002  -0.000009   0.000018   0.000033   0.000027  -0.000000
    39  H   -0.000008  -0.000015  -0.000022  -0.000021   0.000019  -0.000000
              13         14         15         16         17         18
     1  C    0.372748  -0.347850  -0.723412   0.118521   0.324120  -0.127852
     2  C   -2.223150   0.048359   0.192475  -0.034993  -0.018009  -0.279259
     3  N   -0.129190   0.029365   0.153762   0.087827  -0.032523   0.460790
     4  C   -0.127797   0.065343  -0.154428  -0.029721   0.136350  -0.286820
     5  C    0.054980   0.279694   0.241261  -0.224767  -0.324559   0.074053
     6  C    0.451217  -0.506673   0.209240   0.047818  -0.041811   0.182879
     7  C    0.459107   0.133408  -0.017212   0.021086   0.002490   0.017915
     8  N   -0.012282   0.019264  -0.012286  -0.001943  -0.000470  -0.000247
     9  C    0.045074  -0.023679   0.003938   0.002250   0.000695  -0.000617
    10  C   -0.081905  -0.013448   0.032213   0.012254  -0.005290   0.004539
    11  C   -0.027484   0.103255  -0.042954   0.009284   0.000230   0.024330
    12  C    0.051700   0.017659   0.016863  -0.015842   0.014054  -0.015862
    13  H    3.152945   0.140199  -0.295079  -0.047339   0.043224  -0.077082
    14  H    0.140199   2.217889  -0.492982  -0.348524   0.142191  -0.040482
    15  H   -0.295079  -0.492982   2.341247   0.190755  -0.304530   0.059896
    16  H   -0.047339  -0.348524   0.190755   2.075401  -0.454336   0.170773
    17  H    0.043224   0.142191  -0.304530  -0.454336   1.919818  -0.202547
    18  H   -0.077082  -0.040482   0.059896   0.170773  -0.202547   1.853301
    19  H    0.051380   0.019727  -0.025610  -0.260482   0.074579  -0.442639
    20  H    0.006681  -0.020695   0.001514   0.010820   0.003850   0.002497
    21  H    0.000590  -0.001524   0.001350   0.000201   0.000002   0.000131
    22  H    0.003357  -0.003712   0.004450   0.001135  -0.000093   0.000135
    23  H   -0.087646   0.017837   0.004650   0.000617   0.000474   0.004424
    24  H    0.028842   0.008571  -0.003602  -0.007726  -0.000615  -0.003617
    25  H    0.048303   0.001071   0.001223  -0.000962   0.007227   0.001935
    26  H    0.000900  -0.002252   0.001065   0.007431  -0.002560  -0.000505
    27  H    0.003718  -0.001899  -0.001214   0.000361  -0.000386  -0.000108
    28  O    0.000810   0.000061  -0.000078  -0.000013  -0.000004  -0.000033
    29  H   -0.000277   0.000191  -0.000079  -0.000026   0.000001   0.000013
    30  H    0.000815   0.000287  -0.000171  -0.000030   0.000012  -0.000033
    31  O   -0.000003   0.000014  -0.000006  -0.000000   0.000001   0.000001
    32  H    0.000041  -0.000001  -0.000015  -0.000001   0.000001  -0.000000
    33  H   -0.000124  -0.000018   0.000032   0.000003  -0.000001   0.000001
    34  O    0.000064   0.000014  -0.000006  -0.000001   0.000001  -0.000001
    35  H    0.000003   0.000002  -0.000002  -0.000000   0.000000  -0.000000
    36  H   -0.000018  -0.000006   0.000004   0.000001  -0.000000   0.000000
    37  O    0.000004   0.000003  -0.000001  -0.000000   0.000000  -0.000000
    38  H    0.000003   0.000001  -0.000001  -0.000000   0.000000  -0.000000
    39  H    0.000001  -0.000000  -0.000000  -0.000000   0.000000   0.000000
              19         20         21         22         23         24
     1  C    0.132032   0.057227   0.005153  -0.032673   0.160208   0.128091
     2  C    0.554929   0.062896   0.017818  -0.079240   0.068127   0.186421
     3  N   -0.705810  -0.214658   0.003643   0.004737   0.058556  -0.171001
     4  C   -0.098077   0.025010  -0.001226  -0.006577   0.018045  -0.075357
     5  C   -0.043274   0.010431  -0.000396   0.005670   0.001675  -0.068504
     6  C   -0.226401   0.135003   0.248998  -0.834703   0.128822   0.048286
     7  C   -0.019096   0.218215  -0.001723   0.731587  -1.073573  -0.224321
     8  N    0.001940  -0.025435   0.006728   0.065825   0.073191   0.024677
     9  C   -0.003185  -0.211744  -0.937791  -0.401363  -0.048272  -0.011120
    10  C    0.000803   1.112758   0.341392  -0.188482   0.060313   0.057617
    11  C   -0.006255  -2.393082   0.061346   0.007534  -0.001465  -0.038869
    12  C   -0.013704  -0.028233   0.003094  -0.001438   0.006293   0.262113
    13  H    0.051380   0.006681   0.000590   0.003357  -0.087646   0.028842
    14  H    0.019727  -0.020695  -0.001524  -0.003712   0.017837   0.008571
    15  H   -0.025610   0.001514   0.001350   0.004450   0.004650  -0.003602
    16  H   -0.260482   0.010820   0.000201   0.001135   0.000617  -0.007726
    17  H    0.074579   0.003850   0.000002  -0.000093   0.000474  -0.000615
    18  H   -0.442639   0.002497   0.000131   0.000135   0.004424  -0.003617
    19  H    2.506788   0.010445  -0.000133  -0.000722  -0.001203   0.008037
    20  H    0.010445   3.328561  -0.016211   0.023525  -0.021706   0.020209
    21  H   -0.000133  -0.016211   2.209334  -0.167745   0.004146  -0.000279
    22  H   -0.000722   0.023525  -0.167745   1.810013  -0.079495  -0.006662
    23  H   -0.001203  -0.021706   0.004146  -0.079495   2.540448   0.007184
    24  H    0.008037   0.020209  -0.000279  -0.006662   0.007184   2.126483
    25  H    0.005424   0.004191   0.000051   0.003526   0.001610  -0.403452
    26  H    0.014079  -0.002699   0.000364  -0.000012   0.001965  -0.552440
    27  H   -0.000661  -0.129746  -0.126929   0.011840  -0.000875   0.000847
    28  O    0.000008   0.001170  -0.003734   0.076276   0.005537  -0.000104
    29  H    0.000022  -0.000178   0.005468  -0.033334   0.006107   0.000151
    30  H    0.000012  -0.000204   0.006695  -0.036415   0.000163   0.000143
    31  O   -0.000000  -0.000011   0.001411  -0.006585   0.000861   0.000008
    32  H    0.000000  -0.000003   0.000013   0.004082  -0.000190  -0.000002
    33  H   -0.000001  -0.000016  -0.000527  -0.000088   0.000335   0.000002
    34  O    0.000000  -0.000017   0.001134  -0.007648   0.000826   0.000089
    35  H    0.000000  -0.000001  -0.000139   0.002294   0.000005   0.000002
    36  H   -0.000000  -0.000006   0.000022   0.004270  -0.000330  -0.000000
    37  O    0.000000  -0.000001  -0.000290  -0.000452  -0.000089  -0.000000
    38  H    0.000000   0.000001  -0.000015  -0.000475  -0.000001  -0.000000
    39  H   -0.000000   0.000001  -0.000064   0.000219  -0.000003  -0.000000
              25         26         27         28         29         30
     1  C   -0.024133  -0.057340  -0.008764  -0.002511   0.001384  -0.000935
     2  C   -0.297289  -0.070867   0.016912  -0.004124   0.004240   0.005038
     3  N    0.223358  -0.257848  -0.004375   0.000478   0.000131  -0.000218
     4  C    0.014238   0.029530   0.001300   0.000155   0.000320  -0.000006
     5  C    0.056900   0.051091   0.005044  -0.000198  -0.000205  -0.000074
     6  C    0.004210   0.132292  -0.383835  -0.143410   0.015419   0.001060
     7  C    0.087662   0.026384   0.057368   0.119585  -0.017033  -0.006358
     8  N   -0.009681  -0.003716  -0.042744  -0.220422   0.009911   0.004641
     9  C    0.003392   0.004403   0.537878   0.007904  -0.005396   0.001428
    10  C    0.000282  -0.002916  -1.343459  -0.061949   0.008706   0.002902
    11  C    0.025618  -0.045169   0.878083   0.052503   0.000881   0.010659
    12  C    0.141930   0.349219  -0.007830  -0.000540  -0.000385   0.000014
    13  H    0.048303   0.000900   0.003718   0.000810  -0.000277   0.000815
    14  H    0.001071  -0.002252  -0.001899   0.000061   0.000191   0.000287
    15  H    0.001223   0.001065  -0.001214  -0.000078  -0.000079  -0.000171
    16  H   -0.000962   0.007431   0.000361  -0.000013  -0.000026  -0.000030
    17  H    0.007227  -0.002560  -0.000386  -0.000004   0.000001   0.000012
    18  H    0.001935  -0.000505  -0.000108  -0.000033   0.000013  -0.000033
    19  H    0.005424   0.014079  -0.000661   0.000008   0.000022   0.000012
    20  H    0.004191  -0.002699  -0.129746   0.001170  -0.000178  -0.000204
    21  H    0.000051   0.000364  -0.126929  -0.003734   0.005468   0.006695
    22  H    0.003526  -0.000012   0.011840   0.076276  -0.033334  -0.036415
    23  H    0.001610   0.001965  -0.000875   0.005537   0.006107   0.000163
    24  H   -0.403452  -0.552440   0.000847  -0.000104   0.000151   0.000143
    25  H    1.543108  -0.272373  -0.001468   0.000068  -0.000103  -0.000021
    26  H   -0.272373   1.890639   0.000347  -0.000049  -0.000017  -0.000026
    27  H   -0.001468   0.000347   2.130172  -0.001328   0.000148  -0.000255
    28  O    0.000068  -0.000049  -0.001328   8.052962   0.341788   0.329809
    29  H   -0.000103  -0.000017   0.000148   0.341788   0.630106  -0.166228
    30  H   -0.000021  -0.000026  -0.000255   0.329809  -0.166228   0.617114
    31  O   -0.000001   0.000000  -0.000030  -0.046640   0.004176   0.003791
    32  H   -0.000001  -0.000000   0.000002   0.000926  -0.002480  -0.002047
    33  H    0.000002   0.000001   0.000035   0.004241   0.000042  -0.006319
    34  O   -0.000014  -0.000002   0.000006  -0.040372  -0.013987   0.003124
    35  H   -0.000000   0.000000   0.000003   0.002298  -0.000555  -0.002469
    36  H    0.000003   0.000001  -0.000001   0.001852  -0.000725  -0.002766
    37  O   -0.000000  -0.000000   0.000019   0.000204   0.001073  -0.004765
    38  H   -0.000000  -0.000000   0.000000  -0.000053   0.000175  -0.000077
    39  H   -0.000000   0.000000   0.000001   0.000176   0.000132  -0.001289
              31         32         33         34         35         36
     1  C    0.000177   0.000047   0.000056   0.000023  -0.000002  -0.000020
     2  C   -0.000102   0.000129  -0.000263   0.000229   0.000039  -0.000004
     3  N   -0.000001  -0.000013   0.000014   0.000003  -0.000004  -0.000003
     4  C   -0.000003   0.000004  -0.000003   0.000001  -0.000001  -0.000005
     5  C    0.000010  -0.000005   0.000011  -0.000000  -0.000001   0.000006
     6  C    0.002646   0.000569   0.000563   0.002520   0.000020   0.000394
     7  C   -0.003899  -0.003259   0.002824  -0.002247   0.001013  -0.002188
     8  N   -0.001042   0.000853   0.000196  -0.001761   0.000016   0.000666
     9  C    0.004395   0.000189  -0.000808   0.004105  -0.001042   0.000070
    10  C    0.000720   0.000407   0.000106   0.001296  -0.000253   0.000425
    11  C   -0.000342  -0.000226  -0.001029  -0.000269  -0.000006  -0.000386
    12  C    0.000001  -0.000004   0.000007  -0.000011  -0.000002   0.000023
    13  H   -0.000003   0.000041  -0.000124   0.000064   0.000003  -0.000018
    14  H    0.000014  -0.000001  -0.000018   0.000014   0.000002  -0.000006
    15  H   -0.000006  -0.000015   0.000032  -0.000006  -0.000002   0.000004
    16  H   -0.000000  -0.000001   0.000003  -0.000001  -0.000000   0.000001
    17  H    0.000001   0.000001  -0.000001   0.000001   0.000000  -0.000000
    18  H    0.000001  -0.000000   0.000001  -0.000001  -0.000000   0.000000
    19  H   -0.000000   0.000000  -0.000001   0.000000   0.000000  -0.000000
    20  H   -0.000011  -0.000003  -0.000016  -0.000017  -0.000001  -0.000006
    21  H    0.001411   0.000013  -0.000527   0.001134  -0.000139   0.000022
    22  H   -0.006585   0.004082  -0.000088  -0.007648   0.002294   0.004270
    23  H    0.000861  -0.000190   0.000335   0.000826   0.000005  -0.000330
    24  H    0.000008  -0.000002   0.000002   0.000089   0.000002  -0.000000
    25  H   -0.000001  -0.000001   0.000002  -0.000014  -0.000000   0.000003
    26  H    0.000000  -0.000000   0.000001  -0.000002   0.000000   0.000001
    27  H   -0.000030   0.000002   0.000035   0.000006   0.000003  -0.000001
    28  O   -0.046640   0.000926   0.004241  -0.040372   0.002298   0.001852
    29  H    0.004176  -0.002480   0.000042  -0.013987  -0.000555  -0.000725
    30  H    0.003791  -0.002047  -0.006319   0.003124  -0.002469  -0.002766
    31  O    7.730509   0.365554   0.330859  -0.001610  -0.000008  -0.000009
    32  H    0.365554   0.611526  -0.105767   0.000249   0.000019   0.000154
    33  H    0.330859  -0.105767   0.568920  -0.000558   0.000063  -0.000081
    34  O   -0.001610   0.000249  -0.000558   7.685999   0.351742   0.352417
    35  H   -0.000008   0.000019   0.000063   0.351742   0.570908  -0.074370
    36  H   -0.000009   0.000154  -0.000081   0.352417  -0.074370   0.568087
    37  O   -0.037115   0.004640   0.005902   0.000048   0.000013  -0.000016
    38  H   -0.000069  -0.000920  -0.002295   0.000002  -0.000004  -0.000002
    39  H    0.001897   0.000030  -0.001622   0.000055   0.000004   0.000003
              37         38         39
     1  C    0.000001  -0.000002   0.000000
     2  C    0.000012   0.000013   0.000002
     3  N   -0.000000  -0.000000  -0.000000
     4  C    0.000000   0.000000   0.000000
     5  C   -0.000000  -0.000000   0.000000
     6  C    0.000118  -0.000009  -0.000022
     7  C    0.000199   0.000002  -0.000008
     8  N    0.000207  -0.000009  -0.000015
     9  C    0.000189   0.000018  -0.000022
    10  C    0.000024   0.000033  -0.000021
    11  C   -0.000002   0.000027   0.000019
    12  C   -0.000000  -0.000000  -0.000000
    13  H    0.000004   0.000003   0.000001
    14  H    0.000003   0.000001  -0.000000
    15  H   -0.000001  -0.000001  -0.000000
    16  H   -0.000000  -0.000000  -0.000000
    17  H    0.000000   0.000000   0.000000
    18  H   -0.000000  -0.000000   0.000000
    19  H    0.000000   0.000000  -0.000000
    20  H   -0.000001   0.000001   0.000001
    21  H   -0.000290  -0.000015  -0.000064
    22  H   -0.000452  -0.000475   0.000219
    23  H   -0.000089  -0.000001  -0.000003
    24  H   -0.000000  -0.000000  -0.000000
    25  H   -0.000000  -0.000000  -0.000000
    26  H   -0.000000  -0.000000   0.000000
    27  H    0.000019   0.000000   0.000001
    28  O    0.000204  -0.000053   0.000176
    29  H    0.001073   0.000175   0.000132
    30  H   -0.004765  -0.000077  -0.001289
    31  O   -0.037115  -0.000069   0.001897
    32  H    0.004640  -0.000920   0.000030
    33  H    0.005902  -0.002295  -0.001622
    34  O    0.000048   0.000002   0.000055
    35  H    0.000013  -0.000004   0.000004
    36  H   -0.000016  -0.000002   0.000003
    37  O    7.671805   0.345620   0.348389
    38  H    0.345620   0.569946  -0.072482
    39  H    0.348389  -0.072482   0.564773
 Mulliken charges:
               1
     1  C    0.941817
     2  C    0.781021
     3  N   -0.436824
     4  C    1.198104
     5  C    0.673903
     6  C    1.277945
     7  C    0.605522
     8  N   -0.042288
     9  C    0.798427
    10  C    0.148814
    11  C    1.145819
    12  C    0.842561
    13  H   -0.807331
    14  H   -0.440660
    15  H   -0.382271
    16  H   -0.329832
    17  H   -0.281586
    18  H   -0.379910
    19  H   -0.532953
    20  H   -0.970361
    21  H   -0.660358
    22  H    0.127439
    23  H   -0.857571
    24  H   -0.340098
    25  H   -0.165834
    26  H   -0.238920
    27  H   -0.588178
    28  O   -0.473248
    29  H    0.210422
    30  H    0.243000
    31  O   -0.349558
    32  H    0.125499
    33  H    0.205304
    34  O   -0.335440
    35  H    0.150412
    36  H    0.152537
    37  O   -0.335739
    38  H    0.160574
    39  H    0.159846
 Sum of Mulliken charges =   1.00000
 Mulliken charges with hydrogens summed into heavy atoms:
               1
     1  C    0.118885
     2  C   -0.026310
     3  N   -0.436824
     4  C    0.285241
     5  C    0.062485
     6  C    1.277945
     7  C   -0.252050
     8  N    0.085151
     9  C    0.138069
    10  C   -0.439364
    11  C    0.175458
    12  C    0.097709
    28  O   -0.019827
    31  O   -0.018756
    34  O   -0.032492
    37  O   -0.015318
 Electronic spatial extent (au):  <R**2>=           8291.4511
 Charge=              1.0000 electrons
 Dipole moment (field-independent basis, Debye):
    X=             -7.4778    Y=              1.0297    Z=              1.8756  Tot=              7.7779
 Quadrupole moment (field-independent basis, Debye-Ang):
   XX=              0.6654   YY=            -70.3286   ZZ=            -75.0089
   XY=             -3.1131   XZ=             -6.5800   YZ=             -6.0947
 Traceless Quadrupole moment (field-independent basis, Debye-Ang):
   XX=             48.8894   YY=            -22.1045   ZZ=            -26.7849
   XY=             -3.1131   XZ=             -6.5800   YZ=             -6.0947
 Octapole moment (field-independent basis, Debye-Ang**2):
  XXX=           -515.2455  YYY=             49.2256  ZZZ=              8.7357  XYY=           -165.6787
  XXY=            -32.7196  XXZ=             35.9952  XZZ=            -69.2267  YZZ=             -0.1369
  YYZ=            -19.9938  XYZ=             39.1475
 Hexadecapole moment (field-independent basis, Debye-Ang**3):
 XXXX=          -3984.2298 YYYY=           -866.2527 ZZZZ=           -660.5787 XXXY=            423.8309
 XXXZ=           -531.1832 YYYX=           -153.5155 YYYZ=           -122.9192 ZZZX=            111.3497
 ZZZY=            -22.7883 XXYY=           -625.5388 XXZZ=          -1186.0202 YYZZ=           -284.8928
 XXYZ=           -219.3756 YYXZ=             40.4421 ZZXY=             -1.1231
 N-N= 1.110371469259D+03 E-N=-4.085766030298D+03  KE= 7.999779598749D+02
 Calling FoFJK, ICntrl=      2127 FMM=F ISym2X=0 I1Cent= 0 IOpClX= 0 NMat=1 NMatS=1 NMatT=0.
 ***** Axes restored to original set *****
 -------------------------------------------------------------------
 Center     Atomic                   Forces (Hartrees/Bohr)
 Number     Number              X              Y              Z
 -------------------------------------------------------------------
      1        6           0.000022647   -0.000019545   -0.000028342
      2        6           0.000065812    0.000033922    0.000013055
[...]
 .00001007,-0.00002617,-0.00000325,-0.00000292,-0.00000401,0.00000101,0
 .00000385,0.00000115,-0.00000021,-0.00000295,-0.00000609,0.00001480,0.
 00002242,0.00000134,0.00000952,-0.00007598,-0.00000011,0.00004811,0.00
 002912,0.00001263,-0.00000911,-0.00002452,-0.00001053,-0.00000982,-0.0
 0000612,0.00000407,-0.00000101,-0.00001066,0.00002346,0.00000116,-0.00
 000390,0.00000133,0.00000202,0.00000102,-0.00000233,-0.00000403,0.0000
 0033,-0.00000189,0.00000366,-0.00000126,-0.00000067,0.00000016,-0.0000
 0098,-0.00000094,-0.00000026,0.00000045,0.00000074,-0.00000244,-0.0000
 0356,-0.00000078,0.00000068,0.00000045,0.00000403,0.00000118,0.0000274
 2,0.00001930,-0.00001452,0.00021743,-0.00001444,-0.00011633,0.00001275
 ,0.00001003,-0.00000009,0.00000503,0.00000620,0.00000435,0.00000117,-0
 .00000113,-0.00000604,-0.00000582,-0.00000167,-0.00000004,-0.00000035,
 0.00000801,0.00000197,-0.00009498,-0.00141464,-0.00140558,0.00074670,0
 .00164681,0.00316275,0.00055905,-0.00009681,0.00003227,-0.00027471,0.0
 0018187,0.00000410,0.00005150,-0.00007836,0.00002857,0.00004105,-0.000
 19793,-0.00004229,0.18505037,-0.11473613,0.12136082,-0.17956867,0.1108
 3650,-0.00000508,-0.00000740,0.00000251,-0.00000721,0.00000770,0.00002
 657,0.00000527,-0.00000056,-0.00002945,0.00000152,-0.00000064,0.000010
 17,-0.00000056,0.00000290,0.00000055,0.00006050,0.00000041,-0.00007042
 ,-0.00010618,-0.00000466,-0.00001449,0.00026100,0.00002953,-0.00006946
 ,0.00013145,-0.00002366,0.00009975,-0.00006295,0.00001978,-0.00004986,
 0.00002656,-0.00000849,0.00005265,0.00000251,0.00000403,0.00002102,-0.
 00000162,-0.00000320,-0.00001446,0.00000085,-0.00000217,-0.00000135,-0
 .00000014,0.00000308,-0.00000210,0.00000114,-0.00000056,-0.00000151,-0
 .00000206,0.00000040,0.00000005,0.00000009,-0.00000132,-0.00000514,0.0
 0000079,0.00000067,-0.00000070,0.00000035,0.00000024,-0.00000030,0.000
 02700,-0.00004558,-0.00000852,-0.00049701,-0.00007631,0.00031144,-0.00
 003139,0.00001403,-0.00000124,-0.00000363,-0.00000005,0.00000325,-0.00
 000306,0.00000295,-0.00001129,0.00000318,-0.00000061,-0.00000066,0.000
 01798,-0.00000528,-0.00000627,0.00097448,-0.00215020,-0.00172742,-0.00
 096080,0.00347827,0.00293099,0.00030433,0.00011628,0.00002550,-0.00011
 351,-0.00016671,-0.00018320,-0.00001843,0.00005331,0.00003758,0.000089
 64,-0.00002772,0.00015505,-0.16473166,0.09011372,-0.17591634,0.2013219
 0,-0.11344999,0.19662438,-0.00000029,0.00000396,-0.00000186,-0.0000217
 1,0.00000459,0.00005665,0.00004025,-0.00003100,-0.00003642,-0.00002743
 ,0.00000843,0.00000214,-0.00000271,-0.00000200,0.00000220,0.00001013,0
 .00000395,-0.00008028,-0.00004694,-0.00001657,0.00011309,-0.00011761,-
 0.00002858,0.00007756,0.00005285,0.00000881,-0.00002962,-0.00006078,0.
 00000146,-0.00001314,0.00001435,-0.00000055,0.00005152,-0.00001479,0.0
 0003388,0.00003045,-0.00000064,-0.00000208,-0.00002777,0.00000198,-0.0
 0000257,-0.00000597,0.00000007,0.00000275,0.00000261,0.00000262,-0.000
 00082,-0.00000492,0.00000147,-0.00000253,0.00000357,0.00000090,-0.0000
 0189,-0.00000130,0.00000285,0.00000183,-0.00000163,0.00000063,0.000003
 79,-0.00000002,0.00001555,0.00000389,-0.00001424,0.00036852,0.00005255
 ,-0.00003401,-0.00002838,0.00006232,0.00000665,0.00000129,-0.00000113,
 0.00001952,-0.00000973,0.00000179,-0.00002588,0.00000680,-0.00000390,-
 0.00000654,-0.00000055,0.00000330,0.00000134,-0.00075165,0.00120931,-0
 .00030673,0.00100087,-0.00257089,0.00119006,-0.00011787,0.00012933,-0.
 00003436,-0.00011900,0.00008670,0.00002650,0.00007088,-0.00003480,0.00
 001271,0.00003847,-0.00003382,-0.00002616,-0.04896361,0.04626550,0.108
 05884,0.00395807,-0.00667507,-0.03662985,0.04470614,0.00000006,0.00000
 192,-0.00000678,0.00002719,0.00001487,-0.00000596,-0.00000870,-0.00003
 645,0.00000211,-0.00000644,-0.00000326,-0.00000027,0.00000443,-0.00000
 027,-0.00000002,-0.00000892,-0.00000716,0.00003773,0.00002519,0.000010
 39,-0.00003401,-0.00007063,0.00000262,0.00000070,-0.00000089,0.0000064
 7,-0.00001161,0.00000208,-0.00000684,0.00000551,-0.00000988,0.00000393
 ,-0.00001305,-0.00001361,0.00002990,0.00000414,-0.00000291,0.00000475,
 0.00000585,0.00000025,-0.00000155,-0.00000296,0.00000117,-0.00000404,0
 .00000557,-0.00000194,-0.00000118,0.00000027,0.00000035,-0.00000146,-0
 .00000002,0.00000080,0.00000152,-0.00000179,-0.00000362,-0.00000096,0.
 00000111,0.00000076,0.00000387,0.00000374,0.00000378,0.00001699,0.0000
 0163,0.00017214,-0.00001379,-0.00004748,0.00003214,0.00001156,-0.00000
 887,0.00000527,0.00000530,0.00000847,-0.00000023,0.00000026,-0.0000107
 0,-0.00000460,-0.00000247,-0.00000027,-0.00000117,0.00000512,0.0000013
 8,0.00105171,-0.00218886,0.00082127,-0.00179560,0.00316883,-0.00260665
 ,0.00038794,0.00002688,-0.00038587,-0.00013795,0.00012787,0.00028797,0
 .00003316,-0.00019704,-0.00009104,-0.00007192,-0.00007395,-0.00013364,
 0.04055745,-0.04444211,-0.12506207,-0.00171872,0.00380238,0.02213253,-
 0.03847284,0.03972315,-0.00001240,-0.00001768,0.00000155,0.00001027,0.
 00001870,0.00005920,-0.00002319,0.00000014,-0.00004901,0.00001351,-0.0
 0000896,0.00002328,0.00000277,0.00000695,-0.00000276,0.00003095,-0.000
 00690,-0.00001386,0.00001786,-0.00001796,0.00010003,-0.00021572,-0.000
 01271,0.00009783,0.00003405,0.00001204,-0.00008439,-0.00005730,0.00000
 250,-0.00000962,0.00001226,0.00000128,0.00001771,0.00000489,0.00000890
 ,0.00003619,-0.00000422,-0.00000533,-0.00001560,0.00000232,-0.00000608
 ,-0.00000547,-0.00000001,0.00000480,-0.00000209,-0.00000088,-0.0000010
 9,-0.00000074,-0.00000629,0.00000182,-0.00000147,-0.00000088,-0.000001
 71,-0.00001232,-0.00000339,-0.00000091,-0.00000156,0.00000446,-0.00000
 025,0.00000364,0.00001250,-0.00001022,-0.00001733,0.00044391,0.0000002
 9,-0.00016452,0.00000418,0.00000276,0.00001810,-0.00000428,0.00000519,
 -0.00000384,-0.00000112,0.00000297,-0.00001435,-0.00000189,-0.00000121
 ,-0.00000205,-0.00000068,-0.00000365,-0.00000226,-0.00123765,0.0013873
 3,0.00031844,0.00169162,-0.00199271,-0.00078296,-0.00003794,-0.0002804
 0,0.00006648,-0.00000256,0.00018669,-0.00006888,0.00002659,0.00001019,
 0.00006750,0.00000624,-0.00005627,-0.00001068,0.06034893,-0.09468345,-
 0.49938399,0.01131098,-0.00961785,-0.02214344,-0.07236779,0.10506626,0
 .52197652,-0.00001558,-0.00001598,-0.00000702,0.00006787,0.00005281,0.
 00004283,-0.00007617,-0.00003125,-0.00003744,0.00003109,-0.00002363,0.
 00002672,0.00001768,0.00000559,-0.00000533,0.00002121,-0.00001639,0.00
 005973,0.00009536,-0.00000954,0.00008468,-0.00036177,-0.00004463,0.000
 14788,0.00004013,0.00001729,-0.00014036,-0.00005772,-0.00000137,-0.000
 02100,0.00001102,0.00000751,-0.00001478,-0.00000447,0.00003496,0.00002
 250,-0.00001306,-0.00000071,0.00000303,0.00000774,-0.00000983,-0.00001
 673,0.00000264,-0.00000288,0.00001161,-0.00000621,-0.00000198,0.000005
 27,-0.00000927,0.00000232,-0.00000662,-0.00000116,0.00000119,-0.000018
 11,-0.00001378,-0.00000707,0.00000140,0.00000881,0.00000519,0.00000503
 ,0.00001931,0.00006505,-0.00003570,0.00070428,0.00012844,-0.00026409,0
 .00003744,0.00002609,0.00001522,0.00000091,0.00001491,-0.00000569,0.00
 000472,-0.00000107,-0.00001236,-0.00001325,-0.00000540,0.00000047,-0.0
 0000341,0.00001047,-0.00000289,-0.00071577,-0.00158994,0.00011429,-0.0
 0038002,0.00046550,0.00015341,0.00090695,0.00221588,-0.00019151,-0.005
 76412,-0.00534346,-0.00961346,-0.00117093,-0.00074500,0.00009439,-0.00
 482215,0.00457856,0.00201447,0.00020950,-0.00024703,-0.00003431,-0.000
 07564,-0.00001756,-0.00004489,-0.00003141,0.00002555,0.00000741,0.5827
 3635,-0.00001504,-0.00002455,-0.00000423,0.00003223,0.00001655,0.00002
 676,-0.00004647,0.00001933,-0.00002215,0.00002532,-0.00002099,0.000012
 72,0.00000517,0.00001113,-0.00000368,0.00002232,-0.00001019,0.00001672
 ,0.00003275,-0.00001200,0.00005191,-0.00025262,-0.00000111,0.00010863,
 0.00006742,0.00000482,-0.00005554,-0.00006625,0.00000600,-0.00001607,0
 .00000515,0.00000322,0.00000760,0.00000710,-0.00000427,0.00000911,-0.0
 0000685,0.00000069,0.00000043,0.00000201,-0.00000840,0.00000409,-0.000
 00015,-0.00000018,-0.00000841,-0.00000395,-0.00000178,0.00000413,-0.00
 000791,0.00000136,-0.00000501,-0.00000269,0.00000206,-0.00000812,-0.00
 000536,-0.00000069,-0.00000073,0.00000270,-0.00000398,0.00000222,0.000
 04551,-0.00000535,-0.00002023,0.00054059,0.00000496,-0.00019700,0.0000
 2190,-0.00000896,0.00000152,-0.00000458,0.00000773,-0.00000672,0.00000
 196,0.00000151,-0.00000046,-0.00000389,-0.00000051,0.00000116,0.000002
 84,-0.00000832,-0.00000172,-0.00054795,-0.00015456,-0.00011960,0.00010
 255,0.00008745,0.00014654,0.00032227,0.00022633,0.00016385,-0.00495264
 ,0.00258725,-0.00327754,-0.00073930,-0.00078312,-0.00038626,0.00395495
 ,-0.00602706,-0.00150547,-0.00013456,-0.00017495,-0.00013679,0.0000639
 7,0.00015592,0.00007297,0.00003782,0.00003892,0.00006511,-0.11650166,0
 .44043180,-0.00000009,0.00000345,-0.00002006,0.00003425,0.00000982,-0.
 00001551,-0.00003720,-0.00001136,0.00002477,0.00001039,-0.00000840,-0.
 00000383,0.00000802,-0.00000103,-0.00000449,-0.00007564,-0.00001601,0.
 00011086,0.00017898,-0.00000958,0.00005853,-0.00043624,-0.00000893,0.0
 0014983,-0.00012373,0.00002631,-0.00016983,0.00005420,0.00000667,0.000
 03421,-0.00003392,0.00001062,-0.00007243,-0.00000079,0.00000578,-0.000
 01170,-0.00000323,0.00000769,0.00001970,0.00000308,-0.00000148,-0.0000
 0122,0.00000219,-0.00000555,0.00000971,-0.00000633,-0.00000100,0.00000
 531,0.00000033,0.00000041,-0.00000216,-0.00000098,0.00000380,0.0000009
 3,-0.00000600,-0.00000358,0.00000068,-0.00000047,-0.00000217,-0.000001
 21,-0.00001270,-0.00003139,-0.00005266,0.00089160,0.00006840,-0.000455
 62,0.00005269,0.00001870,0.00000711,0.00000333,0.00000465,-0.00000496,
 0.00000327,-0.00000203,0.00000607,-0.00000719,-0.00000177,0.00000066,-
 0.00002766,-0.00001098,0.00000179,-0.00098392,-0.00152273,0.00051465,-
 0.00018869,0.00032252,0.00002125,0.00112280,0.00237273,-0.00044425,-0.
 00887784,-0.00346083,-0.00377276,0.00026432,-0.00030601,0.00083316,0.0
 0177957,-0.00091298,-0.00628649,0.00000082,-0.00031323,0.00007042,0.00
 000734,0.00007069,-0.00011182,0.00003775,0.00010564,-0.00000436,-0.036
 59170,0.27843746,0.18705602,0.00000245,0.00000052,-0.00000544,-0.00001
 274,-0.00001767,-0.00001449,0.00001278,0.00001714,0.00001689,-0.000005
 37,0.00000225,-0.00000972,-0.00000521,0.00000101,0.00000055,-0.0000265
 2,0.00000050,0.00000922,0.00002015,-0.00000466,-0.00000481,-0.00004932
 ,0.00001927,0.00001181,-0.00003227,0.00000334,-0.00000494,0.00002160,0
 .00000359,0.00001741,-0.00001606,0.00000156,-0.00001091,0.00000326,-0.
 00001504,-0.00001026,0.00000319,0.00000298,0.00000386,-0.00000263,0.00
 000117,0.00000983,-0.00000083,-0.00000046,-0.00000573,-0.00000006,-0.0
 0000006,-0.00000012,0.00000209,-0.00000070,0.00000128,-0.00000054,0.00
 000130,0.00000631,0.00000338,0.00000253,-0.00000075,-0.00000373,-0.000
 00465,-0.00000182,0.00000389,-0.00003818,-0.00000368,0.00013387,-0.000
 03434,-0.00008185,0.00000566,-0.00000822,-0.00000384,-0.00000089,-0.00
 000347,0.00000005,-0.00000095,0.00000044,0.00000662,0.00000338,0.00000
 200,-0.00000002,-0.00000592,-0.00001141,0.00000252,-0.00017762,-0.0000
 3798,0.00008149,0.00004322,-0.00002653,-0.00000019,0.00013647,0.000136
 97,-0.00005697,-0.00253737,0.00040485,-0.00136730,-0.00010046,-0.00019
 764,-0.00015867,0.00461266,-0.00164028,0.00198972,-0.00004234,-0.00000
 917,0.00000084,0.00001700,0.00002033,0.00000159,0.00001233,0.00000887,
 0.00000331,-0.05067107,-0.00045556,-0.00562380,0.05273235,0.00000802,0
 .00001286,0.00000037,-0.00001531,-0.00000938,-0.00001513,0.00002123,-0
 .00000904,0.00001397,-0.00001187,0.00001050,-0.00000698,-0.00000270,-0
 .00000572,0.00000169,-0.00002231,0.00000374,0.00000260,0.00000319,0.00
 000261,-0.00001874,0.00007027,0.00000424,-0.00003438,-0.00005097,0.000
 00094,0.00001115,0.00004043,-0.00000177,0.00001383,-0.00000874,-0.0000
 0065,-0.00001165,-0.00000288,0.00000104,-0.00000583,0.00000382,0.00000
 009,0.00000174,-0.00000135,0.00000465,-0.00000174,-0.00000005,-0.00000
 020,0.00000492,0.00000172,0.00000101,-0.00000194,0.00000426,-0.0000005
 3,0.00000267,0.00000128,-0.00000081,0.00000437,0.00000251,0.00000021,0
 .00000040,-0.00000163,0.00000138,-0.00000138,-0.00001871,-0.00001390,0
 .00000120,-0.00014122,-0.00000625,0.00003236,-0.00000515,0.00000345,0.
 00000017,0.00000233,-0.00000405,0.00000254,-0.00000069,-0.00000089,0.0
 0000130,0.00000168,0.00000032,-0.00000054,-0.00000553,0.00000145,0.000
 00091,0.00012467,0.00008029,0.00005973,-0.00000156,-0.00002634,-0.0000
 3648,-0.00005219,-0.00010352,-0.00004945,0.00120673,0.00028991,0.00064
 860,-0.00018147,0.00016358,-0.00001332,-0.00140365,-0.00085798,-0.0008
 2281,0.00002292,0.00003895,0.00003671,-0.00001267,-0.00002645,-0.00002
 086,-0.00001019,-0.00000805,-0.00001639,0.04728297,-0.38480640,-0.2437
 4464,-0.03955482,0.39344711,-0.00000286,-0.00000550,0.00000781,-0.0000
 0314,0.00000142,0.00001216,0.00000257,0.00000405,-0.00001546,0.0000013
 2,-0.00000132,0.00000532,-0.00000128,0.00000219,0.00000158,0.00002975,
 0.00000300,-0.00002996,-0.00004835,0.00000254,-0.00000796,0.00008058,-
 0.00000019,-0.00002405,0.00003956,-0.00000500,0.00003250,-0.00002654,-
 0.00000457,-0.00000606,0.00001283,-0.00000321,0.00002299,0.00000028,0.
 00000054,0.00000741,-0.00000032,-0.00000292,-0.00000717,-0.00000078,-0
 .00000130,-0.00000005,-0.00000046,0.00000160,-0.00000469,0.00000176,0.
 00000002,-0.00000131,-0.00000196,0.00000014,-0.00000040,0.00000007,-0.
 00000130,-0.00000299,0.00000068,0.00000096,-0.00000021,0.00000211,0.00
 000121,0.00000248,0.00000165,0.00001514,0.00001856,-0.00016773,-0.0000
 1185,0.00009146,-0.00000989,-0.00000487,-0.00000109,-0.00000164,0.0000
 0049,0.00000075,-0.00000052,0.00000087,-0.00000358,0.00000122,0.000000
 34,0.00000004,0.00000918,0.00000628,-0.00000014,0.00018159,0.00017911,
 -0.00008931,0.00000628,-0.00003937,0.00000365,-0.00019705,-0.00026646,
 0.00003417,-0.00079363,0.00076055,-0.00026823,-0.00012015,-0.00036578,
 -0.00024798,0.00149334,-0.00170223,-0.00025949,0.00001955,0.00005406,-
 0.00001630,-0.00001046,-0.00002330,0.00001828,-0.00001022,-0.00002214,
 0.00000348,0.02507722,-0.24455595,-0.15728909,-0.02112236,0.24924328,0
 .16002591,0.00000399,0.00000482,0.00000065,-0.00001617,-0.00001355,-0.
 00001190,0.00001859,0.00000828,0.00001200,-0.00000832,0.00000550,-0.00
 000763,-0.00000411,-0.00000177,0.00000113,-0.00001122,0.00000385,-0.00
 000674,-0.00000927,0.00000248,-0.00001626,0.00006789,0.00000885,-0.000
 02979,-0.00002157,-0.00000229,0.00001883,0.00002226,0.00000220,0.00000
 885,-0.00000591,-0.00000163,-0.00000243,0.00000080,-0.00000904,-0.0000
 0704,0.00000339,0.00000064,0.00000052,-0.00000140,0.00000234,0.0000042
 7,-0.00000042,0.00000017,-0.00000239,0.00000119,0.00000042,-0.00000107
 ,0.00000234,-0.00000072,0.00000161,0.00000019,0.,0.00000503,0.00000340
 ,0.00000175,-0.00000048,-0.00000222,-0.00000158,-0.00000140,-0.0000101
 8,-0.00001346,0.00000417,-0.00013310,-0.00002060,0.00004119,-0.0000056
 3,-0.00000423,-0.00000246,-0.00000003,-0.00000381,0.00000149,-0.000001
 18,0.00000008,0.00000376,0.00000334,0.00000132,-0.00000031,-0.00000200
 ,-0.00000381,0.00000071,0.00014038,0.00014803,0.00005582,0.00001846,-0
 .00009139,-0.00005436,-0.00013966,-0.00015537,-0.00005929,0.00073120,0
 .00018174,-0.00011681,-0.00025398,-0.00011292,-0.00020413,-0.00154173,
 0.00022008,0.00081194,-0.00001894,0.00007145,0.00003625,0.00001481,-0.
 00003059,-0.00001212,0.00000805,-0.00000973,-0.00001082,-0.52071605,0.
 11845091,0.04858321,-0.00407782,-0.00729238,-0.00444216,0.52594058,0.0
 0000381,0.00000734,-0.00000080,-0.00000258,0.00000013,-0.00000485,0.00
 000860,-0.00001299,0.00000506,-0.00000692,0.00000495,-0.00000241,0.000
 00012,-0.00000329,0.00000071,-0.00000953,0.00000051,0.00000425,0.00000
 654,0.00000457,-0.00000645,0.00003424,-0.00000698,-0.00001716,-0.00001
 984,0.00000331,-0.00000233,0.00001900,-0.00000519,0.00000411,-0.000002
 89,0.00000177,-0.00000631,-0.00000419,0.00000765,-0.00000122,0.0000008
 8,0.00000011,0.00000065,0.00000017,0.00000176,-0.00000310,0.00000039,-
 0.00000067,0.00000464,0.00000050,0.00000036,-0.00000094,0.00000200,-0.
 00000045,0.00000127,0.00000087,-0.00000040,0.00000119,0.00000029,-0.00
 000043,0.00000039,-0.00000032,0.00000210,-0.00000030,-0.00001300,0.000
 01717,0.00000068,-0.00007794,0.00002499,0.00002560,-0.00000143,0.00000
 905,0.00000132,0.00000241,-0.00000082,0.00000252,-0.00000019,-0.000000
 82,-0.00000166,-0.00000041,-0.00000054,-0.00000051,-0.00000276,0.00000
 472,0.00000056,0.00010085,-0.00033492,0.00005238,-0.00016971,0.0001018
 6,-0.00002226,0.00006687,0.00046055,-0.00005680,-0.00078038,-0.0008448
 3,-0.00151381,-0.00006365,0.00000145,-0.00005723,0.00110305,0.00130311
 ,0.00311242,0.00015651,0.00003429,0.00007067,-0.00007688,-0.00010728,-
 0.00005681,-0.00003474,-0.00001807,-0.00004219,0.06967609,-0.05154967,
 -0.03109964,0.04143021,-0.00818641,-0.00326052,-0.11134602,0.05908203,
 -0.00000307,-0.00000469,0.00000403,0.00000088,0.00000442,0.00001324,-0
 .00000229,0.00000077,-0.00001443,0.00000244,-0.00000213,0.00000625,0.0
 0000029,0.00000173,0.00000057,0.00002059,-0.00000020,-0.00001717,-0.00
 002507,-0.00000033,0.00000362,0.00002876,-0.00000113,-0.00000822,0.000
 03167,0.00000052,0.00001445,-0.00002285,-0.00000207,-0.00000708,0.0000
 0806,-0.00000103,0.00001448,-0.00000004,0.00000260,0.00000802,-0.00000
 086,-0.00000217,-0.00000542,0.00000021,-0.00000150,-0.00000151,0.00000
 009,0.00000130,-0.00000169,0.00000062,-0.00000022,-0.00000074,-0.00000
 188,0.00000032,-0.00000046,0.00000004,-0.00000093,-0.00000342,-0.00000
 030,0.00000019,-0.00000022,0.00000153,0.00000058,0.00000178,0.00000783
 ,0.00000565,0.00000890,-0.00005829,-0.00000139,0.00004316,-0.00000503,
 -0.00000009,0.00000163,-0.00000132,0.00000113,0.00000041,-0.00000027,0
 .00000081,-0.00000394,0.00000033,-0.00000016,-0.00000005,0.00000586,0.
 00000192,-0.00000014,0.00004664,-0.00007940,-0.00009448,-0.00006721,0.
 00001960,0.00005985,-0.00002108,0.00009398,0.00001172,-0.00086917,-0.0
 0140878,-0.00238935,-0.00056388,0.00002831,-0.00003407,0.00056592,0.00
 258780,0.00376939,0.00008137,0.00005900,-0.00006036,-0.00002508,-0.000
 04315,0.00004971,-0.00003442,-0.00004667,0.00000756,0.01917643,-0.0288
 0127,-0.02020122,0.02632436,-0.00528226,-0.00201304,-0.04460182,0.0328
 6891,0.02083826\\-0.00000056,-0.00000094,0.00000010,-0.00000023,0.0000
 0083,0.00000011,0.00000010,-0.00000077,0.00000033,-0.00000004,0.000000
 06,-0.00000020,0.00000032,0.00000020,0.00000033,0.00000203,0.00000018,
 -0.00000161,-0.00000136,0.00000032,0.00000129,-0.00000179,-0.00000055,
 -0.00000305,0.00000127,-0.00000047,-0.00000065,-0.00000131,0.00000012,
 0.00000043,0.00000026,0.00000022,0.00000140,0.00000002,0.00000030,0.00
 000032,-0.00000014,0.00000024,0.00000020,0.00000006,0.00000023,0.00000
 008,-0.00000003,0.00000016,0.00000019,-0.00000012,0.00000015,0.0000001
 5,-0.00000003,0.,0.00000022,-0.00000019,-0.00000002,0.00000046,0.00000
 002,0.00000002,0.00000037,-0.00000001,0.00000007,-0.00000012,0.0000003
 0,0.00000002,-0.00000021,0.00000282,0.00000234,0.00000139,-0.00000024,
 -0.00000030,0.,0.00000003,-0.00000002,0.00000013,-0.00000010,-0.000000
 09,0.00000014,-0.00000001,-0.00000009,0.00000023,0.00000025,-0.0000000
 7,0.,-0.00000511,-0.00000256,0.00000267,0.00000314,0.00000125,-0.00000
 228,-0.00000029,-0.00000114,-0.00000052,-0.00000104,-0.00000441,-0.000
 00427,0.00000122,0.00000223,0.00000251,0.00000039,0.00000139,-0.000000
 95,0.00000099,0.00000148,0.00000380,-0.00000005,-0.00000187,-0.0000020
 7,-0.00000064,0.00000101,-0.00000051,0.00000004,0.00000156,0.00000100,
 0.00000101,-0.00000118,-0.00000058,-0.00000098,0.00000011,-0.00000084\
 \\@


 LOGIC IS A SYSTEMATIC METHOD OF COMING TO THE
 WRONG CONCLUSION WITH CONFIDENCE.
 Job cpu time:       0 days 23 hours 17 minutes 52.2 seconds.
 Elapsed time:       0 days  0 hours 49 minutes 57.7 seconds.
 File lengths (MBytes):  RWF=   1240 Int=      0 D2E=      0 Chk=     32 Scr=      8
 Normal termination of Gaussian 16 at Fri Jan 27 21:37:54 2023.
