 Entering Gaussian System, Link 0=g16
 Input=NicPySa4hYbba.gjf
 Output=NicPySa4hYbba.log
 Initial command:
 /sw/contrib/gaussian/g16/A03/g16/l1.exe "/gscratch/scrubbed/gds001/Gau-4500.inp" -scrdir="/gscratch/scrubbed/gds001/"
 Entering Link 1 = /sw/contrib/gaussian/g16/A03/g16/l1.exe PID=      4501.
  
 Copyright (c) 1988,1990,1992,1993,1995,1998,2003,2009,2016,
            Gaussian, Inc.  All Rights Reserved.
  
 This is part of the Gaussian(R) 16 program.  It is based on
 the Gaussian(R) 09 system (copyright 2009, Gaussian, Inc.),
 the Gaussian(R) 03 system (copyright 2003, Gaussian, Inc.),
 the Gaussian(R) 98 system (copyright 1998, Gaussian, Inc.),
 the Gaussian(R) 94 system (copyright 1995, Gaussian, Inc.),
 the Gaussian 92(TM) system (copyright 1992, Gaussian, Inc.),
 the Gaussian 90(TM) system (copyright 1990, Gaussian, Inc.),
 the Gaussian 88(TM) system (copyright 1988, Gaussian, Inc.),
 the Gaussian 86(TM) system (copyright 1986, Carnegie Mellon
 University), and the Gaussian 82(TM) system (copyright 1983,
 Carnegie Mellon University). Gaussian is a federally registered
 trademark of Gaussian, Inc.
  
 This software contains proprietary and confidential information,
 including trade secrets, belonging to Gaussian, Inc.
  
 This software is provided under written license and may be
 used, copied, transmitted, or stored only in accord with that
 written license.
  
 The following legend is applicable only to US Government
 contracts under FAR:
  
                    RESTRICTED RIGHTS LEGEND
  
 Use, reproduction and disclosure by the US Government is
 subject to restrictions as set forth in subparagraphs (a)
 and (c) of the Commercial Computer Software - Restricted
 Rights clause in FAR 52.227-19.
  
 Gaussian, Inc.
 340 Quinnipiac St., Bldg. 40, Wallingford CT 06492
  
  
 ---------------------------------------------------------------
 Warning -- This program may not be used in any manner that
 competes with the business of Gaussian, Inc. or will provide
 assistance to any competitor of Gaussian, Inc.  The licensee
 of this program is prohibited from giving any competitor of
 Gaussian, Inc. access to this program.  By using this program,
 the user acknowledges that Gaussian, Inc. is engaged in the
 business of creating and licensing software in the field of
 computational chemistry and represents and warrants to the
 licensee that it is not a competitor of Gaussian, Inc. and that
 it will not use this program in any manner prohibited above.
 ---------------------------------------------------------------
  

 Cite this work as:
 Gaussian 16, Revision A.03,
 M. J. Frisch, G. W. Trucks, H. B. Schlegel, G. E. Scuseria, 
 M. A. Robb, J. R. Cheeseman, G. Scalmani, V. Barone, 
 G. A. Petersson, H. Nakatsuji, X. Li, M. Caricato, A. V. Marenich, 
 J. Bloino, B. G. Janesko, R. Gomperts, B. Mennucci, H. P. Hratchian, 
 J. V. Ortiz, A. F. Izmaylov, J. L. Sonnenberg, D. Williams-Young, 
 F. Ding, F. Lipparini, F. Egidi, J. Goings, B. Peng, A. Petrone, 
 T. Henderson, D. Ranasinghe, V. G. Zakrzewski, J. Gao, N. Rega, 
 G. Zheng, W. Liang, M. Hada, M. Ehara, K. Toyota, R. Fukuda, 
 J. Hasegawa, M. Ishida, T. Nakajima, Y. Honda, O. Kitao, H. Nakai, 
 T. Vreven, K. Throssell, J. A. Montgomery, Jr., J. E. Peralta, 
 F. Ogliaro, M. J. Bearpark, J. J. Heyd, E. N. Brothers, K. N. Kudin, 
 V. N. Staroverov, T. A. Keith, R. Kobayashi, J. Normand, 
 K. Raghavachari, A. P. Rendell, J. C. Burant, S. S. Iyengar, 
 J. Tomasi, M. Cossi, J. M. Millam, M. Klene, C. Adamo, R. Cammi, 
 J. W. Ochterski, R. L. Martin, K. Morokuma, O. Farkas, 
 J. B. Foresman, and D. J. Fox, Gaussian, Inc., Wallingford CT, 2016.
 
 ******************************************
 Gaussian 16:  ES64L-G16RevA.03 25-Dec-2016
                27-Jan-2023 
 ******************************************
 %nprocshared=28
 Will use up to   28 processors via shared memory.
 %mem=41GB
 -----------------------------
 # wB97XD/aug-cc-pVDZ opt freq
 -----------------------------
 1/18=20,19=15,26=3,38=1/1,3;
 2/9=110,12=2,17=6,18=5,40=1/2;
 3/5=16,7=10,11=2,25=1,30=1,71=1,74=-58/1,2,3;
 4//1;
 5/5=2,38=5/2;
 6/7=2,8=2,9=2,10=2,28=1/1;
 7//1,2,3,16;
 1/18=20,19=15,26=3/3(2);
 2/9=110/2;
 99//99;
 2/9=110/2;
 3/5=16,7=10,11=2,25=1,30=1,71=1,74=-58/1,2,3;
 4/5=5,16=3,69=1/1;
 5/5=2,38=5/2;
 7//1,2,3,16;
 1/18=20,19=15,26=3/3(-5);
 2/9=110/2;
 6/7=2,8=2,9=2,10=2,19=2,28=1/1;
 99/9=1/99;
 ----
 blah
 ----
 Symbolic Z-matrix:
 Charge =  1 Multiplicity = 1
 C                    -1.70094   2.17152  -0.78254 
 C                    -1.48169   0.8602   -0.34796 
 C                    -0.23838   0.56755   0.19386 
 N                     0.70363   1.51768   0.29845 
 C                     0.5088    2.78153  -0.10559 
 C                    -0.70694   3.14042  -0.65998 
 C                    -2.56294  -0.19792  -0.42402 
 N                    -2.00318  -1.54046  -0.32908 
 C                    -2.97217  -2.37111   0.38119 
 C                    -3.47348  -1.44028   1.47624 
 C                    -3.58776  -0.09267   0.74483 
 O                     3.09667   0.966     1.29796 
 O                     5.07854   0.09981  -0.23091 
 H                    -2.48616  -3.27787   0.76135 
 H                    -4.42652  -1.76274   1.90806 
 H                    -2.73315  -1.38384   2.28431 
 H                    -4.59463   0.03911   0.33247 
 H                    -3.38729   0.76258   1.4001 
 H                    -3.80619  -2.68096  -0.28006 
 H                    -3.09345  -0.05168  -1.38501 
 H                     0.01162  -0.43214   0.54123 
 H                     1.34223   3.46704   0.02628 
 H                    -0.86779   4.16281  -0.9937 
 H                    -2.66238   2.43741  -1.22374 
 C                    -1.55456  -2.08511  -1.5966 
 H                     1.63951   1.26468   0.71158 
 H                     3.85633   0.63143   0.76269 
 H                     3.3641    0.94457   2.21868 
 H                     5.80371   0.66979  -0.49564 
 H                     5.43537  -0.80847  -0.21763 
 O                     6.04652  -2.47705  -0.19927 
 H                     6.15192  -3.00897  -0.99249 
 H                     6.67256  -2.82945   0.4388 
 H                    -0.78447  -1.43763  -2.03814 
 H                    -2.38055  -2.18595  -2.32744 
 H                    -1.11144  -3.07518  -1.43622 
 O                     7.78722  -3.58095   1.60616 
 H                     7.57816  -4.37242   2.13238 
 H                     8.46259  -3.13838   2.14901 
 
 Add virtual bond connecting atoms H26        and O12        Dist= 3.02D+00.
 Add virtual bond connecting atoms H27        and O13        Dist= 3.14D+00.
 Add virtual bond connecting atoms O31        and H30        Dist= 3.36D+00.
 Add virtual bond connecting atoms O37        and H33        Dist= 3.36D+00.

 GradGradGradGradGradGradGradGradGradGradGradGradGradGradGradGradGradGrad
 Berny optimization.
 Initialization pass.
                           ----------------------------
                           !    Initial Parameters    !
                           ! (Angstroms and Degrees)  !
 --------------------------                            --------------------------
 ! Name  Definition              Value          Derivative Info.                !
 --------------------------------------------------------------------------------
 ! R1    R(1,2)                  1.3987         estimate D2E/DX2                !
 ! R2    R(1,6)                  1.3935         estimate D2E/DX2                !
 ! R3    R(1,24)                 1.0907         estimate D2E/DX2                !
 ! R4    R(2,3)                  1.3874         estimate D2E/DX2                !
 ! R5    R(2,7)                  1.5148         estimate D2E/DX2                !
 ! R6    R(3,4)                  1.342          estimate D2E/DX2                !
 ! R7    R(3,21)                 1.0874         estimate D2E/DX2                !
 ! R8    R(4,5)                  1.3411         estimate D2E/DX2                !
 ! R9    R(4,26)                 1.0538         estimate D2E/DX2                !
 ! R10   R(5,6)                  1.3835         estimate D2E/DX2                !
 ! R11   R(5,22)                 1.0872         estimate D2E/DX2                !
 ! R12   R(6,23)                 1.0874         estimate D2E/DX2                !
 ! R13   R(7,8)                  1.4577         estimate D2E/DX2                !
 ! R14   R(7,11)                 1.5581         estimate D2E/DX2                !
 ! R15   R(7,20)                 1.1074         estimate D2E/DX2                !
 ! R16   R(8,9)                  1.4606         estimate D2E/DX2                !
 ! R17   R(8,25)                 1.4507         estimate D2E/DX2                !
 ! R18   R(9,10)                 1.5221         estimate D2E/DX2                !
 ! R19   R(9,14)                 1.0968         estimate D2E/DX2                !
 ! R20   R(9,19)                 1.1085         estimate D2E/DX2                !
 ! R21   R(10,11)                1.5376         estimate D2E/DX2                !
 ! R22   R(10,15)                1.0949         estimate D2E/DX2                !
 ! R23   R(10,16)                1.0974         estimate D2E/DX2                !
 ! R24   R(11,17)                1.096          estimate D2E/DX2                !
 ! R25   R(11,18)                1.0959         estimate D2E/DX2                !
 ! R26   R(12,26)                1.5989         estimate D2E/DX2                !
 ! R27   R(12,27)                0.9877         estimate D2E/DX2                !
 ! R28   R(12,28)                0.959          estimate D2E/DX2                !
 ! R29   R(13,27)                1.6624         estimate D2E/DX2                !
 ! R30   R(13,29)                0.9596         estimate D2E/DX2                !
 ! R31   R(13,30)                0.9759         estimate D2E/DX2                !
 ! R32   R(25,34)                1.0987         estimate D2E/DX2                !
 ! R33   R(25,35)                1.1075         estimate D2E/DX2                !
 ! R34   R(25,36)                1.0965         estimate D2E/DX2                !
 ! R35   R(30,31)                1.7771         estimate D2E/DX2                !
 ! R36   R(31,32)                0.9609         estimate D2E/DX2                !
 ! R37   R(31,33)                0.9609         estimate D2E/DX2                !
 ! R38   R(33,37)                1.7804         estimate D2E/DX2                !
 ! R39   R(37,38)                0.9732         estimate D2E/DX2                !
 ! R40   R(37,39)                0.973          estimate D2E/DX2                !
 ! A1    A(2,1,6)              120.8444         estimate D2E/DX2                !
 ! A2    A(2,1,24)             119.4964         estimate D2E/DX2                !
 ! A3    A(6,1,24)             119.6592         estimate D2E/DX2                !
 ! A4    A(1,2,3)              117.357          estimate D2E/DX2                !
 ! A5    A(1,2,7)              121.8293         estimate D2E/DX2                !
 ! A6    A(3,2,7)              120.7918         estimate D2E/DX2                !
 ! A7    A(2,3,4)              120.6709         estimate D2E/DX2                !
 ! A8    A(2,3,21)             121.6452         estimate D2E/DX2                !
 ! A9    A(4,3,21)             117.6827         estimate D2E/DX2                !
 ! A10   A(3,4,5)              122.8026         estimate D2E/DX2                !
 ! A11   A(3,4,26)             118.9435         estimate D2E/DX2                !
 ! A12   A(5,4,26)             118.2534         estimate D2E/DX2                !
 ! A13   A(4,5,6)              119.5272         estimate D2E/DX2                !
 ! A14   A(4,5,22)             116.5079         estimate D2E/DX2                !
 ! A15   A(6,5,22)             123.9643         estimate D2E/DX2                !
 ! A16   A(1,6,5)              118.7956         estimate D2E/DX2                !
 ! A17   A(1,6,23)             121.4132         estimate D2E/DX2                !
 ! A18   A(5,6,23)             119.7906         estimate D2E/DX2                !
 ! A19   A(2,7,8)              111.4688         estimate D2E/DX2                !
 ! A20   A(2,7,11)             112.6221         estimate D2E/DX2                !
 ! A21   A(2,7,20)             107.0553         estimate D2E/DX2                !
 ! A22   A(8,7,11)             105.4225         estimate D2E/DX2                !
 ! A23   A(8,7,20)             111.2302         estimate D2E/DX2                !
 ! A24   A(11,7,20)            109.0857         estimate D2E/DX2                !
 ! A25   A(7,8,9)              107.4997         estimate D2E/DX2                !
 ! A26   A(7,8,25)             114.0563         estimate D2E/DX2                !
 ! A27   A(9,8,25)             114.6156         estimate D2E/DX2                !
 ! A28   A(8,9,10)             102.7418         estimate D2E/DX2                !
 ! A29   A(8,9,14)             110.1661         estimate D2E/DX2                !
 ! A30   A(8,9,19)             111.5934         estimate D2E/DX2                !
 ! A31   A(10,9,14)            113.7132         estimate D2E/DX2                !
 ! A32   A(10,9,19)            110.627          estimate D2E/DX2                !
 ! A33   A(14,9,19)            108.0024         estimate D2E/DX2                !
 ! A34   A(9,10,11)            102.6053         estimate D2E/DX2                !
 ! A35   A(9,10,15)            112.9742         estimate D2E/DX2                !
 ! A36   A(9,10,16)            109.8169         estimate D2E/DX2                !
 ! A37   A(11,10,15)           112.3995         estimate D2E/DX2                !
 ! A38   A(11,10,16)           110.8147         estimate D2E/DX2                !
 ! A39   A(15,10,16)           108.1776         estimate D2E/DX2                !
 ! A40   A(7,11,10)            104.4051         estimate D2E/DX2                !
 ! A41   A(7,11,17)            109.2772         estimate D2E/DX2                !
 ! A42   A(7,11,18)            112.3933         estimate D2E/DX2                !
 ! A43   A(10,11,17)           110.6491         estimate D2E/DX2                !
 ! A44   A(10,11,18)           112.7037         estimate D2E/DX2                !
 ! A45   A(17,11,18)           107.4078         estimate D2E/DX2                !
 ! A46   A(26,12,27)           124.4357         estimate D2E/DX2                !
 ! A47   A(26,12,28)           127.6202         estimate D2E/DX2                !
 ! A48   A(27,12,28)           107.353          estimate D2E/DX2                !
 ! A49   A(27,13,29)           122.041          estimate D2E/DX2                !
 ! A50   A(27,13,30)           123.9375         estimate D2E/DX2                !
 ! A51   A(29,13,30)           106.2751         estimate D2E/DX2                !
 ! A52   A(8,25,34)            110.2809         estimate D2E/DX2                !
 ! A53   A(8,25,35)            112.341          estimate D2E/DX2                !
 ! A54   A(8,25,36)            109.6443         estimate D2E/DX2                !
 ! A55   A(34,25,35)           108.1314         estimate D2E/DX2                !
 ! A56   A(34,25,36)           107.9166         estimate D2E/DX2                !
 ! A57   A(35,25,36)           108.4033         estimate D2E/DX2                !
 ! A58   A(30,31,32)           123.2979         estimate D2E/DX2                !
 ! A59   A(30,31,33)           125.1204         estimate D2E/DX2                !
 ! A60   A(32,31,33)           105.8841         estimate D2E/DX2                !
 ! A61   A(33,37,38)           124.2862         estimate D2E/DX2                !
 ! A62   A(33,37,39)           127.4728         estimate D2E/DX2                !
 ! A63   A(38,37,39)           102.5542         estimate D2E/DX2                !
 ! A64   L(4,26,12,36,-1)      182.7385         estimate D2E/DX2                !
 ! A65   L(12,27,13,25,-1)     177.5771         estimate D2E/DX2                !
 ! A66   L(13,30,31,8,-1)      178.666          estimate D2E/DX2                !
 ! A67   L(31,33,37,28,-1)     181.6861         estimate D2E/DX2                !
 ! A68   L(4,26,12,36,-2)      177.3629         estimate D2E/DX2                !
 ! A69   L(12,27,13,25,-2)     176.8229         estimate D2E/DX2                !
 ! A70   L(13,30,31,8,-2)      179.8224         estimate D2E/DX2                !
 ! A71   L(31,33,37,28,-2)     176.5228         estimate D2E/DX2                !
 ! D1    D(6,1,2,3)             -0.5713         estimate D2E/DX2                !
 ! D2    D(6,1,2,7)            177.7357         estimate D2E/DX2                !
 ! D3    D(24,1,2,3)           179.3659         estimate D2E/DX2                !
 ! D4    D(24,1,2,7)            -2.3271         estimate D2E/DX2                !
 ! D5    D(2,1,6,5)              0.347          estimate D2E/DX2                !
 ! D6    D(2,1,6,23)          -179.9307         estimate D2E/DX2                !
 ! D7    D(24,1,6,5)          -179.5901         estimate D2E/DX2                !
 ! D8    D(24,1,6,23)            0.1322         estimate D2E/DX2                !
 ! D9    D(1,2,3,4)              0.4273         estimate D2E/DX2                !
 ! D10   D(1,2,3,21)          -179.168          estimate D2E/DX2                !
 ! D11   D(7,2,3,4)           -177.8983         estimate D2E/DX2                !
 ! D12   D(7,2,3,21)             2.5065         estimate D2E/DX2                !
 ! D13   D(1,2,7,8)            161.7421         estimate D2E/DX2                !
 ! D14   D(1,2,7,11)           -79.9983         estimate D2E/DX2                !
 ! D15   D(1,2,7,20)            39.8941         estimate D2E/DX2                !
 ! D16   D(3,2,7,8)            -20.0083         estimate D2E/DX2                !
 ! D17   D(3,2,7,11)            98.2513         estimate D2E/DX2                !
 ! D18   D(3,2,7,20)          -141.8563         estimate D2E/DX2                !
 ! D19   D(2,3,4,5)             -0.0542         estimate D2E/DX2                !
 ! D20   D(2,3,4,26)          -179.816          estimate D2E/DX2                !
 ! D21   D(21,3,4,5)           179.5567         estimate D2E/DX2                !
 ! D22   D(21,3,4,26)           -0.2052         estimate D2E/DX2                !
 ! D23   D(3,4,5,6)             -0.1876         estimate D2E/DX2                !
 ! D24   D(3,4,5,22)          -179.9312         estimate D2E/DX2                !
 ! D25   D(26,4,5,6)           179.5758         estimate D2E/DX2                !
 ! D26   D(26,4,5,22)           -0.1678         estimate D2E/DX2                !
 ! D27   D(3,4,12,27)           87.4885         estimate D2E/DX2                !
 ! D28   D(3,4,12,28)          -84.5444         estimate D2E/DX2                !
 ! D29   D(5,4,12,27)          -91.5947         estimate D2E/DX2                !
 ! D30   D(5,4,12,28)           96.3724         estimate D2E/DX2                !
 ! D31   D(4,5,6,1)              0.0381         estimate D2E/DX2                !
 ! D32   D(4,5,6,23)          -179.6888         estimate D2E/DX2                !
 ! D33   D(22,5,6,1)           179.7615         estimate D2E/DX2                !
 ! D34   D(22,5,6,23)            0.0345         estimate D2E/DX2                !
 ! D35   D(2,7,8,9)            146.0603         estimate D2E/DX2                !
 ! D36   D(2,7,8,25)           -85.6943         estimate D2E/DX2                !
 ! D37   D(11,7,8,9)            23.5627         estimate D2E/DX2                !
 ! D38   D(11,7,8,25)          151.8081         estimate D2E/DX2                !
 ! D39   D(20,7,8,9)           -94.5406         estimate D2E/DX2                !
 ! D40   D(20,7,8,25)           33.7048         estimate D2E/DX2                !
 ! D41   D(2,7,11,10)         -119.4532         estimate D2E/DX2                !
 ! D42   D(2,7,11,17)          122.1516         estimate D2E/DX2                !
 ! D43   D(2,7,11,18)            3.0147         estimate D2E/DX2                !
 ! D44   D(8,7,11,10)            2.3006         estimate D2E/DX2                !
 ! D45   D(8,7,11,17)         -116.0946         estimate D2E/DX2                !
 ! D46   D(8,7,11,18)          124.7685         estimate D2E/DX2                !
 ! D47   D(20,7,11,10)         121.8349         estimate D2E/DX2                !
 ! D48   D(20,7,11,17)           3.4397         estimate D2E/DX2                !
 ! D49   D(20,7,11,18)        -115.6972         estimate D2E/DX2                !
 ! D50   D(7,8,9,10)           -40.3274         estimate D2E/DX2                !
 ! D51   D(7,8,9,14)          -161.813          estimate D2E/DX2                !
 ! D52   D(7,8,9,19)            78.2235         estimate D2E/DX2                !
 ! D53   D(25,8,9,10)         -168.25           estimate D2E/DX2                !
 ! D54   D(25,8,9,14)           70.2643         estimate D2E/DX2                !
 ! D55   D(25,8,9,19)          -49.6992         estimate D2E/DX2                !
 ! D56   D(7,8,25,34)           59.005          estimate D2E/DX2                !
 ! D57   D(7,8,25,35)          -61.6956         estimate D2E/DX2                !
 ! D58   D(7,8,25,36)          177.6996         estimate D2E/DX2                !
 ! D59   D(9,8,25,34)         -176.4712         estimate D2E/DX2                !
 ! D60   D(9,8,25,35)           62.8281         estimate D2E/DX2                !
 ! D61   D(9,8,25,36)          -57.7767         estimate D2E/DX2                !
 ! D62   D(8,9,10,11)           40.0543         estimate D2E/DX2                !
 ! D63   D(8,9,10,15)          161.314          estimate D2E/DX2                !
 ! D64   D(8,9,10,16)          -77.8262         estimate D2E/DX2                !
 ! D65   D(14,9,10,11)         159.0907         estimate D2E/DX2                !
 ! D66   D(14,9,10,15)         -79.6496         estimate D2E/DX2                !
 ! D67   D(14,9,10,16)          41.2102         estimate D2E/DX2                !
 ! D68   D(19,9,10,11)         -79.1726         estimate D2E/DX2                !
 ! D69   D(19,9,10,15)          42.0871         estimate D2E/DX2                !
 ! D70   D(19,9,10,16)         162.9469         estimate D2E/DX2                !
 ! D71   D(9,10,11,7)          -25.6688         estimate D2E/DX2                !
 ! D72   D(9,10,11,17)          91.7862         estimate D2E/DX2                !
 ! D73   D(9,10,11,18)        -147.9333         estimate D2E/DX2                !
 ! D74   D(15,10,11,7)        -147.3212         estimate D2E/DX2                !
 ! D75   D(15,10,11,17)        -29.8662         estimate D2E/DX2                !
 ! D76   D(15,10,11,18)         90.4143         estimate D2E/DX2                !
 ! D77   D(16,10,11,7)          91.5029         estimate D2E/DX2                !
 ! D78   D(16,10,11,17)       -151.0421         estimate D2E/DX2                !
 ! D79   D(16,10,11,18)        -30.7616         estimate D2E/DX2                !
 ! D80   D(26,12,13,29)        105.7338         estimate D2E/DX2                !
 ! D81   D(26,12,13,30)       -107.4888         estimate D2E/DX2                !
 ! D82   D(28,12,13,29)        -81.9298         estimate D2E/DX2                !
 ! D83   D(28,12,13,30)         64.8477         estimate D2E/DX2                !
 ! D84   D(27,13,31,32)        130.0631         estimate D2E/DX2                !
 ! D85   D(27,13,31,33)        -79.8158         estimate D2E/DX2                !
 ! D86   D(29,13,31,32)        -79.7458         estimate D2E/DX2                !
 ! D87   D(29,13,31,33)         70.3752         estimate D2E/DX2                !
 ! D88   D(30,31,37,38)        123.1571         estimate D2E/DX2                !
 ! D89   D(30,31,37,39)        -25.833          estimate D2E/DX2                !
 ! D90   D(32,31,37,38)        -81.637          estimate D2E/DX2                !
 ! D91   D(32,31,37,39)        129.3728         estimate D2E/DX2                !
 --------------------------------------------------------------------------------
 Trust Radius=3.00D-01 FncErr=1.00D-07 GrdErr=1.00D-06 EigMax=2.50D+02 EigMin=1.00D-04
 Number of steps in this run=    212 maximum allowed number of steps=    234.
 GradGradGradGradGradGradGradGradGradGradGradGradGradGradGradGradGradGrad

                          Input orientation:                          
 ---------------------------------------------------------------------
 Center     Atomic      Atomic             Coordinates (Angstroms)
 Number     Number       Type             X           Y           Z
 ---------------------------------------------------------------------
      1          6           0       -1.700938    2.171523   -0.782539
      2          6           0       -1.481690    0.860202   -0.347956
      3          6           0       -0.238383    0.567553    0.193857
      4          7           0        0.703627    1.517680    0.298450
      5          6           0        0.508802    2.781530   -0.105587
      6          6           0       -0.706939    3.140419   -0.659980
      7          6           0       -2.562935   -0.197916   -0.424022
      8          7           0       -2.003179   -1.540463   -0.329077
      9          6           0       -2.972171   -2.371108    0.381191
     10          6           0       -3.473480   -1.440280    1.476240
     11          6           0       -3.587755   -0.092670    0.744827
     12          8           0        3.096670    0.965996    1.297963
     13          8           0        5.078541    0.099809   -0.230907
     14          1           0       -2.486159   -3.277872    0.761353
     15          1           0       -4.426516   -1.762743    1.908061
     16          1           0       -2.733154   -1.383839    2.284306
     17          1           0       -4.594630    0.039114    0.332470
     18          1           0       -3.387293    0.762582    1.400101
     19          1           0       -3.806189   -2.680961   -0.280058
     20          1           0       -3.093454   -0.051679   -1.385008
     21          1           0        0.011616   -0.432136    0.541226
     22          1           0        1.342229    3.467035    0.026281
     23          1           0       -0.867791    4.162806   -0.993697
     24          1           0       -2.662382    2.437411   -1.223737
     25          6           0       -1.554555   -2.085111   -1.596596
     26          1           0        1.639512    1.264678    0.711579
     27          1           0        3.856329    0.631434    0.762691
     28          1           0        3.364095    0.944565    2.218675
     29          1           0        5.803708    0.669792   -0.495640
     30          1           0        5.435368   -0.808465   -0.217628
     31          8           0        6.046515   -2.477045   -0.199269
     32          1           0        6.151924   -3.008970   -0.992490
     33          1           0        6.672561   -2.829448    0.438802
     34          1           0       -0.784470   -1.437630   -2.038137
     35          1           0       -2.380548   -2.185949   -2.327435
     36          1           0       -1.111436   -3.075185   -1.436222
     37          8           0        7.787222   -3.580950    1.606158
     38          1           0        7.578163   -4.372417    2.132376
     39          1           0        8.462586   -3.138380    2.149011
 ---------------------------------------------------------------------
                    Distance matrix (angstroms):
                    1          2          3          4          5
     1  C    0.000000
     2  C    1.398748   0.000000
     3  C    2.380155   1.387450   0.000000
     4  N    2.716244   2.371862   1.342037   0.000000
     5  C    2.390256   2.777103   2.355769   1.341089   0.000000
     6  C    1.393490   2.428371   2.751040   2.354053   1.383539
     7  C    2.546726   1.514758   2.524135   3.759742   4.291162
     8  N    3.751775   2.456725   2.798517   4.131928   5.003960
     9  C    4.858580   3.632431   4.018012   5.351730   6.237291
    10  C    4.614012   3.547835   4.017680   5.252137   6.015349
    11  C    3.319563   2.556883   3.457999   4.605262   5.076023
    12  O    5.366454   4.866377   3.535588   2.651422   3.458783
    13  O    7.110389   6.605190   5.354334   4.629303   5.299986
    14  H    5.718049   4.400361   4.490194   5.778091   6.814523
    15  H    5.490588   4.543287   5.090111   6.298443   7.004467
    16  H    4.807453   3.678408   3.794969   4.916696   5.794149
    17  H    3.763491   3.290526   4.390370   5.500804   5.810143
    18  H    3.097229   2.587770   3.377676   4.303421   4.639268
    19  H    5.313301   4.236477   4.848369   6.188837   6.963361
    20  H    2.691597   2.122448   3.320797   4.440129   4.758176
    21  H    3.385888   2.165813   1.087448   2.083171   3.315601
    22  H    3.404909   3.861366   3.306571   2.069269   1.087155
    23  H    2.168854   3.420679   3.838266   3.337018   2.142818
    24  H    1.090746   2.156065   3.373679   3.806964   3.380101
    25  C    4.336248   3.199887   3.460442   4.655179   5.492244
    26  H    3.770061   3.320861   2.068939   1.053834   2.060851
    27  H    5.970161   5.457135   4.134528   3.307640   4.072193
    28  H    6.013923   5.484190   4.149684   3.330738   4.114527
    29  H    7.658800   7.289382   6.082164   5.230709   5.713809
    30  H    7.754116   7.116679   5.852708   5.297798   6.096857
    31  O    9.053862   8.236091   6.994574   6.689694   7.637254
    32  H    9.410049   8.582423   7.418555   7.200071   8.133960
    33  H    9.829388   8.984671   7.704593   7.385485   8.352925
    34  H    3.929685   2.936471   3.049716   4.050670   4.817532
    35  H    4.672915   3.742368   4.304365   5.488559   6.161234
    36  H    5.320034   4.099839   4.085207   5.234305   6.220681
    37  O   11.349978  10.462080   9.144124   8.825159   9.817668
    38  H   11.722696  10.752362   9.447727   9.236653  10.303557
    39  H   11.835805  11.005095   9.657299   9.236066  10.168147
                    6          7          8          9         10
     6  C    0.000000
     7  C    3.826863   0.000000
     8  N    4.868305   1.457660   0.000000
     9  C    6.049152   2.353424   1.460615   0.000000
    10  C    5.761943   2.446131   2.330449   1.522131   0.000000
    11  C    4.552521   1.558057   2.400053   2.387981   1.537555
    12  O    4.798864   6.029183   5.910842   6.986241   6.999201
    13  O    6.549900   7.649712   7.269862   8.443581   8.855692
    14  H    6.810306   3.301081   2.107344   1.096792   2.205133
    15  H    6.668664   3.370494   3.305565   2.194666   1.094865
    16  H    5.765698   2.961491   2.717934   2.157238   1.097378
    17  H    5.071212   2.180882   3.106175   2.905842   2.180320
    18  H    4.133079   2.220258   3.195285   3.321222   2.205862
    19  H    6.605918   2.780633   2.134006   1.108533   2.175906
    20  H    4.051001   1.107398   2.126069   2.917862   3.203026
    21  H    3.836974   2.759506   2.458702   3.562051   3.746532
    22  H    2.185571   5.374472   6.032667   7.268007   7.026747
    23  H    1.087435   4.713167   5.853042   7.000769   6.654681
    24  H    2.153091   2.755791   4.130187   5.078742   4.794188
    25  C    5.376046   2.439931   1.450693   2.450116   3.679728
    26  H    3.302334   4.592312   4.713913   5.881812   5.834740
    27  H    5.398371   6.580506   6.343731   7.469218   7.650311
    28  H    5.448096   6.589294   6.440034   7.383651   7.279500
    29  H    6.965596   8.411823   8.115445   9.329092   9.716323
    30  H    7.315552   8.024227   7.475308   8.572465   9.090432
    31  O    8.796437   8.908848   8.105036   9.037967   9.721755
    32  H    9.217893   9.174636   8.312781   9.248945  10.060011
    33  H    9.555295   9.641774   8.804521   9.655788  10.293115
    34  H    4.781617   2.702813   2.101598   3.392722   4.425113
    35  H    5.826798   2.758355   2.133657   2.778661   4.027216
    36  H    6.276934   3.377880   2.091972   2.694633   4.090795
    37  O   11.066298  11.076655  10.186298  10.896274  11.463104
    38  H   11.527483  11.260706  10.289841  10.880323  11.452805
    39  H   11.462719  11.697390  10.873201  11.596015  12.075008
                   11         12         13         14         15
    11  C    0.000000
    12  O    6.790307   0.000000
    13  O    8.723176   2.648686   0.000000
    14  H    3.370356   7.033232   8.343740   0.000000
    15  H    2.201313   8.025993   9.919193   2.715795   0.000000
    16  H    2.183450   6.362503   8.339669   2.442899   1.775557
    17  H    1.095994   7.806880   9.689753   3.953731   2.399466
    18  H    1.095913   6.487957   8.646953   4.188712   2.777638
    19  H    2.792374   7.964917   9.309862   1.784186   2.452712
    20  H    2.186827   6.822876   8.254478   3.922243   3.943234
    21  H    3.621072   3.470588   5.152949   3.792829   4.830711
    22  H    6.123116   3.309144   5.036307   7.790421   8.010624
    23  H    5.341324   5.584644   7.242145   7.814282   7.496456
    24  H    3.336595   6.456835   8.146900   6.052776   5.528257
    25  C    3.685917   6.270695   7.115964   2.801872   4.542544
    26  H    5.400724   1.598864   3.751282   6.136644   6.884297
    27  H    7.479240   0.987689   1.662427   7.450492   8.697671
    28  H    7.181664   0.959003   3.106990   7.360586   8.253461
    29  H    9.503667   3.260798   0.959600   9.267469  10.786681
    30  H    9.102496   3.303821   0.975942   8.355056  10.133408
    31  O    9.969740   4.774706   2.752844   8.623842  10.706794
    32  H   10.314282   5.511906   3.375895   8.818432  11.039460
    33  H   10.623450   5.284936   3.401464   9.175362  11.246604
    34  H    4.172794   5.654222   6.324927   3.757576   5.379840
    35  H    3.908703   7.285478   8.078250   3.277813   4.722766
    36  H    4.447980   6.443219   7.060396   2.600054   4.888403
    37  O   11.928960   6.539952   4.925418  10.312512  12.352021
    38  H   12.038241   7.019877   5.642164  10.216081  12.287108
    39  H   12.508349   6.809055   5.253726  11.037213  12.964543
                   16         17         18         19         20
    16  H    0.000000
    17  H    3.049517   0.000000
    18  H    2.411812   1.766608   0.000000
    19  H    3.067555   2.897523   3.854400   0.000000
    20  H    3.920246   2.282872   2.916538   2.939733   0.000000
    21  H    3.387894   4.634993   3.703728   4.506368   3.673770
    22  H    6.725950   6.862266   5.618703   8.024831   5.835098
    23  H    6.707470   5.714270   4.862066   7.482019   4.782111
    24  H    5.187806   3.450680   3.196103   5.328842   2.531284
    25  C    4.116100   4.180393   4.521999   2.675475   2.558872
    26  H    5.348675   6.364767   5.098522   6.797578   5.341296
    27  H    7.056764   8.482608   7.272795   8.412697   7.306075
    28  H    6.527037   8.229150   6.803265   8.414338   7.461834
    29  H    9.209968  10.450309   9.384932  10.179594   8.970562
    30  H    8.562446  10.080767   9.106294   9.429555   8.641545
    31  O    9.189441  10.947501  10.101975   9.855145   9.530342
    32  H    9.608489  11.248767  10.533079   9.988952   9.714765
    33  H    9.693459  11.627104  10.725085  10.504428  10.315878
    34  H    4.741706   4.724179   4.841188   3.710458   2.771073
    35  H    4.694238   4.114384   4.858178   2.543470   2.439572
    36  H    4.396925   4.995975   5.287032   2.958686   3.615606
    37  O   10.768727  12.962924  11.990768  11.780279  11.823364
    38  H   10.736756  13.072037  12.130361  11.759436  12.038446
    39  H   11.333195  13.560500  12.497920  12.515288  12.472332
                   21         22         23         24         25
    21  H    0.000000
    22  H    4.152016   0.000000
    23  H    4.923702   2.531529   0.000000
    24  H    4.301123   4.319674   2.500093   0.000000
    25  C    3.123380   6.469267   6.314396   4.671136   0.000000
    26  H    2.357593   2.325594   4.194482   4.860766   5.172120
    27  H    3.995253   3.860522   6.154088   7.049897   6.497963
    28  H    3.993527   3.906071   6.211704   7.099100   6.923030
    29  H    5.986457   5.291669   7.547059   8.679244   7.933828
    30  H    5.489496   5.923950   8.065087   8.781886   7.238121
    31  O    6.414826   7.583750   9.619063  10.052179   7.738372
    32  H    6.833428   8.130787  10.035476  10.363809   7.785132
    33  H    7.079956   8.260043  10.382706  10.846428   8.507780
    34  H    2.880605   5.730655   5.697603   4.382436   1.098736
    35  H    4.126442   7.166260   6.661380   4.761621   1.107501
    36  H    3.486725   7.138629   7.255598   5.730558   1.096504
    37  O    8.456308   9.680291  11.901019  12.386411   9.988191
    38  H    8.678145  10.236186  12.407921  12.747784  10.126378
    39  H    9.018183   9.941678  12.257237  12.893013  10.746258
                   26         27         28         29         30
    26  H    0.000000
    27  H    2.306055   0.000000
    28  H    2.312574   1.568514   0.000000
    29  H    4.376276   2.318869   3.659879   0.000000
    30  H    4.423785   2.351106   3.646760   1.548615   0.000000
    31  O    5.852505   3.922362   4.974861   3.170075   1.777075
    32  H    6.444360   4.647898   5.806377   3.728459   2.440509
    33  H    6.493678   4.473675   5.325136   3.724616   2.458845
    34  H    4.554020   5.801955   6.403584   7.086933   6.511258
    35  H    6.107644   7.509005   7.966690   8.859615   8.212021
    36  H    5.569127   6.576696   7.038966   7.920149   7.034460
    37  O    7.878751   5.823017   6.357634   5.140106   4.067442
    38  H    8.310420   6.384873   6.784992   5.956427   4.776593
    39  H    8.246664   6.111545   6.532220   5.344715   4.493721
                   31         32         33         34         35
    31  O    0.000000
    32  H    0.960861   0.000000
    33  H    0.960862   1.533587   0.000000
    34  H    7.150117   7.188605   7.979956   0.000000
    35  H    8.696506   8.675397   9.488147   1.786376   0.000000
    36  H    7.288627   7.277203   8.010413   1.775048   1.787637
    37  O    2.740115   3.123192   1.780433   9.557646  10.991029
    38  H    3.372677   3.695664   2.463546   9.794885  11.128633
    39  H    3.433538   3.901914   2.494883  10.292366  11.769420
                   36         37         38         39
    36  H    0.000000
    37  O    9.417961   0.000000
    38  H    9.482976   0.973155   0.000000
    39  H   10.223492   0.972972   1.518330   0.000000
 Stoichiometry    C10H23N2O4(1+)
 Framework group  C1[X(C10H23N2O4)]
 Deg. of freedom   111
 Full point group                 C1      NOp   1
 Largest Abelian subgroup         C1      NOp   1
 Largest concise Abelian subgroup C1      NOp   1
                         Standard orientation:                         
 ---------------------------------------------------------------------
 Center     Atomic      Atomic             Coordinates (Angstroms)
 Number     Number       Type             X           Y           Z
 ---------------------------------------------------------------------
      1          6           0        2.818038    1.989546    0.526765
      2          6           0        2.306559    0.719740    0.239578
      3          6           0        0.991231    0.645672   -0.195671
      4          7           0        0.253944    1.757833   -0.339095
      5          6           0        0.729646    2.983814   -0.076043
      6          6           0        2.032344    3.129229    0.366690
      7          6           0        3.155886   -0.528973    0.357261
      8          7           0        2.332270   -1.729407    0.430674
      9          6           0        3.055993   -2.800827   -0.248798
     10          6           0        3.646543   -2.091865   -1.459379
     11          6           0        4.086081   -0.739400   -0.874810
     12          8           0       -2.271996    1.630293   -1.134957
     13          8           0       -4.261300    1.328550    0.587587
     14          1           0        2.369522   -3.616418   -0.506716
     15          1           0        4.478561   -2.640806   -1.912304
     16          1           0        2.871585   -1.952917   -2.223821
     17          1           0        5.128084   -0.784220   -0.538023
     18          1           0        4.010673    0.079217   -1.599520
     19          1           0        3.860043   -3.218775    0.389691
     20          1           0        3.778659   -0.413768    1.265673
     21          1           0        0.519137   -0.306575   -0.425662
     22          1           0        0.043117    3.813249   -0.226448
     23          1           0        2.420873    4.120900    0.586119
     24          1           0        3.844866    2.087308    0.881438
     25          6           0        1.884234   -2.058125    1.770718
     26          1           0       -0.743138    1.669745   -0.668694
     27          1           0       -3.038996    1.507783   -0.524849
     28          1           0       -2.609641    1.585637   -2.031443
     29          1           0       -4.834208    2.057086    0.836266
     30          1           0       -4.793154    0.516270    0.686568
     31          8           0       -5.726412   -0.984638    0.871774
     32          1           0       -5.873943   -1.412905    1.719168
     33          1           0       -6.458538   -1.253169    0.310403
     34          1           0        1.296890   -1.229546    2.189890
     35          1           0        2.727874   -2.264739    2.457843
     36          1           0        1.240156   -2.944884    1.736909
     37          8           0       -7.789436   -1.854864   -0.707741
     38          1           0       -7.785480   -2.714746   -1.163394
     39          1           0       -8.402628   -1.330288   -1.251330
 ---------------------------------------------------------------------
 Rotational constants (GHZ):           0.5049965           0.1491294           0.1249367
 Standard basis: Aug-CC-pVDZ (5D, 7F)
 There are   607 symmetry adapted cartesian basis functions of A   symmetry.
 There are   575 symmetry adapted basis functions of A   symmetry.
   575 basis functions,   941 primitive gaussians,   607 cartesian basis functions
    64 alpha electrons       64 beta electrons
       nuclear repulsion energy      1103.3520863358 Hartrees.
 NAtoms=   39 NActive=   39 NUniq=   39 SFac= 1.00D+00 NAtFMM=   60 NAOKFM=F Big=F
 Integral buffers will be    131072 words long.
 Raffenetti 2 integral format.
 Two-electron integral symmetry is turned on.
 Nuclear repulsion after empirical dispersion term =     1103.3285215102 Hartrees.
 One-electron integrals computed using PRISM.
 NBasis=   575 RedAO= T EigKep=  2.46D-06  NBF=   575
 NBsUse=   575 1.00D-06 EigRej= -1.00D+00 NBFU=   575
 ExpMin= 2.97D-02 ExpMax= 1.17D+04 ExpMxC= 4.01D+02 IAcc=3 IRadAn=         5 AccDes= 0.00D+00
 Harris functional with IExCor= 4639 and IRadAn=       5 diagonalized for initial guess.
 HarFok:  IExCor= 4639 AccDes= 0.00D+00 IRadAn=         5 IDoV= 1 UseB2=F ITyADJ=14
 ICtDFT=  3500011 ScaDFX=  1.000000  1.000000  1.000000  1.000000
 FoFCou: FMM=F IPFlag=           0 FMFlag=      100000 FMFlg1=           0
         NFxFlg=           0 DoJE=T BraDBF=F KetDBF=T FulRan=T
         wScrn=  0.000000 ICntrl=       500 IOpCl=  0 I1Cent=   200000004 NGrid=           0
         NMat0=    1 NMatS0=      1 NMatT0=    0 NMatD0=    1 NMtDS0=    0 NMtDT0=    0
 Petite list used in FoFCou.
 Requested convergence on RMS density matrix=1.00D-08 within 128 cycles.
 Requested convergence on MAX density matrix=1.00D-06.
 Requested convergence on             energy=1.00D-06.
 No special actions if energy rises.
 SCF Done:  E(RwB97XD) =  -805.021572481     A.U. after   14 cycles
            NFock= 14  Conv=0.66D-08     -V/T= 2.0063

 **********************************************************************

            Population analysis using the SCF density.

 **********************************************************************

 Orbital symmetries:
       Occupied  (A) (A) (A) (A) (A) (A) (A) (A) (A) (A) (A) (A)
                 (A) (A) (A) (A) (A) (A) (A) (A) (A) (A) (A) (A)
                 (A) (A) (A) (A) (A) (A) (A) (A) (A) (A) (A) (A)
                 (A) (A) (A) (A) (A) (A) (A) (A) (A) (A) (A) (A)
                 (A) (A) (A) (A) (A) (A) (A) (A) (A) (A) (A) (A)
                 (A) (A) (A) (A)
       Virtual   (A) (A) (A) (A) (A) (A) (A) (A) (A) (A) (A) (A)
                 (A) (A) (A) (A) (A) (A) (A) (A) (A) (A) (A) (A)
                 (A) (A) (A) (A) (A) (A) (A) (A) (A) (A) (A) (A)
                 (A) (A) (A) (A) (A) (A) (A) (A) (A) (A) (A) (A)
                 (A) (A) (A) (A) (A) (A) (A) (A) (A) (A) (A) (A)
                 (A) (A) (A) (A) (A) (A) (A) (A) (A) (A) (A) (A)
                 (A) (A) (A) (A) (A) (A) (A) (A) (A) (A) (A) (A)
                 (A) (A) (A) (A) (A) (A) (A) (A) (A) (A) (A) (A)
                 (A) (A) (A) (A) (A) (A) (A) (A) (A) (A) (A) (A)
                 (A) (A) (A) (A) (A) (A) (A) (A) (A) (A) (A) (A)
                 (A) (A) (A) (A) (A) (A) (A) (A) (A) (A) (A) (A)
                 (A) (A) (A) (A) (A) (A) (A) (A) (A) (A) (A) (A)
                 (A) (A) (A) (A) (A) (A) (A) (A) (A) (A) (A) (A)
                 (A) (A) (A) (A) (A) (A) (A) (A) (A) (A) (A) (A)
                 (A) (A) (A) (A) (A) (A) (A) (A) (A) (A) (A) (A)
                 (A) (A) (A) (A) (A) (A) (A) (A) (A) (A) (A) (A)
                 (A) (A) (A) (A) (A) (A) (A) (A) (A) (A) (A) (A)
                 (A) (A) (A) (A) (A) (A) (A) (A) (A) (A) (A) (A)
                 (A) (A) (A) (A) (A) (A) (A) (A) (A) (A) (A) (A)
                 (A) (A) (A) (A) (A) (A) (A) (A) (A) (A) (A) (A)
                 (A) (A) (A) (A) (A) (A) (A) (A) (A) (A) (A) (A)
                 (A) (A) (A) (A) (A) (A) (A) (A) (A) (A) (A) (A)
                 (A) (A) (A) (A) (A) (A) (A) (A) (A) (A) (A) (A)
                 (A) (A) (A) (A) (A) (A) (A) (A) (A) (A) (A) (A)
                 (A) (A) (A) (A) (A) (A) (A) (A) (A) (A) (A) (A)
                 (A) (A) (A) (A) (A) (A) (A) (A) (A) (A) (A) (A)
                 (A) (A) (A) (A) (A) (A) (A) (A) (A) (A) (A) (A)
                 (A) (A) (A) (A) (A) (A) (A) (A) (A) (A) (A) (A)
                 (A) (A) (A) (A) (A) (A) (A) (A) (A) (A) (A) (A)
                 (A) (A) (A) (A) (A) (A) (A) (A) (A) (A) (A) (A)
                 (A) (A) (A) (A) (A) (A) (A) (A) (A) (A) (A) (A)
                 (A) (A) (A) (A) (A) (A) (A) (A) (A) (A) (A) (A)
                 (A) (A) (A) (A) (A) (A) (A) (A) (A) (A) (A) (A)
                 (A) (A) (A) (A) (A) (A) (A) (A) (A) (A) (A) (A)
                 (A) (A) (A) (A) (A) (A) (A) (A) (A) (A) (A) (A)
                 (A) (A) (A) (A) (A) (A) (A) (A) (A) (A) (A) (A)
                 (A) (A) (A) (A) (A) (A) (A) (A) (A) (A) (A) (A)
                 (A) (A) (A) (A) (A) (A) (A) (A) (A) (A) (A) (A)
                 (A) (A) (A) (A) (A) (A) (A) (A) (A) (A) (A) (A)
                 (A) (A) (A) (A) (A) (A) (A) (A) (A) (A) (A) (A)
                 (A) (A) (A) (A) (A) (A) (A) (A) (A) (A) (A) (A)
                 (A) (A) (A) (A) (A) (A) (A) (A) (A) (A) (A) (A)
                 (A) (A) (A) (A) (A) (A) (A)
 The electronic state is 1-A.
 Alpha  occ. eigenvalues --  -19.38893 -19.38430 -19.36750 -19.35809 -14.66570
 Alpha  occ. eigenvalues --  -14.54631 -10.50049 -10.49284 -10.46724 -10.45969
 Alpha  occ. eigenvalues --  -10.45891 -10.44647 -10.41096 -10.41083 -10.40107
 Alpha  occ. eigenvalues --  -10.38878  -1.24854  -1.22921  -1.22727  -1.21076
 Alpha  occ. eigenvalues --   -1.19889  -1.15054  -1.07129  -1.03416  -0.98804
 Alpha  occ. eigenvalues --   -0.94436  -0.89558  -0.88147  -0.86890  -0.81409
 Alpha  occ. eigenvalues --   -0.78129  -0.77181  -0.74194  -0.73331  -0.72636
 Alpha  occ. eigenvalues --   -0.72310  -0.72148  -0.71639  -0.69690  -0.68441
 Alpha  occ. eigenvalues --   -0.67944  -0.66590  -0.63478  -0.63104  -0.62558
 Alpha  occ. eigenvalues --   -0.61653  -0.61263  -0.60086  -0.59184  -0.57459
 Alpha  occ. eigenvalues --   -0.56492  -0.55763  -0.54934  -0.54706  -0.53899
 Alpha  occ. eigenvalues --   -0.52293  -0.51987  -0.51871  -0.51573  -0.50737
 Alpha  occ. eigenvalues --   -0.50282  -0.49300  -0.47930  -0.40581
 Alpha virt. eigenvalues --   -0.13090  -0.09520  -0.05925  -0.04860  -0.04131
 Alpha virt. eigenvalues --   -0.03823  -0.03468  -0.02795  -0.02366  -0.02179
 Alpha virt. eigenvalues --   -0.01982  -0.01346  -0.00900  -0.00517  -0.00375
 Alpha virt. eigenvalues --    0.00024   0.00171   0.00418   0.01181   0.01744
 Alpha virt. eigenvalues --    0.02143   0.02272   0.02637   0.02914   0.03226
 Alpha virt. eigenvalues --    0.03603   0.03894   0.04200   0.04435   0.04872
 Alpha virt. eigenvalues --    0.04979   0.05359   0.05808   0.05938   0.06144
 Alpha virt. eigenvalues --    0.06832   0.06881   0.07261   0.07415   0.07573
 Alpha virt. eigenvalues --    0.08197   0.08344   0.08561   0.09016   0.09096
 Alpha virt. eigenvalues --    0.09356   0.09680   0.10031   0.10387   0.10717
 Alpha virt. eigenvalues --    0.10811   0.10973   0.11478   0.11718   0.12009
 Alpha virt. eigenvalues --    0.12110   0.12687   0.12905   0.13285   0.13363
 Alpha virt. eigenvalues --    0.13508   0.13561   0.13787   0.14171   0.14701
 Alpha virt. eigenvalues --    0.15046   0.15562   0.15974   0.16027   0.16344
 Alpha virt. eigenvalues --    0.16772   0.16944   0.17056   0.17207   0.17446
 Alpha virt. eigenvalues --    0.17879   0.17999   0.18248   0.18713   0.18877
 Alpha virt. eigenvalues --    0.18905   0.19431   0.19841   0.20252   0.20464
 Alpha virt. eigenvalues --    0.20953   0.21542   0.21692   0.21948   0.22149
 Alpha virt. eigenvalues --    0.22445   0.22537   0.22907   0.23107   0.23258
 Alpha virt. eigenvalues --    0.23624   0.23952   0.24297   0.24381   0.24829
 Alpha virt. eigenvalues --    0.25585   0.25737   0.25918   0.26202   0.26840
 Alpha virt. eigenvalues --    0.27033   0.27367   0.27864   0.28224   0.28613
 Alpha virt. eigenvalues --    0.29020   0.29399   0.29493   0.29892   0.29975
 Alpha virt. eigenvalues --    0.30366   0.30975   0.31113   0.31467   0.31662
 Alpha virt. eigenvalues --    0.32413   0.32953   0.33622   0.33827   0.34046
 Alpha virt. eigenvalues --    0.34463   0.34770   0.34987   0.35380   0.36174
 Alpha virt. eigenvalues --    0.36213   0.36322   0.36621   0.37189   0.37310
 Alpha virt. eigenvalues --    0.37739   0.38550   0.39512   0.39788   0.39855
 Alpha virt. eigenvalues --    0.40257   0.40702   0.41714   0.41843   0.42457
 Alpha virt. eigenvalues --    0.43064   0.43274   0.43404   0.43782   0.43936
 Alpha virt. eigenvalues --    0.44435   0.44527   0.44928   0.45447   0.45750
 Alpha virt. eigenvalues --    0.46006   0.46312   0.46676   0.46838   0.47253
 Alpha virt. eigenvalues --    0.47385   0.47734   0.48559   0.49222   0.49548
 Alpha virt. eigenvalues --    0.50068   0.50293   0.50471   0.50863   0.50973
 Alpha virt. eigenvalues --    0.51120   0.51450   0.51494   0.51710   0.52530
 Alpha virt. eigenvalues --    0.52893   0.53130   0.53438   0.53622   0.53722
 Alpha virt. eigenvalues --    0.54315   0.54569   0.54964   0.55394   0.56255
 Alpha virt. eigenvalues --    0.56736   0.57068   0.57479   0.57749   0.58215
 Alpha virt. eigenvalues --    0.58539   0.58645   0.59037   0.59537   0.59884
 Alpha virt. eigenvalues --    0.60370   0.60801   0.61357   0.62592   0.62771
 Alpha virt. eigenvalues --    0.62984   0.63470   0.64048   0.64507   0.64887
 Alpha virt. eigenvalues --    0.65143   0.65841   0.66125   0.66322   0.67240
 Alpha virt. eigenvalues --    0.67508   0.67929   0.68159   0.68871   0.69236
 Alpha virt. eigenvalues --    0.70165   0.70424   0.70748   0.71167   0.71570
 Alpha virt. eigenvalues --    0.71944   0.72283   0.72715   0.73589   0.74263
 Alpha virt. eigenvalues --    0.74837   0.75098   0.75452   0.75669   0.76435
 Alpha virt. eigenvalues --    0.76553   0.77410   0.77589   0.78576   0.78929
 Alpha virt. eigenvalues --    0.79179   0.79607   0.80002   0.80630   0.81264
 Alpha virt. eigenvalues --    0.81606   0.82219   0.82610   0.83081   0.83473
 Alpha virt. eigenvalues --    0.84824   0.85217   0.86264   0.86415   0.86758
 Alpha virt. eigenvalues --    0.87175   0.88671   0.88872   0.89896   0.90450
 Alpha virt. eigenvalues --    0.91372   0.93036   0.93630   0.94133   0.95290
 Alpha virt. eigenvalues --    0.96192   0.96511   0.97326   0.97649   0.98072
 Alpha virt. eigenvalues --    0.98727   0.99191   0.99544   1.00405   1.00911
 Alpha virt. eigenvalues --    1.01958   1.02220   1.03079   1.03882   1.04330
 Alpha virt. eigenvalues --    1.04630   1.05784   1.06157   1.07458   1.08142
 Alpha virt. eigenvalues --    1.08933   1.09893   1.10689   1.11457   1.11962
 Alpha virt. eigenvalues --    1.13447   1.14399   1.14752   1.15275   1.16977
 Alpha virt. eigenvalues --    1.17047   1.18468   1.19113   1.19715   1.20135
 Alpha virt. eigenvalues --    1.21242   1.22564   1.23452   1.24160   1.24281
 Alpha virt. eigenvalues --    1.25984   1.26593   1.27236   1.28500   1.30754
 Alpha virt. eigenvalues --    1.30955   1.31808   1.32149   1.33780   1.34901
 Alpha virt. eigenvalues --    1.35328   1.35601   1.36039   1.36532   1.37354
 Alpha virt. eigenvalues --    1.38284   1.39344   1.40463   1.41049   1.41813
 Alpha virt. eigenvalues --    1.42310   1.43266   1.44436   1.45102   1.46278
 Alpha virt. eigenvalues --    1.46470   1.47851   1.49046   1.50645   1.51077
 Alpha virt. eigenvalues --    1.51659   1.53231   1.53733   1.54925   1.56712
 Alpha virt. eigenvalues --    1.57947   1.58585   1.59331   1.60993   1.61896
 Alpha virt. eigenvalues --    1.62508   1.63691   1.64078   1.64410   1.64639
 Alpha virt. eigenvalues --    1.65797   1.67088   1.68465   1.69470   1.70537
 Alpha virt. eigenvalues --    1.71693   1.71994   1.72152   1.72770   1.73240
 Alpha virt. eigenvalues --    1.73977   1.74283   1.75293   1.75599   1.76422
 Alpha virt. eigenvalues --    1.77389   1.78007   1.78964   1.79571   1.80215
 Alpha virt. eigenvalues --    1.80738   1.82551   1.83257   1.83653   1.84054
 Alpha virt. eigenvalues --    1.84288   1.85628   1.86932   1.87091   1.87948
 Alpha virt. eigenvalues --    1.88361   1.89087   1.89519   1.90612   1.90924
 Alpha virt. eigenvalues --    1.92067   1.93196   1.93754   1.94947   1.95251
 Alpha virt. eigenvalues --    1.96236   1.96653   1.97710   1.97993   1.98295
 Alpha virt. eigenvalues --    1.99284   2.00867   2.02641   2.03977   2.05462
 Alpha virt. eigenvalues --    2.05670   2.06403   2.07245   2.08427   2.09229
 Alpha virt. eigenvalues --    2.09771   2.10092   2.11539   2.12187   2.12676
 Alpha virt. eigenvalues --    2.13176   2.14831   2.16419   2.17231   2.19082
 Alpha virt. eigenvalues --    2.19443   2.19934   2.20470   2.20656   2.22506
 Alpha virt. eigenvalues --    2.22828   2.24158   2.24574   2.25027   2.27012
 Alpha virt. eigenvalues --    2.27322   2.28310   2.28615   2.30359   2.30715
 Alpha virt. eigenvalues --    2.32327   2.34197   2.34624   2.36020   2.36835
 Alpha virt. eigenvalues --    2.37571   2.40022   2.41357   2.42459   2.43678
 Alpha virt. eigenvalues --    2.44237   2.44761   2.47669   2.48800   2.49124
 Alpha virt. eigenvalues --    2.50809   2.51587   2.53927   2.54481   2.55778
 Alpha virt. eigenvalues --    2.56759   2.57171   2.57441   2.58009   2.58641
 Alpha virt. eigenvalues --    2.61163   2.63113   2.64199   2.64949   2.66527
 Alpha virt. eigenvalues --    2.66966   2.68457   2.68862   2.69183   2.71025
 Alpha virt. eigenvalues --    2.72114   2.74151   2.74789   2.75029   2.77048
 Alpha virt. eigenvalues --    2.77828   2.78896   2.79843   2.81318   2.82503
 Alpha virt. eigenvalues --    2.84080   2.84909   2.85217   2.86005   2.87709
 Alpha virt. eigenvalues --    2.90072   2.90994   2.97553   3.02902   3.04338
 Alpha virt. eigenvalues --    3.11081   3.15241   3.16368   3.21760   3.25845
 Alpha virt. eigenvalues --    3.29933   3.33167   3.34059   3.35352   3.35827
 Alpha virt. eigenvalues --    3.40679   3.42003   3.43640   3.45492   3.47176
 Alpha virt. eigenvalues --    3.49184   3.51202   3.51703   3.56961   3.62244
 Alpha virt. eigenvalues --    3.65246   3.76926   3.78252   3.81299   3.82918
 Alpha virt. eigenvalues --    3.89440   4.03850   4.06292   4.08822   4.19172
 Alpha virt. eigenvalues --    4.54159
          Condensed to atoms (all electrons):
               1          2          3          4          5          6
     1  C   21.911607 -10.049554  -1.889833   0.173781   1.769755  -4.204599
     2  C  -10.049554  20.413706  -2.755233  -0.013416  -2.009406   1.945457
     3  C   -1.889833  -2.755233  15.749374  -1.580304  -0.602050  -1.012593
     4  N    0.173781  -0.013416  -1.580304   7.775181   0.417568   0.027446
     5  C    1.769755  -2.009406  -0.602050   0.417568   9.925727  -2.817963
     6  C   -4.204599   1.945457  -1.012593   0.027446  -2.817963  11.959726
     7  C   -0.231985  -4.450188  -3.073473   0.703213  -0.188821  -0.432839
     8  N   -0.320656   0.858885   0.896384  -0.141518  -0.020012   0.018828
     9  C    0.091587  -0.210887  -0.307052   0.054936  -0.001252  -0.010465
    10  C   -0.271233   0.449890   0.143604  -0.071677  -0.027897   0.059624
    11  C   -0.449813   0.445633  -0.435970   0.056068  -0.223774   0.360835
    12  O    0.058337  -0.111060   0.051383  -0.179225   0.074544  -0.065437
    13  O   -0.000927   0.003838  -0.009473   0.002468   0.008230   0.001717
    14  H    0.012047  -0.202975  -0.057133   0.010796  -0.001046  -0.000615
    15  H   -0.001072  -0.059296  -0.008154  -0.003775  -0.005832   0.008692
    16  H   -0.011890   0.148321   0.084390  -0.005781   0.014869  -0.011091
    17  H   -0.059784   0.247631   0.103425  -0.009741   0.014623  -0.021091
    18  H    0.143176  -0.528014  -0.094830   0.027758  -0.023541   0.039680
    19  H   -0.008634   0.211844   0.017871  -0.001327   0.002484   0.001877
    20  H   -0.066216   0.537580  -0.053860   0.006281  -0.042540   0.070852
    21  H   -0.116113  -0.261652  -0.948894   0.015368  -0.095849   0.074990
    22  H    0.014950   0.116186   0.219453  -0.060129  -0.878749   0.314114
    23  H    0.695915  -0.259538   0.016446  -0.030192   0.483143  -1.155204
    24  H   -2.254352   1.130875   0.241165  -0.094455  -0.204212   0.770979
    25  C   -0.089666  -0.034530   0.178010  -0.015611  -0.018643  -0.024005
    26  H    0.108377  -0.489171   0.438739  -0.066948  -0.235744  -0.227894
    27  H    0.008348  -0.011843   0.010937  -0.000083  -0.005294  -0.004468
    28  H   -0.005356   0.010330  -0.001736   0.001632  -0.011635   0.012321
    29  H   -0.000611   0.000947   0.001297   0.000164  -0.002157   0.000456
    30  H   -0.000275   0.000579  -0.002940   0.001053   0.001871   0.000064
    31  O   -0.000014   0.000157   0.000707   0.000073   0.000180   0.000087
    32  H    0.000009  -0.000042   0.000022  -0.000066  -0.000048   0.000020
    33  H   -0.000001   0.000083   0.000066   0.000064  -0.000052  -0.000025
    34  H   -0.178141   0.210435  -0.081036  -0.005786  -0.045346   0.051951
    35  H    0.043822   0.012774   0.076626  -0.006152   0.005466  -0.006495
    36  H    0.031174  -0.021014  -0.029820   0.008872   0.006348  -0.008511
    37  O   -0.000000  -0.000004  -0.000019   0.000001  -0.000002   0.000001
    38  H   -0.000001  -0.000001  -0.000001  -0.000000   0.000001   0.000001
    39  H    0.000000  -0.000002  -0.000005   0.000000  -0.000000   0.000000
               7          8          9         10         11         12
     1  C   -0.231985  -0.320656   0.091587  -0.271233  -0.449813   0.058337
     2  C   -4.450188   0.858885  -0.210887   0.449890   0.445633  -0.111060
     3  C   -3.073473   0.896384  -0.307052   0.143604  -0.435970   0.051383
     4  N    0.703213  -0.141518   0.054936  -0.071677   0.056068  -0.179225
     5  C   -0.188821  -0.020012  -0.001252  -0.027897  -0.223774   0.074544
     6  C   -0.432839   0.018828  -0.010465   0.059624   0.360835  -0.065437
     7  C   18.107369  -2.650525   0.076262  -0.977980  -0.250479   0.001660
     8  N   -2.650525   9.385312   0.032556   0.078074  -0.390930   0.002816
     9  C    0.076262   0.032556   5.470864   0.243196  -0.030883   0.000455
    10  C   -0.977980   0.078074   0.243196   5.635315   0.058708  -0.000622
    11  C   -0.250479  -0.390930  -0.030883   0.058708   6.053298  -0.001183
    12  O    0.001660   0.002816   0.000455  -0.000622  -0.001183   7.992483
    13  O    0.000236   0.000132   0.000012  -0.000014   0.000031  -0.045891
    14  H    0.498765  -0.651663   0.026261  -0.057462   0.069591   0.000054
    15  H    0.068242  -0.002586   0.076286  -0.213154   0.249140  -0.000007
    16  H   -0.141071   0.067690  -0.058520  -0.108073  -0.036119  -0.000189
    17  H    0.275487   0.138090  -0.190106   0.096489  -0.669421  -0.000052
    18  H   -0.090366   0.020844   0.151882   0.161984  -0.108678   0.000261
    19  H   -0.416984   0.388003  -0.299488   0.003029  -0.035520  -0.000036
    20  H   -1.507944  -0.195023  -0.045229   0.102928   0.361013   0.000161
    21  H    0.669610  -0.398782   0.024675   0.032163   0.035573  -0.007306
    22  H    0.008020   0.003023  -0.000634   0.000194   0.005753   0.002338
    23  H   -0.010018  -0.002347  -0.000858   0.000250  -0.015012  -0.001498
    24  H   -0.469858   0.056815  -0.018667   0.027144   0.061821   0.001112
    25  C   -0.340958   0.465140  -0.241548  -0.005979  -0.020875  -0.000545
    26  H   -0.099379   0.019174   0.003402   0.006162  -0.037770   0.018748
    27  H   -0.001610   0.001110   0.000068   0.000118  -0.000249   0.316983
    28  H    0.001647  -0.000205  -0.000144  -0.000025   0.000884   0.363278
    29  H   -0.000006  -0.000024  -0.000028   0.000002   0.000006   0.002121
    30  H    0.000447  -0.000041   0.000131  -0.000032   0.000045  -0.000086
    31  O    0.000079  -0.000013   0.000001  -0.000000   0.000001   0.000559
    32  H    0.000037  -0.000021  -0.000009  -0.000000   0.000003  -0.000060
    33  H   -0.000038   0.000004   0.000002   0.000002  -0.000005   0.000212
    34  H    0.085731  -0.072232  -0.135859  -0.024599   0.058603   0.000103
    35  H   -0.102287   0.152537   0.061712   0.043817  -0.047311   0.000052
    36  H   -0.022183  -0.333306   0.075043   0.004906  -0.003674  -0.000179
    37  O    0.000000  -0.000000  -0.000000   0.000000  -0.000000   0.000135
    38  H    0.000001   0.000000  -0.000000  -0.000000   0.000000  -0.000004
    39  H    0.000000  -0.000000  -0.000000  -0.000000  -0.000000   0.000003
              13         14         15         16         17         18
     1  C   -0.000927   0.012047  -0.001072  -0.011890  -0.059784   0.143176
     2  C    0.003838  -0.202975  -0.059296   0.148321   0.247631  -0.528014
     3  C   -0.009473  -0.057133  -0.008154   0.084390   0.103425  -0.094830
     4  N    0.002468   0.010796  -0.003775  -0.005781  -0.009741   0.027758
     5  C    0.008230  -0.001046  -0.005832   0.014869   0.014623  -0.023541
     6  C    0.001717  -0.000615   0.008692  -0.011091  -0.021091   0.039680
     7  C    0.000236   0.498765   0.068242  -0.141071   0.275487  -0.090366
     8  N    0.000132  -0.651663  -0.002586   0.067690   0.138090   0.020844
     9  C    0.000012   0.026261   0.076286  -0.058520  -0.190106   0.151882
    10  C   -0.000014  -0.057462  -0.213154  -0.108073   0.096489   0.161984
    11  C    0.000031   0.069591   0.249140  -0.036119  -0.669421  -0.108678
    12  O   -0.045891   0.000054  -0.000007  -0.000189  -0.000052   0.000261
    13  O    7.796942   0.000007  -0.000001  -0.000024   0.000001   0.000013
    14  H    0.000007   2.397848   0.012547  -0.204306  -0.019032   0.013021
    15  H   -0.000001   0.012547   1.810631  -0.396955  -0.221452   0.050496
    16  H   -0.000024  -0.204306  -0.396955   2.039754   0.159375  -0.245683
    17  H    0.000001  -0.019032  -0.221452   0.159375   2.167045  -0.452167
    18  H    0.000013   0.013021   0.050496  -0.245683  -0.452167   2.284157
    19  H   -0.000002  -0.384007  -0.146617   0.146257   0.066192  -0.017346
    20  H   -0.000002   0.034928   0.027831  -0.037888  -0.252572   0.100745
    21  H    0.002758   0.015351   0.011384  -0.028121  -0.011576   0.024389
    22  H    0.002387  -0.000100  -0.000116   0.000386   0.001076  -0.000166
    23  H    0.000004  -0.000061   0.000113   0.000109  -0.001582  -0.003083
    24  H   -0.000041  -0.002174   0.001522   0.003151   0.000789  -0.011330
    25  C    0.000015  -0.025210   0.007554  -0.008952   0.000395   0.002886
    26  H   -0.017330  -0.002333  -0.000126   0.003662   0.000626   0.000428
    27  H   -0.002065  -0.000038   0.000038  -0.000108  -0.000019   0.000029
    28  H    0.004539   0.000086   0.000002  -0.000067   0.000005   0.000034
    29  H    0.364923   0.000000   0.000001  -0.000003  -0.000001   0.000001
    30  H    0.312523   0.000020  -0.000006   0.000014   0.000004  -0.000004
    31  O   -0.037445   0.000016  -0.000000   0.000006   0.000000   0.000001
    32  H    0.001034   0.000005   0.000000  -0.000003  -0.000000   0.000001
    33  H    0.001245  -0.000008  -0.000000   0.000007   0.000000  -0.000001
    34  H    0.000258  -0.009721  -0.000970  -0.001593   0.000081  -0.000537
    35  H    0.000005   0.020083   0.006273  -0.003951   0.000887   0.000464
    36  H   -0.000049   0.018758  -0.004191   0.006962   0.000687   0.000673
    37  O    0.000366  -0.000000   0.000000  -0.000001  -0.000000   0.000000
    38  H   -0.000062   0.000000   0.000000  -0.000000   0.000000   0.000000
    39  H    0.000282  -0.000000   0.000000  -0.000000  -0.000000   0.000000
              19         20         21         22         23         24
     1  C   -0.008634  -0.066216  -0.116113   0.014950   0.695915  -2.254352
     2  C    0.211844   0.537580  -0.261652   0.116186  -0.259538   1.130875
     3  C    0.017871  -0.053860  -0.948894   0.219453   0.016446   0.241165
     4  N   -0.001327   0.006281   0.015368  -0.060129  -0.030192  -0.094455
     5  C    0.002484  -0.042540  -0.095849  -0.878749   0.483143  -0.204212
     6  C    0.001877   0.070852   0.074990   0.314114  -1.155204   0.770979
     7  C   -0.416984  -1.507944   0.669610   0.008020  -0.010018  -0.469858
     8  N    0.388003  -0.195023  -0.398782   0.003023  -0.002347   0.056815
     9  C   -0.299488  -0.045229   0.024675  -0.000634  -0.000858  -0.018667
    10  C    0.003029   0.102928   0.032163   0.000194   0.000250   0.027144
    11  C   -0.035520   0.361013   0.035573   0.005753  -0.015012   0.061821
    12  O   -0.000036   0.000161  -0.007306   0.002338  -0.001498   0.001112
    13  O   -0.000002  -0.000002   0.002758   0.002387   0.000004  -0.000041
    14  H   -0.384007   0.034928   0.015351  -0.000100  -0.000061  -0.002174
    15  H   -0.146617   0.027831   0.011384  -0.000116   0.000113   0.001522
    16  H    0.146257  -0.037888  -0.028121   0.000386   0.000109   0.003151
    17  H    0.066192  -0.252572  -0.011576   0.001076  -0.001582   0.000789
    18  H   -0.017346   0.100745   0.024389  -0.000166  -0.003083  -0.011330
    19  H    1.965039  -0.052491   0.003039   0.000100  -0.000026   0.000764
    20  H   -0.052491   2.433945   0.048247  -0.000918   0.000174  -0.041173
    21  H    0.003039   0.048247   3.045467   0.012230  -0.001119  -0.024614
    22  H    0.000100  -0.000918   0.012230   2.180612  -0.121255  -0.012324
    23  H   -0.000026   0.000174  -0.001119  -0.121255   2.079194  -0.131109
    24  H    0.000764  -0.041173  -0.024614  -0.012324  -0.131109   2.822124
    25  C    0.008380   0.084926  -0.074744  -0.000507   0.002791   0.007348
    26  H    0.000125  -0.007292  -0.079075  -0.152875   0.014364   0.012564
    27  H   -0.000014  -0.000023   0.004914  -0.001643   0.000101   0.000094
    28  H   -0.000012   0.000082   0.001705   0.007760  -0.000336  -0.000146
    29  H   -0.000000   0.000005   0.000217  -0.000073   0.000022  -0.000020
    30  H   -0.000001  -0.000007  -0.001215   0.000530  -0.000025   0.000007
    31  O    0.000000   0.000003  -0.000237  -0.000011   0.000003  -0.000000
    32  H   -0.000001   0.000002   0.000042  -0.000017   0.000000   0.000001
    33  H    0.000002  -0.000001  -0.000115  -0.000007   0.000001  -0.000001
    34  H    0.000945   0.019283   0.010568   0.000205   0.000371  -0.004353
    35  H    0.007434  -0.004811   0.001105   0.000095  -0.000068   0.002818
    36  H   -0.003378   0.014681  -0.001056  -0.000090   0.000085   0.001698
    37  O   -0.000000   0.000000   0.000082  -0.000005   0.000000  -0.000000
    38  H   -0.000000   0.000000   0.000002   0.000000   0.000000  -0.000000
    39  H   -0.000000   0.000000   0.000004  -0.000001  -0.000000   0.000000
              25         26         27         28         29         30
     1  C   -0.089666   0.108377   0.008348  -0.005356  -0.000611  -0.000275
     2  C   -0.034530  -0.489171  -0.011843   0.010330   0.000947   0.000579
     3  C    0.178010   0.438739   0.010937  -0.001736   0.001297  -0.002940
     4  N   -0.015611  -0.066948  -0.000083   0.001632   0.000164   0.001053
     5  C   -0.018643  -0.235744  -0.005294  -0.011635  -0.002157   0.001871
     6  C   -0.024005  -0.227894  -0.004468   0.012321   0.000456   0.000064
     7  C   -0.340958  -0.099379  -0.001610   0.001647  -0.000006   0.000447
     8  N    0.465140   0.019174   0.001110  -0.000205  -0.000024  -0.000041
     9  C   -0.241548   0.003402   0.000068  -0.000144  -0.000028   0.000131
    10  C   -0.005979   0.006162   0.000118  -0.000025   0.000002  -0.000032
    11  C   -0.020875  -0.037770  -0.000249   0.000884   0.000006   0.000045
    12  O   -0.000545   0.018748   0.316983   0.363278   0.002121  -0.000086
    13  O    0.000015  -0.017330  -0.002065   0.004539   0.364923   0.312523
    14  H   -0.025210  -0.002333  -0.000038   0.000086   0.000000   0.000020
    15  H    0.007554  -0.000126   0.000038   0.000002   0.000001  -0.000006
    16  H   -0.008952   0.003662  -0.000108  -0.000067  -0.000003   0.000014
    17  H    0.000395   0.000626  -0.000019   0.000005  -0.000001   0.000004
    18  H    0.002886   0.000428   0.000029   0.000034   0.000001  -0.000004
    19  H    0.008380   0.000125  -0.000014  -0.000012  -0.000000  -0.000001
    20  H    0.084926  -0.007292  -0.000023   0.000082   0.000005  -0.000007
    21  H   -0.074744  -0.079075   0.004914   0.001705   0.000217  -0.001215
    22  H   -0.000507  -0.152875  -0.001643   0.007760  -0.000073   0.000530
    23  H    0.002791   0.014364   0.000101  -0.000336   0.000022  -0.000025
    24  H    0.007348   0.012564   0.000094  -0.000146  -0.000020   0.000007
    25  C    4.581017  -0.003478  -0.000325   0.000390   0.000031  -0.000123
    26  H   -0.003478   1.711294   0.001435  -0.018432   0.001332   0.000032
    27  H   -0.000325   0.001435   0.510403  -0.111840  -0.004715  -0.004246
    28  H    0.000390  -0.018432  -0.111840   0.611903  -0.000380  -0.000134
    29  H    0.000031   0.001332  -0.004715  -0.000380   0.618066  -0.109400
    30  H   -0.000123   0.000032  -0.004246  -0.000134  -0.109400   0.535677
    31  O   -0.000006  -0.001795  -0.002768   0.000963   0.000707   0.024836
    32  H    0.000008   0.000008   0.000976  -0.000089  -0.000651  -0.005016
    33  H    0.000008   0.000286  -0.000109  -0.000016   0.000235  -0.005150
    34  H    0.342917  -0.014350  -0.000475   0.000353   0.000097  -0.000256
    35  H    0.049566   0.003276   0.000175  -0.000059  -0.000004  -0.000011
    36  H    0.380218   0.001661  -0.000215  -0.000027  -0.000009   0.000044
    37  O   -0.000000   0.000058  -0.000126  -0.000064   0.000360  -0.002244
    38  H   -0.000000  -0.000004  -0.000083   0.000001  -0.000011   0.000427
    39  H   -0.000000   0.000024   0.000105  -0.000045   0.000052  -0.000760
              31         32         33         34         35         36
     1  C   -0.000014   0.000009  -0.000001  -0.178141   0.043822   0.031174
     2  C    0.000157  -0.000042   0.000083   0.210435   0.012774  -0.021014
     3  C    0.000707   0.000022   0.000066  -0.081036   0.076626  -0.029820
     4  N    0.000073  -0.000066   0.000064  -0.005786  -0.006152   0.008872
     5  C    0.000180  -0.000048  -0.000052  -0.045346   0.005466   0.006348
     6  C    0.000087   0.000020  -0.000025   0.051951  -0.006495  -0.008511
     7  C    0.000079   0.000037  -0.000038   0.085731  -0.102287  -0.022183
     8  N   -0.000013  -0.000021   0.000004  -0.072232   0.152537  -0.333306
     9  C    0.000001  -0.000009   0.000002  -0.135859   0.061712   0.075043
    10  C   -0.000000  -0.000000   0.000002  -0.024599   0.043817   0.004906
    11  C    0.000001   0.000003  -0.000005   0.058603  -0.047311  -0.003674
    12  O    0.000559  -0.000060   0.000212   0.000103   0.000052  -0.000179
    13  O   -0.037445   0.001034   0.001245   0.000258   0.000005  -0.000049
    14  H    0.000016   0.000005  -0.000008  -0.009721   0.020083   0.018758
    15  H   -0.000000   0.000000  -0.000000  -0.000970   0.006273  -0.004191
    16  H    0.000006  -0.000003   0.000007  -0.001593  -0.003951   0.006962
    17  H    0.000000  -0.000000   0.000000   0.000081   0.000887   0.000687
    18  H    0.000001   0.000001  -0.000001  -0.000537   0.000464   0.000673
    19  H    0.000000  -0.000001   0.000002   0.000945   0.007434  -0.003378
    20  H    0.000003   0.000002  -0.000001   0.019283  -0.004811   0.014681
    21  H   -0.000237   0.000042  -0.000115   0.010568   0.001105  -0.001056
    22  H   -0.000011  -0.000017  -0.000007   0.000205   0.000095  -0.000090
    23  H    0.000003   0.000000   0.000001   0.000371  -0.000068   0.000085
    24  H   -0.000000   0.000001  -0.000001  -0.004353   0.002818   0.001698
    25  C   -0.000006   0.000008   0.000008   0.342917   0.049566   0.380218
    26  H   -0.001795   0.000008   0.000286  -0.014350   0.003276   0.001661
    27  H   -0.002768   0.000976  -0.000109  -0.000475   0.000175  -0.000215
    28  H    0.000963  -0.000089  -0.000016   0.000353  -0.000059  -0.000027
    29  H    0.000707  -0.000651   0.000235   0.000097  -0.000004  -0.000009
    30  H    0.024836  -0.005016  -0.005150  -0.000256  -0.000011   0.000044
    31  O    7.680491   0.370107   0.330238   0.000123  -0.000003  -0.000082
    32  H    0.370107   0.617211  -0.104721  -0.000009  -0.000001  -0.000003
    33  H    0.330238  -0.104721   0.561075   0.000026   0.000001  -0.000003
    34  H    0.000123  -0.000009   0.000026   1.994134  -0.417203  -0.495073
    35  H   -0.000003  -0.000001   0.000001  -0.417203   1.577051  -0.310439
    36  H   -0.000082  -0.000003  -0.000003  -0.495073  -0.310439   1.898110
    37  O   -0.035454   0.003549   0.007147  -0.000003  -0.000000   0.000001
    38  H    0.000708  -0.000743  -0.003900  -0.000000   0.000000  -0.000000
    39  H    0.001908  -0.000171  -0.002498  -0.000001  -0.000000   0.000001
              37         38         39
     1  C   -0.000000  -0.000001   0.000000
     2  C   -0.000004  -0.000001  -0.000002
     3  C   -0.000019  -0.000001  -0.000005
     4  N    0.000001  -0.000000   0.000000
     5  C   -0.000002   0.000001  -0.000000
     6  C    0.000001   0.000001   0.000000
     7  C    0.000000   0.000001   0.000000
     8  N   -0.000000   0.000000  -0.000000
     9  C   -0.000000  -0.000000  -0.000000
    10  C    0.000000  -0.000000  -0.000000
    11  C   -0.000000   0.000000  -0.000000
    12  O    0.000135  -0.000004   0.000003
    13  O    0.000366  -0.000062   0.000282
    14  H   -0.000000   0.000000  -0.000000
    15  H    0.000000   0.000000   0.000000
    16  H   -0.000001  -0.000000  -0.000000
    17  H   -0.000000   0.000000  -0.000000
    18  H    0.000000   0.000000   0.000000
    19  H   -0.000000  -0.000000  -0.000000
    20  H    0.000000   0.000000   0.000000
    21  H    0.000082   0.000002   0.000004
    22  H   -0.000005   0.000000  -0.000001
    23  H    0.000000   0.000000  -0.000000
    24  H   -0.000000  -0.000000   0.000000
    25  C   -0.000000  -0.000000  -0.000000
    26  H    0.000058  -0.000004   0.000024
    27  H   -0.000126  -0.000083   0.000105
    28  H   -0.000064   0.000001  -0.000045
    29  H    0.000360  -0.000011   0.000052
    30  H   -0.002244   0.000427  -0.000760
    31  O   -0.035454   0.000708   0.001908
    32  H    0.003549  -0.000743  -0.000171
    33  H    0.007147  -0.003900  -0.002498
    34  H   -0.000003  -0.000000  -0.000001
    35  H   -0.000000   0.000000  -0.000000
    36  H    0.000001  -0.000000   0.000001
    37  O    7.661273   0.347085   0.350933
    38  H    0.347085   0.567329  -0.068323
    39  H    0.350933  -0.068323   0.563287
 Mulliken charges:
               1
     1  C    1.147840
     2  C    0.722674
     3  C    0.714509
     4  N    0.003468
     5  C    0.737055
     6  C    0.283575
     7  C    0.962186
     8  N   -0.405532
     9  C    1.162296
    10  C    0.611151
    11  C    0.940660
    12  O   -0.474416
    13  O   -0.390640
    14  H   -0.512299
    15  H   -0.266440
    16  H   -0.374564
    17  H   -0.364312
    18  H   -0.447177
    19  H   -0.457502
    20  H   -0.535678
    21  H   -0.983416
    22  H   -0.659790
    23  H   -0.559753
    24  H   -0.873962
    25  C    0.794105
    26  H    0.108219
    27  H    0.296527
    28  H    0.132832
    29  H    0.127050
    30  H    0.253667
    31  O   -0.334128
    32  H    0.118635
    33  H    0.215948
    34  H   -0.288646
    35  H   -0.167241
    36  H   -0.216618
    37  O   -0.333067
    38  H    0.157577
    39  H    0.155206
 Sum of Mulliken charges =   1.00000
 Mulliken charges with hydrogens summed into heavy atoms:
               1
     1  C    0.273878
     2  C    0.722674
     3  C   -0.268906
     4  N    0.111686
     5  C    0.077265
     6  C   -0.276178
     7  C    0.426508
     8  N   -0.405532
     9  C    0.192494
    10  C   -0.029853
    11  C    0.129172
    12  O   -0.045057
    13  O   -0.009923
    25  C    0.121600
    31  O    0.000456
    37  O   -0.020284
 Electronic spatial extent (au):  <R**2>=           8622.6788
 Charge=              1.0000 electrons
 Dipole moment (field-independent basis, Debye):
    X=             -3.9094    Y=              2.7563    Z=             -1.4988  Tot=              5.0127
 Quadrupole moment (field-independent basis, Debye-Ang):
   XX=             12.6205   YY=            -60.9243   ZZ=            -86.0874
   XY=             14.8118   XZ=             14.5854   YZ=              2.3561
 Traceless Quadrupole moment (field-independent basis, Debye-Ang):
   XX=             57.4176   YY=            -16.1273   ZZ=            -41.2903
   XY=             14.8118   XZ=             14.5854   YZ=              2.3561
 Octapole moment (field-independent basis, Debye-Ang**2):
  XXX=           -666.9288  YYY=             42.5299  ZZZ=            -12.3298  XYY=            -60.5902
  XXY=           -111.5785  XXZ=           -100.3631  XZZ=            -80.3908  YZZ=            -12.2532
  YYZ=             -1.5072  XYZ=            -12.1766
 Hexadecapole moment (field-independent basis, Debye-Ang**3):
 XXXX=          -2011.4697 YYYY=          -1799.8646 ZZZZ=           -524.2581 XXXY=           1025.3019
 XXXZ=            976.5244 YYYX=            242.6404 YYYZ=             58.3889 ZZZX=             33.9520
 ZZZY=            -29.3505 XXYY=          -1000.4526 XXZZ=          -1002.3420 YYZZ=           -429.8469
 XXYZ=            271.7244 YYXZ=             76.8617 ZZXY=             65.7508
 N-N= 1.103328521510D+03 E-N=-4.071639350886D+03  KE= 7.999789206127D+02
 Calling FoFJK, ICntrl=      2127 FMM=F ISym2X=0 I1Cent= 0 IOpClX= 0 NMat=1 NMatS=1 NMatT=0.
 ***** Axes restored to original set *****
 -------------------------------------------------------------------
 Center     Atomic                   Forces (Hartrees/Bohr)
 Number     Number              X              Y              Z
 -------------------------------------------------------------------
      1        6          -0.000017800   -0.000048805    0.000004599
[...]
 -0.00009000,0.00004278,-0.00000128,0.00003719,-0.00004704,-0.00008451,
 0.00004947,0.00006696,-0.00000735,0.00001021,-0.00004030,-0.00002995,0
 .00008539,0.00029731,0.00018443,-0.00018678,0.00064505,-0.00006864,0.0
 0126499,0.00015357,0.00008056,0.00007410,0.00001205,-0.00000799,-0.000
 01025,-0.00000353,-0.00000508,-0.00001574,0.00001542,-0.00002608,0.000
 00528,-0.01085320,-0.05107116,-0.00809550,0.00003650,0.00001285,0.0000
 3382,0.00001633,-0.00001417,-0.00001003,0.00000001,-0.00000383,0.00000
 018,0.00000057,-0.00000274,0.00000032,-0.00000183,-0.00002553,0.000003
 29,0.00002245,0.00001616,0.00000438,-0.00001852,-0.00000276,0.00000062
 ,-0.00001098,0.00000099,-0.00000822,-0.01610451,-0.00092676,-0.0126829
 5,0.01235770,0.04832035,-0.00019594,-0.00006396,-0.00003925,0.00020614
 ,-0.00041961,0.00035702,-0.00009496,0.00010325,0.00002114,-0.00007944,
 -0.00019881,0.00005204,-0.00001125,-0.00005559,-0.00004907,-0.00000868
 ,-0.00006679,0.00003337,-0.00208120,0.00503606,0.00008811,-0.01590054,
 -0.00983513,-0.03824704,-0.00429704,-0.00301154,0.00177822,0.00039107,
 0.00018274,0.00034515,-0.00009423,0.00035631,0.00046563,-0.00011690,0.
 00002956,0.00002374,-0.00001380,0.00003682,0.00004884,0.00022831,0.000
 30857,-0.00008933,0.00023796,-0.00010717,-0.00004211,0.00002548,0.0002
 0924,0.00030840,0.00010244,-0.00004534,-0.00003728,-0.00000607,-0.0000
 1980,0.00008006,0.00173837,0.00101703,0.00048714,0.00104574,-0.0015284
 9,0.00102013,0.00041750,0.00021079,-0.00006936,0.00000538,-0.00001636,
 -0.00000230,-0.00001495,-0.00001877,-0.00001546,0.00002887,0.00000848,
 -0.00000542,-0.11496265,-0.00759393,-0.13715980,0.00015260,-0.00003178
 ,0.00004324,0.00004949,-0.00004486,-0.00006785,0.00001236,0.00000817,-
 0.00000036,-0.00000220,-0.00000282,-0.00000756,-0.00000139,-0.00001653
 ,-0.00000930,0.00000421,0.00000837,0.00001885,-0.00000880,0.00000110,-
 0.00001079,-0.00000226,-0.00000067,-0.00000811,0.00848474,0.00069112,0
 .00794176,0.12775097,0.01504468,0.16416221,0.00003038,0.00020060,-0.00
 003392,-0.00008272,-0.00007587,0.00011044,0.00010051,0.00003160,0.0000
 7422,0.00004163,0.00009026,-0.00003536,0.00005433,-0.00003664,0.000039
 22,-0.00005892,-0.00001175,-0.00003196,-0.00038777,-0.00017013,0.00176
 447,-0.00438006,0.00963979,0.00113296,0.00024955,0.00104835,-0.0007505
 0,-0.00001490,0.00000682,0.00006331,0.00009132,0.00045608,0.00015081,-
 0.00000182,0.00003017,0.00001417,0.00001920,0.00003211,0.00001130,0.00
 005142,-0.00019130,0.00040760,0.00000316,-0.00002919,0.00000244,0.0000
 0778,-0.00004590,-0.00003835,-0.00000423,0.00000009,0.00002173,-0.0001
 3226,-0.00001972,0.00017051,-0.00026499,0.00004911,-0.00020706,0.00021
 584,-0.00042450,0.00013234,-0.00001868,-0.00007703,-0.00000072,-0.0000
 0036,0.00000274,0.00000801,0.00000088,0.00000226,-0.00000026,-0.000007
 41,-0.00001558,0.00000300,-0.09606394,0.10265684,-0.01250068,0.0000148
 8,-0.00001215,-0.00000020,0.00000051,-0.00002311,-0.00001470,-0.000001
 92,-0.00000641,-0.00000823,-0.00000368,-0.00000775,0.00000181,-0.00002
 368,-0.00001351,-0.00000842,0.00004978,0.00000040,0.00002346,-0.000032
 06,0.00000539,-0.00000504,-0.00002616,0.00000684,-0.00002260,0.0103081
 3,-0.02021086,0.00173353,-0.00973479,0.02208884,-0.00299182,0.09998903
 ,-0.00010708,0.00005019,-0.00000673,0.00036940,0.00038446,0.00009547,0
 .00006174,-0.00008418,0.00012155,-0.00016961,0.00004251,-0.00008467,0.
 00001088,-0.00007111,0.00003554,-0.00003477,-0.00000300,-0.00002345,0.
 00087237,0.00147599,-0.00212445,0.00337347,-0.01071047,-0.00112823,-0.
 00087425,0.00072405,0.00067807,-0.00007685,0.00005779,-0.00014628,-0.0
 0008633,-0.00053327,0.00024892,-0.00014129,0.00010153,0.00000620,-0.00
 000027,0.00009794,0.00004629,0.00045869,0.00027565,-0.00040663,-0.0000
 0916,0.00005464,0.00000651,-0.00000916,-0.00000554,-0.00001577,0.00007
 938,-0.00000135,-0.00011858,0.00012119,0.00009919,-0.00014866,0.000214
 02,-0.00000801,0.00002814,-0.00029818,0.00014512,0.00009213,0.00009798
 ,-0.00015579,-0.00004854,0.00000475,0.00000378,0.00000281,-0.00001201,
 -0.00000794,-0.00000580,-0.00001113,0.00003330,0.00000177,0.10434781,-
 0.26724654,0.02599890,0.00023367,-0.00009304,0.00007621,0.00005157,-0.
 00008252,-0.00007861,-0.00000341,-0.00001497,-0.00000309,-0.00000050,-
 0.00001610,0.00000021,-0.00002721,-0.00006013,-0.00000794,0.00006935,0
 .00002777,0.00003199,-0.00004987,0.00000256,-0.00001061,-0.00003648,0.
 00000492,-0.00003075,0.00882578,-0.01552669,0.00190882,-0.00228519,0.0
 0320762,-0.00017375,-0.11497440,0.28783463,-0.00015851,-0.00017068,0.0
 0000204,0.00035972,0.00024100,0.00002833,-0.00001517,-0.00002828,0.000
 01372,-0.00006678,-0.00003060,-0.00001066,-0.00004085,0.00001240,-0.00
 003722,0.00004375,-0.00002015,0.00004747,0.00258419,-0.00003315,-0.005
 14942,0.01430322,-0.03425809,-0.00028465,0.00024567,-0.00130231,0.0015
 9218,-0.00039415,-0.00027934,0.00027916,0.00055423,-0.00151679,-0.0000
 6802,0.00000851,0.00001535,-0.00000687,0.00000950,-0.00000676,-0.00001
 633,-0.00012752,0.00048610,-0.00018773,-0.00004654,0.00008319,0.000020
 84,-0.00001225,0.00002294,-0.00001933,0.00018655,-0.00007432,-0.000228
 50,0.00032319,-0.00004919,-0.00025592,0.00001103,0.00032733,-0.0003131
 9,0.00038261,-0.00019240,0.00009833,0.00004667,-0.00000968,0.00001389,
 0.00000023,-0.00000035,-0.00000344,-0.00000739,-0.00001344,-0.00000999
 ,0.00001341,0.00000625,-0.00002112,-0.01602804,0.03503064,-0.05159690,
 0.00001241,-0.00002155,0.00000474,-0.00001639,0.00000108,0.00000883,-0
 .00000593,-0.00000730,-0.00000021,0.00000034,0.00000208,0.00000418,-0.
 00000593,0.00000482,0.00000874,0.00001077,0.00000023,-0.00001748,0.000
 00039,0.00000014,0.00001631,-0.00000272,-0.00000078,0.00000291,-0.0059
 4380,0.00911658,-0.00127960,-0.00699967,0.01749366,-0.00141671,0.01077
 539,-0.02482873,0.05878175,-0.00000058,-0.00003916,0.00000618,-0.00002
 971,0.00006835,-0.00002857,0.00007381,0.00000147,0.00002564,-0.0001626
 2,0.00002506,-0.00005650,-0.00001142,-0.00005904,0.00000532,0.00000852
 ,0.00000617,0.00000388,0.00002258,-0.00002053,0.00002148,-0.00008529,0
 .00000748,-0.00001378,0.00004968,0.00001218,0.00000078,0.00000618,0.00
 000431,0.00000628,0.00000914,-0.00000762,-0.00000331,-0.00033956,0.000
 41107,0.00016788,-0.00031307,0.00176112,-0.00017610,0.00000654,0.00000
 946,-0.00000065,-0.00000874,-0.00000385,0.00000186,0.00000239,-0.00000
 281,-0.00001006,-0.00000943,0.00000005,-0.00000356,0.00000595,0.000002
 68,0.00000035,-0.00001720,-0.00000085,-0.00001241,-0.00001070,0.000001
 44,-0.00001201,0.00004360,-0.00000753,0.00000045,0.00000717,-0.0000175
 1,0.00000048,-0.00000222,-0.00000195,-0.00000210,-0.00000179,-0.000002
 07,-0.00000154,0.00004022,-0.00001104,0.00001166,0.00031520,-0.0001106
 9,0.00010348,0.00035586,-0.00041071,-0.00034070,-0.00001673,-0.0001522
 6,-0.00005553,-0.00020959,-0.00010233,0.00004418,0.00041134,-0.0026438
 3,0.00042102,-0.00723505,0.00425344,-0.00983619,-0.00085522,0.00090403
 ,0.00018492,-0.00547909,-0.00326790,0.00291466,0.00000514,-0.00001938,
 0.00001435,-0.00002972,0.00000749,-0.00000125,0.00001587,0.00002309,0.
 00000425,0.57284043,-0.00000443,-0.00000087,-0.00000026,-0.00002353,-0
 .00001713,0.00000197,-0.00001599,-0.00004048,0.00000294,0.00014508,-0.
 00003817,0.00005711,-0.00002509,0.00005265,-0.00001954,0.00003361,0.00
 000886,0.00000910,-0.00000408,-0.00004351,-0.00001543,0.00002390,0.000
 04837,0.00000933,-0.00001665,-0.00002952,0.00001707,0.00000546,-0.0000
 0294,-0.00000477,-0.00000652,0.00000910,0.00000802,0.00035643,-0.00009
 239,-0.00001262,0.00035828,-0.00000350,0.00024053,-0.00000443,0.000007
 54,-0.00000306,0.00000412,0.00000297,-0.00000182,-0.00000141,-0.000003
 32,0.00000221,0.00000423,0.00000239,-0.00000206,-0.00000372,0.00000524
 ,0.00000527,0.00000973,0.00000445,0.00000388,0.00000431,0.00000988,-0.
 00000012,-0.00002152,-0.00001943,-0.00000319,-0.00001428,0.00000972,-0
 .00000462,-0.00000040,0.00000117,0.00000021,0.00000129,-0.00000203,0.0
 0000084,-0.00000318,-0.00002259,-0.00001335,-0.00030728,0.00006195,-0.
 00010719,-0.00025022,0.00012076,0.00010508,-0.00011598,0.00001910,0.00
 001469,-0.00013440,0.00006919,-0.00022356,-0.00021326,-0.00013191,-0.0
 0020804,0.00410122,0.00275113,0.00218765,0.00089986,-0.00074967,0.0005
 9273,-0.00282834,-0.00411237,0.00138025,0.00000390,0.00000549,-0.00000
 710,0.00000804,0.00000166,0.00000378,-0.00000405,0.00000420,-0.0000017
 4,0.01491754,0.22537593,0.00000159,-0.00001444,0.00000254,-0.00000427,
 0.00002693,-0.00000807,0.00002580,0.00000628,0.00000588,-0.00006095,0.
 00001114,-0.00001033,-0.00000115,-0.00002598,-0.00000080,-0.00000046,0
 .00000169,0.00000443,0.00000526,-0.00001356,0.00000716,-0.00005124,0.0
 0000281,0.00003431,0.00002496,0.00002525,-0.00001583,-0.00001271,0.000
 00145,-0.00000739,0.00000724,-0.00000441,-0.00000532,-0.00030594,0.000
 25573,0.00040222,-0.00049191,0.00140303,0.00017845,0.00000225,-0.00000
 116,-0.00000647,-0.00000715,-0.00000233,0.00000324,0.00000773,0.000001
 83,0.00000138,-0.00000397,-0.00000206,0.00000219,0.00000096,0.00000553
 ,-0.00000005,-0.00000614,-0.00000361,0.00000091,-0.00000140,-0.0000005
 6,-0.00000155,0.00002128,-0.00000334,-0.00002305,0.00000666,-0.0000101
 2,-0.00001253,0.00000118,-0.00000229,-0.00000572,0.00000083,-0.0000012
 5,-0.00000415,0.00003617,-0.00001277,-0.00002894,0.00011739,-0.0000433
 6,-0.00000014,0.00047415,-0.00040434,-0.00056855,-0.00005804,0.0000177
 8,-0.00013094,-0.00000319,-0.00018897,-0.00000301,0.00051135,-0.002033
 81,0.00017317,-0.00896037,0.00217055,-0.00216116,0.00033549,0.00052411
 ,0.00043847,0.00231964,0.00113926,-0.00779110,0.00000065,-0.00002308,0
 .00000965,-0.00001157,0.00000493,0.00000801,0.00001222,0.00001932,-0.0
 0000492,-0.13493672,-0.29168804,0.41206540,0.00000075,0.00001153,-0.00
 000252,0.00001572,-0.00001615,0.00000920,-0.00001819,0.00001105,-0.000
 00885,0.00001619,0.00000091,0.00000837,0.00000781,0.00000338,0.0000015
 8,-0.00000950,-0.00000330,-0.00000224,-0.00000759,0.00001392,-0.000003
 63,0.00001532,-0.00001327,0.00001645,-0.00001105,0.00001158,-0.0000105
 7,-0.00000952,-0.00000119,-0.00000483,-0.00000020,0.00000023,-0.000002
 10,-0.00004867,-0.00004618,0.00008651,-0.00010277,0.00009077,0.0000465
 2,-0.00000134,-0.00000688,-0.00000165,0.00000075,0.00000048,0.00000083
 ,0.00000200,0.00000311,0.00000504,0.00000214,-0.00000144,0.00000321,-0
 .00000176,-0.00000062,-0.00000130,0.00000385,-0.00000227,0.00000573,0.
 00000333,-0.00000312,0.00000500,-0.00000570,0.00000705,-0.00000933,0.0
 0000123,0.00000177,-0.00000273,0.00000069,-0.00000006,-0.00000074,0.00
 000074,0.00000102,-0.00000065,-0.00000445,0.00000545,-0.00001344,-0.00
 002379,0.00001668,-0.00002050,0.00008808,-0.00002204,-0.00010102,0.000
 00924,0.00006314,-0.00002538,0.00002727,-0.00001407,0.00001559,0.00006
 989,-0.00014290,-0.00001538,-0.00306444,-0.00028941,-0.00089368,-0.000
 09189,0.00022546,-0.00022081,0.00549491,0.00120336,0.00066952,-0.00000
 234,-0.00000152,-0.00000065,0.00000685,-0.00000200,0.00000302,-0.00000
 128,-0.00000373,-0.00000361,-0.05004497,0.00979631,-0.00487040,0.05097
 242,0.00000143,-0.00000018,0.00000020,0.00001120,0.00000870,-0.0000013
 2,0.00000725,0.00001631,-0.00000017,-0.00006342,0.00001571,-0.00002690
 ,0.00001022,-0.00002310,0.00000880,-0.00001429,-0.00000358,-0.00000434
 ,0.00000177,0.00002120,0.00000750,-0.00000952,-0.00002408,-0.00000774,
 0.00000692,0.00001432,-0.00000756,-0.00000072,0.00000126,0.00000384,0.
 00000259,-0.00000378,-0.00000319,-0.00011086,0.00003066,-0.00005948,-0
 .00003867,-0.00001743,-0.00010069,0.00000264,-0.00000345,0.00000211,-0
 .00000196,-0.00000110,0.00000055,0.00000005,0.00000178,-0.00000163,-0.
 00000186,-0.00000094,0.00000059,0.00000186,-0.00000333,-0.00000237,-0.
 00000461,-0.00000210,-0.00000250,-0.00000205,-0.00000461,-0.00000007,0
 .00000994,0.00000927,0.00000474,0.00000506,-0.00000353,0.00000386,-0.0
 0000006,-0.00000035,0.00000047,-0.00000076,0.00000127,-0.00000011,-0.0
 0000107,0.00001165,0.00000900,0.00013317,-0.00002679,0.00005334,0.0000
 3032,-0.00001001,0.00003505,0.00005135,-0.00003065,0.00002164,0.000012
 97,0.00000302,0.00004177,-0.00001907,0.00004107,0.00006711,-0.00093475
 ,0.00017486,-0.00030796,0.00019087,0.00016905,-0.00010775,0.00087832,-
 0.00066271,0.00039515,-0.00000191,-0.00000154,0.00000275,-0.00000326,-
 0.00000100,-0.00000257,0.00000163,-0.00000285,0.00000097,-0.02468170,-
 0.20490849,0.26626771,0.01864315,0.20683600,-0.00000042,0.00000221,-0.
 00000026,0.00000128,-0.00000418,0.00000071,-0.00000334,-0.00000076,-0.
 00000015,0.00000862,-0.00000205,-0.00000098,0.00000020,0.00000294,0.00
 000129,-0.00000008,-0.00000057,-0.00000158,-0.00000019,0.00000673,-0.0
 0000016,0.00001282,-0.00000503,-0.00001554,-0.00000576,-0.00000548,0.0
 0000518,0.00000537,-0.00000045,0.00000456,-0.00000186,0.00000057,0.000
 00132,0.00007630,-0.00005157,-0.00010483,0.00013212,-0.00023617,-0.000
 03893,-0.00000016,0.00000047,0.00000321,0.00000230,0.00000062,-0.00000
 083,-0.00000335,-0.00000078,-0.00000142,0.00000068,0.00000075,-0.00000
 103,0.00000022,-0.00000267,-0.00000014,0.00000056,0.00000093,-0.000001
 76,-0.00000025,-0.00000031,-0.00000032,-0.00000357,0.00000229,0.000008
 49,-0.00000199,0.00000193,0.00000464,-0.00000064,0.00000058,0.00000208
 ,-0.00000044,0.00000051,0.00000152,-0.00001095,0.00000775,0.00001247,-
 0.00001725,0.00000682,0.00000747,-0.00011835,0.00009185,0.00012999,0.0
 0000413,-0.00000979,0.00004541,-0.00001284,0.00003948,-0.00000872,-0.0
 0013364,0.00029331,-0.00003925,-0.00006069,-0.00057850,0.00036474,-0.0
 0012680,0.00021336,-0.00022223,0.00029769,0.00107724,-0.00124390,0.000
 00012,0.00000614,-0.00000214,0.00000163,-0.00000174,-0.00000330,-0.000
 00285,-0.00000585,0.00000227,0.03927145,0.25723438,-0.33773046,-0.0330
 5412,-0.26675338,0.34804494,-0.00000055,0.00000839,-0.00000149,0.00000
 788,-0.00001412,0.00000645,-0.00001691,-0.00000290,-0.00000535,0.00004
 005,-0.00000694,0.00001469,0.00000196,0.00001349,-0.00000225,-0.000001
 30,-0.00000049,-0.00000043,-0.00000540,0.00000497,-0.00000510,0.000017
 55,-0.00000313,0.00000473,-0.00001051,-0.00000035,-0.00000187,-0.00000
 253,-0.00000103,-0.00000183,-0.00000195,0.00000152,0.00000031,0.000079
 81,-0.00007122,-0.00001294,0.00010079,-0.00014483,0.00005854,-0.000000
 97,-0.00000250,-0.00000002,0.00000152,0.00000095,-0.00000035,0.0000001
 6,0.00000082,0.00000246,0.00000223,-0.00000010,0.00000118,-0.00000147,
 -0.00000052,-0.00000020,0.00000360,-0.00000003,0.00000317,0.00000256,-
 0.00000040,0.00000313,-0.00000791,0.00000133,-0.00000101,-0.00000203,0
 .00000419,-0.00000107,0.00000049,0.00000044,0.00000015,0.00000061,0.00
 000076,0.00000009,-0.00000829,0.00000275,-0.00000426,-0.00007806,0.000
 02410,-0.00002825,-0.00006940,0.00006841,0.00004668,-0.00001106,0.0000
 2946,0.00000444,-0.00000876,0.00005498,-0.00004519,-0.00011909,0.00015
 176,-0.00008866,0.00051086,-0.00016809,-0.00042982,-0.00034260,0.00010
 621,-0.00015674,-0.00120339,-0.00007292,0.00139779,-0.00000108,0.00000
 300,-0.00000243,0.00000628,-0.00000141,0.00000071,-0.00000254,-0.00000
 425,-0.00000075,-0.50935691,-0.02667458,0.14587475,-0.00328972,0.00588
 784,-0.00625597,0.51376609,0.00000295,0.00000548,-0.00000030,0.0000142
 8,-0.00000068,0.00000256,-0.00000236,0.00001562,-0.00000469,-0.0000405
 0,0.00001362,-0.00001704,0.00001475,-0.00001352,0.00000814,-0.00001661
 ,-0.00000547,-0.00000423,-0.00000022,0.00002043,0.00000463,-0.00000202
 ,-0.00002084,-0.00000352,0.00000321,0.00000957,-0.00000619,-0.00000253
 ,0.00000112,0.00000120,0.00000190,-0.00000323,-0.00000310,-0.00011367,
 -0.00002667,0.00000394,-0.00015623,-0.00023987,-0.00003721,0.00000126,
 -0.00000366,0.00000146,-0.00000082,-0.00000098,0.00000063,0.00000020,0
 .00000121,-0.00000014,-0.00000099,-0.00000088,0.00000110,0.00000106,-0
 .00000236,-0.00000234,-0.00000278,-0.00000145,-0.00000085,-0.00000083,
 -0.00000419,0.00000107,0.00000344,0.00000853,0.00000156,0.00000589,-0.
 00000171,0.00000114,0.00000111,-0.00000027,0.00000015,-0.00000043,0.00
 000108,-0.00000029,-0.00000226,0.00001025,0.00000565,0.00008691,-0.000
 01038,0.00003017,0.00007428,0.00000395,-0.00002813,0.00004314,0.000029
 94,-0.00000443,0.00013177,-0.00001377,0.00009915,0.00005319,0.00042843
 ,-0.00004559,0.00050713,-0.00026337,0.00088646,-0.00003181,-0.00000215
 ,0.00010214,-0.00097984,0.00015243,-0.00211125,-0.00000232,0.00000020,
 0.00000136,-0.00000081,-0.00000123,-0.00000178,-0.00000007,-0.00000435
 ,0.00000087,0.00914638,-0.01835340,0.02259416,-0.02954022,-0.00162049,
 0.00866845,0.02080445,0.01989309,-0.00000076,-0.00000199,0.00000007,-0
 .00000222,0.00000377,-0.00000245,0.00000540,0.00000046,0.00000258,-0.0
 0001573,0.00000248,-0.00000895,-0.00000044,-0.00000430,0.00000223,0.00
 000008,0.00000006,-0.00000186,0.00000212,0.00000318,0.00000232,0.00000
 087,-0.00000219,-0.00001371,0.00000093,-0.00000395,0.00000381,0.000003
 62,0.00000021,0.00000271,-0.00000041,-0.00000016,0.00000070,0.00000240
 ,-0.00000140,-0.00006568,0.00005864,0.00012636,-0.00014580,0.00000056,
 0.00000120,0.00000171,0.00000080,0.00000009,-0.00000046,-0.00000190,-0
 .00000062,-0.00000177,-0.00000039,0.00000044,-0.00000080,0.00000057,-0
 .00000149,-0.00000030,-0.00000132,0.00000064,-0.00000208,-0.00000166,-
 0.00000013,-0.00000139,0.00000249,0.00000059,0.00000562,-0.00000023,-0
 .00000004,0.00000484,-0.00000100,0.00000055,0.00000189,-0.00000078,0.0
 0000028,0.00000122,-0.00000412,0.00000275,0.00001149,0.00003256,-0.000
 00834,0.00002147,-0.00004299,0.00002619,0.00007128,0.00001746,-0.00001
 566,0.00002135,-0.00007598,0.00006102,0.00004658,-0.00004219,-0.000274
 30,0.00009393,-0.00141455,0.00106620,-0.00279772,-0.00049304,0.0000419
 8,0.00007960,0.00167245,-0.00178239,0.00471615,0.00000097,0.00000326,0
 .00000057,-0.00000268,-0.00000019,-0.00000266,-0.00000027,-0.00000171,
 0.00000250,0.10228045,0.03043947,-0.06481693,0.03839356,0.00046258,-0.
 00922236,-0.14037330,-0.03014492,0.07199029\\0.00000081,0.00000118,-0.
 00000054,0.00000277,-0.00000178,0.00000046,-0.00000331,-0.00000211,-0.
 00000068,0.00000619,0.00000164,0.00000010,0.00000109,-0.00000071,0.000
 00125,-0.00000124,-0.00000037,-0.00000022,-0.00000382,0.00000091,0.000
 00128,0.00000309,0.00000218,0.00000031,-0.00000225,-0.00000096,0.00000
 125,-0.00000054,0.00000004,-0.00000023,0.00000161,0.00000012,-0.000001
 99,-0.00000292,0.00000947,0.00000589,-0.00000543,-0.00000095,0.0000087
 0,-0.00000012,0.00000064,-0.00000011,-0.00000020,0.00000044,-0.0000001
 3,0.00000006,0.00000020,-0.00000037,0.00000001,-0.00000004,-0.00000024
 ,-0.00000038,0.00000038,0.,0.00000025,0.00000084,-0.00000039,0.0000008
 1,0.00000136,-0.00000099,0.00000105,0.00000033,0.00000016,0.00000081,-
 0.00000050,-0.00000030,0.00000054,0.00000018,0.00000002,-0.00000011,0.
 00000042,0.00000080,-0.00000048,-0.00000039,-0.00000148,-0.00001043,0.
 00000079,-0.00000248,0.00001123,-0.00001066,-0.00001061,0.00000140,-0.
 00000343,0.00000152,0.00000119,-0.00000114,-0.00000026,0.00000002,0.00
 000682,-0.00000250,-0.00000869,0.00000592,-0.00000141,0.00000261,-0.00
 000435,0.00000073,0.00000548,-0.00000542,0.00000217,0.00000010,0.00000
 020,-0.00000001,-0.00000016,0.00000050,0.00000011,-0.00000001,0.000000
 48,0.00000005,0.00000227,-0.00000244,0.00000136,0.00000460,0.00000369,
 -0.00000710,-0.00000790,-0.00000348,0.00000591\\\@


 WE HAVE SEEN THAT MAN ON THE AVERAGE DOES NOT LIVE ABOVE
 TWO-AND-TWENTY YEARS.  DURING THESE TWO AND TWENTY
 YEARS HE IS LIABLE TO TWO AND TWENTY THOUSAND EVILS,
 MANY OF WHICH ARE INCURABLE.  YET EVEN IN THIS DREADFUL STATE
 MEN STILL STRUT AND POSE ON THE STAGE OF LIFE.
 THEY MAKE LOVE AT THE RISK OF DESTRUCTION,
 INTRIGUE, CARRY ON WAR, AND FORM PROJECTS, JUST AS IF THEY
 WERE TO LIVE IN LUXURY AND HAPPINESS FOR A THOUSAND
 AGES.

                                              -- VOLTAIRE
 Job cpu time:       0 days 23 hours  6 minutes 14.8 seconds.
 Elapsed time:       0 days  0 hours 49 minutes 33.4 seconds.
 File lengths (MBytes):  RWF=   1240 Int=      0 D2E=      0 Chk=     32 Scr=      8
 Normal termination of Gaussian 16 at Fri Jan 27 15:53:10 2023.
