 Entering Gaussian System, Link 0=g16
 Input=NicPyrNa4h3wB97XDaVDZ.gjf
 Output=NicPyrNa4h3wB97XDaVDZ.log
 Initial command:
 /sw/contrib/gaussian/g16/A03/g16/l1.exe "/gscratch/scrubbed/gds001/Gau-4640.inp" -scrdir="/gscratch/scrubbed/gds001/"
 Entering Link 1 = /sw/contrib/gaussian/g16/A03/g16/l1.exe PID=      4641.
  
 Copyright (c) 1988,1990,1992,1993,1995,1998,2003,2009,2016,
            Gaussian, Inc.  All Rights Reserved.
  
 This is part of the Gaussian(R) 16 program.  It is based on
 the Gaussian(R) 09 system (copyright 2009, Gaussian, Inc.),
 the Gaussian(R) 03 system (copyright 2003, Gaussian, Inc.),
 the Gaussian(R) 98 system (copyright 1998, Gaussian, Inc.),
 the Gaussian(R) 94 system (copyright 1995, Gaussian, Inc.),
 the Gaussian 92(TM) system (copyright 1992, Gaussian, Inc.),
 the Gaussian 90(TM) system (copyright 1990, Gaussian, Inc.),
 the Gaussian 88(TM) system (copyright 1988, Gaussian, Inc.),
 the Gaussian 86(TM) system (copyright 1986, Carnegie Mellon
 University), and the Gaussian 82(TM) system (copyright 1983,
 Carnegie Mellon University). Gaussian is a federally registered
 trademark of Gaussian, Inc.
  
 This software contains proprietary and confidential information,
 including trade secrets, belonging to Gaussian, Inc.
  
 This software is provided under written license and may be
 used, copied, transmitted, or stored only in accord with that
 written license.
  
 The following legend is applicable only to US Government
 contracts under FAR:
  
                    RESTRICTED RIGHTS LEGEND
  
 Use, reproduction and disclosure by the US Government is
 subject to restrictions as set forth in subparagraphs (a)
 and (c) of the Commercial Computer Software - Restricted
 Rights clause in FAR 52.227-19.
  
 Gaussian, Inc.
 340 Quinnipiac St., Bldg. 40, Wallingford CT 06492
  
  
 ---------------------------------------------------------------
 Warning -- This program may not be used in any manner that
 competes with the business of Gaussian, Inc. or will provide
 assistance to any competitor of Gaussian, Inc.  The licensee
 of this program is prohibited from giving any competitor of
 Gaussian, Inc. access to this program.  By using this program,
 the user acknowledges that Gaussian, Inc. is engaged in the
 business of creating and licensing software in the field of
 computational chemistry and represents and warrants to the
 licensee that it is not a competitor of Gaussian, Inc. and that
 it will not use this program in any manner prohibited above.
 ---------------------------------------------------------------
  

 Cite this work as:
 Gaussian 16, Revision A.03,
 M. J. Frisch, G. W. Trucks, H. B. Schlegel, G. E. Scuseria, 
 M. A. Robb, J. R. Cheeseman, G. Scalmani, V. Barone, 
 G. A. Petersson, H. Nakatsuji, X. Li, M. Caricato, A. V. Marenich, 
 J. Bloino, B. G. Janesko, R. Gomperts, B. Mennucci, H. P. Hratchian, 
 J. V. Ortiz, A. F. Izmaylov, J. L. Sonnenberg, D. Williams-Young, 
 F. Ding, F. Lipparini, F. Egidi, J. Goings, B. Peng, A. Petrone, 
 T. Henderson, D. Ranasinghe, V. G. Zakrzewski, J. Gao, N. Rega, 
 G. Zheng, W. Liang, M. Hada, M. Ehara, K. Toyota, R. Fukuda, 
 J. Hasegawa, M. Ishida, T. Nakajima, Y. Honda, O. Kitao, H. Nakai, 
 T. Vreven, K. Throssell, J. A. Montgomery, Jr., J. E. Peralta, 
 F. Ogliaro, M. J. Bearpark, J. J. Heyd, E. N. Brothers, K. N. Kudin, 
 V. N. Staroverov, T. A. Keith, R. Kobayashi, J. Normand, 
 K. Raghavachari, A. P. Rendell, J. C. Burant, S. S. Iyengar, 
 J. Tomasi, M. Cossi, J. M. Millam, M. Klene, C. Adamo, R. Cammi, 
 J. W. Ochterski, R. L. Martin, K. Morokuma, O. Farkas, 
 J. B. Foresman, and D. J. Fox, Gaussian, Inc., Wallingford CT, 2016.
 
 ******************************************
 Gaussian 16:  ES64L-G16RevA.03 25-Dec-2016
                19-Jul-2021 
 ******************************************
 %nprocshared=28
 Will use up to   28 processors via shared memory.
 %mem=41GB
 %chk=NicPyrNa4h3.chk
 -----------------------------
 # wB97XD/aug-cc-pVDZ opt freq
 -----------------------------
 1/18=20,19=15,26=3,38=1/1,3;
 2/9=110,12=2,17=6,18=5,40=1/2;
 3/5=16,7=10,11=2,25=1,30=1,71=1,74=-58/1,2,3;
 4//1;
 5/5=2,38=5/2;
 6/7=2,8=2,9=2,10=2,28=1/1;
 7//1,2,3,16;
 1/18=20,19=15,26=3/3(2);
 2/9=110/2;
 99//99;
 2/9=110/2;
 3/5=16,7=10,11=2,25=1,30=1,71=1,74=-58/1,2,3;
 4/5=5,16=3,69=1/1;
 5/5=2,38=5/2;
 7//1,2,3,16;
 1/18=20,19=15,26=3/3(-5);
 2/9=110/2;
 6/7=2,8=2,9=2,10=2,19=2,28=1/1;
 99/9=1/99;
 --------
 Nicotine
 --------
 Symbolic Z-matrix:
 Charge =  1 Multiplicity = 1
 N                     0.73695  -1.90537   0.59967 
 C                     1.13968  -1.25918  -0.70583 
 C                    -0.10759  -1.46229  -1.57834 
 C                    -0.79129  -2.74129  -1.03526 
 C                     0.03186  -3.15675   0.18929 
 C                     1.63094   0.1522   -0.5147 
 C                     0.74109   1.17924  -0.19755 
 N                     1.11139   2.44401   0.0078 
 C                     2.40819   2.74556  -0.10986 
 C                     3.37839   1.79962  -0.43369 
 C                     2.98158   0.48144  -0.6354 
 O                    -1.35061  -0.71897   1.79505 
 O                    -2.56478   0.82057   0.05866 
 O                    -1.50616   3.26217   0.65682 
 H                     0.80128  -3.89889  -0.05652 
 H                    -0.81095  -3.54918  -1.77272 
 H                    -1.82503  -2.52801  -0.74592 
 H                    -0.78211  -0.60416  -1.4919 
 H                     0.18491  -1.54832  -2.62893 
 H                    -0.56283  -3.51716   1.03345 
 H                     1.9651   -1.88006  -1.08205 
 H                    -0.32593   0.97875  -0.10987 
 H                     2.68168   3.78743   0.05887 
 H                     4.42168   2.09477  -0.52665 
 H                     3.71832  -0.28139  -0.89219 
 C                     1.83911  -2.1105    1.55964 
 H                     0.00503  -1.30741   1.07 
 H                    -1.41118  -0.34992   2.6789 
 H                    -1.9047   -0.13698   1.20878 
 H                    -0.5513    3.26885   0.44568 
 H                    -1.80025   4.1747    0.65544 
 H                    -2.38065   1.7674    0.22012 
 H                    -3.5032    0.73819  -0.18564 
 O                    -5.22156   0.45062  -0.66081 
 H                    -5.58482   0.73807  -1.50263 
 H                    -5.95287   0.48176  -0.03832 
 H                     2.60574  -2.74409   1.10022 
 H                     1.44139  -2.59885   2.45432 
 H                     2.26551  -1.13941   1.82758 
 
 Add virtual bond connecting atoms H29        and O13        Dist= 3.09D+00.
 Add virtual bond connecting atoms H27        and O12        Dist= 3.11D+00.
 Add virtual bond connecting atoms N8         and H30        Dist= 3.60D+00.
 Add virtual bond connecting atoms H32        and O14        Dist= 3.38D+00.
 Add virtual bond connecting atoms O34        and H33        Dist= 3.41D+00.

 GradGradGradGradGradGradGradGradGradGradGradGradGradGradGradGradGradGrad
 Berny optimization.
 Initialization pass.
                           ----------------------------
                           !    Initial Parameters    !
                           ! (Angstroms and Degrees)  !
 --------------------------                            --------------------------
 ! Name  Definition              Value          Derivative Info.                !
 --------------------------------------------------------------------------------
 ! R1    R(1,2)                  1.5113         estimate D2E/DX2                !
 ! R2    R(1,5)                  1.4938         estimate D2E/DX2                !
 ! R3    R(1,26)                 1.4759         estimate D2E/DX2                !
 ! R4    R(1,27)                 1.0557         estimate D2E/DX2                !
 ! R5    R(2,3)                  1.5356         estimate D2E/DX2                !
 ! R6    R(2,6)                  1.5066         estimate D2E/DX2                !
 ! R7    R(2,21)                 1.0993         estimate D2E/DX2                !
 ! R8    R(3,4)                  1.5486         estimate D2E/DX2                !
 ! R9    R(3,18)                 1.0949         estimate D2E/DX2                !
 ! R10   R(3,19)                 1.0939         estimate D2E/DX2                !
 ! R11   R(4,5)                  1.5329         estimate D2E/DX2                !
 ! R12   R(4,16)                 1.094          estimate D2E/DX2                !
 ! R13   R(4,17)                 1.0945         estimate D2E/DX2                !
 ! R14   R(5,15)                 1.0969         estimate D2E/DX2                !
 ! R15   R(5,20)                 1.0937         estimate D2E/DX2                !
 ! R16   R(6,7)                  1.3954         estimate D2E/DX2                !
 ! R17   R(6,11)                 1.3954         estimate D2E/DX2                !
 ! R18   R(7,8)                  1.3338         estimate D2E/DX2                !
 ! R19   R(7,22)                 1.0892         estimate D2E/DX2                !
 ! R20   R(8,9)                  1.3366         estimate D2E/DX2                !
 ! R21   R(8,30)                 1.907          estimate D2E/DX2                !
 ! R22   R(9,10)                 1.3932         estimate D2E/DX2                !
 ! R23   R(9,23)                 1.0903         estimate D2E/DX2                !
 ! R24   R(10,11)                1.3913         estimate D2E/DX2                !
 ! R25   R(10,24)                1.0882         estimate D2E/DX2                !
 ! R26   R(11,25)                1.0912         estimate D2E/DX2                !
 ! R27   R(12,27)                1.6461         estimate D2E/DX2                !
 ! R28   R(12,28)                0.9597         estimate D2E/DX2                !
 ! R29   R(12,29)                0.9947         estimate D2E/DX2                !
 ! R30   R(13,29)                1.6357         estimate D2E/DX2                !
 ! R31   R(13,32)                0.978          estimate D2E/DX2                !
 ! R32   R(13,33)                0.9732         estimate D2E/DX2                !
 ! R33   R(14,30)                0.9779         estimate D2E/DX2                !
 ! R34   R(14,31)                0.9587         estimate D2E/DX2                !
 ! R35   R(14,32)                1.786          estimate D2E/DX2                !
 ! R36   R(26,37)                1.0955         estimate D2E/DX2                !
 ! R37   R(26,38)                1.0941         estimate D2E/DX2                !
 ! R38   R(26,39)                1.0939         estimate D2E/DX2                !
 ! R39   R(33,34)                1.8059         estimate D2E/DX2                !
 ! R40   R(34,35)                0.9609         estimate D2E/DX2                !
 ! R41   R(34,36)                0.9609         estimate D2E/DX2                !
 ! A1    A(2,1,5)              104.2792         estimate D2E/DX2                !
 ! A2    A(2,1,26)             114.9783         estimate D2E/DX2                !
 ! A3    A(2,1,27)             109.1114         estimate D2E/DX2                !
 ! A4    A(5,1,26)             114.502          estimate D2E/DX2                !
 ! A5    A(5,1,27)             105.6428         estimate D2E/DX2                !
 ! A6    A(26,1,27)            107.8596         estimate D2E/DX2                !
 ! A7    A(1,2,3)              102.5805         estimate D2E/DX2                !
 ! A8    A(1,2,6)              112.2005         estimate D2E/DX2                !
 ! A9    A(1,2,21)             104.728          estimate D2E/DX2                !
 ! A10   A(3,2,6)              117.4404         estimate D2E/DX2                !
 ! A11   A(3,2,21)             109.9206         estimate D2E/DX2                !
 ! A12   A(6,2,21)             109.1292         estimate D2E/DX2                !
 ! A13   A(2,3,4)              105.5794         estimate D2E/DX2                !
 ! A14   A(2,3,18)             110.5999         estimate D2E/DX2                !
 ! A15   A(2,3,19)             109.8095         estimate D2E/DX2                !
 ! A16   A(4,3,18)             110.3419         estimate D2E/DX2                !
 ! A17   A(4,3,19)             112.9474         estimate D2E/DX2                !
 ! A18   A(18,3,19)            107.5884         estimate D2E/DX2                !
 ! A19   A(3,4,5)              105.4807         estimate D2E/DX2                !
 ! A20   A(3,4,16)             112.4222         estimate D2E/DX2                !
 ! A21   A(3,4,17)             110.4119         estimate D2E/DX2                !
 ! A22   A(5,4,16)             110.3644         estimate D2E/DX2                !
 ! A23   A(5,4,17)             110.4161         estimate D2E/DX2                !
 ! A24   A(16,4,17)            107.7663         estimate D2E/DX2                !
 ! A25   A(1,5,4)              104.2338         estimate D2E/DX2                !
 ! A26   A(1,5,15)             107.2924         estimate D2E/DX2                !
 ! A27   A(1,5,20)             108.703          estimate D2E/DX2                !
 ! A28   A(4,5,15)             112.3973         estimate D2E/DX2                !
 ! A29   A(4,5,20)             114.4513         estimate D2E/DX2                !
 ! A30   A(15,5,20)            109.3551         estimate D2E/DX2                !
 ! A31   A(2,6,7)              120.6895         estimate D2E/DX2                !
 ! A32   A(2,6,11)             121.7129         estimate D2E/DX2                !
 ! A33   A(7,6,11)             117.5957         estimate D2E/DX2                !
 ! A34   A(6,7,8)              123.771          estimate D2E/DX2                !
 ! A35   A(6,7,22)             120.4982         estimate D2E/DX2                !
 ! A36   A(8,7,22)             115.7296         estimate D2E/DX2                !
 ! A37   A(7,8,9)              118.0186         estimate D2E/DX2                !
 ! A38   A(7,8,30)             101.7383         estimate D2E/DX2                !
 ! A39   A(9,8,30)             140.2251         estimate D2E/DX2                !
 ! A40   A(8,9,10)             122.884          estimate D2E/DX2                !
 ! A41   A(8,9,23)             116.445          estimate D2E/DX2                !
 ! A42   A(10,9,23)            120.6706         estimate D2E/DX2                !
 ! A43   A(9,10,11)            118.5794         estimate D2E/DX2                !
 ! A44   A(9,10,24)            120.2219         estimate D2E/DX2                !
 ! A45   A(11,10,24)           121.1987         estimate D2E/DX2                !
 ! A46   A(6,11,10)            119.1468         estimate D2E/DX2                !
 ! A47   A(6,11,25)            120.5924         estimate D2E/DX2                !
 ! A48   A(10,11,25)           120.2591         estimate D2E/DX2                !
 ! A49   A(27,12,28)           126.5182         estimate D2E/DX2                !
 ! A50   A(27,12,29)           114.0974         estimate D2E/DX2                !
 ! A51   A(28,12,29)           106.4189         estimate D2E/DX2                !
 ! A52   A(29,13,32)           112.0055         estimate D2E/DX2                !
 ! A53   A(29,13,33)           121.0705         estimate D2E/DX2                !
 ! A54   A(32,13,33)           107.7553         estimate D2E/DX2                !
 ! A55   A(30,14,31)           107.0184         estimate D2E/DX2                !
 ! A56   A(30,14,32)           115.5314         estimate D2E/DX2                !
 ! A57   A(31,14,32)           130.2449         estimate D2E/DX2                !
 ! A58   A(1,26,37)            109.2799         estimate D2E/DX2                !
 ! A59   A(1,26,38)            108.8104         estimate D2E/DX2                !
 ! A60   A(1,26,39)            109.0874         estimate D2E/DX2                !
 ! A61   A(37,26,38)           109.8253         estimate D2E/DX2                !
 ! A62   A(37,26,39)           110.0806         estimate D2E/DX2                !
 ! A63   A(38,26,39)           109.7327         estimate D2E/DX2                !
 ! A64   A(8,30,14)            153.8864         estimate D2E/DX2                !
 ! A65   A(13,32,14)           160.533          estimate D2E/DX2                !
 ! A66   A(33,34,35)           122.8624         estimate D2E/DX2                !
 ! A67   A(33,34,36)           123.2695         estimate D2E/DX2                !
 ! A68   A(35,34,36)           105.673          estimate D2E/DX2                !
 ! A69   L(1,27,12,7,-1)       192.1123         estimate D2E/DX2                !
 ! A70   L(12,29,13,2,-1)      169.2711         estimate D2E/DX2                !
 ! A71   L(13,33,34,16,-1)     175.7577         estimate D2E/DX2                !
 ! A72   L(1,27,12,7,-2)       172.6789         estimate D2E/DX2                !
 ! A73   L(12,29,13,2,-2)      182.3223         estimate D2E/DX2                !
 ! A74   L(13,33,34,16,-2)     178.8052         estimate D2E/DX2                !
 ! D1    D(5,1,2,3)             41.902          estimate D2E/DX2                !
 ! D2    D(5,1,2,6)            168.8466         estimate D2E/DX2                !
 ! D3    D(5,1,2,21)           -72.9087         estimate D2E/DX2                !
 ! D4    D(26,1,2,3)           168.1063         estimate D2E/DX2                !
 ! D5    D(26,1,2,6)           -64.9492         estimate D2E/DX2                !
 ! D6    D(26,1,2,21)           53.2955         estimate D2E/DX2                !
 ! D7    D(27,1,2,3)           -70.5961         estimate D2E/DX2                !
 ! D8    D(27,1,2,6)            56.3484         estimate D2E/DX2                !
 ! D9    D(27,1,2,21)          174.5932         estimate D2E/DX2                !
 ! D10   D(2,1,5,4)            -39.6271         estimate D2E/DX2                !
 ! D11   D(2,1,5,15)            79.7579         estimate D2E/DX2                !
 ! D12   D(2,1,5,20)          -162.0872         estimate D2E/DX2                !
 ! D13   D(26,1,5,4)          -166.1296         estimate D2E/DX2                !
 ! D14   D(26,1,5,15)          -46.7446         estimate D2E/DX2                !
 ! D15   D(26,1,5,20)           71.4103         estimate D2E/DX2                !
 ! D16   D(27,1,5,4)            75.3404         estimate D2E/DX2                !
 ! D17   D(27,1,5,15)         -165.2746         estimate D2E/DX2                !
 ! D18   D(27,1,5,20)          -47.1197         estimate D2E/DX2                !
 ! D19   D(2,1,12,28)         -123.6596         estimate D2E/DX2                !
 ! D20   D(2,1,12,29)           18.392          estimate D2E/DX2                !
 ! D21   D(5,1,12,28)          127.2248         estimate D2E/DX2                !
 ! D22   D(5,1,12,29)          -90.7237         estimate D2E/DX2                !
 ! D23   D(26,1,12,28)           7.588          estimate D2E/DX2                !
 ! D24   D(26,1,12,29)         149.6395         estimate D2E/DX2                !
 ! D25   D(2,1,26,37)          -58.9856         estimate D2E/DX2                !
 ! D26   D(2,1,26,38)         -178.9017         estimate D2E/DX2                !
 ! D27   D(2,1,26,39)           61.4086         estimate D2E/DX2                !
 ! D28   D(5,1,26,37)           61.7677         estimate D2E/DX2                !
 ! D29   D(5,1,26,38)          -58.1484         estimate D2E/DX2                !
 ! D30   D(5,1,26,39)         -177.8381         estimate D2E/DX2                !
 ! D31   D(27,1,26,37)         179.0375         estimate D2E/DX2                !
 ! D32   D(27,1,26,38)          59.1214         estimate D2E/DX2                !
 ! D33   D(27,1,26,39)         -60.5683         estimate D2E/DX2                !
 ! D34   D(1,2,3,4)            -27.7244         estimate D2E/DX2                !
 ! D35   D(1,2,3,18)            91.6379         estimate D2E/DX2                !
 ! D36   D(1,2,3,19)          -149.7736         estimate D2E/DX2                !
 ! D37   D(6,2,3,4)           -151.2357         estimate D2E/DX2                !
 ! D38   D(6,2,3,18)           -31.8734         estimate D2E/DX2                !
 ! D39   D(6,2,3,19)            86.7151         estimate D2E/DX2                !
 ! D40   D(21,2,3,4)            83.2492         estimate D2E/DX2                !
 ! D41   D(21,2,3,18)         -157.3885         estimate D2E/DX2                !
 ! D42   D(21,2,3,19)          -38.8            estimate D2E/DX2                !
 ! D43   D(1,2,6,7)            -72.1236         estimate D2E/DX2                !
 ! D44   D(1,2,6,11)           107.3519         estimate D2E/DX2                !
 ! D45   D(3,2,6,7)             46.3646         estimate D2E/DX2                !
 ! D46   D(3,2,6,11)          -134.1599         estimate D2E/DX2                !
 ! D47   D(21,2,6,7)           172.2701         estimate D2E/DX2                !
 ! D48   D(21,2,6,11)           -8.2544         estimate D2E/DX2                !
 ! D49   D(2,3,4,5)              4.1477         estimate D2E/DX2                !
 ! D50   D(2,3,4,16)          -116.1772         estimate D2E/DX2                !
 ! D51   D(2,3,4,17)           123.4413         estimate D2E/DX2                !
 ! D52   D(18,3,4,5)          -115.3852         estimate D2E/DX2                !
 ! D53   D(18,3,4,16)          124.2899         estimate D2E/DX2                !
 ! D54   D(18,3,4,17)            3.9083         estimate D2E/DX2                !
 ! D55   D(19,3,4,5)           124.1545         estimate D2E/DX2                !
 ! D56   D(19,3,4,16)            3.8296         estimate D2E/DX2                !
 ! D57   D(19,3,4,17)         -116.5519         estimate D2E/DX2                !
 ! D58   D(3,4,5,1)             21.4342         estimate D2E/DX2                !
 ! D59   D(3,4,5,15)           -94.429          estimate D2E/DX2                !
 ! D60   D(3,4,5,20)           140.0382         estimate D2E/DX2                !
 ! D61   D(16,4,5,1)           143.101          estimate D2E/DX2                !
 ! D62   D(16,4,5,15)           27.2378         estimate D2E/DX2                !
 ! D63   D(16,4,5,20)          -98.2949         estimate D2E/DX2                !
 ! D64   D(17,4,5,1)           -97.8567         estimate D2E/DX2                !
 ! D65   D(17,4,5,15)          146.2801         estimate D2E/DX2                !
 ! D66   D(17,4,5,20)           20.7474         estimate D2E/DX2                !
 ! D67   D(2,6,7,8)            178.7879         estimate D2E/DX2                !
 ! D68   D(2,6,7,22)            -1.6363         estimate D2E/DX2                !
 ! D69   D(11,6,7,8)            -0.7087         estimate D2E/DX2                !
 ! D70   D(11,6,7,22)          178.8671         estimate D2E/DX2                !
 ! D71   D(2,6,11,10)         -179.3146         estimate D2E/DX2                !
 ! D72   D(2,6,11,25)            1.1581         estimate D2E/DX2                !
 ! D73   D(7,6,11,10)            0.1765         estimate D2E/DX2                !
 ! D74   D(7,6,11,25)         -179.3508         estimate D2E/DX2                !
 ! D75   D(6,7,8,9)              0.6594         estimate D2E/DX2                !
 ! D76   D(6,7,8,30)          -178.1058         estimate D2E/DX2                !
 ! D77   D(22,7,8,9)          -178.9348         estimate D2E/DX2                !
 ! D78   D(22,7,8,30)            2.3            estimate D2E/DX2                !
 ! D79   D(7,8,9,10)            -0.0807         estimate D2E/DX2                !
 ! D80   D(7,8,9,23)           179.7279         estimate D2E/DX2                !
 ! D81   D(30,8,9,10)          178.0294         estimate D2E/DX2                !
 ! D82   D(30,8,9,23)           -2.162          estimate D2E/DX2                !
 ! D83   D(7,8,30,14)            7.7629         estimate D2E/DX2                !
 ! D84   D(9,8,30,14)         -170.5331         estimate D2E/DX2                !
 ! D85   D(8,9,10,11)           -0.4118         estimate D2E/DX2                !
 ! D86   D(8,9,10,24)          179.4742         estimate D2E/DX2                !
 ! D87   D(23,9,10,11)         179.7874         estimate D2E/DX2                !
 ! D88   D(23,9,10,24)          -0.3266         estimate D2E/DX2                !
 ! D89   D(9,10,11,6)            0.3432         estimate D2E/DX2                !
 ! D90   D(9,10,11,25)         179.8722         estimate D2E/DX2                !
 ! D91   D(24,10,11,6)        -179.5416         estimate D2E/DX2                !
 ! D92   D(24,10,11,25)         -0.0127         estimate D2E/DX2                !
 ! D93   D(27,12,13,32)        -99.8905         estimate D2E/DX2                !
 ! D94   D(27,12,13,33)        127.9185         estimate D2E/DX2                !
 ! D95   D(28,12,13,32)         41.9977         estimate D2E/DX2                !
 ! D96   D(28,12,13,33)        -90.1933         estimate D2E/DX2                !
 ! D97   D(29,13,32,14)         41.1005         estimate D2E/DX2                !
 ! D98   D(33,13,32,14)        176.6531         estimate D2E/DX2                !
 ! D99   D(29,13,34,35)       -157.8222         estimate D2E/DX2                !
 ! D100  D(29,13,34,36)         56.3024         estimate D2E/DX2                !
 ! D101  D(32,13,34,35)         70.0579         estimate D2E/DX2                !
 ! D102  D(32,13,34,36)        -75.8175         estimate D2E/DX2                !
 ! D103  D(31,14,30,8)        -171.2592         estimate D2E/DX2                !
 ! D104  D(32,14,30,8)         -17.7561         estimate D2E/DX2                !
 ! D105  D(30,14,32,13)         33.2261         estimate D2E/DX2                !
 ! D106  D(31,14,32,13)        179.2454         estimate D2E/DX2                !
 --------------------------------------------------------------------------------
 Trust Radius=3.00D-01 FncErr=1.00D-07 GrdErr=1.00D-06 EigMax=2.50D+02 EigMin=1.00D-04
 Number of steps in this run=    231 maximum allowed number of steps=    234.
 GradGradGradGradGradGradGradGradGradGradGradGradGradGradGradGradGradGrad

                          Input orientation:                          
 ---------------------------------------------------------------------
 Center     Atomic      Atomic             Coordinates (Angstroms)
 Number     Number       Type             X           Y           Z
 ---------------------------------------------------------------------
      1          7           0        0.736951   -1.905372    0.599674
      2          6           0        1.139678   -1.259175   -0.705828
      3          6           0       -0.107587   -1.462290   -1.578340
      4          6           0       -0.791292   -2.741286   -1.035261
      5          6           0        0.031861   -3.156750    0.189293
      6          6           0        1.630936    0.152200   -0.514695
      7          6           0        0.741089    1.179239   -0.197551
      8          7           0        1.111391    2.444010    0.007796
      9          6           0        2.408185    2.745556   -0.109861
     10          6           0        3.378385    1.799621   -0.433690
     11          6           0        2.981583    0.481440   -0.635398
     12          8           0       -1.350611   -0.718966    1.795053
     13          8           0       -2.564783    0.820567    0.058660
     14          8           0       -1.506162    3.262168    0.656817
     15          1           0        0.801282   -3.898893   -0.056522
     16          1           0       -0.810951   -3.549175   -1.772716
     17          1           0       -1.825033   -2.528005   -0.745923
     18          1           0       -0.782108   -0.604157   -1.491897
     19          1           0        0.184911   -1.548322   -2.628934
     20          1           0       -0.562826   -3.517157    1.033446
     21          1           0        1.965103   -1.880064   -1.082049
     22          1           0       -0.325928    0.978752   -0.109867
     23          1           0        2.681679    3.787428    0.058873
     24          1           0        4.421684    2.094769   -0.526653
     25          1           0        3.718318   -0.281390   -0.892191
     26          6           0        1.839107   -2.110503    1.559643
     27          1           0        0.005029   -1.307405    1.070001
     28          1           0       -1.411182   -0.349924    2.678899
     29          1           0       -1.904701   -0.136982    1.208784
     30          1           0       -0.551304    3.268853    0.445675
     31          1           0       -1.800245    4.174700    0.655442
     32          1           0       -2.380645    1.767400    0.220124
     33          1           0       -3.503203    0.738186   -0.185637
     34          8           0       -5.221557    0.450620   -0.660807
     35          1           0       -5.584819    0.738071   -1.502626
     36          1           0       -5.952867    0.481758   -0.038317
     37          1           0        2.605742   -2.744086    1.100224
     38          1           0        1.441386   -2.598848    2.454323
     39          1           0        2.265507   -1.139408    1.827577
 ---------------------------------------------------------------------
                    Distance matrix (angstroms):
                    1          2          3          4          5
     1  N    0.000000
     2  C    1.511322   0.000000
     3  C    2.377669   1.535644   0.000000
     4  C    2.388994   2.456384   1.548618   0.000000
     5  C    1.493824   2.372613   2.452584   1.532881   0.000000
     6  C    2.504921   1.506601   2.600073   3.809257   3.741897
     7  C    3.185971   2.522515   3.099114   4.291907   4.410607
     8  N    4.405411   3.771424   4.388726   5.620984   5.706736
     9  C    4.992754   4.242895   5.117764   6.418602   6.369743
    10  C    4.666046   3.800276   4.909408   6.194185   6.012732
    11  C    3.501521   2.535215   3.769642   4.977995   4.755776
    12  O    2.682239   3.570402   3.671161   3.523250   3.229936
    13  O    4.315656   4.316573   3.732160   4.126588   4.751702
    14  O    5.633675   5.412930   5.410401   6.278187   6.617145
    15  H    2.099728   2.739383   3.013139   2.198699   1.096909
    16  H    3.275107   3.191756   2.210790   1.094034   2.171131
    17  H    2.960079   3.225066   2.185929   1.094452   2.172097
    18  H    2.894023   2.177203   1.094917   2.185388   3.163017
    19  H    3.294866   2.166454   1.093940   2.217189   3.248518
    20  H    2.115521   3.319951   3.354273   2.221198   1.093682
    21  H    2.082592   1.099260   2.171839   2.888184   2.642662
    22  H    3.154573   2.740709   2.857056   3.861554   4.161717
    23  H    6.040067   5.332048   6.166037   7.475477   7.433717
    24  H    5.554007   4.696020   5.854316   7.128901   6.881975
    25  H    3.708305   2.764087   4.062373   5.138885   4.798674
    26  C    1.475929   2.519190   3.749231   3.748388   2.497725
    27  H    1.055690   2.107919   2.655256   2.668758   2.048522
    28  H    3.370025   4.334743   4.589205   4.460702   4.019799
    29  H    3.236749   3.767400   3.571291   3.613560   3.729428
    30  H    5.334409   4.968744   5.165001   6.194557   6.457104
    31  H    6.588456   6.326389   6.295278   7.190781   7.571266
    32  H    4.832465   4.733943   4.339604   4.942700   5.483465
    33  H    5.058065   5.080984   4.279243   4.492555   5.273308
    34  O    6.530186   6.587165   5.536586   5.473183   6.429167
    35  H    7.167443   7.059939   5.903168   5.941570   7.041258
    36  H    7.131556   7.333527   6.349669   6.166341   7.007676
    37  H    2.108642   2.759733   4.022420   4.012498   2.761331
    38  H    2.101633   3.445621   4.466929   4.145158   2.725505
    39  H    2.104977   2.774883   4.163664   4.483957   3.426779
                    6          7          8          9         10
     6  C    0.000000
     7  C    1.395427   0.000000
     8  N    2.407346   1.333768   0.000000
     9  C    2.737426   2.289159   1.336581   0.000000
    10  C    2.402943   2.719552   2.397792   1.393178   0.000000
    11  C    1.395427   2.387142   2.786216   2.393992   1.391308
    12  O    3.870851   3.456713   4.388640   5.455287   5.802928
    13  O    4.287133   3.335128   4.019006   5.335203   6.043360
    14  O    4.570090   3.180986   2.818190   4.022039   5.214120
    15  H    4.160481   5.080447   6.350805   6.836204   6.265523
    16  H    4.609296   5.219949   6.540939   7.263027   6.924821
    17  H    4.379576   4.541955   5.823368   6.792286   6.775057
    18  H    2.711048   2.678799   3.889182   4.827895   4.920127
    19  H    3.074536   3.696018   4.873338   5.452161   5.121142
    20  H    4.546814   5.027095   6.276183   7.025356   6.778920
    21  H    2.136271   3.411727   4.540287   4.747403   3.994724
    22  H    2.162496   1.089224   2.055897   3.255299   3.807968
    23  H    3.827261   3.261026   2.067168   1.090306   2.163191
    24  H    3.400293   3.807004   3.371297   2.156715   1.088222
    25  H    2.165102   3.388193   3.877351   3.389822   2.157866
    26  C    3.076693   3.887901   4.866353   5.166469   4.651002
    27  H    2.699126   2.886498   4.052830   4.857337   4.826409
    28  H    4.439105   3.904430   4.615651   5.652145   6.103172
    29  H    3.943949   3.272678   4.147373   5.352461   5.861668
    30  H    3.924030   2.539785   1.907003   3.056311   4.286535
    31  H    5.415047   4.019796   3.448530   4.509881   5.800467
    32  H    4.386526   3.203999   3.563313   4.898834   5.796114
    33  H    5.177938   4.267163   4.923589   6.243379   6.967383
    34  O    6.860544   6.024835   6.672845   7.986441   8.708065
    35  H    7.306598   6.474177   7.073248   8.358104   9.088924
    36  H    7.605893   6.732079   7.331869   8.662395   9.432144
    37  H    3.456397   4.533611   5.508432   5.624900   4.857483
    38  H    4.052069   4.668704   5.614696   6.006030   5.607059
    39  H    2.749031   3.435275   4.181444   4.343612   3.871656
                   11         12         13         14         15
    11  C    0.000000
    12  O    5.110379   0.000000
    13  O    5.599902   2.619053   0.000000
    14  O    5.435267   4.143574   2.727615   0.000000
    15  H    4.927081   4.262735   5.798014   7.557377   0.000000
    16  H    5.650014   4.585880   5.052179   7.265008   2.380529
    17  H    5.672084   3.155037   3.522431   5.966193   3.041733
    18  H    4.009673   3.337726   2.758985   4.482153   3.927176
    19  H    3.989423   4.755767   4.516150   6.066028   3.538700
    20  H    5.597915   3.005083   4.875848   6.854997   1.787329
    21  H    2.609488   4.540906   5.395785   6.443282   2.545949
    22  H    3.385725   2.749717   2.250754   2.682302   5.006483
    23  H    3.391388   6.291365   6.027240   4.262798   7.913832
    24  H    2.165305   6.828383   7.125791   6.156523   7.018000
    25  H    1.091160   5.753850   6.449479   6.500109   4.721628
    26  C    3.583521   3.487993   5.498942   6.393083   2.624387
    27  H    3.868879   1.646123   3.486403   4.830675   2.935793
    28  H    5.565260   0.959711   3.092975   4.140658   4.997270
    29  H    5.259204   0.994702   1.635663   3.466659   4.803678
    30  H    4.628140   4.285139   3.193428   0.977947   7.311516
    31  H    6.178375   5.044685   3.491543   0.958750   8.512211
    32  H    5.580242   3.118235   0.977993   1.785988   6.504465
    33  H    6.505433   3.268039   0.973191   3.326918   6.328330
    34  O    8.203237   4.731110   2.777218   4.842014   7.453725
    35  H    8.614011   5.561129   3.400741   5.260200   8.023399
    36  H    8.954379   5.097425   3.406363   5.290281   8.050401
    37  H    3.682073   4.498514   6.365998   7.292424   2.434690
    38  H    4.626744   3.429846   5.786276   6.802248   2.898999
    39  H    3.034165   3.640623   5.504750   5.913547   3.648087
                   16         17         18         19         20
    16  H    0.000000
    17  H    1.767895   0.000000
    18  H    2.958517   2.312004   0.000000
    19  H    2.393379   2.923249   1.766190   0.000000
    20  H    2.817292   2.395358   3.861478   4.224742   0.000000
    21  H    3.312013   3.859785   3.056646   2.381594   3.680464
    22  H    4.847931   3.866423   2.150281   3.604547   4.645049
    23  H    8.329401   7.800182   5.804199   6.475213   8.051929
    24  H    7.796618   7.774290   5.940989   5.970087   7.666353
    25  H    5.654027   5.983094   4.551666   4.135983   5.701444
    26  C    4.494130   4.349237   4.295549   4.538347   2.832815
    27  H    3.711118   2.852468   2.770824   3.711134   2.281841
    28  H    5.514740   4.079794   4.225625   5.670693   3.668595
    29  H    4.661405   3.089372   2.961781   4.591997   3.641010
    30  H    7.174551   6.053582   4.336780   5.761980   6.811427
    31  H    8.156770   6.847678   5.337147   6.890642   7.799920
    32  H    5.890783   4.437618   3.333260   5.068848   5.647345
    33  H    5.305516   3.714590   3.303416   4.979960   5.314125
    34  O    6.057074   4.518388   4.638100   6.090910   6.349608
    35  H    6.422090   5.037444   4.986755   6.307610   7.054009
    36  H    6.759871   5.157363   5.479859   6.964542   6.796509
    37  H    4.536049   4.804864   4.772412   4.604008   3.262196
    38  H    4.883032   4.573411   4.949280   5.340584   2.622794
    39  H    5.313537   5.028282   4.537991   4.935239   3.779392
                   21         22         23         24         25
    21  H    0.000000
    22  H    3.790355   0.000000
    23  H    5.825431   4.118596   0.000000
    24  H    4.705587   4.894796   2.497109   0.000000
    25  H    2.380245   4.307658   4.305162   2.504890   0.000000
    26  C    2.654715   4.125304   6.143926   5.357858   3.590067
    27  H    2.966673   2.593865   5.843300   5.799218   4.323357
    28  H    5.280659   3.274198   6.382298   7.090445   6.250532
    29  H    4.823032   2.340134   6.144768   6.929329   6.004439
    30  H    5.931070   2.367274   3.297077   5.201394   5.711723
    31  H    7.338725   3.601860   4.538008   6.666023   7.259920
    32  H    5.821097   2.225471   5.452856   6.851024   6.529329
    33  H    6.128716   3.187270   6.900031   8.047387   7.327286
    34  O    7.566876   4.954759   8.608912   9.783318   8.972778
    35  H    8.002052   5.445516   8.948287  10.145110   9.378715
    36  H    8.328375   5.649298   9.246204  10.510546   9.738753
    37  H    2.432955   4.890658   6.614443   5.418385   3.357442
    38  H    3.646486   4.743173   6.932606   6.308600   4.664138
    39  H    3.017406   3.867276   5.251212   4.544381   3.200624
                   26         27         28         29         30
    26  C    0.000000
    27  H    2.061203   0.000000
    28  H    3.862221   2.347547   0.000000
    29  H    4.246644   2.244152   1.565293   0.000000
    30  H    5.991032   4.652035   4.338459   3.743492   0.000000
    31  H    7.318896   5.786566   4.971717   4.348299   1.557053
    32  H    5.885469   3.983486   3.386516   2.197872   2.377335
    33  H    6.300897   4.250737   3.710270   2.294676   3.939104
    34  O    7.832160   5.779580   5.129665   3.852555   5.565789
    35  H    8.520947   6.484503   6.007340   4.654109   5.961292
    36  H    8.365892   6.318702   5.357412   4.280858   6.097461
    37  H    1.095547   2.971308   4.935575   5.210842   6.822815
    38  H    1.094128   2.376404   3.639401   4.336871   6.514246
    39  H    1.093906   2.389959   3.855655   4.333405   5.410808
                   31         32         33         34         35
    31  H    0.000000
    32  H    2.514251   0.000000
    33  H    3.926463   1.576090   0.000000
    34  O    5.225577   3.252803   1.805885   0.000000
    35  H    5.548935   3.780756   2.463247   0.960857   0.000000
    36  H    5.600303   3.805317   2.467451   0.960873   1.531456
    37  H    8.214630   6.781750   7.148347   8.635623   9.272839
    38  H    7.721729   6.218013   6.523354   7.962292   8.726971
    39  H    6.792936   5.711407   6.391902   8.048377   8.731712
                   36         37         38         39
    36  H    0.000000
    37  H    9.216948   0.000000
    38  H    8.389181   1.791760   0.000000
    39  H    8.582040   1.794378   1.789400   0.000000
 Stoichiometry    C10H23N2O4(1+)
 Framework group  C1[X(C10H23N2O4)]
 Deg. of freedom   111
 Full point group                 C1      NOp   1
 Largest Abelian subgroup         C1      NOp   1
 Largest concise Abelian subgroup C1      NOp   1
                         Standard orientation:                         
 ---------------------------------------------------------------------
 Center     Atomic      Atomic             Coordinates (Angstroms)
 Number     Number       Type             X           Y           Z
 ---------------------------------------------------------------------
      1          7           0        0.736950   -1.905372    0.599674
      2          6           0        1.139678   -1.259175   -0.705828
      3          6           0       -0.107587   -1.462290   -1.578340
      4          6           0       -0.791293   -2.741286   -1.035261
      5          6           0        0.031860   -3.156750    0.189293
      6          6           0        1.630936    0.152200   -0.514695
      7          6           0        0.741089    1.179239   -0.197551
      8          7           0        1.111392    2.444010    0.007796
      9          6           0        2.408186    2.745555   -0.109861
     10          6           0        3.378386    1.799620   -0.433690
     11          6           0        2.981583    0.481439   -0.635398
     12          8           0       -1.350611   -0.718966    1.795053
     13          8           0       -2.564783    0.820568    0.058660
     14          8           0       -1.506161    3.262169    0.656817
     15          1           0        0.801281   -3.898893   -0.056522
     16          1           0       -0.810952   -3.549175   -1.772716
     17          1           0       -1.825034   -2.528004   -0.745923
     18          1           0       -0.782108   -0.604157   -1.491897
     19          1           0        0.184911   -1.548322   -2.628934
     20          1           0       -0.562827   -3.517157    1.033446
     21          1           0        1.965102   -1.880065   -1.082049
     22          1           0       -0.325928    0.978752   -0.109867
     23          1           0        2.681680    3.787427    0.058873
     24          1           0        4.421685    2.094768   -0.526653
     25          1           0        3.718318   -0.281391   -0.892191
     26          6           0        1.839106   -2.110504    1.559643
     27          1           0        0.005029   -1.307405    1.070001
     28          1           0       -1.411182   -0.349923    2.678899
     29          1           0       -1.904701   -0.136981    1.208784
     30          1           0       -0.551303    3.268853    0.445675
     31          1           0       -1.800244    4.174701    0.655442
     32          1           0       -2.380644    1.767401    0.220124
     33          1           0       -3.503203    0.738187   -0.185637
     34          8           0       -5.221557    0.450622   -0.660807
     35          1           0       -5.584819    0.738073   -1.502626
     36          1           0       -5.952867    0.481760   -0.038317
     37          1           0        2.605741   -2.744087    1.100224
     38          1           0        1.441385   -2.598848    2.454323
     39          1           0        2.265507   -1.139409    1.827577
 ---------------------------------------------------------------------
 Rotational constants (GHZ):           0.4569271           0.3593443           0.2391285
 Standard basis: Aug-CC-pVDZ (5D, 7F)
 There are   607 symmetry adapted cartesian basis functions of A   symmetry.
 There are   575 symmetry adapted basis functions of A   symmetry.
   575 basis functions,   941 primitive gaussians,   607 cartesian basis functions
    64 alpha electrons       64 beta electrons
       nuclear repulsion energy      1233.4723769893 Hartrees.
 NAtoms=   39 NActive=   39 NUniq=   39 SFac= 1.00D+00 NAtFMM=   60 NAOKFM=F Big=F
 Integral buffers will be    131072 words long.
 Raffenetti 2 integral format.
 Two-electron integral symmetry is turned on.
 Nuclear repulsion after empirical dispersion term =     1233.4415980551 Hartrees.
 One-electron integrals computed using PRISM.
 NBasis=   575 RedAO= T EigKep=  1.76D-06  NBF=   575
 NBsUse=   575 1.00D-06 EigRej= -1.00D+00 NBFU=   575
 ExpMin= 2.97D-02 ExpMax= 1.17D+04 ExpMxC= 4.01D+02 IAcc=3 IRadAn=         5 AccDes= 0.00D+00
 Harris functional with IExCor= 4639 and IRadAn=       5 diagonalized for initial guess.
 HarFok:  IExCor= 4639 AccDes= 0.00D+00 IRadAn=         5 IDoV= 1 UseB2=F ITyADJ=14
 ICtDFT=  3500011 ScaDFX=  1.000000  1.000000  1.000000  1.000000
 FoFCou: FMM=F IPFlag=           0 FMFlag=      100000 FMFlg1=           0
         NFxFlg=           0 DoJE=T BraDBF=F KetDBF=T FulRan=T
         wScrn=  0.000000 ICntrl=       500 IOpCl=  0 I1Cent=   200000004 NGrid=           0
         NMat0=    1 NMatS0=      1 NMatT0=    0 NMatD0=    1 NMtDS0=    0 NMtDT0=    0
 Petite list used in FoFCou.
 Requested convergence on RMS density matrix=1.00D-08 within 128 cycles.
 Requested convergence on MAX density matrix=1.00D-06.
 Requested convergence on             energy=1.00D-06.
 No special actions if energy rises.
 SCF Done:  E(RwB97XD) =  -805.036834360     A.U. after   15 cycles
            NFock= 15  Conv=0.37D-08     -V/T= 2.0062

 **********************************************************************

            Population analysis using the SCF density.

 **********************************************************************

 Orbital symmetries:
       Occupied  (A) (A) (A) (A) (A) (A) (A) (A) (A) (A) (A) (A)
                 (A) (A) (A) (A) (A) (A) (A) (A) (A) (A) (A) (A)
                 (A) (A) (A) (A) (A) (A) (A) (A) (A) (A) (A) (A)
                 (A) (A) (A) (A) (A) (A) (A) (A) (A) (A) (A) (A)
                 (A) (A) (A) (A) (A) (A) (A) (A) (A) (A) (A) (A)
                 (A) (A) (A) (A)
       Virtual   (A) (A) (A) (A) (A) (A) (A) (A) (A) (A) (A) (A)
                 (A) (A) (A) (A) (A) (A) (A) (A) (A) (A) (A) (A)
                 (A) (A) (A) (A) (A) (A) (A) (A) (A) (A) (A) (A)
                 (A) (A) (A) (A) (A) (A) (A) (A) (A) (A) (A) (A)
                 (A) (A) (A) (A) (A) (A) (A) (A) (A) (A) (A) (A)
                 (A) (A) (A) (A) (A) (A) (A) (A) (A) (A) (A) (A)
                 (A) (A) (A) (A) (A) (A) (A) (A) (A) (A) (A) (A)
                 (A) (A) (A) (A) (A) (A) (A) (A) (A) (A) (A) (A)
                 (A) (A) (A) (A) (A) (A) (A) (A) (A) (A) (A) (A)
                 (A) (A) (A) (A) (A) (A) (A) (A) (A) (A) (A) (A)
                 (A) (A) (A) (A) (A) (A) (A) (A) (A) (A) (A) (A)
                 (A) (A) (A) (A) (A) (A) (A) (A) (A) (A) (A) (A)
                 (A) (A) (A) (A) (A) (A) (A) (A) (A) (A) (A) (A)
                 (A) (A) (A) (A) (A) (A) (A) (A) (A) (A) (A) (A)
                 (A) (A) (A) (A) (A) (A) (A) (A) (A) (A) (A) (A)
                 (A) (A) (A) (A) (A) (A) (A) (A) (A) (A) (A) (A)
                 (A) (A) (A) (A) (A) (A) (A) (A) (A) (A) (A) (A)
                 (A) (A) (A) (A) (A) (A) (A) (A) (A) (A) (A) (A)
                 (A) (A) (A) (A) (A) (A) (A) (A) (A) (A) (A) (A)
                 (A) (A) (A) (A) (A) (A) (A) (A) (A) (A) (A) (A)
                 (A) (A) (A) (A) (A) (A) (A) (A) (A) (A) (A) (A)
                 (A) (A) (A) (A) (A) (A) (A) (A) (A) (A) (A) (A)
                 (A) (A) (A) (A) (A) (A) (A) (A) (A) (A) (A) (A)
                 (A) (A) (A) (A) (A) (A) (A) (A) (A) (A) (A) (A)
                 (A) (A) (A) (A) (A) (A) (A) (A) (A) (A) (A) (A)
                 (A) (A) (A) (A) (A) (A) (A) (A) (A) (A) (A) (A)
                 (A) (A) (A) (A) (A) (A) (A) (A) (A) (A) (A) (A)
                 (A) (A) (A) (A) (A) (A) (A) (A) (A) (A) (A) (A)
                 (A) (A) (A) (A) (A) (A) (A) (A) (A) (A) (A) (A)
                 (A) (A) (A) (A) (A) (A) (A) (A) (A) (A) (A) (A)
                 (A) (A) (A) (A) (A) (A) (A) (A) (A) (A) (A) (A)
                 (A) (A) (A) (A) (A) (A) (A) (A) (A) (A) (A) (A)
                 (A) (A) (A) (A) (A) (A) (A) (A) (A) (A) (A) (A)
                 (A) (A) (A) (A) (A) (A) (A) (A) (A) (A) (A) (A)
                 (A) (A) (A) (A) (A) (A) (A) (A) (A) (A) (A) (A)
                 (A) (A) (A) (A) (A) (A) (A) (A) (A) (A) (A) (A)
                 (A) (A) (A) (A) (A) (A) (A) (A) (A) (A) (A) (A)
                 (A) (A) (A) (A) (A) (A) (A) (A) (A) (A) (A) (A)
                 (A) (A) (A) (A) (A) (A) (A) (A) (A) (A) (A) (A)
                 (A) (A) (A) (A) (A) (A) (A) (A) (A) (A) (A) (A)
                 (A) (A) (A) (A) (A) (A) (A) (A) (A) (A) (A) (A)
                 (A) (A) (A) (A) (A) (A) (A) (A) (A) (A) (A) (A)
                 (A) (A) (A) (A) (A) (A) (A)
 The electronic state is 1-A.
 Alpha  occ. eigenvalues --  -19.39425 -19.38728 -19.36443 -19.36285 -14.67964
 Alpha  occ. eigenvalues --  -14.57757 -10.49055 -10.47666 -10.47560 -10.45631
 Alpha  occ. eigenvalues --  -10.45621 -10.44559 -10.44484 -10.42914 -10.42887
 Alpha  occ. eigenvalues --  -10.42833  -1.24927  -1.23781  -1.22966  -1.21083
 Alpha  occ. eigenvalues --   -1.19812  -1.17486  -1.05737  -1.03712  -1.00649
 Alpha  occ. eigenvalues --   -0.96078  -0.93794  -0.88268  -0.85208  -0.84520
 Alpha  occ. eigenvalues --   -0.82317  -0.77185  -0.74552  -0.74470  -0.74107
 Alpha  occ. eigenvalues --   -0.73288  -0.72351  -0.71580  -0.70945  -0.69004
 Alpha  occ. eigenvalues --   -0.68600  -0.65771  -0.64853  -0.64489  -0.62379
 Alpha  occ. eigenvalues --   -0.62128  -0.61694  -0.61569  -0.61133  -0.60454
 Alpha  occ. eigenvalues --   -0.58728  -0.58096  -0.57618  -0.56968  -0.56053
 Alpha  occ. eigenvalues --   -0.55352  -0.54156  -0.52400  -0.52169  -0.50645
 Alpha  occ. eigenvalues --   -0.49716  -0.49092  -0.47082  -0.46135
 Alpha virt. eigenvalues --   -0.09050  -0.08030  -0.06359  -0.05451  -0.04922
 Alpha virt. eigenvalues --   -0.04470  -0.03643  -0.02984  -0.02852  -0.02623
 Alpha virt. eigenvalues --   -0.02117  -0.01580  -0.01004  -0.00767  -0.00676
 Alpha virt. eigenvalues --   -0.00500   0.00210   0.01030   0.01141   0.01786
 Alpha virt. eigenvalues --    0.01906   0.02380   0.02616   0.02865   0.03142
 Alpha virt. eigenvalues --    0.03553   0.03867   0.04427   0.04608   0.04838
 Alpha virt. eigenvalues --    0.05183   0.05506   0.05546   0.05699   0.06085
 Alpha virt. eigenvalues --    0.06358   0.06558   0.06659   0.07112   0.07331
 Alpha virt. eigenvalues --    0.07583   0.07787   0.07954   0.08253   0.08668
 Alpha virt. eigenvalues --    0.08754   0.09364   0.09609   0.09914   0.10088
 Alpha virt. eigenvalues --    0.10613   0.10879   0.11167   0.11540   0.11724
 Alpha virt. eigenvalues --    0.12183   0.12273   0.12742   0.12871   0.12986
 Alpha virt. eigenvalues --    0.13122   0.13444   0.14363   0.14614   0.15071
 Alpha virt. eigenvalues --    0.15375   0.15544   0.15752   0.16172   0.16372
 Alpha virt. eigenvalues --    0.16519   0.16723   0.16942   0.17257   0.17694
 Alpha virt. eigenvalues --    0.18237   0.18341   0.18915   0.19209   0.19511
 Alpha virt. eigenvalues --    0.19608   0.19893   0.20141   0.20301   0.20690
 Alpha virt. eigenvalues --    0.21117   0.21545   0.21750   0.22054   0.22194
 Alpha virt. eigenvalues --    0.22613   0.22877   0.22892   0.23657   0.23941
 Alpha virt. eigenvalues --    0.24136   0.24342   0.24854   0.25223   0.25401
 Alpha virt. eigenvalues --    0.26432   0.26507   0.26807   0.27220   0.27287
 Alpha virt. eigenvalues --    0.27367   0.27962   0.28154   0.28846   0.29049
 Alpha virt. eigenvalues --    0.29620   0.29756   0.30183   0.30690   0.30877
 Alpha virt. eigenvalues --    0.31572   0.31710   0.32218   0.32555   0.32972
 Alpha virt. eigenvalues --    0.33364   0.33596   0.34054   0.34526   0.34887
 Alpha virt. eigenvalues --    0.35386   0.35834   0.36062   0.36114   0.37004
 Alpha virt. eigenvalues --    0.37176   0.37517   0.38301   0.38612   0.39306
 Alpha virt. eigenvalues --    0.39737   0.40143   0.40379   0.40850   0.40968
 Alpha virt. eigenvalues --    0.41959   0.42201   0.42620   0.42902   0.43406
 Alpha virt. eigenvalues --    0.43709   0.44115   0.44280   0.44711   0.45155
 Alpha virt. eigenvalues --    0.45245   0.45754   0.46462   0.46901   0.47191
 Alpha virt. eigenvalues --    0.47530   0.47980   0.48235   0.48722   0.48995
 Alpha virt. eigenvalues --    0.49184   0.49752   0.49869   0.50594   0.50797
 Alpha virt. eigenvalues --    0.51526   0.51888   0.52052   0.52499   0.52915
 Alpha virt. eigenvalues --    0.53315   0.53619   0.53765   0.54180   0.54892
 Alpha virt. eigenvalues --    0.55013   0.55159   0.55227   0.56116   0.56475
 Alpha virt. eigenvalues --    0.56697   0.57169   0.57723   0.58059   0.58881
 Alpha virt. eigenvalues --    0.59048   0.59273   0.59706   0.60258   0.60537
 Alpha virt. eigenvalues --    0.60649   0.61174   0.61542   0.61842   0.62101
 Alpha virt. eigenvalues --    0.62447   0.62938   0.63748   0.64128   0.64851
 Alpha virt. eigenvalues --    0.65114   0.65582   0.66026   0.66778   0.67570
 Alpha virt. eigenvalues --    0.67852   0.68338   0.68735   0.68917   0.69408
 Alpha virt. eigenvalues --    0.69751   0.70020   0.70296   0.70716   0.71117
 Alpha virt. eigenvalues --    0.71764   0.72294   0.72796   0.73122   0.73446
 Alpha virt. eigenvalues --    0.73903   0.74783   0.75134   0.75436   0.76121
 Alpha virt. eigenvalues --    0.76925   0.77589   0.78097   0.78471   0.79014
 Alpha virt. eigenvalues --    0.79478   0.80154   0.80870   0.81066   0.81783
 Alpha virt. eigenvalues --    0.82261   0.83209   0.83427   0.83717   0.84837
 Alpha virt. eigenvalues --    0.85815   0.86252   0.87219   0.87612   0.88166
 Alpha virt. eigenvalues --    0.88820   0.89230   0.90740   0.90995   0.91518
 Alpha virt. eigenvalues --    0.92363   0.92915   0.93473   0.93856   0.94417
 Alpha virt. eigenvalues --    0.95200   0.95979   0.96279   0.96796   0.97844
 Alpha virt. eigenvalues --    0.98976   0.99235   0.99620   0.99901   1.00983
 Alpha virt. eigenvalues --    1.01292   1.03008   1.03370   1.04068   1.04141
 Alpha virt. eigenvalues --    1.05142   1.05872   1.06656   1.07493   1.08875
 Alpha virt. eigenvalues --    1.09983   1.10735   1.11063   1.11833   1.12183
 Alpha virt. eigenvalues --    1.13314   1.13569   1.14843   1.15131   1.16295
 Alpha virt. eigenvalues --    1.17228   1.17786   1.18355   1.18932   1.19905
 Alpha virt. eigenvalues --    1.20324   1.21448   1.21546   1.23368   1.23927
 Alpha virt. eigenvalues --    1.25226   1.25306   1.27378   1.28563   1.29685
 Alpha virt. eigenvalues --    1.30617   1.32413   1.32653   1.33582   1.34105
 Alpha virt. eigenvalues --    1.35266   1.36056   1.36880   1.37755   1.38202
 Alpha virt. eigenvalues --    1.39756   1.40696   1.41047   1.41520   1.42329
 Alpha virt. eigenvalues --    1.43093   1.44082   1.44336   1.45964   1.46078
 Alpha virt. eigenvalues --    1.47510   1.48101   1.49003   1.50075   1.50934
 Alpha virt. eigenvalues --    1.51833   1.53087   1.53227   1.54371   1.56206
 Alpha virt. eigenvalues --    1.56649   1.57264   1.57519   1.58531   1.59419
 Alpha virt. eigenvalues --    1.59700   1.61224   1.62389   1.63427   1.64062
 Alpha virt. eigenvalues --    1.64409   1.65607   1.65840   1.66453   1.66898
 Alpha virt. eigenvalues --    1.67971   1.68688   1.69364   1.71046   1.71745
 Alpha virt. eigenvalues --    1.72421   1.73699   1.74293   1.75556   1.76244
 Alpha virt. eigenvalues --    1.76647   1.77637   1.77907   1.79209   1.79675
 Alpha virt. eigenvalues --    1.81200   1.81467   1.82037   1.82360   1.83120
 Alpha virt. eigenvalues --    1.83900   1.84512   1.85004   1.86719   1.86839
 Alpha virt. eigenvalues --    1.87055   1.87933   1.88532   1.88754   1.90579
 Alpha virt. eigenvalues --    1.91067   1.92182   1.93020   1.93575   1.94448
 Alpha virt. eigenvalues --    1.95628   1.96061   1.96826   1.98069   1.98282
 Alpha virt. eigenvalues --    1.98568   1.99558   1.99728   1.99873   2.01400
 Alpha virt. eigenvalues --    2.02573   2.03768   2.05007   2.05989   2.06915
 Alpha virt. eigenvalues --    2.07869   2.09096   2.09668   2.10404   2.11774
 Alpha virt. eigenvalues --    2.12175   2.13430   2.14435   2.15195   2.15382
 Alpha virt. eigenvalues --    2.16518   2.17029   2.18020   2.18645   2.19925
 Alpha virt. eigenvalues --    2.20544   2.21799   2.23603   2.24114   2.24357
 Alpha virt. eigenvalues --    2.26112   2.27234   2.27587   2.29498   2.29853
 Alpha virt. eigenvalues --    2.31244   2.32366   2.33289   2.33509   2.34328
 Alpha virt. eigenvalues --    2.35135   2.36960   2.37779   2.39969   2.41547
 Alpha virt. eigenvalues --    2.43088   2.43708   2.44181   2.46292   2.48197
 Alpha virt. eigenvalues --    2.49799   2.50059   2.51110   2.51491   2.52769
 Alpha virt. eigenvalues --    2.53156   2.54466   2.54877   2.56538   2.58815
 Alpha virt. eigenvalues --    2.59278   2.60191   2.61490   2.62192   2.63136
 Alpha virt. eigenvalues --    2.63885   2.65872   2.66723   2.67628   2.69247
 Alpha virt. eigenvalues --    2.71701   2.72167   2.73224   2.74105   2.74972
 Alpha virt. eigenvalues --    2.75575   2.76153   2.77403   2.79346   2.79871
 Alpha virt. eigenvalues --    2.81968   2.82375   2.84697   2.85375   2.87369
 Alpha virt. eigenvalues --    2.89107   2.89966   2.90581   2.93229   2.95206
 Alpha virt. eigenvalues --    2.96175   3.02208   3.05435   3.07352   3.13092
 Alpha virt. eigenvalues --    3.14260   3.15948   3.18675   3.29959   3.30612
 Alpha virt. eigenvalues --    3.33515   3.37168   3.37757   3.39007   3.40055
 Alpha virt. eigenvalues --    3.42787   3.44799   3.46536   3.49258   3.50625
 Alpha virt. eigenvalues --    3.55739   3.58466   3.59447   3.62981   3.67856
 Alpha virt. eigenvalues --    3.69740   3.77251   3.87664   3.89161   3.90839
 Alpha virt. eigenvalues --    3.94879   4.04763   4.09036   4.16574   4.31916
 Alpha virt. eigenvalues --    4.95162
          Condensed to atoms (all electrons):
               1          2          3          4          5          6
     1  N   12.548222  -2.182137  -0.924841  -0.440522   0.122850   0.912108
     2  C   -2.182137  25.781017  -3.070211   0.498845  -0.537957  -7.732741
     3  C   -0.924841  -3.070211  10.195080  -1.311892   0.807154   0.468783
     4  C   -0.440522   0.498845  -1.311892   6.615009  -0.175908   0.168677
     5  C    0.122850  -0.537957   0.807154  -0.175908   5.654358  -0.244201
     6  C    0.912108  -7.732741   0.468783   0.168677  -0.244201  24.062998
     7  C   -0.899858  -2.213760  -0.965195   0.142519  -0.304401  -4.800435
     8  N    0.025032   0.568415  -0.082382  -0.010125   0.032361  -0.139357
     9  C    0.039512  -0.399018  -0.097446   0.008512  -0.053371  -1.064349
    10  C    0.049191  -0.301595  -0.157209  -0.033990   0.033706   0.583940
    11  C   -0.535999  -1.551378   0.049084  -0.103900   0.011114  -9.821191
    12  O   -0.229563   0.153776   0.023862   0.042758  -0.018084  -0.030482
    13  O    0.018057   0.003137  -0.104569   0.029564  -0.014936  -0.022548
    14  O   -0.002849   0.001811   0.000618  -0.003258   0.001840  -0.045574
    15  H    0.101517  -0.041636   0.013811   0.030301  -0.256602   0.107467
    16  H   -0.097353  -0.108411   0.320036  -0.315516   0.173290   0.017688
    17  H    0.170931   0.217532   0.193805  -0.401778   0.031649  -0.122949
    18  H   -0.080542  -0.557387   0.268606   0.340975   0.039001   0.039255
    19  H    0.198505   0.677010  -1.422510   0.172724  -0.198916   0.199429
    20  H   -1.085453   0.455123   0.082539   0.136904  -0.297636  -0.070720
    21  H   -0.306352  -3.872157   0.888791  -0.072965  -0.002254   1.396610
    22  H   -0.073778  -0.145400  -0.127827  -0.055894   0.056872  -0.184634
    23  H    0.000655  -0.047041   0.000922   0.000748  -0.001729  -0.312571
    24  H   -0.000422   0.070979   0.009560   0.000726  -0.000687   0.120656
    25  H    0.010432  -0.067053  -0.133852  -0.002666   0.002271   1.405259
    26  C    0.943823  -0.476159  -0.286557  -0.017444   0.017495   0.346789
    27  H    0.459923   0.053297   0.057510   0.003208  -0.286735  -0.142155
    28  H    0.025909  -0.036950  -0.002652   0.003623   0.008827   0.019638
    29  H   -0.007664  -0.004185   0.066409  -0.039498   0.016032   0.014282
    30  H    0.005955   0.042703  -0.004243   0.001835  -0.003463   0.004072
    31  H   -0.000190  -0.005350   0.001359  -0.000540   0.000664   0.008250
    32  H   -0.011180   0.018124   0.026699   0.008595  -0.007780  -0.017990
    33  H    0.017755   0.008162  -0.012654  -0.006049   0.010188   0.005880
    34  O    0.000293   0.000475   0.001031   0.000598  -0.000971  -0.001285
    35  H    0.000076  -0.000053  -0.000628   0.000279  -0.000111   0.000033
    36  H   -0.000443  -0.000212   0.000473   0.000037  -0.000164  -0.000129
    37  H   -0.416137  -0.070880   0.023702   0.023518   0.153166  -0.029386
    38  H   -0.310702   0.034113  -0.104644   0.053264   0.004133   0.026553
    39  H    0.141869  -0.071639   0.141701  -0.053719  -0.076380   0.163921
               7          8          9         10         11         12
     1  N   -0.899858   0.025032   0.039512   0.049191  -0.535999  -0.229563
     2  C   -2.213760   0.568415  -0.399018  -0.301595  -1.551378   0.153776
     3  C   -0.965195  -0.082382  -0.097446  -0.157209   0.049084   0.023862
     4  C    0.142519  -0.010125   0.008512  -0.033990  -0.103900   0.042758
     5  C   -0.304401   0.032361  -0.053371   0.033706   0.011114  -0.018084
     6  C   -4.800435  -0.139357  -1.064349   0.583940  -9.821191  -0.030482
     7  C   18.613814  -0.530717  -1.911166   0.133806  -1.034607  -0.075463
     8  N   -0.530717   7.754898   0.262047   0.238730  -0.458887  -0.002554
     9  C   -1.911166   0.262047  10.695677  -2.642009   1.336981  -0.008878
    10  C    0.133806   0.238730  -2.642009  11.584722  -3.866946  -0.004804
    11  C   -1.034607  -0.458887   1.336981  -3.866946  22.927889  -0.012485
    12  O   -0.075463  -0.002554  -0.008878  -0.004804  -0.012485   8.063858
    13  O    0.008514   0.035871  -0.006989   0.013721   0.006548  -0.072099
    14  O   -0.037638  -0.034597   0.020469   0.001040   0.024633   0.004303
    15  H   -0.003915  -0.001094  -0.001397  -0.001690   0.007422  -0.007972
    16  H    0.011026  -0.000838   0.001721  -0.001472   0.000347  -0.000123
    17  H    0.003144  -0.000437  -0.002340  -0.000252   0.000410   0.004551
    18  H   -0.235316  -0.037072  -0.025073  -0.065652   0.060954   0.058748
    19  H    0.305532  -0.004608   0.011300   0.001011  -0.032174  -0.008612
    20  H    0.000328   0.002170  -0.002009   0.001897   0.019194   0.050062
    21  H    0.077840  -0.032176   0.027238  -0.006405   0.038364   0.015388
    22  H   -1.583471   0.080600  -0.153231   0.365831  -0.413983  -0.108980
    23  H    0.440929  -0.223980  -0.505267   0.099067   0.254683  -0.000159
    24  H   -0.134997  -0.059017   0.399323  -1.228856   0.531789  -0.000109
    25  H   -0.006502  -0.007129  -0.203668   0.634688  -2.526611  -0.001624
    26  C   -0.099088   0.019569  -0.054872   0.138316  -0.225032  -0.042501
    27  H   -0.014634  -0.026570   0.048489  -0.063371  -0.018693  -0.027675
    28  H   -0.002897   0.005096   0.000907   0.001203   0.000130   0.391686
    29  H   -0.048146  -0.003688  -0.007591   0.002549  -0.005577   0.241099
    30  H   -0.117639   0.115018   0.123886  -0.090963   0.038023   0.002487
    31  H    0.022188  -0.009905  -0.013671   0.011695  -0.010061  -0.000640
    32  H    0.015908  -0.049101  -0.005668  -0.015174   0.018370   0.009572
    33  H    0.025306   0.004483   0.000768   0.002135  -0.003758  -0.004352
    34  O    0.002025   0.000717   0.000282   0.000011  -0.000083   0.000448
    35  H    0.000266   0.000065   0.000040   0.000022  -0.000008  -0.000083
    36  H    0.000734  -0.000117   0.000023  -0.000043   0.000009   0.000021
    37  H    0.002438   0.000219  -0.001223  -0.006044   0.088409  -0.012341
    38  H    0.032656  -0.000501  -0.002184   0.017512  -0.024175   0.017294
    39  H    0.023930  -0.004837  -0.006048  -0.022055  -0.022223   0.011946
              13         14         15         16         17         18
     1  N    0.018057  -0.002849   0.101517  -0.097353   0.170931  -0.080542
     2  C    0.003137   0.001811  -0.041636  -0.108411   0.217532  -0.557387
     3  C   -0.104569   0.000618   0.013811   0.320036   0.193805   0.268606
     4  C    0.029564  -0.003258   0.030301  -0.315516  -0.401778   0.340975
     5  C   -0.014936   0.001840  -0.256602   0.173290   0.031649   0.039001
     6  C   -0.022548  -0.045574   0.107467   0.017688  -0.122949   0.039255
     7  C    0.008514  -0.037638  -0.003915   0.011026   0.003144  -0.235316
     8  N    0.035871  -0.034597  -0.001094  -0.000838  -0.000437  -0.037072
     9  C   -0.006989   0.020469  -0.001397   0.001721  -0.002340  -0.025073
    10  C    0.013721   0.001040  -0.001690  -0.001472  -0.000252  -0.065652
    11  C    0.006548   0.024633   0.007422   0.000347   0.000410   0.060954
    12  O   -0.072099   0.004303  -0.007972  -0.000123   0.004551   0.058748
    13  O    8.324763  -0.061930  -0.000332  -0.002904   0.007214   0.040222
    14  O   -0.061930   7.862263   0.000114  -0.000200  -0.000117   0.004103
    15  H   -0.000332   0.000114   2.440469  -0.290309   0.217289  -0.067821
    16  H   -0.002904  -0.000200  -0.290309   2.063095  -0.639592   0.205312
    17  H    0.007214  -0.000117   0.217289  -0.639592   2.267813  -0.468526
    18  H    0.040222   0.004103  -0.067821   0.205312  -0.468526   2.869674
    19  H   -0.002472  -0.000097   0.069785  -0.309403   0.197678  -0.904332
    20  H    0.001296   0.000132  -0.679903   0.158684  -0.348851   0.080320
    21  H    0.003566   0.000050  -0.166989   0.066556  -0.068715   0.352360
    22  H   -0.126059   0.050051  -0.001068  -0.007443   0.030683  -0.550782
    23  H    0.000481   0.006076  -0.000010   0.000077   0.000031  -0.000446
    24  H    0.000247  -0.000088  -0.000446   0.000015  -0.000002   0.003972
    25  H    0.000665   0.000303   0.002349   0.001339  -0.000002  -0.031646
    26  C   -0.002462  -0.000400   0.044045  -0.024222   0.036300  -0.114744
    27  H   -0.006090  -0.004376  -0.071552   0.020566  -0.034542   0.118985
    28  H   -0.000289   0.000134   0.002323  -0.001023   0.000525  -0.010764
    29  H   -0.007571   0.000335  -0.005908   0.003385  -0.004360   0.033483
    30  H    0.002462   0.290537   0.000075  -0.000022  -0.000153   0.007065
    31  H    0.002996   0.343240   0.000012   0.000023  -0.000102  -0.000687
    32  H    0.312567   0.000367  -0.000541  -0.000314  -0.003588   0.028064
    33  H    0.245117   0.002148   0.001210  -0.000653   0.004522  -0.018088
    34  O   -0.055944  -0.001726  -0.000056   0.000230  -0.002540   0.003470
    35  H    0.005545  -0.000072  -0.000015  -0.000043   0.000359  -0.000937
    36  H    0.007540  -0.000157  -0.000012   0.000082  -0.000350   0.002140
    37  H   -0.000235  -0.000005   0.026380   0.001362  -0.001320  -0.007488
    38  H   -0.000128  -0.000088   0.011085  -0.003749   0.011088  -0.021179
    39  H   -0.002262   0.000358   0.004995   0.000076  -0.004896   0.019603
              19         20         21         22         23         24
     1  N    0.198505  -1.085453  -0.306352  -0.073778   0.000655  -0.000422
     2  C    0.677010   0.455123  -3.872157  -0.145400  -0.047041   0.070979
     3  C   -1.422510   0.082539   0.888791  -0.127827   0.000922   0.009560
     4  C    0.172724   0.136904  -0.072965  -0.055894   0.000748   0.000726
     5  C   -0.198916  -0.297636  -0.002254   0.056872  -0.001729  -0.000687
     6  C    0.199429  -0.070720   1.396610  -0.184634  -0.312571   0.120656
     7  C    0.305532   0.000328   0.077840  -1.583471   0.440929  -0.134997
     8  N   -0.004608   0.002170  -0.032176   0.080600  -0.223980  -0.059017
     9  C    0.011300  -0.002009   0.027238  -0.153231  -0.505267   0.399323
    10  C    0.001011   0.001897  -0.006405   0.365831   0.099067  -1.228856
    11  C   -0.032174   0.019194   0.038364  -0.413983   0.254683   0.531789
    12  O   -0.008612   0.050062   0.015388  -0.108980  -0.000159  -0.000109
    13  O   -0.002472   0.001296   0.003566  -0.126059   0.000481   0.000247
    14  O   -0.000097   0.000132   0.000050   0.050051   0.006076  -0.000088
    15  H    0.069785  -0.679903  -0.166989  -0.001068  -0.000010  -0.000446
    16  H   -0.309403   0.158684   0.066556  -0.007443   0.000077   0.000015
    17  H    0.197678  -0.348851  -0.068715   0.030683   0.000031  -0.000002
    18  H   -0.904332   0.080320   0.352360  -0.550782  -0.000446   0.003972
    19  H    2.704774  -0.042484  -0.372619   0.212943   0.000691  -0.001901
    20  H   -0.042484   2.963556   0.112757  -0.009880  -0.000098   0.000051
    21  H   -0.372619   0.112757   4.105624  -0.078537   0.000218   0.004867
    22  H    0.212943  -0.009880  -0.078537   5.183559   0.031633  -0.036608
    23  H    0.000691  -0.000098   0.000218   0.031633   1.991002  -0.113958
    24  H   -0.001901   0.000051   0.004867  -0.036608  -0.113958   2.201090
    25  H    0.011026  -0.002319  -0.142655   0.035502  -0.002608  -0.151604
    26  C    0.075348  -0.214589  -0.161911   0.126064   0.000786  -0.010612
    27  H   -0.038713   0.170797   0.033532  -0.226290  -0.000702   0.004794
    28  H    0.001408  -0.006558  -0.002695   0.004292  -0.000008   0.000045
    29  H   -0.007917   0.014557   0.008753  -0.006987   0.000362  -0.000003
    30  H   -0.003446  -0.000006   0.001207  -0.145961  -0.045387   0.008446
    31  H    0.000222   0.000013  -0.000156   0.015855   0.002452  -0.000476
    32  H   -0.006614   0.002571   0.004040  -0.047075   0.002872   0.000450
    33  H    0.006282  -0.004097  -0.003476  -0.003453  -0.000555  -0.000017
    34  O   -0.000097   0.000129   0.000036  -0.002115   0.000003  -0.000000
    35  H   -0.000012  -0.000041  -0.000005  -0.000543   0.000005  -0.000000
    36  H   -0.000126   0.000110   0.000039  -0.001442   0.000002  -0.000001
    37  H    0.008135   0.031516   0.052140   0.015324   0.000057   0.001230
    38  H    0.004102  -0.017511  -0.006904   0.038448   0.000442  -0.001534
    39  H   -0.000971   0.001610   0.028346  -0.025629  -0.002470  -0.001147
              25         26         27         28         29         30
     1  N    0.010432   0.943823   0.459923   0.025909  -0.007664   0.005955
     2  C   -0.067053  -0.476159   0.053297  -0.036950  -0.004185   0.042703
     3  C   -0.133852  -0.286557   0.057510  -0.002652   0.066409  -0.004243
     4  C   -0.002666  -0.017444   0.003208   0.003623  -0.039498   0.001835
     5  C    0.002271   0.017495  -0.286735   0.008827   0.016032  -0.003463
     6  C    1.405259   0.346789  -0.142155   0.019638   0.014282   0.004072
     7  C   -0.006502  -0.099088  -0.014634  -0.002897  -0.048146  -0.117639
     8  N   -0.007129   0.019569  -0.026570   0.005096  -0.003688   0.115018
     9  C   -0.203668  -0.054872   0.048489   0.000907  -0.007591   0.123886
    10  C    0.634688   0.138316  -0.063371   0.001203   0.002549  -0.090963
    11  C   -2.526611  -0.225032  -0.018693   0.000130  -0.005577   0.038023
    12  O   -0.001624  -0.042501  -0.027675   0.391686   0.241099   0.002487
    13  O    0.000665  -0.002462  -0.006090  -0.000289  -0.007571   0.002462
    14  O    0.000303  -0.000400  -0.004376   0.000134   0.000335   0.290537
    15  H    0.002349   0.044045  -0.071552   0.002323  -0.005908   0.000075
    16  H    0.001339  -0.024222   0.020566  -0.001023   0.003385  -0.000022
    17  H   -0.000002   0.036300  -0.034542   0.000525  -0.004360  -0.000153
    18  H   -0.031646  -0.114744   0.118985  -0.010764   0.033483   0.007065
    19  H    0.011026   0.075348  -0.038713   0.001408  -0.007917  -0.003446
    20  H   -0.002319  -0.214589   0.170797  -0.006558   0.014557  -0.000006
    21  H   -0.142655  -0.161911   0.033532  -0.002695   0.008753   0.001207
    22  H    0.035502   0.126064  -0.226290   0.004292  -0.006987  -0.145961
    23  H   -0.002608   0.000786  -0.000702  -0.000008   0.000362  -0.045387
    24  H   -0.151604  -0.010612   0.004794   0.000045  -0.000003   0.008446
    25  H    3.031521   0.064671  -0.004571   0.000305  -0.001460  -0.003312
    26  C    0.064671   4.604746  -0.269442   0.011633  -0.003000  -0.005581
    27  H   -0.004571  -0.269442   1.105780  -0.022746   0.018063   0.010672
    28  H    0.000305   0.011633  -0.022746   0.533805  -0.093865  -0.000022
    29  H   -0.001460  -0.003000   0.018063  -0.093865   0.508826  -0.001240
    30  H   -0.003312  -0.005581   0.010672  -0.000022  -0.001240   0.644143
    31  H    0.000124   0.000587  -0.001744   0.000044   0.000450  -0.133938
    32  H   -0.001856  -0.007647   0.021505  -0.000148   0.001486   0.007302
    33  H    0.000371   0.004674  -0.013837   0.002304  -0.002420   0.000947
    34  O    0.000005  -0.000082   0.001215  -0.000301   0.003495  -0.000611
    35  H    0.000002   0.000020   0.000334  -0.000196   0.001922  -0.000033
    36  H   -0.000002  -0.000086  -0.000369   0.000149  -0.000353   0.000069
    37  H    0.001997   0.232565  -0.124634   0.003344  -0.002301  -0.000178
    38  H    0.007950   0.231514   0.013156  -0.004141   0.003228  -0.001172
    39  H   -0.020222  -0.018125   0.006148   0.000848  -0.000774   0.000868
              31         32         33         34         35         36
     1  N   -0.000190  -0.011180   0.017755   0.000293   0.000076  -0.000443
     2  C   -0.005350   0.018124   0.008162   0.000475  -0.000053  -0.000212
     3  C    0.001359   0.026699  -0.012654   0.001031  -0.000628   0.000473
     4  C   -0.000540   0.008595  -0.006049   0.000598   0.000279   0.000037
     5  C    0.000664  -0.007780   0.010188  -0.000971  -0.000111  -0.000164
     6  C    0.008250  -0.017990   0.005880  -0.001285   0.000033  -0.000129
     7  C    0.022188   0.015908   0.025306   0.002025   0.000266   0.000734
     8  N   -0.009905  -0.049101   0.004483   0.000717   0.000065  -0.000117
     9  C   -0.013671  -0.005668   0.000768   0.000282   0.000040   0.000023
    10  C    0.011695  -0.015174   0.002135   0.000011   0.000022  -0.000043
    11  C   -0.010061   0.018370  -0.003758  -0.000083  -0.000008   0.000009
    12  O   -0.000640   0.009572  -0.004352   0.000448  -0.000083   0.000021
    13  O    0.002996   0.312567   0.245117  -0.055944   0.005545   0.007540
    14  O    0.343240   0.000367   0.002148  -0.001726  -0.000072  -0.000157
    15  H    0.000012  -0.000541   0.001210  -0.000056  -0.000015  -0.000012
    16  H    0.000023  -0.000314  -0.000653   0.000230  -0.000043   0.000082
    17  H   -0.000102  -0.003588   0.004522  -0.002540   0.000359  -0.000350
    18  H   -0.000687   0.028064  -0.018088   0.003470  -0.000937   0.002140
    19  H    0.000222  -0.006614   0.006282  -0.000097  -0.000012  -0.000126
    20  H    0.000013   0.002571  -0.004097   0.000129  -0.000041   0.000110
    21  H   -0.000156   0.004040  -0.003476   0.000036  -0.000005   0.000039
    22  H    0.015855  -0.047075  -0.003453  -0.002115  -0.000543  -0.001442
    23  H    0.002452   0.002872  -0.000555   0.000003   0.000005   0.000002
    24  H   -0.000476   0.000450  -0.000017  -0.000000  -0.000000  -0.000001
    25  H    0.000124  -0.001856   0.000371   0.000005   0.000002  -0.000002
    26  C    0.000587  -0.007647   0.004674  -0.000082   0.000020  -0.000086
    27  H   -0.001744   0.021505  -0.013837   0.001215   0.000334  -0.000369
    28  H    0.000044  -0.000148   0.002304  -0.000301  -0.000196   0.000149
    29  H    0.000450   0.001486  -0.002420   0.003495   0.001922  -0.000353
    30  H   -0.133938   0.007302   0.000947  -0.000611  -0.000033   0.000069
    31  H    0.585206  -0.009788   0.000785   0.000167   0.000074   0.000075
    32  H   -0.009788   0.621523  -0.208856   0.002424  -0.004381  -0.001946
    33  H    0.000785  -0.208856   0.669554  -0.024309   0.002109  -0.001318
    34  O    0.000167   0.002424  -0.024309   7.676421   0.350187   0.349957
    35  H    0.000074  -0.004381   0.002109   0.350187   0.576799  -0.074032
    36  H    0.000075  -0.001946  -0.001318   0.349957  -0.074032   0.580311
    37  H    0.000029  -0.000847   0.000413  -0.000003   0.000001  -0.000003
    38  H    0.000115  -0.000869  -0.000065  -0.000006   0.000006  -0.000005
    39  H   -0.000094   0.000873  -0.000084  -0.000019  -0.000003   0.000003
              37         38         39
     1  N   -0.416137  -0.310702   0.141869
     2  C   -0.070880   0.034113  -0.071639
     3  C    0.023702  -0.104644   0.141701
     4  C    0.023518   0.053264  -0.053719
     5  C    0.153166   0.004133  -0.076380
     6  C   -0.029386   0.026553   0.163921
     7  C    0.002438   0.032656   0.023930
     8  N    0.000219  -0.000501  -0.004837
     9  C   -0.001223  -0.002184  -0.006048
    10  C   -0.006044   0.017512  -0.022055
    11  C    0.088409  -0.024175  -0.022223
    12  O   -0.012341   0.017294   0.011946
    13  O   -0.000235  -0.000128  -0.002262
    14  O   -0.000005  -0.000088   0.000358
    15  H    0.026380   0.011085   0.004995
    16  H    0.001362  -0.003749   0.000076
    17  H   -0.001320   0.011088  -0.004896
    18  H   -0.007488  -0.021179   0.019603
    19  H    0.008135   0.004102  -0.000971
    20  H    0.031516  -0.017511   0.001610
    21  H    0.052140  -0.006904   0.028346
    22  H    0.015324   0.038448  -0.025629
    23  H    0.000057   0.000442  -0.002470
    24  H    0.001230  -0.001534  -0.001147
    25  H    0.001997   0.007950  -0.020222
    26  C    0.232565   0.231514  -0.018125
    27  H   -0.124634   0.013156   0.006148
    28  H    0.003344  -0.004141   0.000848
    29  H   -0.002301   0.003228  -0.000774
    30  H   -0.000178  -0.001172   0.000868
    31  H    0.000029   0.000115  -0.000094
    32  H   -0.000847  -0.000869   0.000873
    33  H    0.000413  -0.000065  -0.000084
    34  O   -0.000003  -0.000006  -0.000019
    35  H    0.000001   0.000006  -0.000003
    36  H   -0.000003  -0.000005   0.000003
    37  H    1.902080  -0.350776  -0.419462
    38  H   -0.350776   2.057317  -0.592836
    39  H   -0.419462  -0.592836   1.907184
 Mulliken charges:
               1
     1  N   -1.186630
     2  C    0.908791
     3  C    1.167773
     4  C    0.762448
     5  C    1.305315
     6  C    0.710411
     7  C    1.156944
     8  N   -0.425601
     9  C    0.190293
    10  C    0.593735
    11  C    1.253414
    12  O   -0.422277
    13  O   -0.580275
    14  O   -0.421754
    15  H   -0.481381
    16  H   -0.241320
    17  H   -0.290113
    18  H   -0.377829
    19  H   -0.499879
    20  H   -0.504162
    21  H   -0.921349
    22  H   -1.130587
    23  H   -0.577206
    24  H   -0.615753
    25  H   -0.899419
    26  C    1.135611
    27  H    0.251467
    28  H    0.167078
    29  H    0.315794
    30  H    0.249599
    31  H    0.190716
    32  H    0.298051
    33  H    0.292929
    34  O   -0.303471
    35  H    0.143053
    36  H    0.139540
    37  H   -0.124765
    38  H   -0.120807
    39  H   -0.108385
 Sum of Mulliken charges =   1.00000
 Mulliken charges with hydrogens summed into heavy atoms:
               1
     1  N   -0.935163
     2  C   -0.012558
     3  C    0.290065
     4  C    0.231015
     5  C    0.319772
     6  C    0.710411
     7  C    0.026357
     8  N   -0.425601
     9  C   -0.386913
    10  C   -0.022018
    11  C    0.353995
    12  O    0.060596
    13  O    0.010705
    14  O    0.018561
    26  C    0.781654
    34  O   -0.020879
 Electronic spatial extent (au):  <R**2>=           4835.1227
 Charge=              1.0000 electrons
 Dipole moment (field-independent basis, Debye):
    X=             -0.0683    Y=             -2.8110    Z=              0.4509  Tot=              2.8478
 Quadrupole moment (field-independent basis, Debye-Ang):
   XX=            -37.3471   YY=            -61.3356   ZZ=            -85.7644
[...]
 44,0.00002847,0.00005401,-0.00000667,0.00001516,-0.00000773,-0.0000033
 8,0.00003336,0.00000540,0.00007014,-0.00006084,-0.00000635,-0.00004422
 ,-0.00001142,0.00000288,0.00001579,-0.00002988,-0.00000609,0.00001891,
 -0.00000189,-0.00000215,0.00003507,-0.00009073,0.00001601,-0.00125633,
 -0.00039702,0.00027360,0.00024630,-0.00014072,0.00010057,-0.00001416,-
 0.00000028,-0.00001222,0.00002176,-0.00002153,-0.00000510,0.00000205,0
 .00000623,0.00007006,0.00002449,0.00003203,0.00001707,0.00001319,0.000
 00098,0.00000059,0.00000263,-0.00000246,-0.00000008,-0.00000331,-0.000
 00354,-0.00000559,-0.00000412,0.00003145,-0.00000340,-0.00000630,0.000
 00203,-0.00000195,0.00000038,-0.00000314,-0.00000205,0.00000682,-0.000
 00029,-0.00000230,0.00001214,-0.00000870,0.00000964,-0.00002709,0.0000
 3925,0.00003092,0.00001083,0.00001926,-0.00000464,-0.00007160,0.000093
 23,-0.00006035,-0.00017199,0.00006211,0.00002334,-0.00013198,-0.000034
 60,-0.00009837,-0.00008560,0.00026720,-0.00022493,0.00144748,0.0002369
 9,-0.00080333,0.05946574,-0.04990929,0.14661244,-0.06180557,0.04966408
 ,0.00003604,-0.00004643,-0.00007057,0.00000585,0.00001316,0.00004304,-
 0.00000833,-0.00001055,-0.00000807,-0.00003321,0.00000825,0.00000055,0
 .00000694,0.00001109,0.00002421,0.00003463,0.00000724,-0.00001531,-0.0
 0003847,-0.00000033,0.00000861,0.00007473,-0.00000060,-0.00003547,-0.0
 0001340,-0.00002042,0.00000233,0.00001349,0.00000235,-0.00000123,-0.00
 000087,-0.00001064,-0.00000494,0.00026254,-0.00015795,0.00007831,0.001
 76752,0.00009431,0.00024903,0.00021913,0.00008493,-0.00005301,0.000003
 05,-0.00000249,-0.00000507,0.00002159,-0.00001766,-0.00000114,-0.00000
 132,0.00001652,0.00003394,-0.00001027,0.00001465,0.00006542,0.00003900
 ,-0.00001900,-0.00001038,-0.00001094,0.00001165,-0.00000808,0.00000163
 ,-0.00000227,-0.00000630,-0.00006594,0.00000664,0.00002953,0.00000141,
 0.00000333,0.00000444,0.00000342,-0.00000215,0.00000240,0.00000551,-0.
 00000260,0.00000300,-0.00000421,-0.00000035,-0.00000976,-0.00014786,0.
 00008594,0.00009371,-0.00003590,-0.00000093,-0.00001847,-0.00022357,0.
 00017344,-0.00021848,-0.00011911,0.00004112,0.00005546,-0.00005154,-0.
 00001761,0.00002562,-0.00024214,-0.00014392,-0.00004944,-0.00266649,-0
 .00012640,-0.00056195,-0.13728515,0.13217137,-0.42010820,0.15688483,-0
 .14286078,0.44547653,0.00005509,-0.00004252,-0.00003382,-0.00000693,-0
 .00000494,0.00001481,0.00000093,-0.00000117,-0.00000348,-0.00002415,0.
 00000389,0.00000713,0.00000012,0.00001314,0.00000360,0.00002105,-0.000
 00612,-0.00000345,-0.00002126,0.00002060,0.00001516,0.00005957,-0.0000
 0489,-0.00001196,-0.00001365,-0.00002479,-0.00000541,0.00000636,0.0000
 0771,0.00000188,-0.00001175,-0.00000426,-0.00000142,0.00024635,-0.0000
 0146,-0.00006082,-0.00055653,-0.00049420,-0.00138444,0.00017583,-0.000
 01287,-0.00001610,0.00001021,-0.00000148,-0.00000274,0.00001024,-0.000
 00379,-0.00000520,0.00000209,0.00000758,0.00001220,-0.00000120,-0.0000
 0301,0.00001354,0.00000487,0.00000008,-0.00000363,-0.00001103,0.000014
 52,0.00000008,0.00000635,-0.00000129,-0.00000296,-0.00001743,-0.000001
 03,0.,-0.00000010,0.00000366,0.00000145,0.00000290,-0.00000074,-0.0000
 0035,0.00000066,-0.00000300,0.00000023,-0.00002004,0.00000415,-0.00001
 740,-0.00012924,0.00007069,0.00007529,-0.00009006,0.00000814,-0.000040
 06,-0.00023523,-0.00006632,0.00006285,-0.00009058,0.00003389,0.0000185
 4,-0.00006066,-0.00004520,-0.00000872,-0.00044446,0.00005268,-0.000008
 58,0.00046836,0.00101117,0.00339880,-0.33730562,0.01507083,0.27010304,
 0.01039671,0.00220151,-0.01841468,0.32757585,-0.00002979,-0.00002757,0
 .00000977,0.00001842,0.00003358,-0.00002871,-0.00002031,0.00002513,0.0
 0000440,0.00003478,-0.00000789,-0.00001596,0.00002983,0.00003474,0.000
 01156,0.00000794,0.00000889,-0.00000137,-0.00001290,0.00002081,0.00000
 788,0.00008312,-0.00004598,-0.00001710,-0.00003663,-0.00001482,0.00000
 039,0.00001598,-0.00002155,-0.00000538,0.00001458,-0.00000489,-0.00000
 045,-0.00008594,-0.00019949,0.00008443,-0.00021731,-0.00013367,-0.0004
 5987,0.00029178,-0.00009666,-0.00004227,-0.00000919,-0.00000142,-0.000
 00015,0.00000342,-0.00000710,-0.00000565,0.00000804,0.00003427,-0.0000
 1326,-0.00001213,-0.00000094,0.00000445,-0.00000215,-0.00000651,0.0000
 0480,0.00002018,-0.00000646,0.00001089,0.00000439,-0.00000497,0.000004
 68,-0.00002893,0.00002581,-0.00000327,-0.00000463,0.00000277,0.0000004
 8,0.00000180,-0.00000271,-0.00000152,0.00000635,-0.00000038,-0.0000027
 2,0.00000755,-0.00000322,0.00000687,0.00002639,0.00001236,-0.00001367,
 0.00003558,0.00007555,-0.00000112,-0.00002962,0.00025417,-0.00016101,-
 0.00017517,0.00007247,0.00003902,-0.00014267,-0.00003447,-0.00000012,-
 0.00020182,0.00011583,0.00021583,-0.00010097,-0.00027452,0.00073439,0.
 02910083,-0.00561271,-0.00926647,-0.01079387,0.00018007,0.01069256,-0.
 01780543,0.00560767,0.00002034,-0.00002585,-0.00006001,0.00000485,-0.0
 0000802,0.00004945,0.00000804,-0.00001848,-0.00000791,0.00001474,-0.00
 000336,-0.00001364,-0.00000015,0.00000627,0.00003692,-0.00002482,0.000
 00091,-0.00000632,0.00001576,0.00001340,-0.00001215,-0.00001547,-0.000
 01437,-0.00001906,-0.00000280,0.00000552,0.00000753,-0.00000261,-0.000
 00837,-0.00000208,0.00000422,0.00000708,-0.00000069,0.00009651,0.00019
 793,-0.00036522,-0.00241976,-0.00031408,-0.00187522,-0.00000601,-0.000
 13006,-0.00016500,-0.00000528,-0.00000031,-0.00000897,0.00000593,-0.00
 000415,-0.00000270,0.00000541,-0.00001986,0.00004143,0.00002767,0.0000
 0847,0.00000692,0.00000531,0.00000146,-0.00000278,-0.00001047,0.000006
 20,-0.00000457,-0.00000644,0.00000387,-0.00001081,0.00005427,0.0000007
 4,0.00001201,-0.00000199,-0.00000240,0.00000322,-0.00000028,-0.0000005
 8,0.00000273,-0.00000150,-0.00000016,0.00000296,0.00001160,-0.00000790
 ,0.00000748,-0.00009186,0.00004864,0.00007809,-0.00014530,-0.00000487,
 0.00003051,0.00004905,-0.00033577,0.00048712,0.00000034,0.00000985,0.0
 0002183,-0.00004143,-0.00001711,0.00007563,-0.00005692,0.00022778,0.00
 015414,0.00337673,0.00061598,0.00307234,0.21668900,0.00457051,-0.24905
 911,0.03615221,-0.00302350,-0.02500811,-0.25370119,-0.00178952,0.27253
 286,-0.02570252,0.01745402,0.00829791,0.00043020,-0.00074486,0.0018711
 7,0.00035235,-0.00027792,-0.00005046,0.00039142,-0.00029569,-0.0001341
 6,0.00051859,0.00224693,0.00153639,-0.00000503,0.00000217,-0.00004919,
 -0.00008767,-0.00007811,-0.00000703,0.00005080,0.00004048,0.00000268,-
 0.00000508,0.00001438,0.00000315,0.00000425,0.00000855,-0.00003104,0.0
 0001187,0.00005322,-0.00000485,-0.00065572,0.00045361,0.00083959,-0.00
 005992,0.00007723,-0.00011414,0.00001820,0.00002056,0.00000202,-0.0001
 5576,-0.00104852,-0.00059527,-0.00002394,0.00001862,-0.00008240,0.0001
 3016,-0.00008151,0.00014549,0.00012315,-0.00001380,0.00011889,-0.00005
 072,-0.00003200,-0.00004319,0.00000433,-0.00013130,-0.00006838,0.00055
 004,0.00012800,-0.00083163,0.00001346,-0.00002478,0.00001344,0.0000021
 1,0.00000100,0.00000231,0.00000336,-0.00000933,0.00000482,0.00002035,-
 0.00000509,0.00004530,-0.17723674,0.10712154,0.07957433,-0.00055401,-0
 .00134174,-0.00503221,-0.00025527,0.00002132,-0.00003720,0.00014050,-0
 .00011300,0.00017718,-0.00001533,0.00000093,-0.00000124,0.00000255,-0.
 00000028,-0.00000018,-0.00001827,-0.00003822,-0.00000103,0.00003483,0.
 00001885,0.00001426,-0.00001915,-0.00000734,-0.00001342,-0.00000107,0.
 00000302,0.00000447,0.00000368,0.00000082,0.00000218,0.19725438,0.0040
 2047,-0.00398014,-0.00083282,0.00062730,-0.00017965,-0.00115301,-0.000
 18223,0.00019717,0.00022280,-0.00011862,0.00003554,-0.00007257,-0.0015
 3040,0.00111400,0.00033075,-0.00013396,-0.00007503,0.00016753,0.000077
 58,-0.00006853,0.00001038,-0.00005928,0.00018160,0.00005071,-0.0000205
 9,0.00000819,-0.00000016,-0.00011711,-0.00000516,-0.00004038,0.0003815
 5,-0.00009694,-0.00018008,0.00030139,-0.00010787,-0.00017603,0.0000027
 0,-0.00005076,0.00006250,-0.00004452,-0.00000871,0.00002484,0.00007494
 ,0.00024761,-0.00018307,0.00002973,-0.00002035,0.00001167,-0.00001185,
 -0.00004245,-0.00001734,-0.00013426,-0.00006433,-0.00005170,0.00003293
 ,-0.00000492,0.00003921,-0.00003183,-0.00001425,-0.00001657,-0.0000614
 2,0.00000352,0.00071724,-0.00002575,0.00001836,-0.00000145,-0.00001352
 ,0.00001507,0.00000891,0.00000136,-0.00001242,0.00000018,-0.00015688,0
 .00000634,0.00020911,0.11151979,-0.14207433,-0.06928595,-0.00066831,0.
 00087908,0.00112936,0.00000357,-0.00006796,0.00003661,-0.00004713,0.00
 006852,-0.00010856,0.00006171,-0.00001540,-0.00002997,0.00000001,-0.00
 000252,-0.00000293,0.00001802,0.00002522,-0.00000609,-0.00000574,-0.00
 000146,-0.00000330,0.00000164,-0.00000443,0.00000666,0.00000229,0.0000
 0179,-0.00000296,-0.00000155,0.00000298,-0.00000214,-0.12221916,0.1469
 3703,-0.02355964,0.01684377,0.00737857,-0.00181108,0.00065345,0.002383
 53,0.00006519,-0.00012705,-0.00004448,0.00013151,0.00003152,0.00009752
 ,0.00029343,0.00180094,0.00088699,0.00023739,-0.00014481,-0.00020079,-
 0.00011627,0.00002721,0.00004158,0.00002247,-0.00006000,0.00000596,0.0
 0002844,0.00001788,-0.00001332,0.00001883,0.00000812,0.00000333,0.0000
 2789,-0.00002351,0.00004552,-0.00030596,0.00024641,0.00094530,0.000029
 06,0.00001011,0.00002442,0.00003317,-0.00000712,0.00000701,0.00034786,
 -0.00033566,0.00008923,0.00003311,0.00000333,0.00000437,0.00004899,0.0
 0002642,-0.00001042,0.00007591,-0.00004151,0.00002867,0.00002923,-0.00
 003668,-0.00002148,-0.00000241,-0.00022927,-0.00011475,0.00034661,-0.0
 0030135,-0.00039416,0.00000091,-0.00002592,0.00000087,0.00000292,-0.00
 000276,-0.00000514,0.00000127,-0.00000322,0.00000548,0.00002133,0.0000
 5067,-0.00001009,0.08910926,-0.07440465,-0.10382136,-0.00213339,-0.000
 33127,-0.00400186,-0.00036213,0.00016005,-0.00002928,-0.00001054,0.000
 03038,-0.00006284,-0.00003245,0.00001368,-0.00000280,-0.00000450,0.000
 00572,-0.00000076,-0.00001575,-0.00001074,-0.00000566,-0.00001499,-0.0
 0000539,-0.00000651,0.00000938,0.00000442,0.00000622,-0.00000153,-0.00
 000174,-0.00000227,-0.00000268,-0.00000117,-0.00000188,-0.08361132,0.0
 7432488,0.10774014,0.00820529,0.01534646,-0.03020188,-0.00487376,-0.00
 077304,-0.00072552,0.00058079,0.00036845,-0.00168060,0.00015150,0.0003
 0749,0.00012777,0.00148357,0.00102036,-0.00033506,0.00001586,-0.000406
 77,0.00000971,-0.00003277,0.00020983,0.00012147,-0.00003013,-0.0001049
 0,-0.00002395,0.00008990,0.00003043,-0.00000714,0.00009869,0.00013300,
 0.00005049,-0.00011247,0.00005073,0.00013953,0.00012028,-0.00025233,0.
 00045648,0.00005705,-0.00005743,0.00012265,0.00002244,-0.00002015,-0.0
 0000134,-0.00019068,-0.00021007,0.00018355,0.00000332,-0.00003402,0.00
 004815,-0.00002415,-0.00004235,0.00000716,-0.00001188,0.00002817,-0.00
 003179,-0.00046678,0.00001760,-0.00027953,-0.00021389,-0.00015625,0.00
 007955,0.00018815,-0.00020157,-0.00029532,0.00001854,-0.00001710,-0.00
 002926,0.00000804,-0.00000952,-0.00000882,0.00000304,0.00001443,0.0000
 0517,0.00009248,0.00000571,-0.00013872,-0.09230016,-0.05131553,0.09434
 291,0.00128436,0.00011194,-0.00026177,-0.00007936,0.00012436,-0.000001
 64,-0.00009216,0.00009272,-0.00023173,-0.00003071,0.00001425,-0.000000
 67,-0.00000397,0.00000454,0.00000172,0.00000064,0.00001618,-0.00000647
 ,-0.00002577,-0.00001134,-0.00001111,0.00001446,0.00000103,0.00001565,
 0.00000191,-0.00000153,-0.00000572,-0.00000447,0.00000240,-0.00000395,
 -0.00609784,-0.01142678,0.01583075,0.09588161,-0.00105293,-0.00329193,
 0.00285806,0.00066149,0.00003505,-0.00044455,-0.00036527,0.00021016,0.
 00020017,0.00008140,-0.00012675,-0.00002812,-0.00007323,0.00061358,-0.
 00084768,0.00009030,0.00023013,0.00015375,-0.00015172,0.00024369,0.000
 07809,-0.00000166,-0.00012887,-0.00008606,0.00004448,0.00000448,0.0000
 2820,0.00001789,0.00008790,0.00003861,0.00021608,-0.00009050,-0.000044
 54,-0.00030841,0.00023508,-0.00065265,-0.00004295,0.00011863,-0.000175
 72,0.00006526,0.00001206,-0.00004756,0.00023053,0.00002885,-0.00002982
 ,0.00000672,0.00001650,-0.00002441,0.00002596,0.00000305,0.00003606,-0
 .00006573,-0.00001295,-0.00004345,0.00011797,0.00003837,0.00001286,-0.
 00012785,0.00030255,0.00002054,-0.00018193,0.00003339,0.00023309,-0.00
 001647,-0.00001373,0.00002342,-0.00000152,-0.00000374,-0.00000313,-0.0
 0000098,-0.00001149,-0.00000366,-0.00000265,-0.00002128,-0.00003768,-0
 .04607205,-0.10483641,0.10281810,-0.00026000,-0.00019003,0.00101165,0.
 00033834,-0.00017733,0.00006318,0.00013406,-0.00023746,0.00032589,-0.0
 0009047,0.00003067,0.00004349,0.00000134,0.00000204,0.00000989,-0.0000
 3655,-0.00004025,0.00001231,0.00003064,0.00001758,0.00001339,-0.000015
 08,-0.00000667,-0.00002067,-0.00000304,0.00000312,0.00000756,0.0000049
 8,0.00000130,0.00000762,0.00635191,0.00949861,-0.01641462,0.04984336,0
 .10684413,0.00601417,0.01080328,-0.02187050,-0.00406350,-0.00103045,0.
 00019710,0.00052124,0.00060837,-0.00084553,-0.00009033,0.00016386,-0.0
 0005054,0.00124523,0.00077725,0.00059502,-0.00004112,-0.00041902,0.000
 13063,0.00001139,0.00016444,0.00008005,-0.00004919,-0.00001582,0.00001
 608,0.00006763,0.00001924,-0.00004215,0.00002566,0.00008823,0.00006849
 ,0.00002917,-0.00000987,0.00009831,-0.00011514,-0.00006107,0.00026560,
 -0.00000686,-0.00003121,0.00006060,-0.00001280,-0.00000214,0.00000863,
 0.00009425,-0.00014851,-0.00019245,0.00000803,-0.00004686,0.00006422,-
 0.00000308,-0.00005022,0.00002280,-0.00011659,-0.00005848,-0.00007776,
 -0.00032771,-0.00005484,-0.00015152,-0.00063707,-0.00031358,-0.0000407
 9,-0.00012365,-0.00003620,0.00034390,0.00001639,-0.00001126,-0.0000192
 5,0.00000212,-0.00000148,-0.00000252,0.00000215,0.00001106,-0.00000532
 ,-0.00002499,-0.00003817,-0.00004297,0.08345730,0.10011053,-0.23164913
 ,0.00062541,-0.00011547,-0.00025469,-0.00007945,0.00007089,0.00004735,
 -0.00006158,0.00006443,-0.00008149,0.00001361,-0.00000597,-0.00000731,
 0.00000046,-0.00000102,-0.00000079,0.00000678,0.00000626,0.00000085,0.
 00000813,0.00000494,-0.00000116,-0.00000443,-0.00000810,0.00000453,0.0
 0000316,0.00000172,-0.00000206,-0.00000070,0.00000499,-0.00000151,0.00
 360263,0.00604840,-0.00813291,-0.08689644,-0.11212223,0.25257344,-0.01
 541107,-0.02583444,-0.00891829,0.00041826,-0.00068675,0.00098357,-0.00
 015832,-0.00018072,0.00022004,-0.00020290,-0.00149871,-0.00046884,-0.0
 0199666,0.00380274,-0.00273048,0.00019142,0.00005287,0.00011503,-0.000
 05589,-0.00000081,0.00006173,-0.00000821,0.00015215,0.00009174,-0.0000
 3273,-0.00000429,-0.00003672,-0.00006987,-0.00011783,-0.00007624,0.000
 32143,0.00005783,0.00010224,0.00026766,0.00018385,0.00042886,0.0000752
 7,-0.00001497,0.00012670,0.00001221,-0.00001851,0.00004075,0.00014908,
 -0.00022984,-0.00015586,-0.00031990,0.00018596,-0.00034694,-0.00005063
 ,-0.00002213,-0.00004421,0.00002791,0.00002779,-0.00003275,0.00004816,
 0.00003635,-0.00000349,0.00014466,0.00006140,0.00009134,-0.00001222,0.
 00017958,-0.00019042,-0.00004855,0.00000541,-0.00002838,-0.00000914,0.
 00000327,0.00000301,-0.00000858,-0.00001868,0.00001846,-0.00006402,0.0
 0005866,0.00013818,-0.08830832,-0.08849424,-0.02470280,0.00048264,-0.0
 0121863,-0.00024555,-0.00032406,0.00001009,0.00001855,-0.00009183,0.00
 012980,-0.00017552,0.00001014,0.00001150,-0.00003037,-0.00000346,0.000
 00329,-0.00000538,-0.00001686,-0.00000265,-0.00001651,-0.00003470,-0.0
 0002677,-0.00002024,0.00001458,0.00001856,0.00001904,0.00000351,-0.000
 00731,-0.00000664,-0.00000283,-0.00000473,-0.00000594,0.01088348,0.019
 85388,0.00523972,-0.00373097,-0.00939221,-0.00310026,0.09791129,0.0043
 4821,0.00860579,0.00274686,-0.00025934,-0.00004682,0.00011729,-0.00001
 273,-0.00006035,-0.00013221,0.00016500,0.00042809,0.00040030,0.0009262
 7,-0.00018851,0.00089530,0.00067249,-0.00018260,0.00093220,0.00003191,
 0.00031812,0.00012261,-0.00017184,-0.00020243,-0.00009272,0.00018510,-
 0.00011544,-0.00008510,-0.00003455,0.00020107,0.00012684,-0.00026884,-
 0.00048557,0.00056373,-0.00003342,-0.00003511,0.00010363,-0.00001165,-
 0.00002032,0.00001376,-0.00003526,0.00000500,0.00000114,-0.00008618,0.
 00030668,0.00024345,0.00007911,-0.00004066,0.00008824,-0.00001457,0.00
 003182,-0.00004594,0.00001094,0.00000368,0.00001258,0.00000179,0.00001
 353,-0.00001743,0.00010468,-0.00002002,0.00003906,-0.00002370,-0.00008
 955,0.00001463,0.00000282,0.00000756,0.00001749,0.00000595,-0.00000065
 ,-0.00000346,-0.00000320,0.00001243,-0.00000967,0.00007788,-0.00001465
 ,-0.00017069,-0.09796165,-0.27740671,-0.06281301,-0.00030571,0.0004186
 9,-0.00046935,-0.00009377,0.00003421,-0.00001333,-0.00001714,0.0000322
 1,-0.00003573,0.00004233,-0.00002112,-0.00000254,0.00000198,-0.0000039
 6,0.00000459,0.00001296,0.00001158,-0.00000279,0.00000508,-0.00000018,
 0.00000216,-0.00000533,-0.00000030,0.00000188,0.00000158,0.00000006,-0
 .00000011,0.00000083,-0.00000045,-0.00000136,-0.00757451,-0.01234303,-
 0.00175050,-0.00270276,-0.00942154,-0.00436594,0.10293924,0.29026944,-
 0.01166894,-0.02236782,-0.00904715,-0.00021537,-0.00138431,0.00080090,
 -0.00013074,-0.00015361,0.00014627,-0.00070491,-0.00098962,-0.00009930
 ,-0.00178315,0.00287154,-0.00201972,-0.00028221,0.00003917,-0.00052111
 ,-0.00027856,0.00050563,0.00018150,0.00002656,-0.00032092,-0.00011071,
 0.00004103,0.00001865,-0.00000957,0.00018397,0.00008254,0.00003553,0.0
 0032769,0.00045554,-0.00026757,-0.00027618,0.00020722,-0.00007013,0.00
 008126,0.00013620,-0.00007199,0.00017571,-0.00001793,-0.00007153,0.000
 06517,0.00032203,-0.00001076,-0.00019981,0.00011223,-0.00020414,-0.000
 07453,0.00004688,-0.00017984,0.00000753,0.00004573,-0.00001215,0.00003
 697,0.00001597,0.00000190,-0.00040543,-0.00022509,0.00000213,0.0000832
 3,-0.00002634,-0.00015115,-0.00001113,-0.00005201,0.00000367,0.0000084
 1,-0.00002551,-0.00000165,-0.00000784,-0.00000819,0.00001339,0.0000936
 1,-0.00004082,-0.00014896,-0.02343849,-0.05424235,-0.06347479,0.000821
 09,-0.00022632,0.00037306,0.00008332,0.00000302,0.00004209,0.00003467,
 -0.00017368,0.00016279,-0.00021952,0.00009171,0.00007980,-0.00000813,0
 .00001503,0.00001476,-0.00008379,-0.00006361,0.00000801,-0.00002029,-0
 .00001639,-0.00001308,0.00001203,0.00001956,-0.00000351,-0.00000311,-0
 .00000761,0.00000217,0.00000118,-0.00000662,0.00000458,-0.00554985,-0.
 01123469,-0.00281193,0.00963573,0.02303062,0.00889475,0.03364282,0.063
 56414,0.06853345\\-0.00000078,0.00000052,0.00001254,-0.00000029,0.0000
 0315,-0.00001067,0.00000158,0.00000246,0.00000116,0.00000154,-0.000001
 49,0.00000174,-0.00000176,-0.00000081,-0.00000687,0.00000518,-0.000002
 82,-0.00000023,0.00000050,0.00000315,0.00000221,-0.00000132,-0.0000064
 4,-0.00000195,0.00000345,0.00000063,0.00000028,-0.00000107,0.00000245,
 0.00000040,-0.00000201,-0.00000129,-0.00000252,-0.00000353,-0.00000209
 ,0.00001101,-0.00000121,-0.00000634,-0.00000564,0.00000004,0.00000495,
 0.00000501,-0.00000044,0.00000015,0.00000050,-0.00000073,0.00000076,-0
 .00000056,-0.00000009,0.00000011,0.00000070,-0.00000010,0.00000003,-0.
 00000079,0.00000020,0.00000055,-0.00000063,-0.00000092,0.00000070,-0.0
 0000060,0.00000003,0.00000009,0.00000252,-0.00000016,0.00000027,0.0000
 0094,0.00000010,-0.00000008,0.00000011,0.,-0.00000040,0.00000018,-0.00
 000014,0.00000015,0.00000053,-0.00000300,0.00000069,-0.00000699,0.0000
 0346,-0.00000664,-0.00000531,-0.00000104,0.00000037,0.00000075,0.00000
 103,0.00000746,-0.00000768,-0.00000476,-0.00000161,0.00000141,0.,0.000
 00111,-0.00000086,0.00000510,-0.00000115,0.00000428,0.00000147,0.00000
 072,0.00000361,-0.00000096,0.00000104,-0.00000202,-0.00000130,-0.00000
 005,0.00000118,0.00000018,0.00000012,0.00000088,0.00000003,-0.00000134
 ,0.00000015,0.00000045,0.00000081,0.00000158,0.00000125,0.00000010,-0.
 00000036\\\@


 ALTHOUGH J.J. COULD DIAGNOSE THE FAULTS OF AN
 APPARATUS WITH UNCANNY ACCURACY, IT WAS JUST AS
 WELL NOT TO LET HIM HANDLE IT.
   -- GEORGE THOMPSON, ABOUT HIS FATHER
 Job cpu time:       1 days  8 hours 37 minutes 16.9 seconds.
 Elapsed time:       0 days  1 hours 10 minutes  1.7 seconds.
 File lengths (MBytes):  RWF=   1240 Int=      0 D2E=      0 Chk=     32 Scr=      8
 Normal termination of Gaussian 16 at Mon Jul 19 15:24:59 2021.
