 Entering Gaussian System, Link 0=g16
 Input=NicPyWa4h5wB07XDaVDZ130K.gjf
 Output=NicPyWa4h5wB07XDaVDZ130K.log
 Initial command:
 /sw/contrib/gaussian/g16/A03/g16/l1.exe "/gscratch/scrubbed/gds001/Gau-23024.inp" -scrdir="/gscratch/scrubbed/gds001/"
 Entering Link 1 = /sw/contrib/gaussian/g16/A03/g16/l1.exe PID=     23025.
  
 Copyright (c) 1988,1990,1992,1993,1995,1998,2003,2009,2016,
            Gaussian, Inc.  All Rights Reserved.
  
 This is part of the Gaussian(R) 16 program.  It is based on
 the Gaussian(R) 09 system (copyright 2009, Gaussian, Inc.),
 the Gaussian(R) 03 system (copyright 2003, Gaussian, Inc.),
 the Gaussian(R) 98 system (copyright 1998, Gaussian, Inc.),
 the Gaussian(R) 94 system (copyright 1995, Gaussian, Inc.),
 the Gaussian 92(TM) system (copyright 1992, Gaussian, Inc.),
 the Gaussian 90(TM) system (copyright 1990, Gaussian, Inc.),
 the Gaussian 88(TM) system (copyright 1988, Gaussian, Inc.),
 the Gaussian 86(TM) system (copyright 1986, Carnegie Mellon
 University), and the Gaussian 82(TM) system (copyright 1983,
 Carnegie Mellon University). Gaussian is a federally registered
 trademark of Gaussian, Inc.
  
 This software contains proprietary and confidential information,
 including trade secrets, belonging to Gaussian, Inc.
  
 This software is provided under written license and may be
 used, copied, transmitted, or stored only in accord with that
 written license.
  
 The following legend is applicable only to US Government
 contracts under FAR:
  
                    RESTRICTED RIGHTS LEGEND
  
 Use, reproduction and disclosure by the US Government is
 subject to restrictions as set forth in subparagraphs (a)
 and (c) of the Commercial Computer Software - Restricted
 Rights clause in FAR 52.227-19.
  
 Gaussian, Inc.
 340 Quinnipiac St., Bldg. 40, Wallingford CT 06492
  
  
 ---------------------------------------------------------------
 Warning -- This program may not be used in any manner that
 competes with the business of Gaussian, Inc. or will provide
 assistance to any competitor of Gaussian, Inc.  The licensee
 of this program is prohibited from giving any competitor of
 Gaussian, Inc. access to this program.  By using this program,
 the user acknowledges that Gaussian, Inc. is engaged in the
 business of creating and licensing software in the field of
 computational chemistry and represents and warrants to the
 licensee that it is not a competitor of Gaussian, Inc. and that
 it will not use this program in any manner prohibited above.
 ---------------------------------------------------------------
  

 Cite this work as:
 Gaussian 16, Revision A.03,
 M. J. Frisch, G. W. Trucks, H. B. Schlegel, G. E. Scuseria, 
 M. A. Robb, J. R. Cheeseman, G. Scalmani, V. Barone, 
 G. A. Petersson, H. Nakatsuji, X. Li, M. Caricato, A. V. Marenich, 
 J. Bloino, B. G. Janesko, R. Gomperts, B. Mennucci, H. P. Hratchian, 
 J. V. Ortiz, A. F. Izmaylov, J. L. Sonnenberg, D. Williams-Young, 
 F. Ding, F. Lipparini, F. Egidi, J. Goings, B. Peng, A. Petrone, 
 T. Henderson, D. Ranasinghe, V. G. Zakrzewski, J. Gao, N. Rega, 
 G. Zheng, W. Liang, M. Hada, M. Ehara, K. Toyota, R. Fukuda, 
 J. Hasegawa, M. Ishida, T. Nakajima, Y. Honda, O. Kitao, H. Nakai, 
 T. Vreven, K. Throssell, J. A. Montgomery, Jr., J. E. Peralta, 
 F. Ogliaro, M. J. Bearpark, J. J. Heyd, E. N. Brothers, K. N. Kudin, 
 V. N. Staroverov, T. A. Keith, R. Kobayashi, J. Normand, 
 K. Raghavachari, A. P. Rendell, J. C. Burant, S. S. Iyengar, 
 J. Tomasi, M. Cossi, J. M. Millam, M. Klene, C. Adamo, R. Cammi, 
 J. W. Ochterski, R. L. Martin, K. Morokuma, O. Farkas, 
 J. B. Foresman, and D. J. Fox, Gaussian, Inc., Wallingford CT, 2016.
 
 ******************************************
 Gaussian 16:  ES64L-G16RevA.03 25-Dec-2016
                27-Aug-2020 
 ******************************************
 %nprocshared=28
 Will use up to   28 processors via shared memory.
 %mem=41GB
 %chk=NicPyWa4h5.chk
 -----------------------------------------
 # wB97XD/aug-cc-pVDZ Temperature=130 Freq
 -----------------------------------------
 1/10=4,30=1,38=1,112=130000/1,3;
 2/12=2,17=6,18=5,40=1/2;
 3/5=16,7=10,11=2,25=1,30=1,71=2,74=-58,140=1/1,2,3;
 4//1;
 5/5=2,38=5,98=1/2;
 8/6=4,10=90,11=11/1;
 11/6=1,8=1,9=11,15=111,16=1/1,2,10;
 10/6=1/2;
 6/7=2,8=2,9=2,10=2,28=1/1;
 7/8=1,10=1,25=1/1,2,3,16;
 1/10=4,30=1/3;
 99//99;
 ---------------------------
 p-Py Nicotine, W anti, 4H2O
 ---------------------------
 Symbolic Z-matrix:
 Charge =  1 Multiplicity = 1
 C                     1.90033  -2.30481  -0.06792 
 C                     0.87883  -1.36033  -0.18313 
 C                     1.25485  -0.03611  -0.38503 
 N                     2.54892   0.30164  -0.45351 
 C                     3.54471  -0.59209  -0.34498 
 C                     3.24139  -1.92624  -0.15554 
 C                    -0.57946  -1.7462   -0.10505 
 N                    -1.33291  -0.94671   0.86699 
 C                    -2.73514  -1.28069   0.58157 
 C                    -2.81683  -1.27644  -0.95029 
 C                    -1.36477  -1.54319  -1.41527 
 O                     2.82969   2.92249  -0.46306 
 O                     0.79304   3.14689   1.20278 
 O                    -1.25819   1.78188   0.1592 
 H                    -3.40028  -0.55096   1.05892 
 H                    -3.51319  -2.03941  -1.31221 
 H                    -3.16782  -0.30485  -1.3134 
 H                    -1.27325  -2.41841  -2.06711 
 H                    -0.96609  -0.68046  -1.96269 
 H                    -2.97968  -2.27953   0.98823 
 H                    -0.625    -2.81552   0.18262 
 H                     0.53807   0.7794   -0.48527 
 H                     4.55812  -0.20372  -0.40803 
 H                     4.04221  -2.65628  -0.06652 
 H                     1.64718  -3.35248   0.09703 
 C                    -0.9529   -1.18393   2.25296 
 H                     2.76333   1.3315   -0.56363 
 H                    -1.35083   0.85451   0.47477 
 H                    -2.12105   2.04581  -0.20046 
 H                     2.09796   3.19436   0.14053 
 H                     2.89435   3.57819  -1.16043 
 H                     0.598     3.7859    1.89043 
 H                    -0.06037   2.77165   0.89422 
 O                    -3.79538   2.31032  -0.91907 
 H                    -4.51505   2.64689  -0.37785 
 H                    -3.89421   2.74583  -1.77029 
 H                     0.08961  -0.88393   2.41688 
 H                    -1.06767  -2.24681   2.53533 
 H                    -1.58581  -0.57859   2.91181 
 

 GradGradGradGradGradGradGradGradGradGradGradGradGradGradGradGradGradGrad
 Berny optimization.
 Initialization pass.
 Trust Radius=3.00D-01 FncErr=1.00D-07 GrdErr=1.00D-07 EigMax=2.50D+02 EigMin=1.00D-04
 Number of steps in this run=      2 maximum allowed number of steps=      2.
 GradGradGradGradGradGradGradGradGradGradGradGradGradGradGradGradGradGrad

                          Input orientation:                          
 ---------------------------------------------------------------------
 Center     Atomic      Atomic             Coordinates (Angstroms)
 Number     Number       Type             X           Y           Z
 ---------------------------------------------------------------------
      1          6           0        1.900333   -2.304806   -0.067924
      2          6           0        0.878833   -1.360328   -0.183129
      3          6           0        1.254853   -0.036108   -0.385032
      4          7           0        2.548918    0.301637   -0.453505
      5          6           0        3.544708   -0.592090   -0.344978
      6          6           0        3.241386   -1.926242   -0.155541
      7          6           0       -0.579464   -1.746203   -0.105054
      8          7           0       -1.332909   -0.946712    0.866993
      9          6           0       -2.735137   -1.280689    0.581566
     10          6           0       -2.816830   -1.276442   -0.950289
     11          6           0       -1.364767   -1.543194   -1.415269
     12          8           0        2.829686    2.922488   -0.463056
     13          8           0        0.793044    3.146894    1.202781
     14          8           0       -1.258188    1.781876    0.159200
     15          1           0       -3.400279   -0.550963    1.058919
     16          1           0       -3.513188   -2.039415   -1.312205
     17          1           0       -3.167818   -0.304845   -1.313401
     18          1           0       -1.273253   -2.418410   -2.067105
     19          1           0       -0.966089   -0.680462   -1.962690
     20          1           0       -2.979683   -2.279530    0.988229
     21          1           0       -0.624998   -2.815520    0.182615
     22          1           0        0.538072    0.779396   -0.485266
     23          1           0        4.558119   -0.203716   -0.408025
     24          1           0        4.042214   -2.656280   -0.066519
     25          1           0        1.647178   -3.352481    0.097031
     26          6           0       -0.952896   -1.183930    2.252955
     27          1           0        2.763331    1.331501   -0.563627
     28          1           0       -1.350834    0.854512    0.474771
     29          1           0       -2.121049    2.045806   -0.200461
     30          1           0        2.097957    3.194355    0.140532
     31          1           0        2.894352    3.578191   -1.160434
     32          1           0        0.598001    3.785899    1.890432
     33          1           0       -0.060373    2.771649    0.894219
     34          8           0       -3.795380    2.310322   -0.919066
     35          1           0       -4.515048    2.646892   -0.377846
     36          1           0       -3.894206    2.745829   -1.770291
     37          1           0        0.089605   -0.883933    2.416878
     38          1           0       -1.067672   -2.246810    2.535326
     39          1           0       -1.585813   -0.578585    2.911809
 ---------------------------------------------------------------------
                    Distance matrix (angstroms):
                    1          2          3          4          5
     1  C    0.000000
     2  C    1.395985   0.000000
     3  C    2.379956   1.391300   0.000000
     4  N    2.713463   2.371585   1.339166   0.000000
     5  C    2.390423   2.779078   2.356726   1.342432   0.000000
     6  C    1.396213   2.429542   2.751652   2.351965   1.381250
     7  C    2.542206   1.510505   2.523397   3.755242   4.289328
     8  N    3.629372   2.483070   3.015506   4.286102   5.038430
     9  C    4.791475   3.694845   4.289908   5.612162   6.385069
    10  C    4.907925   3.775380   4.293780   5.615014   6.426811
    11  C    3.613346   2.566194   3.192978   4.432304   5.114007
    12  O    5.323949   4.714520   3.352533   2.635865   3.588517
    13  O    5.706296   4.716265   3.586909   3.731201   4.893589
    14  O    5.169991   3.815428   3.149068   4.130444   5.381238
    15  H    5.695808   4.528637   4.901053   6.197362   7.085581
    16  H    5.561014   4.585392   5.254246   6.554923   7.269400
    17  H    5.589026   4.332083   4.527042   5.812771   6.788104
    18  H    3.752503   3.049652   3.859540   4.960983   5.432671
    19  H    3.800659   2.651941   2.799425   3.949358   4.792921
    20  H    4.993061   4.135838   4.984986   6.269486   6.869685
    21  H    2.588609   2.124349   3.403115   4.493891   4.754834
    22  H    3.397386   2.187653   1.090353   2.067067   3.307645
    23  H    3.405007   3.863350   3.307595   2.072279   1.087111
    24  H    2.170528   3.420536   3.838767   3.336010   2.141479
    25  H    1.090376   2.153490   3.374112   3.803788   3.378720
    26  C    3.844965   3.053007   3.626379   4.668462   5.227616
    27  H    3.770042   3.307878   2.043956   1.057695   2.087716
    28  H    4.565730   3.210882   2.884800   4.046657   5.170201
    29  H    5.925952   4.538870   3.970535   4.991468   6.251414
    30  H    5.506658   4.726114   3.379783   2.987317   4.082398
    31  H    6.065584   5.422768   4.043805   3.369700   4.298741
    32  H    6.529006   5.555373   4.496324   4.630356   5.731224
    33  H    5.526344   4.372187   3.354072   3.837410   5.083990
    34  O    7.380040   5.988618   5.594263   6.670958   7.913941
    35  H    8.110023   6.722327   6.363199   7.443491   8.686297
    36  H    7.872970   6.493189   6.014227   7.015828   8.277117
    37  H    3.387013   2.758599   3.150763   3.961426   4.432918
    38  H    3.948332   3.459007   4.337029   5.339234   5.684039
    39  H    4.900190   4.032895   4.385525   5.403344   6.076931
                    6          7          8          9         10
     6  C    0.000000
     7  C    3.825423   0.000000
     8  N    4.788448   1.466881   0.000000
     9  C    6.056310   2.309778   1.469440   0.000000
    10  C    6.144579   2.437397   2.369231   1.534038   0.000000
    11  C    4.790646   1.540966   2.359137   2.436016   1.547853
    12  O    4.875884   5.791990   5.836689   7.051609   7.053478
    13  O    5.794491   5.247534   4.624937   5.695389   6.101869
    14  O    5.839124   3.602477   2.819884   3.426233   3.607442
    15  H    6.890430   3.277259   2.113639   1.096713   2.214419
    16  H    6.853827   3.185894   3.270554   2.183437   1.094543
    17  H    6.711741   3.199561   2.921130   2.174945   1.095009
    18  H    4.927299   2.186973   3.283045   3.232178   2.221261
    19  H    4.745588   2.176257   2.865755   3.156429   2.192120
    20  H    6.335197   2.690865   2.122019   1.105830   2.188734
    21  H    3.981719   1.108271   2.112334   2.639613   2.907982
    22  H    3.838893   2.787848   2.882468   4.011979   3.962081
    23  H    2.182803   5.372692   6.073049   7.438464   7.472260
    24  H    1.087293   4.710587   5.717168   6.945844   7.052056
    25  H    2.153938   2.752981   3.906595   4.871528   5.033308
    26  C    4.893249   2.452715   1.456562   2.445258   3.707234
    27  H    3.317825   4.566928   4.900623   6.194203   6.171634
    28  H    5.405402   2.773973   1.843520   2.546916   2.953118
    29  H    6.673447   4.094499   3.273498   3.471922   3.476160
    30  H    5.255055   5.624767   5.426511   6.601464   6.732982
    31  H    5.606160   6.444408   6.515746   7.637698   7.498615
    32  H    6.618311   5.997711   5.212816   6.204293   6.734839
    33  H    5.837276   4.656070   3.930178   4.865548   5.233288
    34  O    8.249092   5.240241   4.456685   4.033779   3.717985
    35  H    9.006955   5.904449   4.958792   4.417516   4.313257
    36  H    8.680572   5.825709   5.210602   4.804947   4.244032
    37  H    4.199699   2.747964   2.104669   3.391895   4.465338
    38  H    5.090335   2.731403   2.131652   2.744268   4.018791
    39  H    5.875940   3.387851   2.093024   2.691455   4.113175
                   11         12         13         14         15
    11  C    0.000000
    12  O    6.200198   0.000000
    13  O    5.788546   2.640697   0.000000
    14  O    3.680544   4.289395   2.675797   0.000000
    15  H    3.354018   7.293403   5.592745   3.292444   0.000000
    16  H    2.207390   8.097752   7.194900   4.674647   2.801868
    17  H    2.189721   6.863586   5.825298   3.188988   2.396354
    18  H    1.095111   6.923314   6.777488   4.753847   4.217063
    19  H    1.096777   5.444085   5.269099   3.263564   3.882290
    20  H    2.987800   7.931960   6.612532   4.488413   1.780405
    21  H    2.172396   6.728779   6.213048   4.640854   3.687589
    22  H    3.143267   3.137647   2.918829   2.155656   4.434520
    23  H    6.155430   3.572627   5.291226   6.172013   8.099914
    24  H    5.682740   5.722772   6.770898   6.916823   7.815988
    25  H    3.825230   6.409934   6.647865   5.899715   5.852397
    26  C    3.708716   6.208648   4.786148   3.643215   2.795720
    27  H    5.101996   1.595543   3.209031   4.110709   6.645782
    28  H    3.053103   4.757393   3.221991   0.983957   2.552805
    29  H    3.863760   5.034611   3.416639   0.971362   3.156846
    30  H    6.070860   0.986741   1.683278   3.641312   6.715761
    31  H    6.665855   0.959408   3.191598   4.712936   7.848428
    32  H    6.571100   3.356308   0.958766   3.233993   5.957015
    33  H    5.064884   3.196465   0.982008   1.718914   4.714006
    34  O    4.582977   6.668897   5.124034   2.807001   3.500783
    35  H    5.343907   7.350397   5.560955   3.412302   3.678761
    36  H    4.991976   6.852065   5.565099   3.405985   4.372326
    37  H    4.151527   5.503717   4.268070   3.744355   3.759549
    38  H    4.023747   7.134517   5.859179   4.681088   3.239866
    39  H    4.438799   6.568398   4.739085   3.640875   2.593502
                   16         17         18         19         20
    16  H    0.000000
    17  H    1.768620   0.000000
    18  H    2.393913   2.936767   0.000000
    19  H    2.959324   2.326000   1.767969   0.000000
    20  H    2.373664   3.038466   3.502322   3.914014   0.000000
    21  H    3.343421   3.873950   2.374694   3.045841   2.545750
    22  H    5.004221   3.949051   4.001134   2.564462   4.889051
    23  H    8.326664   7.779462   6.454635   5.758571   7.942102
    24  H    7.682210   7.685605   5.684463   5.708101   7.110659
    25  H    5.508127   5.870399   3.752984   4.267470   4.832525
    26  C    4.471836   4.289238   4.504385   4.245623   2.628257
    27  H    7.163668   6.198251   5.711067   4.462504   6.959167
    28  H    4.030369   2.800553   4.144776   2.906095   3.569175
    29  H    4.456799   2.803555   4.912468   3.445565   4.567140
    30  H    7.809465   6.487427   6.909548   5.368997   7.514282
    31  H    8.522740   7.200783   7.358682   5.803684   8.569360
    32  H    7.816204   6.417174   7.593230   6.102566   7.099523
    33  H    6.319539   4.898430   6.097313   4.571578   5.834862
    34  O    4.376574   2.718167   5.480878   4.247214   5.036852
    35  H    4.882440   3.376839   6.246608   5.116456   5.337897
    36  H    4.822196   3.169069   5.798867   4.511137   5.805172
    37  H    5.312374   4.986094   4.931339   4.509602   3.661865
    38  H    4.563667   4.795262   4.610215   4.764023   2.459749
    39  H    4.867350   4.519964   5.317164   4.914792   2.921686
                   21         22         23         24         25
    21  H    0.000000
    22  H    3.836954   0.000000
    23  H    5.833959   4.139233   0.000000
    24  H    4.676569   4.925264   2.529398   0.000000
    25  H    2.336329   4.317591   4.317798   2.499528   0.000000
    26  C    2.656296   3.684493   6.197816   5.700780   4.013852
    27  H    5.406980   2.294066   2.366932   4.217233   4.860242
    28  H    3.752510   2.120207   6.067528   6.457834   5.179725
    29  H    5.100726   2.959026   7.050866   7.753281   6.590109
    30  H    6.598095   2.942260   4.230863   6.168706   6.562481
    31  H    7.420859   3.720371   4.199650   6.432952   7.153382
    32  H    6.927561   3.832309   6.073094   7.562667   7.434617
    33  H    5.660533   2.496034   5.646158   6.871437   6.407512
    34  O    6.126931   4.616354   8.738564   9.317824   7.919674
    35  H    6.729380   5.388237   9.510480  10.072105   8.613421
    36  H    6.740190   5.016297   9.055241   9.750507   8.448859
    37  H    3.038687   3.374941   5.330140   4.993155   3.728465
    38  H    2.460618   4.567309   6.669863   5.748756   3.812899
    39  H    3.657259   4.230262   6.993549   6.697906   5.105850
                   26         27         28         29         30
    26  C    0.000000
    27  H    5.298195   0.000000
    28  H    2.734143   4.269911   0.000000
    29  H    4.220785   4.949676   1.571099   0.000000
    30  H    5.739287   2.099711   4.180998   4.385824   0.000000
    31  H    7.009304   2.328296   5.302257   5.331416   1.572923
    32  H    5.218803   4.090859   3.794085   3.846166   2.379484
    33  H    4.276607   3.488932   2.348753   2.443677   2.324890
    34  O    5.509195   6.640867   3.168275   1.841126   6.052742
    35  H    5.855360   7.398619   3.735215   2.474672   6.655845
    36  H    6.346717   6.912247   3.884086   2.469511   6.305429
    37  H    1.097122   4.576065   2.978059   4.507863   5.084060
    38  H    1.105722   6.089696   3.734202   5.198143   6.735171
    39  H    1.095954   5.885757   2.836924   4.106109   5.956947
                   31         32         33         34         35
    31  H    0.000000
    32  H    3.824154   0.000000
    33  H    3.688158   1.566716   0.000000
    34  O    6.813095   5.419631   4.177452   0.000000
    35  H    7.508593   5.708388   4.634419   0.961312   0.000000
    36  H    6.866533   5.887492   4.668892   0.961258   1.527788
    37  H    6.369797   4.726832   3.962861   6.035304   6.440500
    38  H    7.955307   6.291576   5.375204   6.335666   6.657274
    39  H    7.343965   4.986078   4.197821   5.282383   5.459483
                   36         37         38         39
    36  H    0.000000
    37  H    6.824830   0.000000
    38  H    7.173150   1.791858   0.000000
    39  H    6.188899   1.773477   1.786948   0.000000
 Stoichiometry    C10H23N2O4(1+)
 Framework group  C1[X(C10H23N2O4)]
 Deg. of freedom   111
 Full point group                 C1      NOp   1
 Largest Abelian subgroup         C1      NOp   1
 Largest concise Abelian subgroup C1      NOp   1
                         Standard orientation:                         
 ---------------------------------------------------------------------
 Center     Atomic      Atomic             Coordinates (Angstroms)
 Number     Number       Type             X           Y           Z
 ---------------------------------------------------------------------
      1          6           0        1.900333   -2.304806   -0.067924
      2          6           0        0.878833   -1.360328   -0.183129
      3          6           0        1.254853   -0.036108   -0.385032
      4          7           0        2.548918    0.301637   -0.453505
      5          6           0        3.544708   -0.592090   -0.344978
      6          6           0        3.241386   -1.926242   -0.155541
      7          6           0       -0.579464   -1.746203   -0.105054
      8          7           0       -1.332909   -0.946712    0.866993
      9          6           0       -2.735137   -1.280689    0.581566
     10          6           0       -2.816830   -1.276442   -0.950289
     11          6           0       -1.364767   -1.543194   -1.415269
     12          8           0        2.829686    2.922488   -0.463056
     13          8           0        0.793044    3.146894    1.202781
     14          8           0       -1.258188    1.781876    0.159200
     15          1           0       -3.400279   -0.550963    1.058919
     16          1           0       -3.513188   -2.039415   -1.312205
     17          1           0       -3.167818   -0.304845   -1.313401
     18          1           0       -1.273253   -2.418410   -2.067105
     19          1           0       -0.966089   -0.680462   -1.962690
     20          1           0       -2.979683   -2.279530    0.988229
     21          1           0       -0.624998   -2.815520    0.182615
     22          1           0        0.538072    0.779396   -0.485266
     23          1           0        4.558119   -0.203717   -0.408025
     24          1           0        4.042214   -2.656281   -0.066519
     25          1           0        1.647178   -3.352481    0.097031
     26          6           0       -0.952896   -1.183930    2.252955
     27          1           0        2.763331    1.331501   -0.563627
     28          1           0       -1.350834    0.854512    0.474771
     29          1           0       -2.121049    2.045806   -0.200461
     30          1           0        2.097957    3.194355    0.140532
     31          1           0        2.894352    3.578191   -1.160434
     32          1           0        0.598001    3.785899    1.890432
     33          1           0       -0.060373    2.771649    0.894219
     34          8           0       -3.795380    2.310322   -0.919066
     35          1           0       -4.515048    2.646893   -0.377846
     36          1           0       -3.894206    2.745829   -1.770291
     37          1           0        0.089605   -0.883933    2.416878
     38          1           0       -1.067672   -2.246810    2.535326
     39          1           0       -1.585813   -0.578585    2.911809
 ---------------------------------------------------------------------
 Rotational constants (GHZ):           0.4956021           0.3519849           0.2464828
 Standard basis: Aug-CC-pVDZ (5D, 7F)
 There are   607 symmetry adapted cartesian basis functions of A   symmetry.
 There are   575 symmetry adapted basis functions of A   symmetry.
   575 basis functions,   941 primitive gaussians,   607 cartesian basis functions
    64 alpha electrons       64 beta electrons
       nuclear repulsion energy      1237.5856564064 Hartrees.
 NAtoms=   39 NActive=   39 NUniq=   39 SFac= 1.00D+00 NAtFMM=   60 NAOKFM=F Big=F
 Integral buffers will be    131072 words long.
 Raffenetti 2 integral format.
 Two-electron integral symmetry is turned on.
 Nuclear repulsion after empirical dispersion term =     1237.5551213825 Hartrees.
 One-electron integrals computed using PRISM.
 NBasis=   575 RedAO= T EigKep=  1.88D-06  NBF=   575
 NBsUse=   575 1.00D-06 EigRej= -1.00D+00 NBFU=   575
 ExpMin= 2.97D-02 ExpMax= 1.17D+04 ExpMxC= 4.01D+02 IAcc=3 IRadAn=         5 AccDes= 0.00D+00
 Harris functional with IExCor= 4639 and IRadAn=       5 diagonalized for initial guess.
 HarFok:  IExCor= 4639 AccDes= 0.00D+00 IRadAn=         5 IDoV= 1 UseB2=F ITyADJ=14
 ICtDFT=  3500011 ScaDFX=  1.000000  1.000000  1.000000  1.000000
 FoFCou: FMM=F IPFlag=           0 FMFlag=      100000 FMFlg1=           0
         NFxFlg=           0 DoJE=T BraDBF=F KetDBF=T FulRan=T
         wScrn=  0.000000 ICntrl=       500 IOpCl=  0 I1Cent=   200000004 NGrid=           0
         NMat0=    1 NMatS0=      1 NMatT0=    0 NMatD0=    1 NMtDS0=    0 NMtDT0=    0
 Petite list used in FoFCou.
 Requested convergence on RMS density matrix=1.00D-08 within 128 cycles.
 Requested convergence on MAX density matrix=1.00D-06.
 Requested convergence on             energy=1.00D-06.
 No special actions if energy rises.
 SCF Done:  E(RwB97XD) =  -805.034102477     A.U. after   16 cycles
            NFock= 16  Conv=0.16D-08     -V/T= 2.0062
 DoSCS=F DFT=T ScalE2(SS,OS)=  1.000000  1.000000
 Range of M.O.s used for correlation:     1   575
 NBasis=   575 NAE=    64 NBE=    64 NFC=     0 NFV=     0
 NROrb=    575 NOA=    64 NOB=    64 NVA=   511 NVB=   511

 **** Warning!!: The largest alpha MO coefficient is  0.10147879D+03

 Symmetrizing basis deriv contribution to polar:
 IMax=3 JMax=2 DiffMx= 0.00D+00
 G2DrvN: will do    40 centers at a time, making    1 passes.
 Calling FoFCou, ICntrl=  3107 FMM=F I1Cent=   0 AccDes= 0.00D+00.
 End of G2Drv F.D. properties file   721 does not exist.
 End of G2Drv F.D. properties file   722 does not exist.
 End of G2Drv F.D. properties file   788 does not exist.
          IDoAtm=111111111111111111111111111111111111111
          Differentiating once with respect to electric field.
                with respect to dipole field.
          Differentiating once with respect to nuclear coordinates.
 CalDSu exits because no D1Ps are significant.
          There are   120 degrees of freedom in the 1st order CPHF.  IDoFFX=6 NUNeed=     3.
    117 vectors produced by pass  0 Test12= 3.27D-14 1.00D-09 XBig12= 7.87D+01 3.82D+00.
 AX will form   117 AO Fock derivatives at one time.
    117 vectors produced by pass  1 Test12= 3.27D-14 1.00D-09 XBig12= 1.20D+01 6.15D-01.
    117 vectors produced by pass  2 Test12= 3.27D-14 1.00D-09 XBig12= 2.84D-01 5.09D-02.
    117 vectors produced by pass  3 Test12= 3.27D-14 1.00D-09 XBig12= 2.95D-03 5.45D-03.
    117 vectors produced by pass  4 Test12= 3.27D-14 1.00D-09 XBig12= 2.62D-05 5.44D-04.
    117 vectors produced by pass  5 Test12= 3.27D-14 1.00D-09 XBig12= 1.58D-07 2.51D-05.
    113 vectors produced by pass  6 Test12= 3.27D-14 1.00D-09 XBig12= 8.00D-10 1.50D-06.
     45 vectors produced by pass  7 Test12= 3.27D-14 1.00D-09 XBig12= 3.71D-12 1.06D-07.
      3 vectors produced by pass  8 Test12= 3.27D-14 1.00D-09 XBig12= 1.99D-14 9.64D-09.
      3 vectors produced by pass  9 Test12= 3.27D-14 1.00D-09 XBig12= 2.69D-15 2.87D-09.
 InvSVY:  IOpt=1 It=  1 EMax= 8.40D-15
 Solved reduced A of dimension   866 with   120 vectors.
 Isotropic polarizability for W=    0.000000      162.97 Bohr**3.
 End of Minotr F.D. properties file   721 does not exist.
 End of Minotr F.D. properties file   722 does not exist.
 End of Minotr F.D. properties file   788 does not exist.

 **********************************************************************

            Population analysis using the SCF density.

 **********************************************************************

 Orbital symmetries:
       Occupied  (A) (A) (A) (A) (A) (A) (A) (A) (A) (A) (A) (A)
                 (A) (A) (A) (A) (A) (A) (A) (A) (A) (A) (A) (A)
                 (A) (A) (A) (A) (A) (A) (A) (A) (A) (A) (A) (A)
                 (A) (A) (A) (A) (A) (A) (A) (A) (A) (A) (A) (A)
                 (A) (A) (A) (A) (A) (A) (A) (A) (A) (A) (A) (A)
                 (A) (A) (A) (A)
       Virtual   (A) (A) (A) (A) (A) (A) (A) (A) (A) (A) (A) (A)
                 (A) (A) (A) (A) (A) (A) (A) (A) (A) (A) (A) (A)
                 (A) (A) (A) (A) (A) (A) (A) (A) (A) (A) (A) (A)
                 (A) (A) (A) (A) (A) (A) (A) (A) (A) (A) (A) (A)
                 (A) (A) (A) (A) (A) (A) (A) (A) (A) (A) (A) (A)
                 (A) (A) (A) (A) (A) (A) (A) (A) (A) (A) (A) (A)
                 (A) (A) (A) (A) (A) (A) (A) (A) (A) (A) (A) (A)
                 (A) (A) (A) (A) (A) (A) (A) (A) (A) (A) (A) (A)
                 (A) (A) (A) (A) (A) (A) (A) (A) (A) (A) (A) (A)
                 (A) (A) (A) (A) (A) (A) (A) (A) (A) (A) (A) (A)
                 (A) (A) (A) (A) (A) (A) (A) (A) (A) (A) (A) (A)
                 (A) (A) (A) (A) (A) (A) (A) (A) (A) (A) (A) (A)
                 (A) (A) (A) (A) (A) (A) (A) (A) (A) (A) (A) (A)
                 (A) (A) (A) (A) (A) (A) (A) (A) (A) (A) (A) (A)
                 (A) (A) (A) (A) (A) (A) (A) (A) (A) (A) (A) (A)
                 (A) (A) (A) (A) (A) (A) (A) (A) (A) (A) (A) (A)
                 (A) (A) (A) (A) (A) (A) (A) (A) (A) (A) (A) (A)
                 (A) (A) (A) (A) (A) (A) (A) (A) (A) (A) (A) (A)
                 (A) (A) (A) (A) (A) (A) (A) (A) (A) (A) (A) (A)
                 (A) (A) (A) (A) (A) (A) (A) (A) (A) (A) (A) (A)
                 (A) (A) (A) (A) (A) (A) (A) (A) (A) (A) (A) (A)
                 (A) (A) (A) (A) (A) (A) (A) (A) (A) (A) (A) (A)
                 (A) (A) (A) (A) (A) (A) (A) (A) (A) (A) (A) (A)
                 (A) (A) (A) (A) (A) (A) (A) (A) (A) (A) (A) (A)
                 (A) (A) (A) (A) (A) (A) (A) (A) (A) (A) (A) (A)
                 (A) (A) (A) (A) (A) (A) (A) (A) (A) (A) (A) (A)
                 (A) (A) (A) (A) (A) (A) (A) (A) (A) (A) (A) (A)
                 (A) (A) (A) (A) (A) (A) (A) (A) (A) (A) (A) (A)
                 (A) (A) (A) (A) (A) (A) (A) (A) (A) (A) (A) (A)
                 (A) (A) (A) (A) (A) (A) (A) (A) (A) (A) (A) (A)
                 (A) (A) (A) (A) (A) (A) (A) (A) (A) (A) (A) (A)
                 (A) (A) (A) (A) (A) (A) (A) (A) (A) (A) (A) (A)
                 (A) (A) (A) (A) (A) (A) (A) (A) (A) (A) (A) (A)
                 (A) (A) (A) (A) (A) (A) (A) (A) (A) (A) (A) (A)
                 (A) (A) (A) (A) (A) (A) (A) (A) (A) (A) (A) (A)
                 (A) (A) (A) (A) (A) (A) (A) (A) (A) (A) (A) (A)
                 (A) (A) (A) (A) (A) (A) (A) (A) (A) (A) (A) (A)
                 (A) (A) (A) (A) (A) (A) (A) (A) (A) (A) (A) (A)
                 (A) (A) (A) (A) (A) (A) (A) (A) (A) (A) (A) (A)
                 (A) (A) (A) (A) (A) (A) (A) (A) (A) (A) (A) (A)
                 (A) (A) (A) (A) (A) (A) (A) (A) (A) (A) (A) (A)
                 (A) (A) (A) (A) (A) (A) (A) (A) (A) (A) (A) (A)
                 (A) (A) (A) (A) (A) (A) (A)
 The electronic state is 1-A.
 Alpha  occ. eigenvalues --  -19.40340 -19.38791 -19.37360 -19.36434 -14.67103
 Alpha  occ. eigenvalues --  -14.57475 -10.50668 -10.50049 -10.47486 -10.46897
 Alpha  occ. eigenvalues --  -10.46557 -10.46017 -10.42908 -10.42706 -10.41154
 Alpha  occ. eigenvalues --  -10.39976  -1.25498  -1.24635  -1.23304  -1.21709
 Alpha  occ. eigenvalues --   -1.20283  -1.17009  -1.07936  -1.04308  -1.00093
 Alpha  occ. eigenvalues --   -0.95530  -0.90241  -0.89288  -0.88381  -0.82184
 Alpha  occ. eigenvalues --   -0.79235  -0.79161  -0.74903  -0.74819  -0.74413
 Alpha  occ. eigenvalues --   -0.73861  -0.72863  -0.72493  -0.70647  -0.69232
 Alpha  occ. eigenvalues --   -0.68331  -0.67559  -0.65242  -0.64185  -0.63403
 Alpha  occ. eigenvalues --   -0.62608  -0.62106  -0.61236  -0.59910  -0.58376
 Alpha  occ. eigenvalues --   -0.57678  -0.56953  -0.56288  -0.55754  -0.55230
 Alpha  occ. eigenvalues --   -0.53523  -0.53304  -0.52982  -0.52505  -0.51416
 Alpha  occ. eigenvalues --   -0.51117  -0.50252  -0.48961  -0.43765
 Alpha virt. eigenvalues --   -0.13516  -0.10666  -0.06223  -0.05547  -0.04776
 Alpha virt. eigenvalues --   -0.04155  -0.03776  -0.02938  -0.02802  -0.02438
 Alpha virt. eigenvalues --   -0.02143  -0.01507  -0.01144  -0.00401  -0.00081
 Alpha virt. eigenvalues --    0.00145   0.00385   0.00491   0.01233   0.01628
 Alpha virt. eigenvalues --    0.02087   0.02237   0.02420   0.02965   0.03044
 Alpha virt. eigenvalues --    0.03464   0.03693   0.03852   0.04211   0.04575
 Alpha virt. eigenvalues --    0.05086   0.05369   0.05625   0.05735   0.06055
 Alpha virt. eigenvalues --    0.06372   0.06672   0.06889   0.07105   0.07288
 Alpha virt. eigenvalues --    0.07663   0.07870   0.08386   0.08555   0.08878
 Alpha virt. eigenvalues --    0.09185   0.09480   0.09663   0.10274   0.10438
 Alpha virt. eigenvalues --    0.10731   0.11022   0.11465   0.11736   0.12122
 Alpha virt. eigenvalues --    0.12461   0.12602   0.12791   0.13284   0.13630
 Alpha virt. eigenvalues --    0.14001   0.14052   0.14540   0.14836   0.15114
 Alpha virt. eigenvalues --    0.15448   0.15877   0.15933   0.16047   0.16581
 Alpha virt. eigenvalues --    0.16649   0.17026   0.17530   0.17606   0.17832
 Alpha virt. eigenvalues --    0.18000   0.18312   0.18578   0.19164   0.19268
 Alpha virt. eigenvalues --    0.19633   0.19772   0.20005   0.20292   0.20844
 Alpha virt. eigenvalues --    0.21022   0.21105   0.21242   0.21958   0.22254
 Alpha virt. eigenvalues --    0.22611   0.22879   0.23101   0.23850   0.24290
 Alpha virt. eigenvalues --    0.24396   0.24868   0.25356   0.25624   0.25757
 Alpha virt. eigenvalues --    0.25924   0.26116   0.26387   0.26792   0.26896
 Alpha virt. eigenvalues --    0.27541   0.27761   0.28393   0.28587   0.29194
 Alpha virt. eigenvalues --    0.29622   0.30197   0.30643   0.31529   0.31717
 Alpha virt. eigenvalues --    0.31983   0.32180   0.32312   0.32619   0.33097
 Alpha virt. eigenvalues --    0.33368   0.33956   0.34209   0.34247   0.35055
 Alpha virt. eigenvalues --    0.35326   0.35597   0.36200   0.36717   0.37035
 Alpha virt. eigenvalues --    0.37398   0.38127   0.38244   0.38630   0.38983
 Alpha virt. eigenvalues --    0.39731   0.39984   0.40322   0.40988   0.41232
 Alpha virt. eigenvalues --    0.41616   0.42206   0.42575   0.42890   0.43180
 Alpha virt. eigenvalues --    0.43889   0.44368   0.44712   0.45021   0.45094
 Alpha virt. eigenvalues --    0.45829   0.46334   0.46433   0.46998   0.47140
 Alpha virt. eigenvalues --    0.47358   0.48039   0.48420   0.49080   0.49594
 Alpha virt. eigenvalues --    0.49787   0.50215   0.50390   0.50849   0.51239
 Alpha virt. eigenvalues --    0.51454   0.51650   0.51951   0.52189   0.52807
 Alpha virt. eigenvalues --    0.52959   0.53343   0.53733   0.54065   0.54625
 Alpha virt. eigenvalues --    0.54663   0.55332   0.55969   0.56045   0.56402
 Alpha virt. eigenvalues --    0.57191   0.57316   0.57728   0.58307   0.58470
 Alpha virt. eigenvalues --    0.58819   0.58923   0.59902   0.60020   0.60733
 Alpha virt. eigenvalues --    0.60896   0.61252   0.61953   0.62357   0.62571
 Alpha virt. eigenvalues --    0.62988   0.63426   0.63741   0.64480   0.64992
 Alpha virt. eigenvalues --    0.65217   0.66019   0.66420   0.67200   0.67336
 Alpha virt. eigenvalues --    0.67800   0.68429   0.68773   0.69175   0.69558
 Alpha virt. eigenvalues --    0.69727   0.70246   0.70690   0.71173   0.71253
 Alpha virt. eigenvalues --    0.72434   0.72650   0.73124   0.73753   0.73919
 Alpha virt. eigenvalues --    0.74002   0.74448   0.75081   0.75631   0.76176
 Alpha virt. eigenvalues --    0.76841   0.77117   0.77325   0.77983   0.78436
 Alpha virt. eigenvalues --    0.79345   0.79776   0.80486   0.81056   0.81325
 Alpha virt. eigenvalues --    0.81703   0.82596   0.83573   0.84282   0.84602
 Alpha virt. eigenvalues --    0.85134   0.85502   0.86101   0.87164   0.88179
 Alpha virt. eigenvalues --    0.88837   0.89215   0.89789   0.89847   0.91226
 Alpha virt. eigenvalues --    0.92188   0.92487   0.93347   0.93970   0.94500
 Alpha virt. eigenvalues --    0.95006   0.95289   0.95716   0.97432   0.98135
 Alpha virt. eigenvalues --    0.98291   0.98927   1.00384   1.01339   1.01971
 Alpha virt. eigenvalues --    1.02424   1.03385   1.03627   1.04993   1.05521
 Alpha virt. eigenvalues --    1.05794   1.06762   1.07671   1.09431   1.09782
 Alpha virt. eigenvalues --    1.10279   1.10617   1.11054   1.11883   1.13230
 Alpha virt. eigenvalues --    1.13359   1.13991   1.14233   1.15754   1.16581
 Alpha virt. eigenvalues --    1.16918   1.18250   1.19062   1.20826   1.20978
 Alpha virt. eigenvalues --    1.21299   1.22611   1.23543   1.24007   1.24713
 Alpha virt. eigenvalues --    1.25933   1.26913   1.28174   1.29200   1.30004
 Alpha virt. eigenvalues --    1.31022   1.31745   1.31925   1.32691   1.33184
 Alpha virt. eigenvalues --    1.33524   1.35241   1.35894   1.36799   1.37715
 Alpha virt. eigenvalues --    1.38052   1.38228   1.39514   1.40750   1.42266
 Alpha virt. eigenvalues --    1.42493   1.43579   1.44426   1.45652   1.45889
 Alpha virt. eigenvalues --    1.46499   1.47107   1.48760   1.49588   1.50804
 Alpha virt. eigenvalues --    1.51400   1.53226   1.53760   1.54359   1.54794
 Alpha virt. eigenvalues --    1.56085   1.57087   1.58521   1.59067   1.60567
 Alpha virt. eigenvalues --    1.61212   1.61814   1.62664   1.63342   1.64004
 Alpha virt. eigenvalues --    1.64983   1.65500   1.66201   1.66577   1.67845
 Alpha virt. eigenvalues --    1.68045   1.68364   1.70519   1.70973   1.71567
 Alpha virt. eigenvalues --    1.72492   1.72961   1.73182   1.74782   1.75461
 Alpha virt. eigenvalues --    1.76303   1.77715   1.77826   1.78485   1.80212
 Alpha virt. eigenvalues --    1.80410   1.81198   1.82024   1.82791   1.83462
 Alpha virt. eigenvalues --    1.84350   1.84798   1.85340   1.85519   1.87374
 Alpha virt. eigenvalues --    1.87783   1.89828   1.90165   1.90382   1.91290
 Alpha virt. eigenvalues --    1.91867   1.92669   1.93088   1.94203   1.94715
 Alpha virt. eigenvalues --    1.95560   1.96150   1.96743   1.97121   1.98275
 Alpha virt. eigenvalues --    1.99799   2.00245   2.01346   2.01800   2.03068
 Alpha virt. eigenvalues --    2.03752   2.04713   2.05504   2.05827   2.07131
 Alpha virt. eigenvalues --    2.07526   2.10061   2.10557   2.11069   2.11887
 Alpha virt. eigenvalues --    2.12169   2.13210   2.13986   2.14405   2.15598
 Alpha virt. eigenvalues --    2.16914   2.17474   2.17994   2.19247   2.19921
 Alpha virt. eigenvalues --    2.21849   2.22464   2.23884   2.25052   2.25349
 Alpha virt. eigenvalues --    2.26342   2.27307   2.27790   2.29128   2.29776
 Alpha virt. eigenvalues --    2.30655   2.30946   2.32753   2.33163   2.33992
 Alpha virt. eigenvalues --    2.36294   2.36989   2.38303   2.39105   2.39690
 Alpha virt. eigenvalues --    2.41951   2.42457   2.42982   2.44714   2.46207
 Alpha virt. eigenvalues --    2.46736   2.48318   2.49530   2.50741   2.51850
 Alpha virt. eigenvalues --    2.52537   2.53952   2.54889   2.55842   2.56407
 Alpha virt. eigenvalues --    2.57636   2.59390   2.61013   2.62281   2.62407
 Alpha virt. eigenvalues --    2.64715   2.65348   2.66551   2.67770   2.69364
 Alpha virt. eigenvalues --    2.70258   2.71171   2.72533   2.73678   2.74307
 Alpha virt. eigenvalues --    2.76421   2.76559   2.78312   2.79530   2.80849
 Alpha virt. eigenvalues --    2.82897   2.83994   2.85763   2.87160   2.87619
 Alpha virt. eigenvalues --    2.88871   2.91411   2.92481   2.93535   2.96603
 Alpha virt. eigenvalues --    2.97268   3.01597   3.05373   3.07285   3.09707
 Alpha virt. eigenvalues --    3.12993   3.17119   3.20737   3.23803   3.30072
 Alpha virt. eigenvalues --    3.31318   3.37648   3.40220   3.41773   3.42740
 Alpha virt. eigenvalues --    3.43248   3.43909   3.46689   3.47569   3.53499
 Alpha virt. eigenvalues --    3.55953   3.57196   3.57792   3.65424   3.68773
 Alpha virt. eigenvalues --    3.71606   3.76862   3.80894   3.85971   3.91586
 Alpha virt. eigenvalues --    4.00906   4.05488   4.07318   4.16989   4.37319
 Alpha virt. eigenvalues --    5.07172
          Condensed to atoms (all electrons):
               1          2          3          4          5          6
     1  C   23.696378  -9.644550  -2.769112  -0.260041   1.625632  -4.510578
     2  C   -9.644550  24.478081  -3.073511  -0.364752  -0.567964   0.455599
     3  C   -2.769112  -3.073511  16.817911  -1.324857  -1.800758   0.579782
     4  N   -0.260041  -0.364752  -1.324857   7.867427   0.306098   0.015616
     5  C    1.625632  -0.567964  -1.800758   0.306098   9.918697  -2.411534
     6  C   -4.510578   0.455599   0.579782   0.015616  -2.411534  11.623941
     7  C   -0.517072 -10.167083  -2.439961   1.116502  -0.665730   0.213338
     8  N   -0.340749   2.162039   0.594947  -0.145820   0.115013  -0.225825
     9  C   -0.024953  -0.381775  -0.256820   0.050378  -0.005610  -0.054762
    10  C    0.045604   0.314438  -0.118500   0.048881   0.005590  -0.014473
    11  C   -0.409232   0.296157  -0.729580   0.007112  -0.073514   0.035460
    12  O    0.032687  -0.071153   0.006015  -0.138128   0.034224  -0.018017
    13  O   -0.006321   0.010741  -0.024599  -0.002139   0.009163  -0.004345
    14  O   -0.006165   0.008307  -0.095266  -0.005389  -0.015615   0.009950
    15  H    0.021545  -0.196798  -0.027956   0.005060   0.001494  -0.002521
    16  H    0.004674   0.004850   0.022308  -0.002421   0.001096  -0.000754
    17  H    0.006960  -0.091694  -0.051887   0.011215  -0.001027  -0.001943
    18  H   -0.071069   0.458851   0.261597  -0.014526   0.003796  -0.002301
    19  H    0.055449   0.025328  -0.122611   0.000262   0.012315  -0.017399
    20  H    0.011737   0.162493   0.027259  -0.001724  -0.001545   0.001526
    21  H   -0.006092   1.149701  -0.230806  -0.000741   0.038344  -0.008322
    22  H   -0.170204  -0.960016  -1.126323   0.160485  -0.206034   0.123867
    23  H    0.247595  -0.129034   0.206262  -0.107466  -0.494151   0.073767
    24  H    0.613417  -0.027635  -0.187601  -0.006189   0.367797  -1.093230
    25  H   -2.608472   1.274824   0.307436  -0.087966  -0.220330   0.768964
    26  C   -0.237286   0.681840   0.113256  -0.072073  -0.010542   0.042279
    27  H   -0.025545  -0.407766   0.750599  -0.084274  -0.637563  -0.013919
    28  H    0.023371  -0.171385  -0.006842   0.002074  -0.012425   0.009632
    29  H    0.002489  -0.001013  -0.016451   0.000980  -0.001535   0.001598
    30  H   -0.002573   0.006528  -0.024569   0.012127  -0.005841   0.003362
    31  H   -0.000046   0.000077   0.013587  -0.012086  -0.011809   0.003462
    32  H   -0.000336   0.004021  -0.009397   0.004184  -0.000421   0.000970
    33  H   -0.005826   0.002621   0.034600  -0.000286   0.010466  -0.007229
    34  O   -0.000297  -0.005172   0.006486  -0.000264   0.000198  -0.000228
    35  H   -0.000131   0.000978   0.000428  -0.000187   0.000009  -0.000008
    36  H    0.000123  -0.000946   0.001061   0.000055   0.000094  -0.000071
    37  H   -0.055761   0.037596   0.122063  -0.003803  -0.043070   0.066824
    38  H    0.004549   0.117921  -0.001187  -0.004478   0.015186  -0.020419
    39  H   -0.004402   0.002175  -0.040770  -0.002560  -0.002641   0.008591
               7          8          9         10         11         12
     1  C   -0.517072  -0.340749  -0.024953   0.045604  -0.409232   0.032687
     2  C  -10.167083   2.162039  -0.381775   0.314438   0.296157  -0.071153
     3  C   -2.439961   0.594947  -0.256820  -0.118500  -0.729580   0.006015
     4  N    1.116502  -0.145820   0.050378   0.048881   0.007112  -0.138128
     5  C   -0.665730   0.115013  -0.005610   0.005590  -0.073514   0.034224
     6  C    0.213338  -0.225825  -0.054762  -0.014473   0.035460  -0.018017
     7  C   28.821196  -6.742560  -0.768238   0.551195  -1.802921   0.009526
     8  N   -6.742560  14.810447   0.272856  -0.989789  -0.359705   0.001168
     9  C   -0.768238   0.272856   6.326489  -0.686513   1.110851   0.000169
    10  C    0.551195  -0.989789  -0.686513   7.970580  -1.776531  -0.001186
    11  C   -1.802921  -0.359705   1.110851  -1.776531   8.751450  -0.001033
    12  O    0.009526   0.001168   0.000169  -0.001186  -0.001033   7.940357
    13  O    0.006769  -0.002504   0.003554  -0.000870  -0.002203  -0.056243
    14  O   -0.021353  -0.025750   0.044628  -0.034494   0.022710   0.002749
    15  H    0.761844  -0.998203  -0.371581   0.199870   0.015375   0.000014
    16  H    0.012323  -0.199737   0.202595  -0.459198   0.280877  -0.000059
    17  H    0.117352   0.236069   0.095367  -0.608692   0.316933  -0.000415
    18  H   -0.097348   0.449745  -0.236337   0.168904  -1.070190   0.000138
    19  H   -0.197526  -0.099786   0.042095   0.330303  -0.196383   0.001798
    20  H   -0.001874  -0.230370  -0.296448   0.106030  -0.021455   0.000012
    21  H   -2.756317  -0.329323  -0.023717  -0.009294   0.686005   0.000190
    22  H    0.503910  -0.283264  -0.010812   0.078854  -0.000985  -0.003512
    23  H   -0.031049   0.006346  -0.001172   0.000838   0.003551   0.013626
    24  H    0.091201  -0.001731   0.000540   0.000473  -0.003567  -0.000284
    25  H   -0.324816   0.040160  -0.008856  -0.015658   0.000116   0.000246
    26  C   -1.410042   1.319797  -0.185198  -0.239661  -0.069390   0.000482
    27  H   -0.047384   0.004897  -0.002685  -0.005814  -0.024303   0.004128
    28  H    0.519332  -0.296194  -0.120414   0.095975  -0.057444   0.000023
    29  H    0.022943  -0.031465   0.000000   0.000103   0.017813   0.002925
    30  H    0.011920  -0.000706   0.000118  -0.000630   0.000080   0.312845
    31  H   -0.001829   0.000310   0.000079   0.000073   0.000715   0.376007
    32  H    0.001809   0.001543  -0.001832   0.000711  -0.001027   0.002005
    33  H   -0.010314  -0.010837   0.013684   0.003488   0.005692  -0.007340
    34  O   -0.006592   0.019470   0.020829  -0.068152   0.019272  -0.000170
    35  H    0.000639  -0.001055  -0.006565   0.007562  -0.002787  -0.000038
    36  H   -0.000186   0.000094   0.006099  -0.007834   0.002391   0.000000
    37  H   -0.088421   0.123907  -0.079014  -0.071948   0.085958   0.000950
    38  H   -0.217994  -0.371347   0.081874   0.013972   0.046865  -0.000022
    39  H    0.156901  -0.232492   0.002022   0.081676  -0.080976  -0.000083
              13         14         15         16         17         18
     1  C   -0.006321  -0.006165   0.021545   0.004674   0.006960  -0.071069
     2  C    0.010741   0.008307  -0.196798   0.004850  -0.091694   0.458851
     3  C   -0.024599  -0.095266  -0.027956   0.022308  -0.051887   0.261597
     4  N   -0.002139  -0.005389   0.005060  -0.002421   0.011215  -0.014526
     5  C    0.009163  -0.015615   0.001494   0.001096  -0.001027   0.003796
     6  C   -0.004345   0.009950  -0.002521  -0.000754  -0.001943  -0.002301
     7  C    0.006769  -0.021353   0.761844   0.012323   0.117352  -0.097348
     8  N   -0.002504  -0.025750  -0.998203  -0.199737   0.236069   0.449745
     9  C    0.003554   0.044628  -0.371581   0.202595   0.095367  -0.236337
    10  C   -0.000870  -0.034494   0.199870  -0.459198  -0.608692   0.168904
    11  C   -0.002203   0.022710   0.015375   0.280877   0.316933  -1.070190
    12  O   -0.056243   0.002749   0.000014  -0.000059  -0.000415   0.000138
    13  O    7.822644  -0.026312  -0.000407  -0.000171   0.001090  -0.000005
    14  O   -0.026312   8.140549   0.011453  -0.004696   0.016103   0.004718
    15  H   -0.000407   0.011453   3.019635   0.157226  -0.357075  -0.044002
    16  H   -0.000171  -0.004696   0.157226   2.281318  -0.667495  -0.324073
    17  H    0.001090   0.016103  -0.357075  -0.667495   2.423954   0.202430
    18  H   -0.000005   0.004718  -0.044002  -0.324073   0.202430   2.679783
    19  H   -0.001605  -0.025769   0.047406   0.218461  -0.462411  -0.710006
    20  H    0.000151   0.005687  -0.673784  -0.264588   0.216550   0.057295
    21  H    0.000123  -0.007184   0.101591   0.073610  -0.070552  -0.343914
    22  H    0.013892   0.060450  -0.018723  -0.014526   0.046682   0.067396
    23  H    0.000228  -0.000392  -0.000086   0.000048   0.000127   0.000692
    24  H   -0.000015   0.000243   0.000148  -0.000029  -0.000014  -0.001511
    25  H   -0.000236  -0.000488  -0.003786   0.000781  -0.001362   0.013148
    26  C    0.002027   0.027768  -0.187681  -0.030862   0.032842   0.091368
    27  H   -0.005015  -0.004582  -0.000170   0.000020  -0.001567   0.001182
    28  H    0.002029   0.115522   0.083156   0.008836  -0.022963  -0.027761
    29  H    0.006689   0.321767   0.010249   0.001394  -0.001292   0.003217
    30  H    0.036955  -0.003384   0.000240  -0.000011  -0.000092  -0.000211
    31  H   -0.005017   0.000229  -0.000011   0.000009  -0.000053  -0.000067
    32  H    0.364475  -0.003890  -0.000304   0.000035  -0.000021   0.000037
    33  H    0.263965   0.046450  -0.000876   0.000175   0.000288  -0.000572
    34  O   -0.000272  -0.078430   0.010028   0.009468  -0.030611  -0.000369
    35  H   -0.000107   0.005067  -0.005732  -0.000419   0.007293   0.000100
    36  H   -0.000079   0.002429   0.002280   0.000340   0.000006  -0.000318
    37  H   -0.003765   0.011909   0.007910   0.001110  -0.010295  -0.002196
    38  H   -0.000072  -0.005394   0.030006   0.005570  -0.002994   0.008762
    39  H    0.000901   0.006941  -0.023378  -0.005574   0.016680   0.003177
              19         20         21         22         23         24
     1  C    0.055449   0.011737  -0.006092  -0.170204   0.247595   0.613417
     2  C    0.025328   0.162493   1.149701  -0.960016  -0.129034  -0.027635
     3  C   -0.122611   0.027259  -0.230806  -1.126323   0.206262  -0.187601
     4  N    0.000262  -0.001724  -0.000741   0.160485  -0.107466  -0.006189
     5  C    0.012315  -0.001545   0.038344  -0.206034  -0.494151   0.367797
     6  C   -0.017399   0.001526  -0.008322   0.123867   0.073767  -1.093230
     7  C   -0.197526  -0.001874  -2.756317   0.503910  -0.031049   0.091201
     8  N   -0.099786  -0.230370  -0.329323  -0.283264   0.006346  -0.001731
     9  C    0.042095  -0.296448  -0.023717  -0.010812  -0.001172   0.000540
    10  C    0.330303   0.106030  -0.009294   0.078854   0.000838   0.000473
    11  C   -0.196383  -0.021455   0.686005  -0.000985   0.003551  -0.003567
    12  O    0.001798   0.000012   0.000190  -0.003512   0.013626  -0.000284
    13  O   -0.001605   0.000151   0.000123   0.013892   0.000228  -0.000015
    14  O   -0.025769   0.005687  -0.007184   0.060450  -0.000392   0.000243
    15  H    0.047406  -0.673784   0.101591  -0.018723  -0.000086   0.000148
    16  H    0.218461  -0.264588   0.073610  -0.014526   0.000048  -0.000029
    17  H   -0.462411   0.216550  -0.070552   0.046682   0.000127  -0.000014
    18  H   -0.710006   0.057295  -0.343914   0.067396   0.000692  -0.001511
    19  H    2.414524  -0.057942   0.224780  -0.170286  -0.001447   0.000376
    20  H   -0.057942   2.590482  -0.112501   0.012691  -0.000031  -0.000177
    21  H    0.224780  -0.112501   3.631528  -0.030733   0.002160   0.000791
    22  H   -0.170286   0.012691  -0.030733   4.279256   0.026054  -0.007567
    23  H   -0.001447  -0.000031   0.002160   0.026054   2.105203  -0.105070
    24  H    0.000376  -0.000177   0.000791  -0.007567  -0.105070   2.047169
    25  H    0.003724   0.003770  -0.174778  -0.020031  -0.010467  -0.129392
    26  C   -0.038110  -0.015094  -0.072269   0.022438   0.002547  -0.006681
    27  H   -0.000513   0.000451  -0.004721  -0.121760  -0.189674   0.010159
    28  H    0.026055   0.010322   0.015529  -0.066663   0.001131   0.000187
    29  H    0.006530  -0.000230   0.000671   0.009158  -0.000330  -0.000046
    30  H    0.000386  -0.000083   0.000323  -0.001071   0.000465  -0.000084
    31  H    0.000896   0.000002   0.000011  -0.003793   0.003063  -0.000177
    32  H   -0.000389  -0.000108  -0.000022   0.007665   0.000000  -0.000001
    33  H    0.001778   0.000663   0.000456  -0.038892  -0.001070   0.000433
    34  O    0.009257  -0.004051  -0.000474   0.000214   0.000018  -0.000012
    35  H   -0.001040   0.001203   0.000036   0.001539   0.000005  -0.000001
    36  H    0.001522  -0.000626   0.000054  -0.002551  -0.000002  -0.000000
    37  H    0.010109   0.000170   0.013993  -0.009589  -0.002829   0.000505
    38  H    0.002595   0.016787   0.093405  -0.005878   0.000372  -0.000240
    39  H   -0.009249   0.031062   0.006751   0.020575   0.000420  -0.000816
              25         26         27         28         29         30
     1  C   -2.608472  -0.237286  -0.025545   0.023371   0.002489  -0.002573
     2  C    1.274824   0.681840  -0.407766  -0.171385  -0.001013   0.006528
     3  C    0.307436   0.113256   0.750599  -0.006842  -0.016451  -0.024569
     4  N   -0.087966  -0.072073  -0.084274   0.002074   0.000980   0.012127
     5  C   -0.220330  -0.010542  -0.637563  -0.012425  -0.001535  -0.005841
     6  C    0.768964   0.042279  -0.013919   0.009632   0.001598   0.003362
     7  C   -0.324816  -1.410042  -0.047384   0.519332   0.022943   0.011920
     8  N    0.040160   1.319797   0.004897  -0.296194  -0.031465  -0.000706
     9  C   -0.008856  -0.185198  -0.002685  -0.120414   0.000000   0.000118
    10  C   -0.015658  -0.239661  -0.005814   0.095975   0.000103  -0.000630
    11  C    0.000116  -0.069390  -0.024303  -0.057444   0.017813   0.000080
    12  O    0.000246   0.000482   0.004128   0.000023   0.002925   0.312845
    13  O   -0.000236   0.002027  -0.005015   0.002029   0.006689   0.036955
    14  O   -0.000488   0.027768  -0.004582   0.115522   0.321767  -0.003384
    15  H   -0.003786  -0.187681  -0.000170   0.083156   0.010249   0.000240
    16  H    0.000781  -0.030862   0.000020   0.008836   0.001394  -0.000011
    17  H   -0.001362   0.032842  -0.001567  -0.022963  -0.001292  -0.000092
    18  H    0.013148   0.091368   0.001182  -0.027761   0.003217  -0.000211
    19  H    0.003724  -0.038110  -0.000513   0.026055   0.006530   0.000386
    20  H    0.003770  -0.015094   0.000451   0.010322  -0.000230  -0.000083
    21  H   -0.174778  -0.072269  -0.004721   0.015529   0.000671   0.000323
    22  H   -0.020031   0.022438  -0.121760  -0.066663   0.009158  -0.001071
    23  H   -0.010467   0.002547  -0.189674   0.001131  -0.000330   0.000465
    24  H   -0.129392  -0.006681   0.010159   0.000187  -0.000046  -0.000084
    25  H    3.034320   0.040214   0.010522  -0.004186   0.000182  -0.000383
    26  C    0.040214   4.935018   0.001771  -0.140762   0.012065  -0.000964
    27  H    0.010522   0.001771   1.713343  -0.000752   0.002563  -0.010207
    28  H   -0.004186  -0.140762  -0.000752   0.686613  -0.210767   0.005152
    29  H    0.000182   0.012065   0.002563  -0.210767   0.676071  -0.001036
    30  H   -0.000383  -0.000964  -0.010207   0.005152  -0.001036   0.528726
    31  H    0.000038   0.000069   0.007471  -0.000595   0.000458  -0.100735
    32  H   -0.000019   0.000094  -0.000823   0.000193   0.003097  -0.005392
    33  H   -0.000085  -0.015477   0.002121  -0.007696  -0.011487  -0.006259
    34  O    0.000036   0.001018  -0.000244   0.012442  -0.045406  -0.000271
    35  H    0.000015   0.000052  -0.000014   0.000837  -0.001524  -0.000018
    36  H   -0.000005  -0.000146   0.000095  -0.000346  -0.005112   0.000014
    37  H    0.003798   0.077288   0.001556   0.015804  -0.002728  -0.000098
    38  H    0.003944   0.209971   0.001328  -0.036787   0.006378  -0.000359
    39  H    0.002648   0.192758  -0.001820   0.032104  -0.002565   0.000263
              31         32         33         34         35         36
     1  C   -0.000046  -0.000336  -0.005826  -0.000297  -0.000131   0.000123
     2  C    0.000077   0.004021   0.002621  -0.005172   0.000978  -0.000946
     3  C    0.013587  -0.009397   0.034600   0.006486   0.000428   0.001061
     4  N   -0.012086   0.004184  -0.000286  -0.000264  -0.000187   0.000055
     5  C   -0.011809  -0.000421   0.010466   0.000198   0.000009   0.000094
     6  C    0.003462   0.000970  -0.007229  -0.000228  -0.000008  -0.000071
     7  C   -0.001829   0.001809  -0.010314  -0.006592   0.000639  -0.000186
     8  N    0.000310   0.001543  -0.010837   0.019470  -0.001055   0.000094
     9  C    0.000079  -0.001832   0.013684   0.020829  -0.006565   0.006099
    10  C    0.000073   0.000711   0.003488  -0.068152   0.007562  -0.007834
    11  C    0.000715  -0.001027   0.005692   0.019272  -0.002787   0.002391
    12  O    0.376007   0.002005  -0.007340  -0.000170  -0.000038   0.000000
    13  O   -0.005017   0.364475   0.263965  -0.000272  -0.000107  -0.000079
    14  O    0.000229  -0.003890   0.046450  -0.078430   0.005067   0.002429
    15  H   -0.000011  -0.000304  -0.000876   0.010028  -0.005732   0.002280
    16  H    0.000009   0.000035   0.000175   0.009468  -0.000419   0.000340
    17  H   -0.000053  -0.000021   0.000288  -0.030611   0.007293   0.000006
    18  H   -0.000067   0.000037  -0.000572  -0.000369   0.000100  -0.000318
    19  H    0.000896  -0.000389   0.001778   0.009257  -0.001040   0.001522
    20  H    0.000002  -0.000108   0.000663  -0.004051   0.001203  -0.000626
    21  H    0.000011  -0.000022   0.000456  -0.000474   0.000036   0.000054
    22  H   -0.003793   0.007665  -0.038892   0.000214   0.001539  -0.002551
    23  H    0.003063   0.000000  -0.001070   0.000018   0.000005  -0.000002
    24  H   -0.000177  -0.000001   0.000433  -0.000012  -0.000001  -0.000000
    25  H    0.000038  -0.000019  -0.000085   0.000036   0.000015  -0.000005
    26  C    0.000069   0.000094  -0.015477   0.001018   0.000052  -0.000146
    27  H    0.007471  -0.000823   0.002121  -0.000244  -0.000014   0.000095
    28  H   -0.000595   0.000193  -0.007696   0.012442   0.000837  -0.000346
    29  H    0.000458   0.003097  -0.011487  -0.045406  -0.001524  -0.005112
    30  H   -0.100735  -0.005392  -0.006259  -0.000271  -0.000018   0.000014
    31  H    0.572983  -0.000356   0.000800   0.000070   0.000006  -0.000014
    32  H   -0.000356   0.600727  -0.131987  -0.000909  -0.000000  -0.000109
    33  H    0.000800  -0.131987   0.562458   0.008310  -0.000359   0.001098
    34  O    0.000070  -0.000909   0.008310   7.950176   0.317069   0.346337
    35  H    0.000006  -0.000000  -0.000359   0.317069   0.536058  -0.081623
    36  H   -0.000014  -0.000109   0.001098   0.346337  -0.081623   0.522527
    37  H   -0.000046  -0.001133   0.002311  -0.000322  -0.000081   0.000103
    38  H   -0.000002   0.000287  -0.000758   0.000004  -0.000032  -0.000047
    39  H    0.000032   0.000896  -0.003664  -0.000015   0.000507  -0.000251
              37         38         39
     1  C   -0.055761   0.004549  -0.004402
     2  C    0.037596   0.117921   0.002175
     3  C    0.122063  -0.001187  -0.040770
     4  N   -0.003803  -0.004478  -0.002560
     5  C   -0.043070   0.015186  -0.002641
     6  C    0.066824  -0.020419   0.008591
     7  C   -0.088421  -0.217994   0.156901
     8  N    0.123907  -0.371347  -0.232492
     9  C   -0.079014   0.081874   0.002022
    10  C   -0.071948   0.013972   0.081676
    11  C    0.085958   0.046865  -0.080976
    12  O    0.000950  -0.000022  -0.000083
    13  O   -0.003765  -0.000072   0.000901
    14  O    0.011909  -0.005394   0.006941
    15  H    0.007910   0.030006  -0.023378
    16  H    0.001110   0.005570  -0.005574
    17  H   -0.010295  -0.002994   0.016680
    18  H   -0.002196   0.008762   0.003177
    19  H    0.010109   0.002595  -0.009249
    20  H    0.000170   0.016787   0.031062
    21  H    0.013993   0.093405   0.006751
    22  H   -0.009589  -0.005878   0.020575
    23  H   -0.002829   0.000372   0.000420
    24  H    0.000505  -0.000240  -0.000816
    25  H    0.003798   0.003944   0.002648
    26  C    0.077288   0.209971   0.192758
    27  H    0.001556   0.001328  -0.001820
    28  H    0.015804  -0.036787   0.032104
    29  H   -0.002728   0.006378  -0.002565
    30  H   -0.000098  -0.000359   0.000263
    31  H   -0.000046  -0.000002   0.000032
    32  H   -0.001133   0.000287   0.000896
    33  H    0.002311  -0.000758  -0.003664
    34  O   -0.000322   0.000004  -0.000015
    35  H   -0.000081  -0.000032   0.000507
    36  H    0.000103  -0.000047  -0.000251
    37  H    2.010644  -0.409754  -0.639422
    38  H   -0.409754   1.925635  -0.338144
    39  H   -0.639422  -0.338144   2.019427
 Mulliken charges:
               1
     1  C    1.284604
     2  C    0.607081
     3  C    0.613766
     4  N    0.033712
     5  C    0.724447
     6  C    0.369351
     7  C    1.397911
     8  N   -1.239595
     9  C    1.249076
    10  C    1.084118
    11  C    0.977843
    12  O   -0.444601
    13  O   -0.403094
    14  O   -0.501077
    15  H   -0.573456
    16  H   -0.312509
    17  H   -0.363483
    18  H   -0.529559
    19  H   -0.323476
    20  H   -0.573711
    21  H   -0.858291
    22  H   -1.161913
    23  H   -0.620245
    24  H   -0.561368
    25  H   -0.897568
    26  C    0.925276
    27  H    0.078911
    28  H    0.517664
    29  H    0.223647
    30  H    0.245472
    31  H    0.156186
    32  H    0.165732
    33  H    0.299153
    34  O   -0.488441
    35  H    0.222320
    36  H    0.213543
    37  H   -0.170233
    38  H   -0.169504
    39  H   -0.197688
 Sum of Mulliken charges =   1.00000
 Mulliken charges with hydrogens summed into heavy atoms:
               1
     1  C    0.387036
     2  C    0.607081
     3  C   -0.548147
     4  N    0.112623
     5  C    0.104202
     6  C   -0.192018
     7  C    0.539621
     8  N   -1.239595
     9  C    0.101908
    10  C    0.408126
    11  C    0.124808
    12  O   -0.042943
    13  O    0.061791
    14  O    0.240233
    26  C    0.387850
    34  O   -0.052577
 APT charges:
               1
     1  C    0.146153
     2  C   -0.031295
     3  C    0.082034
     4  N   -0.330114
     5  C    0.124548
     6  C   -0.114492
     7  C    0.320802
     8  N   -0.691333
     9  C    0.316266
    10  C    0.064392
    11  C    0.045500
    12  O   -0.788301
    13  O   -0.715768
    14  O   -0.861208
    15  H   -0.015264
    16  H   -0.013198
    17  H    0.000420
    18  H   -0.007437
    19  H   -0.008839
    20  H   -0.059202
    21  H   -0.074374
    22  H    0.183170
    23  H    0.107965
    24  H    0.089298
    25  H    0.080648
    26  C    0.283544
    27  H    0.601610
    28  H    0.439795
    29  H    0.410619
    30  H    0.464189
    31  H    0.280166
    32  H    0.271905
    33  H    0.457834
    34  O   -0.569026
    35  H    0.275984
    36  H    0.275852
    37  H   -0.007594
    38  H   -0.042643
    39  H    0.007393
 Sum of APT charges =   1.00000
 APT charges with hydrogens summed into heavy atoms:
               1
     1  C    0.226801
     2  C   -0.031295
     3  C    0.265204
     4  N    0.271496
     5  C    0.232513
     6  C   -0.025194
     7  C    0.246428
     8  N   -0.691333
     9  C    0.241800
    10  C    0.051614
    11  C    0.029224
    12  O   -0.043947
    13  O    0.013971
    14  O   -0.010793
    26  C    0.240700
    34  O   -0.017190
 Electronic spatial extent (au):  <R**2>=           4718.8872
 Charge=              1.0000 electrons
 Dipole moment (field-independent basis, Debye):
    X=              0.8697    Y=              0.4249    Z=             -1.3032  Tot=              1.6234
 Quadrupole moment (field-independent basis, Debye-Ang):
   XX=            -43.7410   YY=            -59.6630   ZZ=            -87.5273
   XY=            -15.3850   XZ=             -1.8229   YZ=             -4.5529
 Traceless Quadrupole moment (field-independent basis, Debye-Ang):
   XX=             19.9028   YY=              3.9808   ZZ=            -23.8836
   XY=            -15.3850   XZ=             -1.8229   YZ=             -4.5529
 Octapole moment (field-independent basis, Debye-Ang**2):
  XXX=            -21.5430  YYY=            107.2825  ZZZ=              3.5751  XYY=            -12.3115
  XXY=             55.6304  XXZ=            -35.5748  XZZ=            -20.1716  YZZ=             43.1890
  YYZ=             -8.1330  XYZ=              3.0093
 Hexadecapole moment (field-independent basis, Debye-Ang**3):
 XXXX=          -2181.7176 YYYY=          -1558.5020 ZZZZ=           -601.5026 XXXY=           -425.1893
 XXXZ=             13.8991 YYYX=            -96.1722 YYYZ=             -8.4808 ZZZX=             29.6684
 ZZZY=            -10.3120 XXYY=           -517.0400 XXZZ=           -572.4137 YYZZ=           -338.0390
 XXYZ=           -108.8639 YYXZ=             22.2909 ZZXY=             -3.4776
 N-N= 1.237555121382D+03 E-N=-4.338775639076D+03  KE= 8.000495728019D+02
  Exact polarizability: 193.547  -0.481 165.678  -1.816  -2.935 129.692
 Approx polarizability: 193.317  -1.276 185.000  -1.689  -5.570 146.472
 Calling FoFJK, ICntrl=    100127 FMM=F ISym2X=0 I1Cent= 0 IOpClX= 0 NMat=1 NMatS=1 NMatT=0.
 Full mass-weighted force constant matrix:
 Low frequencies ---   -3.0956   -0.0007    0.0007    0.0010    0.9148    6.0751
 Low frequencies ---   19.9957   34.0661   36.3486
 Diagonal vibrational polarizability:
      125.2812967     158.3455224     281.4200483
 Harmonic frequencies (cm**-1), IR intensities (KM/Mole), Raman scattering
 activities (A**4/AMU), depolarization ratios for plane and unpolarized
 incident light, reduced masses (AMU), force constants (mDyne/A),
 and normal coordinates:
                      1                      2                      3
                      A                      A                      A
 Frequencies --     19.9749                34.0644                36.3477
 Red. masses --      4.6895                 4.7169                 4.4833
 Frc consts  --      0.0011                 0.0032                 0.0035
 IR Inten    --      2.6347                 0.6823                 0.4772
  Atom  AN      X      Y      Z        X      Y      Z        X      Y      Z
     1   6     0.01   0.01   0.13    -0.02  -0.03  -0.05    -0.00  -0.04  -0.09
     2   6     0.01  -0.00   0.01    -0.01  -0.01  -0.01     0.02  -0.01   0.00
     3   6     0.01  -0.01  -0.04     0.02  -0.00   0.05     0.05  -0.01   0.05
     4   7     0.01  -0.01   0.01     0.02  -0.02   0.07     0.05  -0.04   0.04
     5   6     0.01   0.01   0.12     0.01  -0.04   0.04     0.03  -0.07  -0.05
     6   6     0.02   0.02   0.18    -0.02  -0.05  -0.02     0.00  -0.07  -0.12
     7   6     0.01  -0.01  -0.04    -0.01   0.01  -0.04     0.01   0.02   0.03
     8   7    -0.02  -0.01  -0.06     0.01  -0.06   0.03     0.02   0.10  -0.03
     9   6    -0.01  -0.00  -0.11     0.00  -0.03   0.02     0.02   0.09  -0.01
    10   6     0.04   0.03  -0.11    -0.02   0.07   0.02     0.02  -0.04  -0.01
    11   6     0.05   0.00  -0.06    -0.02   0.14  -0.02     0.02  -0.05   0.01
    12   8     0.02  -0.01  -0.13     0.09  -0.03   0.05     0.09  -0.04   0.20
    13   8     0.04  -0.01  -0.11    -0.08   0.32  -0.22    -0.08   0.03  -0.02
    14   8     0.01  -0.02  -0.06    -0.01  -0.03   0.08    -0.02   0.05  -0.17
    15   1    -0.02  -0.00  -0.12     0.01  -0.05   0.08     0.02   0.13  -0.07
    16   1     0.03   0.05  -0.14    -0.00   0.08  -0.02     0.03  -0.08   0.05
    17   1     0.07   0.04  -0.10    -0.05   0.09   0.09    -0.00  -0.07  -0.09
    18   1     0.05  -0.00  -0.06    -0.01   0.21  -0.11     0.04  -0.07   0.05
    19   1     0.08  -0.01  -0.06    -0.03   0.21   0.08     0.02  -0.07  -0.02
    20   1    -0.03  -0.01  -0.13    -0.01  -0.05  -0.04     0.01   0.12   0.07
    21   1     0.00  -0.01  -0.05    -0.03  -0.01  -0.14    -0.01   0.04   0.09
    22   1     0.01  -0.02  -0.12     0.03   0.01   0.08     0.06   0.01   0.10
    23   1     0.02   0.01   0.15     0.01  -0.06   0.06     0.04  -0.09  -0.06
    24   1     0.02   0.03   0.27    -0.03  -0.06  -0.05    -0.01  -0.10  -0.19
    25   1     0.01   0.02   0.17    -0.04  -0.03  -0.11    -0.02  -0.05  -0.13
    26   6    -0.06  -0.03  -0.05     0.02  -0.19   0.01     0.01   0.20  -0.01
    27   1     0.01  -0.01  -0.04     0.04  -0.02   0.10     0.07  -0.04   0.10
    28   1     0.02  -0.01  -0.04     0.02  -0.03   0.11     0.00   0.06  -0.13
    29   1    -0.03   0.01   0.07    -0.01  -0.07   0.05    -0.05   0.03  -0.10
    30   1     0.02   0.00  -0.13     0.04   0.06  -0.05     0.04  -0.04   0.13
    31   1     0.00  -0.04  -0.16     0.20  -0.08   0.01     0.18  -0.02   0.23
    32   1     0.05  -0.01  -0.11    -0.12   0.36  -0.27    -0.13   0.05  -0.05
    33   1     0.04  -0.02  -0.09    -0.05   0.16  -0.12    -0.07   0.05  -0.09
    34   8    -0.13   0.05   0.33     0.01  -0.08   0.01    -0.18  -0.11   0.11
    35   1    -0.05   0.06   0.43    -0.01  -0.11   0.00    -0.12  -0.10   0.18
    36   1    -0.25   0.05   0.34     0.03  -0.04   0.02    -0.31  -0.17   0.09
    37   1    -0.07  -0.05  -0.01     0.02  -0.22   0.03     0.02   0.20  -0.03
    38   1    -0.08  -0.04  -0.06     0.00  -0.21  -0.08     0.01   0.22   0.07
    39   1    -0.08  -0.04  -0.06     0.03  -0.24   0.07     0.02   0.25  -0.06
                      4                      5                      6
                      A                      A                      A
 Frequencies --     48.9601                56.4542                67.8162
 Red. masses --      4.6292                 4.3462                 5.1559
 Frc consts  --      0.0065                 0.0082                 0.0140
 IR Inten    --      0.3255                 1.9521                 0.3069
  Atom  AN      X      Y      Z        X      Y      Z        X      Y      Z
     1   6     0.05  -0.04  -0.04     0.01  -0.02  -0.02    -0.01   0.07   0.01
     2   6     0.03  -0.05   0.03    -0.01  -0.02   0.05    -0.04   0.03  -0.01
     3   6    -0.00  -0.04   0.06    -0.02  -0.01   0.07    -0.08   0.04  -0.03
     4   7    -0.01  -0.02   0.02    -0.03  -0.00   0.01    -0.09   0.08  -0.03
     5   6     0.01  -0.00  -0.05    -0.02  -0.00  -0.07    -0.06   0.11  -0.02
     6   6     0.04  -0.01  -0.08    -0.00  -0.01  -0.08    -0.02   0.10  -0.00
     7   6     0.03  -0.08   0.05    -0.00  -0.04   0.05    -0.02  -0.03   0.01
     8   7     0.01  -0.04  -0.00    -0.05   0.03  -0.05    -0.06  -0.04  -0.01
     9   6     0.02  -0.07  -0.02    -0.04   0.04  -0.12    -0.04  -0.13   0.01
    10   6     0.05  -0.08  -0.02     0.05  -0.02  -0.12    -0.05  -0.17   0.01
    11   6     0.05  -0.18   0.02     0.06  -0.15  -0.01    -0.04  -0.11   0.01
    12   8    -0.09  -0.01   0.04    -0.02  -0.00  -0.07     0.34   0.05   0.12
    13   8    -0.13   0.13  -0.04     0.10   0.14   0.04     0.11  -0.05  -0.15
    14   8    -0.02  -0.03  -0.03     0.02   0.08   0.24    -0.05  -0.01   0.07
    15   1    -0.00  -0.07  -0.04    -0.05   0.08  -0.19    -0.08  -0.15  -0.00
    16   1     0.01  -0.04  -0.03     0.02   0.02  -0.13    -0.02  -0.21   0.03
    17   1     0.13  -0.06  -0.03     0.16  -0.01  -0.18    -0.10  -0.20  -0.01
    18   1     0.02  -0.25   0.11     0.05  -0.24   0.10     0.00  -0.13   0.04
    19   1     0.08  -0.25  -0.06     0.13  -0.25  -0.11    -0.09  -0.11  -0.02
    20   1     0.03  -0.07  -0.01    -0.09   0.07  -0.09     0.02  -0.13   0.04
    21   1     0.06  -0.06   0.11     0.01  -0.01   0.13     0.03  -0.02   0.04
    22   1    -0.02  -0.05   0.10    -0.03  -0.01   0.13    -0.10   0.02  -0.04
    23   1    -0.00   0.02  -0.07    -0.02   0.00  -0.12    -0.07   0.14  -0.01
    24   1     0.05  -0.00  -0.14     0.01  -0.01  -0.14     0.00   0.13   0.01
    25   1     0.07  -0.05  -0.07     0.02  -0.02  -0.04     0.02   0.06   0.02
    26   6    -0.02   0.02   0.02    -0.15   0.09  -0.01    -0.04   0.02  -0.01
    27   1    -0.04  -0.01   0.04    -0.04   0.00   0.00    -0.06   0.08  -0.02
    28   1    -0.04  -0.03  -0.03     0.03   0.04   0.10    -0.08  -0.02   0.02
    29   1    -0.02   0.02  -0.01     0.05   0.07   0.16    -0.04   0.02   0.05
    30   1    -0.10   0.02   0.02     0.02   0.04  -0.04     0.26   0.04   0.02
    31   1    -0.06  -0.03   0.03    -0.06  -0.04  -0.12     0.46   0.07   0.16
    32   1    -0.19   0.18  -0.10     0.14   0.17   0.03     0.16  -0.20   0.01
    33   1    -0.10   0.04  -0.03     0.08   0.11   0.13     0.09  -0.05  -0.09
    34   8     0.06   0.35   0.04     0.06  -0.15   0.04     0.00   0.05  -0.01
    35   1     0.11   0.46   0.05    -0.00  -0.25   0.02    -0.00   0.08  -0.03
    36   1     0.11   0.35   0.04     0.06  -0.10   0.06     0.04   0.05  -0.01
    37   1    -0.02   0.03   0.02    -0.15   0.07   0.04    -0.05   0.09  -0.02
    38   1    -0.02   0.03   0.06    -0.20   0.11   0.04     0.03   0.02   0.02
    39   1    -0.03   0.05  -0.02    -0.17   0.15  -0.08    -0.07  -0.00  -0.02
                      7                      8                      9
                      A                      A                      A
 Frequencies --     81.9820                92.7265               102.9067
 Red. masses --      4.5545                 2.3278                 4.8489
 Frc consts  --      0.0180                 0.0118                 0.0303
 IR Inten    --      0.9462                 0.5958                 4.5721
  Atom  AN      X      Y      Z        X      Y      Z        X      Y      Z
     1   6    -0.03   0.00   0.05     0.03   0.00   0.04     0.02  -0.05  -0.04
     2   6    -0.04  -0.03  -0.11     0.00  -0.03  -0.01     0.02  -0.06  -0.10
     3   6    -0.05  -0.03  -0.18    -0.04  -0.03  -0.07     0.01  -0.05  -0.05
     4   7    -0.05  -0.01  -0.09    -0.05   0.01  -0.08     0.02  -0.03   0.06
     5   6    -0.04   0.02   0.07    -0.02   0.04  -0.04     0.02  -0.02   0.14
     6   6    -0.03   0.03   0.13     0.02   0.04   0.02     0.02  -0.03   0.09
     7   6    -0.03  -0.03  -0.08     0.01  -0.05   0.03     0.02  -0.04  -0.09
     8   7     0.02   0.01  -0.07     0.03  -0.02   0.02     0.09   0.02  -0.08
     9   6     0.00  -0.01   0.03     0.02   0.07  -0.00     0.07   0.03   0.02
    10   6    -0.09  -0.11   0.03     0.04   0.22   0.01    -0.01   0.01   0.03
    11   6    -0.10  -0.08  -0.04    -0.01  -0.12   0.02    -0.04  -0.06  -0.05
    12   8    -0.05  -0.02   0.10     0.04  -0.00   0.07    -0.01  -0.05  -0.02
    13   8    -0.01   0.19   0.11    -0.03  -0.00  -0.01     0.00  -0.01  -0.04
    14   8     0.16   0.00  -0.04    -0.01  -0.01  -0.03    -0.19   0.11   0.23
    15   1     0.03   0.03   0.02     0.05   0.07   0.06     0.11   0.05   0.05
    16   1    -0.07  -0.16   0.12    -0.16   0.44  -0.08    -0.06   0.03   0.08
    17   1    -0.15  -0.15  -0.01     0.31   0.35   0.09     0.01   0.02   0.03
    18   1    -0.11  -0.09  -0.03    -0.19  -0.25   0.18    -0.12  -0.09  -0.02
    19   1    -0.15  -0.08  -0.08     0.12  -0.30  -0.16    -0.05  -0.09  -0.11
    20   1     0.02   0.02   0.11    -0.04   0.05  -0.09     0.08   0.04   0.06
    21   1    -0.02  -0.02  -0.04     0.02  -0.04   0.07     0.00  -0.03  -0.05
    22   1    -0.05  -0.05  -0.27    -0.06  -0.05  -0.10     0.01  -0.06  -0.06
    23   1    -0.04   0.04   0.14    -0.03   0.07  -0.04     0.02  -0.01   0.25
    24   1    -0.02   0.05   0.26     0.04   0.07   0.06     0.02  -0.02   0.16
    25   1    -0.02   0.01   0.12     0.06   0.01   0.10     0.01  -0.06  -0.07
    26   6     0.10   0.08  -0.08     0.01  -0.07   0.02     0.19   0.10  -0.09
    27   1    -0.06  -0.01  -0.07    -0.06   0.01  -0.07     0.01  -0.03   0.07
    28   1     0.12  -0.00  -0.05     0.02  -0.00   0.01    -0.06   0.04   0.05
    29   1     0.16   0.03  -0.03    -0.02  -0.04  -0.01    -0.18   0.05   0.18
    30   1    -0.01   0.01   0.13     0.02  -0.02   0.06    -0.03  -0.04  -0.03
    31   1     0.02   0.04   0.16     0.10   0.05   0.13    -0.02  -0.08  -0.05
    32   1    -0.12   0.28  -0.01    -0.04  -0.02   0.01     0.10  -0.06   0.04
    33   1     0.04   0.09   0.07    -0.02  -0.00  -0.02    -0.04   0.03   0.04
    34   8     0.14  -0.06   0.08    -0.03  -0.03  -0.02    -0.15   0.07  -0.08
    35   1     0.18  -0.04   0.11    -0.06  -0.09  -0.03    -0.27  -0.09  -0.15
    36   1     0.07  -0.11   0.06    -0.02   0.02   0.00    -0.01   0.25  -0.00
    37   1     0.10   0.11  -0.15     0.03  -0.16   0.03     0.20   0.11  -0.18
    38   1     0.14   0.09  -0.02    -0.08  -0.07   0.00     0.22   0.12  -0.02
    39   1     0.13   0.10  -0.07     0.05  -0.03   0.03     0.24   0.14  -0.08
                     10                     11                     12
                      A                      A                      A
 Frequencies --    119.7129               138.4679               146.1418
 Red. masses --      3.8687                 3.8822                 1.1002
 Frc consts  --      0.0327                 0.0439                 0.0138
 IR Inten    --      5.0630                 3.9177                18.8429
  Atom  AN      X      Y      Z        X      Y      Z        X      Y      Z
     1   6    -0.01  -0.02  -0.18    -0.01   0.01  -0.03     0.00  -0.00   0.00
     2   6    -0.03  -0.03  -0.04    -0.00   0.02  -0.02     0.00  -0.00  -0.01
     3   6    -0.05   0.01   0.13     0.01   0.02   0.00     0.00  -0.00  -0.01
     4   7    -0.06   0.05   0.24     0.01   0.02   0.03     0.00  -0.00  -0.01
     5   6    -0.04   0.07   0.17     0.01   0.01   0.03     0.00   0.00  -0.00
     6   6    -0.02   0.03  -0.06    -0.01   0.01  -0.01     0.00   0.00   0.01
     7   6    -0.02  -0.05  -0.02    -0.01   0.03  -0.01     0.00   0.00  -0.01
     8   7     0.01  -0.02  -0.02    -0.00   0.05  -0.02     0.01   0.01  -0.01
     9   6     0.00   0.01   0.03    -0.01   0.07  -0.01     0.00   0.02  -0.01
    10   6    -0.03   0.05   0.03    -0.01   0.06  -0.01     0.01   0.01  -0.01
    11   6    -0.07  -0.10  -0.01    -0.01   0.02  -0.01     0.00   0.00  -0.01
    12   8     0.02   0.08  -0.09    -0.03   0.01   0.03    -0.01  -0.01   0.01
    13   8     0.07  -0.03  -0.01    -0.14  -0.13  -0.16    -0.02  -0.02  -0.02
    14   8     0.08   0.00  -0.13    -0.02  -0.19   0.09    -0.03  -0.01   0.04
    15   1     0.03   0.01   0.06     0.01   0.10  -0.02     0.01   0.04  -0.02
    16   1    -0.14   0.15   0.02    -0.03   0.07  -0.00    -0.00   0.02  -0.00
    17   1     0.08   0.11   0.07     0.02   0.06  -0.02     0.01   0.02  -0.00
    18   1    -0.18  -0.18   0.08    -0.03   0.00   0.01    -0.00   0.00  -0.00
    19   1    -0.03  -0.19  -0.12     0.00   0.00  -0.03     0.01  -0.00  -0.01
    20   1    -0.00  -0.00   0.01    -0.03   0.09   0.01    -0.01   0.03   0.00
    21   1    -0.01  -0.04   0.01    -0.01   0.03   0.01    -0.00   0.00  -0.00
    22   1    -0.07  -0.01   0.17     0.02   0.03   0.00    -0.00  -0.00  -0.01
    23   1    -0.05   0.10   0.28     0.01   0.00   0.05     0.00   0.00   0.00
    24   1     0.00   0.03  -0.14    -0.02  -0.00  -0.01     0.00   0.00   0.01
    25   1     0.01  -0.06  -0.35    -0.02   0.01  -0.05     0.00   0.00   0.01
[...]
 0.14154432,0.23309745,0.31087094,-0.00002078,-0.00001646,0.00000359,0.
 00007050,0.00004056,0.00000460,-0.00000327,0.00002130,-0.00000252,-0.0
 0002279,-0.00008796,0.00000723,-0.00002628,0.00002113,-0.00000231,-0.0
 0000750,-0.00001862,0.00000386,-0.00003552,-0.00002361,-0.00007646,-0.
 00022178,-0.00006831,0.00007523,0.00045796,-0.00024475,-0.00020472,-0.
 00016205,-0.00007030,-0.00012144,-0.00001314,0.00005751,-0.00001344,0.
 00003597,-0.00010220,-0.00003363,0.00008062,-0.00012928,-0.00000135,-0
 .00007240,-0.00007196,0.00016685,0.00000969,0.00000890,0.00030154,0.00
 004603,-0.00014963,0.00000805,0.00024378,0.00023112,-0.00011334,-0.000
 02933,0.00000787,0.00001289,-0.00004513,0.00000378,0.00002521,-0.00010
 731,0.00008346,0.00007209,0.00000136,0.00000718,0.00000636,-0.00001383
 ,0.00003951,0.00000719,0.00000310,0.00000280,0.00000019,-0.00000280,-0
 .00000204,0.00000008,0.00001027,-0.00000660,0.00000118,0.00000165,-0.0
 0001934,0.00004847,0.00000705,0.00014673,-0.00000297,0.00009065,0.0002
 7701,-0.00024104,-0.00010773,-0.00038126,-0.00009897,-0.00006705,0.000
 03215,0.00005380,-0.00000839,0.00001276,0.00000189,-0.00005447,0.00004
 683,-0.00003908,-0.00002581,0.00012320,0.00002155,0.16113403,-0.083128
 71,-0.10400493,-0.14504440,0.07760697,0.00001579,-0.00000289,-0.000000
 11,-0.00000999,0.00001415,-0.00002937,0.00000015,-0.00003109,0.0000164
 5,0.00000467,0.00001065,-0.00000748,-0.00000620,0.00000901,-0.00000047
 ,-0.00001051,-0.00000723,0.00000536,-0.00000804,0.00000636,0.00006121,
 0.00005877,0.00009659,-0.00018082,-0.00025040,0.00013918,0.00021047,0.
 00006266,-0.00001160,0.00008326,0.00000145,-0.00000864,-0.00003285,-0.
 00000236,-0.00001638,-0.00005499,-0.00004616,-0.00011246,-0.00017311,-
 0.00183089,0.00051904,-0.00215191,0.00002624,0.00001112,-0.00004564,-0
 .00000935,0.00002217,-0.00001452,-0.00001590,-0.00003045,0.00000952,-0
 .00000205,0.00000871,-0.00001167,0.00003032,-0.00001597,-0.00002031,0.
 00004348,-0.00002728,-0.00006340,-0.00000363,0.00000290,-0.00001436,0.
 00005804,-0.00002567,0.00000278,-0.00000040,0.00000198,0.00000389,-0.0
 0000016,0.,0.00000205,-0.00000046,0.00000234,0.00000423,-0.00002556,0.
 00004051,0.00011749,0.00000734,0.00000459,0.00001306,-0.00020495,-0.00
 018238,0.00020774,0.00243352,-0.00033197,0.00356890,-0.00002939,0.0000
 1044,0.00005953,0.00001701,0.00000532,0.00001539,-0.00008349,-0.000013
 97,0.00003350,0.00012461,0.00021315,0.00019874,0.19126471,-0.06994525,
 -0.19655977,-0.22633889,0.08745166,0.21741173,-0.00002780,0.00000933,-
 0.00000463,0.00003480,-0.00002199,0.00000368,-0.00001782,0.00006148,0.
 00001694,-0.00003370,-0.00006728,0.00001745,-0.00002767,0.00000152,-0.
 00000912,0.00000694,0.00000368,0.00000170,-0.00001213,-0.00002827,-0.0
 0003643,-0.00003659,-0.00003696,0.00002961,0.00005973,-0.00004826,0.00
 000669,-0.00001793,0.00003557,0.00001479,0.00004657,0.00011595,-0.0000
 7639,0.00008908,-0.00005913,0.00008040,-0.00000700,-0.00016619,0.00010
 663,-0.00287349,-0.00022143,0.00038143,-0.00002468,-0.00001062,0.00004
 963,-0.00000269,-0.00004996,0.00001781,0.00011733,0.00004573,-0.000080
 15,-0.00001595,-0.00001876,0.00001952,-0.00008960,0.00000364,0.0000243
 0,-0.00000946,-0.00000299,0.00001799,0.00000610,-0.00000411,0.00002782
 ,0.00000738,0.00002455,-0.00008762,-0.00000242,0.00000326,-0.00000355,
 -0.00000108,-0.00000009,-0.00000081,0.00000157,-0.00000180,0.,-0.00000
 619,0.00001011,-0.00000954,-0.00001036,0.00013122,-0.00002661,0.000186
 03,0.00003913,0.00007556,0.00404748,0.00108375,-0.00217275,-0.00003104
 ,0.00001408,-0.00006577,-0.00008012,-0.00001547,-0.00003121,-0.0000343
 9,0.00001081,-0.00006231,0.00007313,0.00024277,-0.00005216,-0.04116499
 ,0.05298668,-0.06101503,0.00220210,-0.01609511,0.03472284,0.03765521,-
 0.00000413,-0.00001329,0.00000582,0.00008056,0.00003043,-0.00003352,0.
 00000755,0.00000197,0.00000056,-0.00001652,-0.00009699,0.00000956,-0.0
 0003229,0.00003283,-0.00000130,-0.00001316,-0.00002885,0.00000894,0.00
 001141,0.00003005,0.00006486,-0.00006032,-0.00010138,-0.00013521,-0.00
 003158,0.00020726,0.00011293,0.00009360,-0.00031966,-0.00001376,-0.000
 00149,-0.00003461,-0.00001617,0.00003526,-0.00013255,-0.00001130,0.000
 02415,-0.00015390,0.00004267,-0.00030587,-0.00004456,-0.00019767,0.000
 01717,0.00003532,-0.00010325,-0.00001036,-0.00004510,0.00000412,0.0000
 4526,-0.00002495,0.00042990,-0.00001428,0.00001236,-0.00000894,0.00008
 722,-0.00000942,0.00001573,-0.00000888,-0.00002915,-0.00010017,-0.0000
 0810,-0.00000605,-0.00003485,0.00001201,0.00004418,0.00002797,0.000001
 63,0.00000417,0.00000105,-0.00000203,-0.00000211,0.00000174,0.00000931
 ,-0.00000658,0.00000266,-0.00000840,-0.00000244,0.00003861,0.00001351,
 0.00018741,-0.00000345,-0.00013891,0.00026116,-0.00000893,0.00020193,-
 0.00039977,0.00004034,-0.00005645,0.00004059,0.00002118,-0.00002458,0.
 00002399,-0.00000480,-0.00002136,0.00004786,-0.00004759,0.00004612,0.0
 0014329,-0.00003094,0.03559661,-0.12396010,0.22715859,0.00245391,0.005
 72313,-0.01780282,-0.03796991,0.11857876,-0.00001602,0.00000777,0.0000
 0072,0.00001209,-0.00004277,-0.00000858,0.00001067,0.00002046,-0.00000
 135,0.00000474,-0.00001901,-0.00001009,0.00000712,-0.00001330,0.000010
 15,0.00001716,0.00001321,-0.00000287,-0.00002360,0.00006585,0.00009186
 ,0.00004081,-0.00021859,-0.00004802,-0.00004916,0.00013026,0.00004120,
 0.00005117,-0.00014526,-0.00003185,-0.00002227,-0.00005379,0.00001405,
 0.00008725,-0.00002418,-0.00010603,0.00024495,0.00002650,0.00001165,0.
 00101925,-0.00077315,0.00044705,0.00001773,0.00001354,-0.00007517,-0.0
 0000735,-0.00005170,0.00001885,-0.00003230,0.00008684,0.00019569,0.000
 02109,-0.00002928,-0.00000466,0.00005769,0.00002608,0.00002946,0.00001
 653,-0.00004451,-0.00002789,0.00000521,-0.00003085,-0.00002484,-0.0000
 9585,0.00006166,0.00005185,-0.00000010,-0.00000034,0.00000608,0.000001
 46,0.00000072,0.00000364,-0.00000247,0.00000095,0.00000545,-0.00001201
 ,0.00001556,-0.00004143,-0.00000842,0.00001740,0.00002323,-0.00002438,
 0.00037180,-0.00005104,-0.00169077,0.00121345,-0.00130851,-0.00014733,
 0.00001312,0.00011763,-0.00000415,0.00000177,0.00003913,-0.00004936,0.
 00000119,-0.00003361,-0.00023626,-0.00006345,-0.00009269,-0.01896147,0
 .19216953,-0.42552170,-0.00835415,0.01666901,-0.02258835,0.02811707,-0
 .20940480,0.44888129,0.00020602,-0.00009607,0.00025534,-0.00017132,-0.
 00013210,0.00045194,0.00007586,0.00010484,0.00040568,0.00011474,0.0000
 5283,-0.00002971,-0.00003237,-0.00001539,-0.00007787,0.00005837,-0.000
 00585,0.00004852,-0.00019794,0.00052794,0.00073661,-0.00760515,-0.0002
 7472,-0.00286015,0.00180061,0.00032884,-0.00200908,-0.00045323,-0.0002
 3078,0.00020187,-0.00011294,-0.00001944,-0.00012943,-0.00004417,0.0000
 0234,0.00006779,0.00003082,-0.00014604,0.00022810,0.00025756,0.0004519
 6,0.00006331,0.00023038,-0.00006004,0.00015443,0.00001497,0.00001276,-
 0.00023866,0.00001942,0.00000588,-0.00009396,0.00003558,-0.00002774,-0
 .00003334,0.00002941,0.00001789,-0.00002590,0.00015196,0.00007954,0.00
 015183,-0.00002609,-0.00012766,-0.00004220,-0.00007066,0.00003440,-0.0
 0011011,0.00000742,-0.00000274,0.00000159,0.00000816,-0.00000134,-0.00
 001184,-0.00000884,-0.00002391,-0.00006753,-0.29221023,-0.07192051,-0.
 03419438,0.00000945,-0.00000856,-0.00002705,-0.00029216,-0.00063236,-0
 .00010319,-0.00008682,0.00000434,-0.00000980,0.00007820,0.00000851,-0.
 00008932,0.00000137,0.00000576,-0.00001523,-0.00000376,0.00008574,-0.0
 0003746,-0.00018576,0.00003763,-0.00021052,0.00004340,0.00007187,0.000
 00105,-0.00000375,-0.00003801,0.00000693,-0.00000706,-0.00002086,0.000
 00311,0.31519272,-0.00010956,-0.00001213,0.00003392,0.00006189,-0.0001
 0687,-0.00000506,0.00017657,0.00044197,0.00004981,-0.00032969,-0.00017
 153,-0.00001255,0.00003939,-0.00013199,0.00002191,0.00025202,0.0000797
 7,0.00001770,-0.00073348,0.00029005,-0.00009759,0.00852452,0.00096206,
 0.00058092,0.00002572,0.00020336,0.00113128,0.00029370,0.00068981,0.00
 006380,0.00000109,-0.00008298,-0.00004697,0.00009079,-0.00012392,-0.00
 009355,0.00007435,0.00022164,-0.00022575,-0.00019811,-0.00006240,-0.00
 022184,-0.00034424,0.00008664,-0.00003007,0.00001042,-0.00002400,0.000
 19232,0.00002518,-0.00002583,-0.00014695,-0.00001500,-0.00000693,-0.00
 001179,0.00000762,0.00000733,0.00000201,0.00051355,0.00041992,0.000093
 68,-0.00014611,-0.00017901,0.00022369,-0.00002684,0.00000107,0.0000539
 6,0.00000794,-0.00000416,-0.00000095,0.00000418,-0.00000101,-0.0000110
 3,-0.00001598,-0.00008648,-0.00007684,-0.07451545,-0.06968823,-0.00974
 302,-0.00000260,0.00023350,0.00001126,0.00025565,0.00021009,0.00010823
 ,0.00009508,0.00000750,-0.00000438,-0.00015627,0.00000830,0.00014962,-
 0.00000379,-0.00000536,0.00000370,-0.00000326,-0.00007272,0.00000917,0
 .00007454,-0.00008467,0.00015536,-0.00004593,-0.00001022,-0.00002158,0
 .00000356,0.00000831,-0.00000182,-0.00000105,0.00000303,0.00000675,0.0
 7761557,0.06869516,0.00049802,-0.00014494,-0.00008598,0.00025465,-0.00
 006166,-0.00081524,0.00012674,0.00014090,-0.00036901,0.00019360,-0.000
 16388,0.00005636,-0.00008678,0.00024013,-0.00005881,-0.00011724,-0.000
 23695,0.00002476,-0.00120069,-0.00035415,0.00146422,-0.03695530,-0.007
 75893,-0.00813110,0.00158679,0.00059916,-0.00588372,-0.00187596,-0.000
 48790,-0.00031022,-0.00025294,0.00029622,0.00025965,0.00000522,-0.0001
 6440,-0.00002277,0.00005199,-0.00006570,-0.00009230,0.00019312,0.00031
 763,-0.00005676,-0.00014895,0.00026115,0.00009352,-0.00002027,0.000096
 88,-0.00054502,-0.00003309,-0.00003002,-0.00017667,0.00005690,-0.00000
 562,0.00005687,0.00006385,0.00000767,-0.00003585,0.00001945,-0.0002589
 0,-0.00005517,0.00019850,-0.00014590,-0.00024413,-0.00014354,0.0000568
 9,0.00000448,0.00000862,0.00000657,0.00000038,-0.00000622,0.00000152,0
 .00000643,-0.00001087,0.00001248,0.00002150,-0.02585594,-0.00763823,-0
 .05166141,0.00004008,0.00027941,-0.00002610,-0.00019671,-0.00061483,0.
 00011163,-0.00003571,0.00000245,-0.00003688,-0.00004486,0.00003978,0.0
 0005596,0.00000533,0.00000257,-0.00001285,0.00001092,-0.00003435,0.000
 04983,-0.00006850,0.00005233,-0.00001144,0.00002593,0.00004514,0.00001
 506,-0.00000118,-0.00001043,-0.00000795,-0.00000698,-0.00001389,0.0000
 0181,0.03995896,0.00835838,0.06182231,0.00013683,-0.00020509,-0.000005
 93,-0.00017733,0.00009199,-0.00009830,-0.00015929,-0.00014892,0.000021
 75,0.00027742,0.00010967,-0.00002359,-0.00002014,0.00007761,-0.0000383
 1,-0.00008645,-0.00004071,-0.00002318,-0.00003309,-0.00103449,0.000581
 36,0.00037280,0.00974152,-0.00508171,0.00251913,0.00366361,-0.00065858
 ,-0.00005636,-0.00026749,0.00000600,0.00002984,0.00006450,0.00017723,-
 0.00002830,0.00002586,0.00003939,0.00003472,-0.00010107,0.00010202,0.0
 0007333,0.00030186,0.00002055,-0.00009184,-0.00013158,0.00007636,0.000
 00064,-0.00006055,-0.00004149,-0.00005801,-0.00005942,0.00010294,-0.00
 001639,-0.00000781,0.00001296,-0.00008651,0.00003346,0.00000956,0.0001
 7843,-0.00089893,0.00054395,0.00003253,-0.00015474,0.00006534,-0.00000
 338,0.00001722,-0.00006889,0.00000381,0.00000917,0.00000616,-0.0000070
 9,-0.00000336,0.00001086,-0.00003398,0.00007622,0.00007883,-0.05378388
 ,-0.02885944,0.00658690,0.00000839,-0.00005777,-0.00002454,-0.00010698
 ,-0.00032935,-0.00018426,0.00001711,0.00001682,0.00003554,0.00004586,0
 .00001018,-0.00005589,0.00000251,0.00000223,-0.00000405,-0.00001085,0.
 00003070,-0.00000229,-0.00010861,0.00001799,-0.00008636,-0.00001433,-0
 .00000897,-0.00000553,0.00000644,0.00000702,0.00000188,0.00000228,0.00
 000148,0.,-0.00160658,-0.02882953,0.00657845,0.05010824,0.00003596,-0.
 00027741,0.00008176,0.00002541,0.00002861,0.00005326,0.00000703,-0.000
 17554,0.00000370,0.00007350,0.00007221,0.00000020,-0.00004126,0.000045
 99,-0.00000469,-0.00009791,-0.00002314,-0.00004064,0.00056274,0.002502
 80,-0.00170037,0.00184449,-0.00563979,0.01066430,-0.00081613,0.0014065
 7,-0.00106647,0.00003166,0.00034124,-0.00016986,0.00006102,0.00028892,
 -0.00020906,-0.00010858,-0.00000540,0.00005743,-0.00023603,-0.00018341
 ,0.00001119,0.00000770,-0.00121112,0.00034848,0.00000277,-0.00021732,-
 0.00010889,0.00002813,0.00001253,0.00012991,0.00001074,-0.00000095,-0.
 00018262,0.00002009,-0.00000994,0.00010360,-0.00009433,-0.00000624,-0.
 00015858,0.00153561,0.00007029,0.00077874,-0.00089741,0.00046399,0.001
 81675,0.00015295,0.00002343,-0.00007520,0.00000070,0.00001054,-0.00000
 017,-0.00001677,-0.00000980,0.00001280,-0.00002412,0.00006536,0.000091
 28,-0.02776840,-0.27835195,0.04945816,0.00002087,-0.00000434,-0.000002
 21,-0.00012535,0.00192058,-0.00046409,-0.00028540,0.00005183,-0.000122
 40,0.00013901,0.00000997,-0.00009366,0.00002199,0.00001536,-0.00001265
 ,0.00001856,0.00005524,0.00002044,0.00024226,0.00022565,0.00005858,0.0
 0014922,-0.00002379,0.00007783,-0.00003262,0.00000194,-0.00000061,-0.0
 0000821,-0.00000079,-0.00002300,0.00057186,-0.00702959,0.00074629,0.02
 877328,0.30096499,0.00009923,0.00011897,-0.00000132,0.00004189,-0.0005
 0427,-0.00010575,-0.00009925,0.00013982,-0.00000871,0.00000773,-0.0001
 0200,0.00002469,0.00005387,-0.00000842,-0.00003143,0.00004016,-0.00001
 638,0.00002660,-0.00187908,0.00539316,0.00275900,-0.00090590,0.0354239
 4,-0.02411103,0.00403438,0.00215487,0.00080536,0.00011911,-0.00041852,
 0.00036946,-0.00015796,-0.00053407,0.00028665,0.00000497,-0.00000467,0
 .00002961,0.00013626,-0.00001721,0.00020794,0.00020018,0.00191107,0.00
 004061,-0.00033975,-0.00029795,-0.00004770,0.00000527,-0.00008404,-0.0
 0007713,0.00005488,-0.00003956,0.00016653,-0.00006975,-0.00012028,-0.0
 0008599,0.00007098,-0.00009116,0.00021247,-0.00068275,-0.00145740,0.00
 055965,0.00016552,-0.00195881,0.00036569,-0.00014533,-0.00004342,0.000
 01010,0.00000525,-0.00000860,0.00000244,0.00000933,0.00000020,-0.00000
 494,0.00002967,-0.00002910,-0.00002260,0.00628072,0.04846366,-0.059459
 23,-0.00001137,0.00001576,-0.00001357,-0.00015711,-0.00252274,-0.00049
 554,0.00017205,-0.00002688,0.00003668,0.00000920,0.00000327,-0.0000321
 3,-0.00000557,-0.00000310,-0.00000674,0.00001622,0.00005274,-0.0000383
 1,-0.00027294,-0.00009344,-0.00025999,-0.00007897,0.00002387,-0.000011
 91,-0.00000083,-0.00000138,-0.00002852,-0.00000018,-0.00000195,0.00000
 787,0.00049014,-0.00382496,0.00123703,-0.00405428,-0.06410118,0.072432
 15,0.00019234,-0.00013207,0.00004858,0.00003191,0.00002120,-0.00002976
 ,0.00013026,0.00025658,-0.00001812,-0.00002796,-0.00013301,-0.00000341
 ,-0.00000790,0.00005084,-0.00002426,0.00002616,-0.00005640,0.00003144,
 -0.00049947,-0.00002392,-0.00197209,0.00604416,-0.00682596,-0.00803551
 ,0.00129600,-0.00098987,-0.00093057,0.00020255,-0.00006403,0.00012066,
 0.00021191,-0.00010603,-0.00063452,0.00006208,-0.00014096,-0.00007675,
 0.00009616,0.00008653,-0.00024381,-0.00006951,-0.00019357,-0.00025764,
 0.00013059,0.00035106,0.00017961,0.00001944,-0.00000008,0.00001764,-0.
 00001780,0.00000303,0.00003486,-0.00000627,0.00002024,-0.00014086,-0.0
 0001080,0.00000889,-0.00007402,-0.00010114,0.00005048,0.00009542,-0.00
 010712,0.00001650,0.00000012,-0.00007705,0.00005740,0.00000851,0.00000
 802,0.00000106,0.00000019,-0.00000009,-0.00000300,-0.00000436,0.000001
 08,-0.00004208,-0.00003321,-0.14367196,0.09229022,0.09764569,0.0000143
 0,0.00023928,-0.00000274,0.00007827,0.00025664,0.00032352,0.00007316,0
 .00001143,0.00001527,-0.00013072,0.00003235,0.00012588,0.00000136,-0.0
 0000172,0.00000145,-0.00001976,-0.00009372,0.00006157,0.00001885,-0.00
 002985,0.00017579,-0.00003537,-0.00004269,-0.00000960,0.00000873,0.000
 02523,-0.00000164,-0.00000159,0.00001077,0.00000231,-0.01524759,0.0173
 2354,0.01718460,0.00263910,-0.00378501,-0.00318603,0.14874567,0.000036
 92,-0.00014906,0.00001365,0.00008648,0.00008792,0.00006288,0.00000900,
 0.00001275,-0.00002767,0.00004814,0.00001883,-0.00000034,-0.00001291,0
 .00000602,-0.00000255,-0.00001859,0.00002075,0.00000195,0.00010066,0.0
 0030083,0.00101465,-0.00576271,0.00430667,0.00518518,0.00015438,0.0004
 7768,0.00006721,-0.00023723,-0.00006468,-0.00008111,0.00009809,0.00059
 390,0.00029831,0.00004509,-0.00000265,-0.00003188,0.00010212,0.0000807
 5,-0.00007113,0.00003133,0.00008246,-0.00028837,-0.00015291,0.00009473
 ,-0.00029569,0.00000440,-0.00000761,-0.00001423,0.00000326,-0.00000746
 ,0.00002152,0.00004022,-0.00004209,0.00015639,-0.00011386,0.00000598,-
 0.00008910,0.00024993,-0.00044508,0.00004010,-0.00011395,0.00055254,0.
 00042593,-0.00002821,0.00003079,0.00001063,-0.00000045,0.00000468,-0.0
 0000120,-0.00000719,-0.00000442,0.00000032,-0.00004971,0.00003603,0.00
 004338,0.09222127,-0.13511081,-0.09211085,-0.00000475,0.00000679,0.000
 00624,-0.00007922,0.00017616,0.00025054,0.00011675,-0.00002399,0.00004
 600,-0.00006534,0.00000280,0.00004784,-0.00000673,-0.00000544,0.000006
 50,-0.00001920,-0.00004071,0.00000868,-0.00006976,-0.00006682,0.000044
 25,-0.00007247,-0.00001520,-0.00002320,0.00002161,0.00001685,-0.000001
 38,0.00000434,0.00000447,0.00000453,-0.00623637,0.00534053,0.00662712,
 0.01812681,-0.01540752,-0.01738984,-0.09844926,0.13913265,0.00015321,0
 .00009681,0.00007061,-0.00083519,-0.00022457,0.00013152,0.00005733,0.0
 0006666,0.00005655,0.00003974,0.00010511,-0.00001069,0.00004524,0.0000
 0776,-0.00001587,0.00004057,-0.00002519,0.00002897,-0.00377812,0.00206
 151,-0.00430658,0.02099713,-0.01781464,-0.02596339,0.00166094,-0.00072
 322,0.00094307,0.00031141,0.00026162,0.00005993,0.00092171,-0.00115395
 ,-0.00106371,-0.00004394,0.00007005,0.00004692,-0.00011508,-0.00007354
 ,0.00006926,-0.00022334,0.00044088,0.00031907,-0.00072690,0.00023908,-
 0.00010068,-0.00004317,0.00002379,0.00010613,-0.00006422,-0.00000528,0
 .00000821,-0.00029724,0.00016319,-0.00049274,-0.00005555,0.00003148,-0
 .00011783,-0.00029334,-0.00005214,-0.00004029,-0.00008443,-0.00011232,
 0.00006324,0.00004559,-0.00008080,-0.00003314,-0.00000365,-0.00000187,
 -0.00000303,0.00001745,0.00000677,-0.00000874,-0.00000796,-0.00002273,
 -0.00005160,0.08958658,-0.08588367,-0.13807972,0.00000691,-0.00011679,
 -0.00000832,0.00032809,-0.00084005,-0.00042893,-0.00003193,0.00006216,
 -0.00009071,0.00008209,-0.00001337,-0.00007302,0.00000237,0.00000102,-
 0.00000214,0.00001938,0.00003756,0.00000229,0.00009379,0.00008588,-0.0
 0005819,0.00001158,-0.00000641,0.00008527,-0.00002094,0.00002548,-0.00
 003970,0.00000939,-0.00001192,-0.00001996,-0.00281048,0.00330924,0.003
 35757,-0.00460084,0.00402166,0.00526201,-0.10039419,0.09604474,0.16039
 834\\-0.00000020,-0.00000020,-0.00000043,0.00000045,0.00000052,-0.0000
 0193,0.00000143,-0.00000070,-0.00000030,-0.00000127,-0.00000074,-0.000
 00139,-0.00000099,0.00000006,-0.00000132,0.00000052,0.00000045,-0.0000
 0125,0.00000202,-0.00000099,0.00000035,-0.00000145,0.00000022,0.000001
 58,0.00000034,0.00000061,0.00000016,-0.00000102,-0.00000032,0.00000085
 ,-0.00000079,0.00000082,0.00000030,-0.00000004,0.00000134,-0.00000285,
 -0.00000521,0.00000442,-0.00000100,-0.00000082,0.00000337,-0.00000070,
 0.00000031,-0.00000007,0.00000108,-0.00000022,0.00000039,0.00000113,-0
 .00000036,0.00000015,0.00000093,-0.00000106,0.,0.00000059,-0.00000056,
 0.00000011,0.00000012,0.00000032,-0.00000016,0.00000095,0.00000015,-0.
 00000005,-0.00000016,-0.00000021,-0.00000078,-0.00000086,0.,-0.0000002
 0,-0.00000161,-0.00000051,0.00000020,-0.00000153,-0.00000011,0.0000000
 6,-0.00000075,0.00000052,0.00000086,0.00000050,0.00000051,-0.00000105,
 -0.00000062,-0.00000013,-0.00000273,0.00000216,0.00000006,-0.00000024,
 0.00000042,0.00000156,-0.00000142,0.00000161,-0.00000029,-0.00000053,-
 0.00000081,0.00000357,0.00000072,0.00000192,0.00000195,-0.00000352,-0.
 00000129,-0.00000043,-0.00000013,0.00000222,0.00000014,0.00000002,0.00
 000126,-0.00000065,0.00000042,0.00000058,0.00000060,-0.00000017,-0.000
 00021,0.00000074,-0.00000029,0.00000026,0.00000114,-0.00000043,0.00000
 004\\\@


 WHEN ALL ELSE FAILS, TRY THE BOSS'S SUGGESTION.
 Job cpu time:       1 days 11 hours 38 minutes  2.9 seconds.
 Elapsed time:       0 days  1 hours 16 minutes 27.2 seconds.
 File lengths (MBytes):  RWF=   1232 Int=      0 D2E=      0 Chk=     28 Scr=      8
 Normal termination of Gaussian 16 at Thu Aug 27 14:44:50 2020.
