 Entering Gaussian System, Link 0=g16
 Input=NicPySs4hYiba.gjf
 Output=NicPySs4hYiba.log
 Initial command:
 /sw/contrib/gaussian/g16/A03/g16/l1.exe "/gscratch/scrubbed/gds001/Gau-27003.inp" -scrdir="/gscratch/scrubbed/gds001/"
 Entering Link 1 = /sw/contrib/gaussian/g16/A03/g16/l1.exe PID=     27004.
  
 Copyright (c) 1988,1990,1992,1993,1995,1998,2003,2009,2016,
            Gaussian, Inc.  All Rights Reserved.
  
 This is part of the Gaussian(R) 16 program.  It is based on
 the Gaussian(R) 09 system (copyright 2009, Gaussian, Inc.),
 the Gaussian(R) 03 system (copyright 2003, Gaussian, Inc.),
 the Gaussian(R) 98 system (copyright 1998, Gaussian, Inc.),
 the Gaussian(R) 94 system (copyright 1995, Gaussian, Inc.),
 the Gaussian 92(TM) system (copyright 1992, Gaussian, Inc.),
 the Gaussian 90(TM) system (copyright 1990, Gaussian, Inc.),
 the Gaussian 88(TM) system (copyright 1988, Gaussian, Inc.),
 the Gaussian 86(TM) system (copyright 1986, Carnegie Mellon
 University), and the Gaussian 82(TM) system (copyright 1983,
 Carnegie Mellon University). Gaussian is a federally registered
 trademark of Gaussian, Inc.
  
 This software contains proprietary and confidential information,
 including trade secrets, belonging to Gaussian, Inc.
  
 This software is provided under written license and may be
 used, copied, transmitted, or stored only in accord with that
 written license.
  
 The following legend is applicable only to US Government
 contracts under FAR:
  
                    RESTRICTED RIGHTS LEGEND
  
 Use, reproduction and disclosure by the US Government is
 subject to restrictions as set forth in subparagraphs (a)
 and (c) of the Commercial Computer Software - Restricted
 Rights clause in FAR 52.227-19.
  
 Gaussian, Inc.
 340 Quinnipiac St., Bldg. 40, Wallingford CT 06492
  
  
 ---------------------------------------------------------------
 Warning -- This program may not be used in any manner that
 competes with the business of Gaussian, Inc. or will provide
 assistance to any competitor of Gaussian, Inc.  The licensee
 of this program is prohibited from giving any competitor of
 Gaussian, Inc. access to this program.  By using this program,
 the user acknowledges that Gaussian, Inc. is engaged in the
 business of creating and licensing software in the field of
 computational chemistry and represents and warrants to the
 licensee that it is not a competitor of Gaussian, Inc. and that
 it will not use this program in any manner prohibited above.
 ---------------------------------------------------------------
  

 Cite this work as:
 Gaussian 16, Revision A.03,
 M. J. Frisch, G. W. Trucks, H. B. Schlegel, G. E. Scuseria, 
 M. A. Robb, J. R. Cheeseman, G. Scalmani, V. Barone, 
 G. A. Petersson, H. Nakatsuji, X. Li, M. Caricato, A. V. Marenich, 
 J. Bloino, B. G. Janesko, R. Gomperts, B. Mennucci, H. P. Hratchian, 
 J. V. Ortiz, A. F. Izmaylov, J. L. Sonnenberg, D. Williams-Young, 
 F. Ding, F. Lipparini, F. Egidi, J. Goings, B. Peng, A. Petrone, 
 T. Henderson, D. Ranasinghe, V. G. Zakrzewski, J. Gao, N. Rega, 
 G. Zheng, W. Liang, M. Hada, M. Ehara, K. Toyota, R. Fukuda, 
 J. Hasegawa, M. Ishida, T. Nakajima, Y. Honda, O. Kitao, H. Nakai, 
 T. Vreven, K. Throssell, J. A. Montgomery, Jr., J. E. Peralta, 
 F. Ogliaro, M. J. Bearpark, J. J. Heyd, E. N. Brothers, K. N. Kudin, 
 V. N. Staroverov, T. A. Keith, R. Kobayashi, J. Normand, 
 K. Raghavachari, A. P. Rendell, J. C. Burant, S. S. Iyengar, 
 J. Tomasi, M. Cossi, J. M. Millam, M. Klene, C. Adamo, R. Cammi, 
 J. W. Ochterski, R. L. Martin, K. Morokuma, O. Farkas, 
 J. B. Foresman, and D. J. Fox, Gaussian, Inc., Wallingford CT, 2016.
 
 ******************************************
 Gaussian 16:  ES64L-G16RevA.03 25-Dec-2016
                27-Jan-2023 
 ******************************************
 %nprocshared=28
 Will use up to   28 processors via shared memory.
 %mem=41GB
 -----------------------------
 # wB97XD/aug-cc-pVDZ opt freq
 -----------------------------
 1/18=20,19=15,26=3,38=1/1,3;
 2/9=110,12=2,17=6,18=5,40=1/2;
 3/5=16,7=10,11=2,25=1,30=1,71=1,74=-58/1,2,3;
 4//1;
 5/5=2,38=5/2;
 6/7=2,8=2,9=2,10=2,28=1/1;
 7//1,2,3,16;
 1/18=20,19=15,26=3/3(2);
 2/9=110/2;
 99//99;
 2/9=110/2;
 3/5=16,7=10,11=2,25=1,30=1,71=1,74=-58/1,2,3;
 4/5=5,16=3,69=1/1;
 5/5=2,38=5/2;
 7//1,2,3,16;
 1/18=20,19=15,26=3/3(-5);
 2/9=110/2;
 6/7=2,8=2,9=2,10=2,19=2,28=1/1;
 99/9=1/99;
 ----
 blah
 ----
 Symbolic Z-matrix:
 Charge =  1 Multiplicity = 1
 C                    -2.71964   1.64009  -0.51979 
 C                    -2.11139   0.21699  -0.60491 
 N                    -3.21163  -0.66524  -0.24976 
 C                    -4.39196  -0.07915  -0.87978 
 C                    -4.24779   1.4163   -0.59843 
 C                    -0.92991   0.02825   0.31607 
 C                     0.37039   0.07594  -0.15898 
 N                     1.41569  -0.05131   0.67515 
 C                     1.26404  -0.23825   1.99267 
 C                    -0.00867  -0.30688   2.535 
 C                    -1.10724  -0.1725    1.69086 
 C                    -2.99162  -2.05564  -0.60136 
 H                    -1.77141   0.02786  -1.64556 
 H                    -2.43826   2.12653   0.42181 
 H                    -2.34024   2.26672  -1.33479 
 H                    -4.72006   1.67051   0.357 
 H                    -4.71837   2.02617  -1.3765 
 H                    -4.39243  -0.27288  -1.97194 
 H                    -5.30447  -0.51845  -0.45986 
 H                    -2.12429  -0.23455   2.07794 
 H                     2.1766   -0.33218   2.57625 
 H                     2.39848  -0.00873   0.27173 
 H                     0.61356   0.2133   -1.21084 
 H                    -2.1187   -2.45264  -0.06625 
 H                    -2.8269   -2.19161  -1.68917 
 H                    -3.86398  -2.6504   -0.30706 
 H                    -0.13148  -0.46472   3.60397 
 O                     3.83198   0.05285  -0.32681 
 H                     4.35094  -0.71101  -0.63711 
 H                     4.3776    0.85487  -0.41702 
 O                     5.25567   2.40147  -0.52324 
 H                     5.41089   2.88176  -1.34086 
 H                     5.95964   2.6678    0.07408 
 O                     5.17391  -2.19866  -1.1707 
 H                     5.86748  -2.64207  -0.67502 
 H                     5.31728  -2.43659  -2.09057 
 O                     7.15593  -3.50493   0.20154 
 H                     7.95123  -3.17439   0.65324 
 H                     6.87947  -4.24481   0.77023 
 
 Add virtual bond connecting atoms O28        and H22        Dist= 2.94D+00.
 Add virtual bond connecting atoms O37        and H35        Dist= 3.37D+00.
 Add virtual bond connecting atoms O31        and H30        Dist= 3.37D+00.
 Add virtual bond connecting atoms O34        and H29        Dist= 3.37D+00.

 GradGradGradGradGradGradGradGradGradGradGradGradGradGradGradGradGradGrad
 Berny optimization.
 Initialization pass.
                           ----------------------------
                           !    Initial Parameters    !
                           ! (Angstroms and Degrees)  !
 --------------------------                            --------------------------
 ! Name  Definition              Value          Derivative Info.                !
 --------------------------------------------------------------------------------
 ! R1    R(1,2)                  1.55           estimate D2E/DX2                !
 ! R2    R(1,5)                  1.5465         estimate D2E/DX2                !
 ! R3    R(1,14)                 1.0965         estimate D2E/DX2                !
 ! R4    R(1,15)                 1.0958         estimate D2E/DX2                !
 ! R5    R(2,3)                  1.4543         estimate D2E/DX2                !
 ! R6    R(2,6)                  1.5099         estimate D2E/DX2                !
 ! R7    R(2,13)                 1.111          estimate D2E/DX2                !
 ! R8    R(3,4)                  1.4607         estimate D2E/DX2                !
 ! R9    R(3,12)                 1.4509         estimate D2E/DX2                !
 ! R10   R(4,5)                  1.5285         estimate D2E/DX2                !
 ! R11   R(4,18)                 1.1092         estimate D2E/DX2                !
 ! R12   R(4,19)                 1.0964         estimate D2E/DX2                !
 ! R13   R(5,16)                 1.0957         estimate D2E/DX2                !
 ! R14   R(5,17)                 1.0949         estimate D2E/DX2                !
 ! R15   R(6,7)                  1.3852         estimate D2E/DX2                !
 ! R16   R(6,11)                 1.4006         estimate D2E/DX2                !
 ! R17   R(7,8)                  1.3434         estimate D2E/DX2                !
 ! R18   R(7,23)                 1.0883         estimate D2E/DX2                !
 ! R19   R(8,9)                  1.3393         estimate D2E/DX2                !
 ! R20   R(8,22)                 1.0632         estimate D2E/DX2                !
 ! R21   R(9,10)                 1.3851         estimate D2E/DX2                !
 ! R22   R(9,21)                 1.0873         estimate D2E/DX2                !
 ! R23   R(10,11)                1.3919         estimate D2E/DX2                !
 ! R24   R(10,27)                1.0875         estimate D2E/DX2                !
 ! R25   R(11,20)                1.09           estimate D2E/DX2                !
 ! R26   R(12,24)                1.0982         estimate D2E/DX2                !
 ! R27   R(12,25)                1.1086         estimate D2E/DX2                !
 ! R28   R(12,26)                1.0961         estimate D2E/DX2                !
 ! R29   R(22,28)                1.5546         estimate D2E/DX2                !
 ! R30   R(28,29)                0.9742         estimate D2E/DX2                !
 ! R31   R(28,30)                0.9742         estimate D2E/DX2                !
 ! R32   R(29,34)                1.7819         estimate D2E/DX2                !
 ! R33   R(30,31)                1.7816         estimate D2E/DX2                !
 ! R34   R(31,32)                0.9609         estimate D2E/DX2                !
 ! R35   R(31,33)                0.9609         estimate D2E/DX2                !
 ! R36   R(34,35)                0.9609         estimate D2E/DX2                !
 ! R37   R(34,36)                0.9609         estimate D2E/DX2                !
 ! R38   R(35,37)                1.7813         estimate D2E/DX2                !
 ! R39   R(37,38)                0.9725         estimate D2E/DX2                !
 ! R40   R(37,39)                0.9733         estimate D2E/DX2                !
 ! A1    A(2,1,5)              104.6029         estimate D2E/DX2                !
 ! A2    A(2,1,14)             110.7174         estimate D2E/DX2                !
 ! A3    A(2,1,15)             110.3844         estimate D2E/DX2                !
 ! A4    A(5,1,14)             111.1879         estimate D2E/DX2                !
 ! A5    A(5,1,15)             112.7715         estimate D2E/DX2                !
 ! A6    A(14,1,15)            107.2253         estimate D2E/DX2                !
 ! A7    A(1,2,3)              104.2812         estimate D2E/DX2                !
 ! A8    A(1,2,6)              112.8514         estimate D2E/DX2                !
 ! A9    A(1,2,13)             109.1367         estimate D2E/DX2                !
 ! A10   A(3,2,6)              111.5434         estimate D2E/DX2                !
 ! A11   A(3,2,13)             110.9158         estimate D2E/DX2                !
 ! A12   A(6,2,13)             108.0962         estimate D2E/DX2                !
 ! A13   A(2,3,4)              105.2244         estimate D2E/DX2                !
 ! A14   A(2,3,12)             114.0435         estimate D2E/DX2                !
 ! A15   A(4,3,12)             113.7347         estimate D2E/DX2                !
 ! A16   A(3,4,5)              103.7069         estimate D2E/DX2                !
 ! A17   A(3,4,18)             110.7899         estimate D2E/DX2                !
 ! A18   A(3,4,19)             110.2789         estimate D2E/DX2                !
 ! A19   A(5,4,18)             110.6196         estimate D2E/DX2                !
 ! A20   A(5,4,19)             113.5803         estimate D2E/DX2                !
 ! A21   A(18,4,19)            107.8661         estimate D2E/DX2                !
 ! A22   A(1,5,4)              104.1316         estimate D2E/DX2                !
 ! A23   A(1,5,16)             110.3655         estimate D2E/DX2                !
 ! A24   A(1,5,17)             112.3484         estimate D2E/DX2                !
 ! A25   A(4,5,16)             110.2946         estimate D2E/DX2                !
 ! A26   A(4,5,17)             111.9399         estimate D2E/DX2                !
 ! A27   A(16,5,17)            107.7694         estimate D2E/DX2                !
 ! A28   A(2,6,7)              121.4031         estimate D2E/DX2                !
 ! A29   A(2,6,11)             121.1691         estimate D2E/DX2                !
 ! A30   A(7,6,11)             117.413          estimate D2E/DX2                !
 ! A31   A(6,7,8)              120.9459         estimate D2E/DX2                !
 ! A32   A(6,7,23)             123.0629         estimate D2E/DX2                !
 ! A33   A(8,7,23)             115.991          estimate D2E/DX2                !
 ! A34   A(7,8,9)              122.4075         estimate D2E/DX2                !
 ! A35   A(7,8,22)             118.6767         estimate D2E/DX2                !
 ! A36   A(9,8,22)             118.9143         estimate D2E/DX2                !
 ! A37   A(8,9,10)             119.7431         estimate D2E/DX2                !
 ! A38   A(8,9,21)             116.425          estimate D2E/DX2                !
 ! A39   A(10,9,21)            123.8314         estimate D2E/DX2                !
 ! A40   A(9,10,11)            118.8778         estimate D2E/DX2                !
 ! A41   A(9,10,27)            119.7235         estimate D2E/DX2                !
 ! A42   A(11,10,27)           121.3986         estimate D2E/DX2                !
 ! A43   A(6,11,10)            120.609          estimate D2E/DX2                !
 ! A44   A(6,11,20)            118.3501         estimate D2E/DX2                !
 ! A45   A(10,11,20)           121.0353         estimate D2E/DX2                !
 ! A46   A(3,12,24)            110.4186         estimate D2E/DX2                !
 ! A47   A(3,12,25)            112.2005         estimate D2E/DX2                !
 ! A48   A(3,12,26)            109.5264         estimate D2E/DX2                !
 ! A49   A(24,12,25)           108.4028         estimate D2E/DX2                !
 ! A50   A(24,12,26)           107.7972         estimate D2E/DX2                !
 ! A51   A(25,12,26)           108.3724         estimate D2E/DX2                !
 ! A52   A(22,28,29)           125.6451         estimate D2E/DX2                !
 ! A53   A(22,28,30)           125.7805         estimate D2E/DX2                !
 ! A54   A(29,28,30)           108.5204         estimate D2E/DX2                !
 ! A55   A(30,31,32)           124.3501         estimate D2E/DX2                !
 ! A56   A(30,31,33)           124.3756         estimate D2E/DX2                !
 ! A57   A(32,31,33)           105.7873         estimate D2E/DX2                !
 ! A58   A(29,34,35)           124.3423         estimate D2E/DX2                !
 ! A59   A(29,34,36)           124.2155         estimate D2E/DX2                !
 ! A60   A(35,34,36)           105.7753         estimate D2E/DX2                !
 ! A61   A(35,37,38)           130.9526         estimate D2E/DX2                !
 ! A62   A(35,37,39)           116.7634         estimate D2E/DX2                !
 ! A63   A(38,37,39)           102.667          estimate D2E/DX2                !
 ! A64   L(8,22,28,23,-1)      179.6611         estimate D2E/DX2                !
 ! A65   L(28,29,34,24,-1)     175.0242         estimate D2E/DX2                !
 ! A66   L(28,30,31,15,-1)     175.7542         estimate D2E/DX2                !
 ! A67   L(34,35,37,33,-1)     181.6155         estimate D2E/DX2                !
 ! A68   L(8,22,28,23,-2)      180.078          estimate D2E/DX2                !
 ! A69   L(28,29,34,24,-2)     181.2406         estimate D2E/DX2                !
 ! A70   L(28,30,31,15,-2)     177.1992         estimate D2E/DX2                !
 ! A71   L(34,35,37,33,-2)     181.0733         estimate D2E/DX2                !
 ! D1    D(5,1,2,3)            -19.2882         estimate D2E/DX2                !
 ! D2    D(5,1,2,6)           -140.517          estimate D2E/DX2                !
 ! D3    D(5,1,2,13)            99.2833         estimate D2E/DX2                !
 ! D4    D(14,1,2,3)           100.5698         estimate D2E/DX2                !
 ! D5    D(14,1,2,6)           -20.659          estimate D2E/DX2                !
 ! D6    D(14,1,2,13)         -140.8586         estimate D2E/DX2                !
 ! D7    D(15,1,2,3)          -140.8561         estimate D2E/DX2                !
 ! D8    D(15,1,2,6)            97.915          estimate D2E/DX2                !
 ! D9    D(15,1,2,13)          -22.2846         estimate D2E/DX2                !
 ! D10   D(2,1,5,4)             -6.1898         estimate D2E/DX2                !
 ! D11   D(2,1,5,16)           112.1682         estimate D2E/DX2                !
 ! D12   D(2,1,5,17)          -127.5281         estimate D2E/DX2                !
 ! D13   D(14,1,5,4)          -125.732          estimate D2E/DX2                !
 ! D14   D(14,1,5,16)           -7.374          estimate D2E/DX2                !
 ! D15   D(14,1,5,17)          112.9297         estimate D2E/DX2                !
 ! D16   D(15,1,5,4)           113.7928         estimate D2E/DX2                !
 ! D17   D(15,1,5,16)         -127.8492         estimate D2E/DX2                !
 ! D18   D(15,1,5,17)           -7.5455         estimate D2E/DX2                !
 ! D19   D(1,2,3,4)             39.0104         estimate D2E/DX2                !
 ! D20   D(1,2,3,12)           164.3338         estimate D2E/DX2                !
 ! D21   D(6,2,3,4)            161.1047         estimate D2E/DX2                !
 ! D22   D(6,2,3,12)           -73.5719         estimate D2E/DX2                !
 ! D23   D(13,2,3,4)           -78.3395         estimate D2E/DX2                !
 ! D24   D(13,2,3,12)           46.9839         estimate D2E/DX2                !
 ! D25   D(1,2,6,7)           -101.2358         estimate D2E/DX2                !
 ! D26   D(1,2,6,11)            77.3274         estimate D2E/DX2                !
 ! D27   D(3,2,6,7)            141.753          estimate D2E/DX2                !
 ! D28   D(3,2,6,11)           -39.6837         estimate D2E/DX2                !
 ! D29   D(13,2,6,7)            19.559          estimate D2E/DX2                !
 ! D30   D(13,2,6,11)         -161.8778         estimate D2E/DX2                !
 ! D31   D(2,3,4,5)            -43.3076         estimate D2E/DX2                !
 ! D32   D(2,3,4,18)            75.3995         estimate D2E/DX2                !
 ! D33   D(2,3,4,19)          -165.2515         estimate D2E/DX2                !
 ! D34   D(12,3,4,5)          -168.8232         estimate D2E/DX2                !
 ! D35   D(12,3,4,18)          -50.1161         estimate D2E/DX2                !
 ! D36   D(12,3,4,19)           69.2328         estimate D2E/DX2                !
 ! D37   D(2,3,12,24)           61.7411         estimate D2E/DX2                !
 ! D38   D(2,3,12,25)          -59.3069         estimate D2E/DX2                !
 ! D39   D(2,3,12,26)         -179.7            estimate D2E/DX2                !
 ! D40   D(4,3,12,24)         -177.5764         estimate D2E/DX2                !
 ! D41   D(4,3,12,25)           61.3756         estimate D2E/DX2                !
 ! D42   D(4,3,12,26)          -59.0175         estimate D2E/DX2                !
 ! D43   D(3,4,5,1)             29.4697         estimate D2E/DX2                !
 ! D44   D(3,4,5,16)           -88.9369         estimate D2E/DX2                !
 ! D45   D(3,4,5,17)           151.0795         estimate D2E/DX2                !
 ! D46   D(18,4,5,1)           -89.3547         estimate D2E/DX2                !
 ! D47   D(18,4,5,16)          152.2387         estimate D2E/DX2                !
 ! D48   D(18,4,5,17)           32.2552         estimate D2E/DX2                !
 ! D49   D(19,4,5,1)           149.1863         estimate D2E/DX2                !
 ! D50   D(19,4,5,16)           30.7797         estimate D2E/DX2                !
 ! D51   D(19,4,5,17)          -89.2039         estimate D2E/DX2                !
 ! D52   D(2,6,7,8)            177.8904         estimate D2E/DX2                !
 ! D53   D(2,6,7,23)            -2.2766         estimate D2E/DX2                !
 ! D54   D(11,6,7,8)            -0.7248         estimate D2E/DX2                !
 ! D55   D(11,6,7,23)          179.1082         estimate D2E/DX2                !
 ! D56   D(2,6,11,10)         -178.1445         estimate D2E/DX2                !
 ! D57   D(2,6,11,20)            2.7075         estimate D2E/DX2                !
 ! D58   D(7,6,11,10)            0.4741         estimate D2E/DX2                !
 ! D59   D(7,6,11,20)         -178.6739         estimate D2E/DX2                !
 ! D60   D(6,7,8,9)              0.4783         estimate D2E/DX2                !
 ! D61   D(6,7,8,22)          -179.9697         estimate D2E/DX2                !
 ! D62   D(23,7,8,9)          -179.3661         estimate D2E/DX2                !
 ! D63   D(23,7,8,22)            0.1859         estimate D2E/DX2                !
 ! D64   D(7,8,9,10)             0.052          estimate D2E/DX2                !
 ! D65   D(7,8,9,21)           179.7968         estimate D2E/DX2                !
 ! D66   D(22,8,9,10)         -179.499          estimate D2E/DX2                !
 ! D67   D(22,8,9,21)            0.2458         estimate D2E/DX2                !
 ! D68   D(7,8,28,29)          -91.0683         estimate D2E/DX2                !
 ! D69   D(7,8,28,30)           91.7151         estimate D2E/DX2                !
 ! D70   D(9,8,28,29)           88.4531         estimate D2E/DX2                !
 ! D71   D(9,8,28,30)          -88.7635         estimate D2E/DX2                !
 ! D72   D(8,9,10,11)           -0.2967         estimate D2E/DX2                !
 ! D73   D(8,9,10,27)          179.6298         estimate D2E/DX2                !
 ! D74   D(21,9,10,11)         179.9785         estimate D2E/DX2                !
 ! D75   D(21,9,10,27)          -0.095          estimate D2E/DX2                !
 ! D76   D(9,10,11,6)            0.0233         estimate D2E/DX2                !
 ! D77   D(9,10,11,20)         179.1482         estimate D2E/DX2                !
 ! D78   D(27,10,11,6)        -179.9019         estimate D2E/DX2                !
 ! D79   D(27,10,11,20)         -0.777          estimate D2E/DX2                !
 ! D80   D(22,28,31,32)       -105.8757         estimate D2E/DX2                !
 ! D81   D(22,28,31,33)        101.6744         estimate D2E/DX2                !
 ! D82   D(29,28,31,32)         76.6095         estimate D2E/DX2                !
 ! D83   D(29,28,31,33)        -75.8405         estimate D2E/DX2                !
 ! D84   D(22,28,34,35)       -101.9147         estimate D2E/DX2                !
 ! D85   D(22,28,34,36)        106.0506         estimate D2E/DX2                !
 ! D86   D(30,28,34,35)         75.6501         estimate D2E/DX2                !
 ! D87   D(30,28,34,36)        -76.3846         estimate D2E/DX2                !
 ! D88   D(29,34,37,38)        -45.1537         estimate D2E/DX2                !
 ! D89   D(29,34,37,39)         95.302          estimate D2E/DX2                !
 ! D90   D(36,34,37,38)        109.2538         estimate D2E/DX2                !
 ! D91   D(36,34,37,39)       -110.2905         estimate D2E/DX2                !
 --------------------------------------------------------------------------------
 Trust Radius=3.00D-01 FncErr=1.00D-07 GrdErr=1.00D-06 EigMax=2.50D+02 EigMin=1.00D-04
 Number of steps in this run=    212 maximum allowed number of steps=    234.
 GradGradGradGradGradGradGradGradGradGradGradGradGradGradGradGradGradGrad

                          Input orientation:                          
 ---------------------------------------------------------------------
 Center     Atomic      Atomic             Coordinates (Angstroms)
 Number     Number       Type             X           Y           Z
 ---------------------------------------------------------------------
      1          6           0       -2.719638    1.640091   -0.519793
      2          6           0       -2.111391    0.216988   -0.604913
      3          7           0       -3.211627   -0.665235   -0.249760
      4          6           0       -4.391963   -0.079147   -0.879781
      5          6           0       -4.247793    1.416297   -0.598434
      6          6           0       -0.929912    0.028253    0.316069
      7          6           0        0.370391    0.075939   -0.158984
      8          7           0        1.415688   -0.051308    0.675150
      9          6           0        1.264041   -0.238253    1.992667
     10          6           0       -0.008668   -0.306881    2.535002
     11          6           0       -1.107236   -0.172504    1.690862
     12          6           0       -2.991624   -2.055639   -0.601363
     13          1           0       -1.771407    0.027864   -1.645562
     14          1           0       -2.438263    2.126530    0.421811
     15          1           0       -2.340239    2.266722   -1.334794
     16          1           0       -4.720058    1.670506    0.356996
     17          1           0       -4.718370    2.026173   -1.376500
     18          1           0       -4.392425   -0.272882   -1.971936
     19          1           0       -5.304474   -0.518450   -0.459863
     20          1           0       -2.124290   -0.234549    2.077944
     21          1           0        2.176601   -0.332179    2.576249
     22          1           0        2.398484   -0.008728    0.271732
     23          1           0        0.613559    0.213304   -1.210837
     24          1           0       -2.118696   -2.452641   -0.066248
     25          1           0       -2.826897   -2.191605   -1.689167
     26          1           0       -3.863980   -2.650397   -0.307058
     27          1           0       -0.131483   -0.464724    3.603967
     28          8           0        3.831975    0.052847   -0.326806
     29          1           0        4.350944   -0.711010   -0.637111
     30          1           0        4.377602    0.854869   -0.417023
     31          8           0        5.255670    2.401467   -0.523239
     32          1           0        5.410889    2.881760   -1.340863
     33          1           0        5.959644    2.667796    0.074081
     34          8           0        5.173909   -2.198658   -1.170700
     35          1           0        5.867475   -2.642070   -0.675015
     36          1           0        5.317280   -2.436593   -2.090569
     37          8           0        7.155932   -3.504934    0.201544
     38          1           0        7.951229   -3.174393    0.653239
     39          1           0        6.879470   -4.244805    0.770227
 ---------------------------------------------------------------------
                    Distance matrix (angstroms):
                    1          2          3          4          5
     1  C    0.000000
     2  C    1.549978   0.000000
     3  N    2.372657   1.454294   0.000000
     4  C    2.425292   2.316087   1.460691   0.000000
     5  C    1.546456   2.450020   2.351168   1.528494   0.000000
     6  C    2.549472   1.509875   2.450982   3.664340   3.710972
     7  C    3.482102   2.525468   3.659021   4.819089   4.828799
     8  N    4.624894   3.761759   4.758614   6.012270   5.987562
     9  C    5.070535   4.283481   5.024181   6.345601   6.311232
    10  C    4.524581   3.815095   4.259374   5.561104   5.545985
    11  C    3.282124   2.535866   2.904696   4.172092   4.198603
    12  C    3.706622   2.437141   1.450948   2.438234   3.692196
    13  H    2.183065   1.110994   2.122000   2.732249   3.026006
    14  H    1.096546   2.192569   2.973727   3.221195   2.195388
    15  H    1.095827   2.187809   3.245456   3.149557   2.214545
    16  H    2.184345   3.137376   2.845910   2.167614   1.095675
    17  H    2.208605   3.265706   3.283823   2.187611   1.094887
    18  H    2.926842   2.704042   2.124645   1.109205   2.181915
    19  H    3.368125   3.279891   2.108482   1.096355   2.208851
    20  H    3.258366   2.720620   2.604995   3.730232   3.794411
    21  H    6.119516   5.367332   6.093460   7.426587   7.376220
    22  H    5.435098   4.599829   5.672416   6.887751   6.852801
    23  H    3.690998   2.791507   4.040736   5.024975   5.045292
    24  H    4.161405   2.723441   2.103092   3.385713   4.448028
    25  H    4.007597   2.736581   2.133006   2.750821   4.028101
    26  H    4.445567   3.373749   2.090386   2.686653   4.095145
    27  H    5.304167   4.701004   4.937479   6.197125   6.175955
    28  O    6.743902   5.952133   7.080530   8.243565   8.198502
    29  H    7.452152   6.528705   7.572623   8.769069   8.858059
    30  H    7.141285   6.522977   7.741776   8.831297   8.645551
    31  O    8.011569   7.684543   9.009693   9.967818   9.554686
    32  H    8.265674   8.014195   9.387197  10.250633   9.797394
    33  H    8.760068   8.462216   9.763513  10.752270  10.305838
    34  O    8.801577   7.696172   8.574190   9.802187  10.107614
    35  H    9.596849   8.475932   9.301549  10.576699  10.899305
    36  H    9.147608   8.027068   8.903288  10.064440  10.419302
    37  O   11.158786  10.019299  10.758896  12.093766  12.446021
    38  H   11.765316  10.693023  11.476961  12.817375  13.094169
    39  H   11.333095  10.130854  10.755647  12.129322  12.559351
                    6          7          8          9         10
     6  C    0.000000
     7  C    1.385185   0.000000
     8  N    2.374260   1.343360   0.000000
     9  C    2.774065   2.350942   1.339327   0.000000
    10  C    2.425834   2.747326   2.356514   1.385144   0.000000
    11  C    1.400644   2.380554   2.722408   2.391310   1.391934
    12  C    3.071635   4.005305   5.007118   5.304957   4.668294
    13  H    2.134505   2.607590   3.943291   4.745679   4.549332
    14  H    2.586324   3.525732   4.433971   4.665495   4.036087
    15  H    3.118512   3.678257   4.849755   5.507970   5.199517
    16  H    4.130845   5.359249   6.380693   6.490626   5.554365
    17  H    4.605311   5.584017   6.793516   7.229672   6.551663
    18  H    4.161087   5.108120   6.386731   6.907596   6.287366
    19  H    4.476354   5.713836   6.831329   7.017037   6.087655
    20  H    2.144716   3.365068   3.812198   3.389406   2.165639
    21  H    3.858594   3.303098   2.066895   1.087270   2.185805
    22  H    3.328897   2.075053   1.063225   2.073948   3.317479
    23  H    2.178988   1.088299   2.066489   3.299919   3.832632
    24  H    2.777446   3.549348   4.336812   4.537131   3.977814
    25  H    3.542216   4.207834   5.307579   5.840142   5.416475
    26  H    4.021468   5.038326   5.966145   6.115862   5.332242
    27  H    3.419179   3.834579   3.338056   2.143610   1.087513
    28  O    4.805149   3.465727   2.617863   3.472604   4.803112
    29  H    5.416872   4.085670   3.282219   4.082671   5.406648
    30  H    5.421293   4.090361   3.284347   4.086047   5.413269
    31  O    6.678174   5.422796   4.711444   5.406571   6.663426
    32  H    7.147985   5.888641   5.350591   6.167921   7.386566
    33  H    7.381851   6.165370   5.329385   5.845920   7.108135
    34  O    6.665302   5.410282   4.705582   5.397884   6.646063
    35  H    7.370030   6.154006   5.324791   5.838362   7.091289
    36  H    7.134058   5.874993   5.344269   6.159080   7.368670
    37  O    8.824818   7.680899   6.715820   6.970919   8.185601
    38  H    9.446973   8.288152   7.243441   7.425191   8.667388
    39  H    8.913570   7.867679   6.888206   7.005702   8.128230
                   11         12         13         14         15
    11  C    0.000000
    12  C    3.514457   0.000000
    13  H    3.407785   2.630640   0.000000
    14  H    2.944092   4.340925   3.020451   0.000000
    15  H    4.077342   4.432271   2.330801   1.764915   0.000000
    16  H    4.269469   4.217830   3.924672   2.327820   2.980128
    17  H    5.223330   4.499298   3.570746   2.905664   2.390630
    18  H    4.921243   2.649328   2.658327   3.912282   3.326711
    19  H    4.728859   2.780692   3.766551   3.998554   4.160454
    20  H    1.089991   3.353703   3.749384   2.901043   4.236717
    21  H    3.404848   6.306987   5.791380   5.655424   6.515550
    22  H    3.785608   5.831415   4.589700   5.289232   5.496735
    23  H    3.395562   4.303127   2.431345   3.954692   3.599557
    24  H    3.051149   1.098163   2.961038   4.616182   4.891899
    25  H    4.296347   1.108575   2.458049   4.822194   4.498788
    26  H    4.210852   1.096065   3.652881   5.038150   5.249389
    27  H    2.167362   5.328810   5.521734   4.707648   6.060591
    28  O    5.340185   7.147209   5.756529   6.646538   6.634268
    29  H    5.958286   7.464758   6.248687   7.434129   7.357009
    30  H    5.965075   7.925309   6.324837   6.984038   6.925678
    31  O    7.212083   9.374954   7.501561   7.756630   7.640328
    32  H    7.810623   9.773791   7.734529   8.080011   7.775493
    33  H    7.786018  10.143582   8.348387   8.422513   8.428158
    34  O    7.193512   8.186607   7.308920   8.898792   8.742366
    35  H    7.768058   8.878793   8.150032   9.639910   9.586351
    36  H    7.791003   8.449896   7.518049   9.342515   9.018313
    37  O    9.033444  10.281927   9.777006  11.127016  11.218272
    38  H    9.599156  11.071209  10.491358  11.665971  11.809840
    39  H    9.012141  10.203539   9.946327  11.293160  11.481905
                   16         17         18         19         20
    16  H    0.000000
    17  H    1.769607   0.000000
    18  H    3.050906   2.397173   0.000000
    19  H    2.408387   2.767462   1.782835   0.000000
    20  H    3.650878   4.875787   4.641921   4.078558   0.000000
    21  H    7.516631   8.290155   7.990094   8.075838   4.330762
    22  H    7.314420   7.583344   7.156834   7.754393   4.875334
    23  H    5.747087   5.634129   5.086799   6.010203   4.302612
    24  H    4.893522   5.341801   3.681418   3.747694   3.085048
    25  H    4.763060   4.633042   2.492455   3.232495   4.302889
    26  H    4.454665   4.872781   2.950195   2.577512   3.814587
    27  H    6.013073   7.214510   7.020194   6.578559   2.520517
    28  O    8.730503   8.837662   8.393647   9.155260   6.429814
    29  H    9.430957   9.502175   8.855519   9.658964   7.037556
    30  H    9.166885   9.221131   8.977915   9.779082   7.048850
    31  O   10.041129  10.017503  10.116156  10.956577   8.257030
    32  H   10.343401  10.165392  10.317702  11.276373   8.841863
    33  H   10.729896  10.795177  10.954410  11.718260   8.819811
    34  O   10.732887  10.758659   9.791085  10.636019   8.226489
    35  H   11.478642  11.590716  10.609458  11.374027   8.788814
    36  H   11.117868  11.006382   9.948572  10.916049   8.809226
    37  O   12.955636  13.194030  12.187483  12.830365  10.016927
    38  H   13.569168  13.845016  12.948981  13.564907  10.591910
    39  H   13.027307  13.358275  12.261780  12.800287   9.942835
                   21         22         23         24         25
    21  H    0.000000
    22  H    2.337659   0.000000
    23  H    4.133119   2.330937   0.000000
    24  H    5.470715   5.147024   3.985293   0.000000
    25  H    6.832732   5.992886   4.224822   1.789848   0.000000
    26  H    7.083517   6.821427   5.391285   1.772883   1.787808
    27  H    2.530025   4.208617   4.919060   4.622911   6.185842
    28  O    3.363961   1.554650   3.341476   6.461876   7.157805
    29  H    3.898328   2.265236   3.892501   6.724240   7.404079
    30  H    3.900406   2.266515   3.899970   7.298257   7.924908
    31  O    5.153670   3.821587   5.177842   8.840389   9.369290
    32  H    6.011139   4.475485   5.491078   9.315317   9.680985
    33  H    5.438024   4.459227   6.021310   9.565466  10.194416
    34  O    5.148517   3.818296   5.159066   7.380136   8.017590
    35  H    5.434047   4.456985   6.003657   8.011580   8.764903
    36  H    6.005965   4.471506   5.469998   7.706612   8.157742
    37  O    6.363909   5.904380   7.656550   9.337974  10.244828
    38  H    6.717326   6.403121   8.294135  10.121363  11.073425
    39  H    6.378663   6.186444   7.941096   9.212955  10.221439
                   26         27         28         29         30
    26  H    0.000000
    27  H    5.831365   0.000000
    28  O    8.156938   5.606055   0.000000
    29  H    8.447197   6.175723   0.974215   0.000000
    30  H    8.956710   6.183974   0.974211   1.581495   0.000000
    31  O   10.427659   7.366838   2.753454   3.243302   1.781643
    32  H   10.848811   8.146667   3.394706   3.811397   2.455494
    33  H   11.177300   7.705492   3.394944   3.809205   2.455757
    34  O    9.090291   7.345145   2.753583   1.781877   3.244405
    35  H    9.738413   7.683620   3.395156   2.455666   3.809838
    36  H    9.355328   8.124348   3.393273   2.454380   3.810180
    37  O   11.064691   8.598010   4.897515   4.046889   5.206691
    38  H   11.865745   9.021049   5.323891   4.549210   5.491013
    39  H   10.914413   8.454145   5.381498   4.567467   5.803067
                   31         32         33         34         35
    31  O    0.000000
    32  H    0.960876   0.000000
    33  H    0.960886   1.532638   0.000000
    34  O    4.646186   5.088788   5.084214   0.000000
    35  H    5.082775   5.582519   5.363238   0.960912   0.000000
    36  H    5.085975   5.371750   5.581499   0.960899   1.532556
    37  O    6.246750   6.798092   6.288875   2.741866   1.781295
    38  H    6.303995   6.863436   6.199436   3.462993   2.527777
    39  H    6.962953   7.576369   7.008192   3.295885   2.383615
                   36         37         38         39
    36  H    0.000000
    37  O    3.126624   0.000000
    38  H    3.874341   0.972514   0.000000
    39  H    3.727496   0.973263   1.519255   0.000000
 Stoichiometry    C10H23N2O4(1+)
 Framework group  C1[X(C10H23N2O4)]
 Deg. of freedom   111
 Full point group                 C1      NOp   1
 Largest Abelian subgroup         C1      NOp   1
 Largest concise Abelian subgroup C1      NOp   1
                         Standard orientation:                         
 ---------------------------------------------------------------------
 Center     Atomic      Atomic             Coordinates (Angstroms)
 Number     Number       Type             X           Y           Z
 ---------------------------------------------------------------------
      1          6           0       -3.539824    1.414421   -0.423256
      2          6           0       -2.721829    0.108287   -0.588575
      3          7           0       -3.669219   -0.950188   -0.277044
      4          6           0       -4.933428   -0.519845   -0.868819
      5          6           0       -5.016519    0.962891   -0.507039
      6          6           0       -1.513640    0.054714    0.315378
      7          6           0       -0.242219    0.326891   -0.162268
      8          7           0        0.820868    0.317671    0.658936
      9          6           0        0.716612    0.039865    1.964980
     10          6           0       -0.523468   -0.252311    2.508541
     11          6           0       -1.640415   -0.243712    1.677976
     12          6           0       -3.243287   -2.269570   -0.704903
     13          1           0       -2.370288    0.029263   -1.639518
     14          1           0       -3.324232    1.887578    0.542174
     15          1           0       -3.271443    2.134352   -1.204605
     16          1           0       -5.509838    1.090331    0.462960
     17          1           0       -5.584961    1.533675   -1.248563
     18          1           0       -4.918239   -0.653011   -1.969897
     19          1           0       -5.762367   -1.115885   -0.469331
     20          1           0       -2.630886   -0.481842    2.065714
     21          1           0        1.640214    0.056438    2.538426
     22          1           0        1.780262    0.532198    0.253981
     23          1           0       -0.036518    0.555722   -1.206164
     24          1           0       -2.313025   -2.555553   -0.196190
     25          1           0       -3.073670   -2.320577   -1.799237
     26          1           0       -4.010341   -3.006146   -0.439495
     27          1           0       -0.606890   -0.483757    3.567860
     28          8           0        3.179571    0.845117   -0.346813
     29          1           0        3.805431    0.187699   -0.700643
     30          1           0        3.594645    1.725125   -0.395658
     31          8           0        4.223900    3.391746   -0.421405
     32          1           0        4.293160    3.932968   -1.212331
     33          1           0        4.886368    3.730985    0.186342
     34          8           0        4.839715   -1.125275   -1.318253
     35          1           0        5.599353   -1.482524   -0.850626
     36          1           0        5.006015   -1.289103   -2.250364
     37          8           0        7.015981   -2.182445   -0.028259
     38          1           0        7.756973   -1.758070    0.437166
     39          1           0        6.863498   -2.985191    0.500502
 ---------------------------------------------------------------------
 Rotational constants (GHZ):           0.6632680           0.1430775           0.1345199
 Standard basis: Aug-CC-pVDZ (5D, 7F)
 There are   607 symmetry adapted cartesian basis functions of A   symmetry.
 There are   575 symmetry adapted basis functions of A   symmetry.
   575 basis functions,   941 primitive gaussians,   607 cartesian basis functions
    64 alpha electrons       64 beta electrons
       nuclear repulsion energy      1110.5877817905 Hartrees.
 NAtoms=   39 NActive=   39 NUniq=   39 SFac= 1.00D+00 NAtFMM=   60 NAOKFM=F Big=F
 Integral buffers will be    131072 words long.
 Raffenetti 2 integral format.
 Two-electron integral symmetry is turned on.
 Nuclear repulsion after empirical dispersion term =     1110.5641886993 Hartrees.
 One-electron integrals computed using PRISM.
 NBasis=   575 RedAO= T EigKep=  2.26D-06  NBF=   575
 NBsUse=   575 1.00D-06 EigRej= -1.00D+00 NBFU=   575
 ExpMin= 2.97D-02 ExpMax= 1.17D+04 ExpMxC= 4.01D+02 IAcc=3 IRadAn=         5 AccDes= 0.00D+00
 Harris functional with IExCor= 4639 and IRadAn=       5 diagonalized for initial guess.
 HarFok:  IExCor= 4639 AccDes= 0.00D+00 IRadAn=         5 IDoV= 1 UseB2=F ITyADJ=14
 ICtDFT=  3500011 ScaDFX=  1.000000  1.000000  1.000000  1.000000
 FoFCou: FMM=F IPFlag=           0 FMFlag=      100000 FMFlg1=           0
         NFxFlg=           0 DoJE=T BraDBF=F KetDBF=T FulRan=T
         wScrn=  0.000000 ICntrl=       500 IOpCl=  0 I1Cent=   200000004 NGrid=           0
         NMat0=    1 NMatS0=      1 NMatT0=    0 NMatD0=    1 NMtDS0=    0 NMtDT0=    0
 Petite list used in FoFCou.
 Requested convergence on RMS density matrix=1.00D-08 within 128 cycles.
 Requested convergence on MAX density matrix=1.00D-06.
 Requested convergence on             energy=1.00D-06.
 No special actions if energy rises.
 SCF Done:  E(RwB97XD) =  -805.020808610     A.U. after   14 cycles
            NFock= 14  Conv=0.67D-08     -V/T= 2.0063

 **********************************************************************

            Population analysis using the SCF density.

 **********************************************************************

 Orbital symmetries:
       Occupied  (A) (A) (A) (A) (A) (A) (A) (A) (A) (A) (A) (A)
                 (A) (A) (A) (A) (A) (A) (A) (A) (A) (A) (A) (A)
                 (A) (A) (A) (A) (A) (A) (A) (A) (A) (A) (A) (A)
                 (A) (A) (A) (A) (A) (A) (A) (A) (A) (A) (A) (A)
                 (A) (A) (A) (A) (A) (A) (A) (A) (A) (A) (A) (A)
                 (A) (A) (A) (A)
       Virtual   (A) (A) (A) (A) (A) (A) (A) (A) (A) (A) (A) (A)
                 (A) (A) (A) (A) (A) (A) (A) (A) (A) (A) (A) (A)
                 (A) (A) (A) (A) (A) (A) (A) (A) (A) (A) (A) (A)
                 (A) (A) (A) (A) (A) (A) (A) (A) (A) (A) (A) (A)
                 (A) (A) (A) (A) (A) (A) (A) (A) (A) (A) (A) (A)
                 (A) (A) (A) (A) (A) (A) (A) (A) (A) (A) (A) (A)
                 (A) (A) (A) (A) (A) (A) (A) (A) (A) (A) (A) (A)
                 (A) (A) (A) (A) (A) (A) (A) (A) (A) (A) (A) (A)
                 (A) (A) (A) (A) (A) (A) (A) (A) (A) (A) (A) (A)
                 (A) (A) (A) (A) (A) (A) (A) (A) (A) (A) (A) (A)
                 (A) (A) (A) (A) (A) (A) (A) (A) (A) (A) (A) (A)
                 (A) (A) (A) (A) (A) (A) (A) (A) (A) (A) (A) (A)
                 (A) (A) (A) (A) (A) (A) (A) (A) (A) (A) (A) (A)
                 (A) (A) (A) (A) (A) (A) (A) (A) (A) (A) (A) (A)
                 (A) (A) (A) (A) (A) (A) (A) (A) (A) (A) (A) (A)
                 (A) (A) (A) (A) (A) (A) (A) (A) (A) (A) (A) (A)
                 (A) (A) (A) (A) (A) (A) (A) (A) (A) (A) (A) (A)
                 (A) (A) (A) (A) (A) (A) (A) (A) (A) (A) (A) (A)
                 (A) (A) (A) (A) (A) (A) (A) (A) (A) (A) (A) (A)
                 (A) (A) (A) (A) (A) (A) (A) (A) (A) (A) (A) (A)
                 (A) (A) (A) (A) (A) (A) (A) (A) (A) (A) (A) (A)
                 (A) (A) (A) (A) (A) (A) (A) (A) (A) (A) (A) (A)
                 (A) (A) (A) (A) (A) (A) (A) (A) (A) (A) (A) (A)
                 (A) (A) (A) (A) (A) (A) (A) (A) (A) (A) (A) (A)
                 (A) (A) (A) (A) (A) (A) (A) (A) (A) (A) (A) (A)
                 (A) (A) (A) (A) (A) (A) (A) (A) (A) (A) (A) (A)
                 (A) (A) (A) (A) (A) (A) (A) (A) (A) (A) (A) (A)
                 (A) (A) (A) (A) (A) (A) (A) (A) (A) (A) (A) (A)
                 (A) (A) (A) (A) (A) (A) (A) (A) (A) (A) (A) (A)
                 (A) (A) (A) (A) (A) (A) (A) (A) (A) (A) (A) (A)
                 (A) (A) (A) (A) (A) (A) (A) (A) (A) (A) (A) (A)
                 (A) (A) (A) (A) (A) (A) (A) (A) (A) (A) (A) (A)
                 (A) (A) (A) (A) (A) (A) (A) (A) (A) (A) (A) (A)
                 (A) (A) (A) (A) (A) (A) (A) (A) (A) (A) (A) (A)
                 (A) (A) (A) (A) (A) (A) (A) (A) (A) (A) (A) (A)
                 (A) (A) (A) (A) (A) (A) (A) (A) (A) (A) (A) (A)
                 (A) (A) (A) (A) (A) (A) (A) (A) (A) (A) (A) (A)
                 (A) (A) (A) (A) (A) (A) (A) (A) (A) (A) (A) (A)
                 (A) (A) (A) (A) (A) (A) (A) (A) (A) (A) (A) (A)
                 (A) (A) (A) (A) (A) (A) (A) (A) (A) (A) (A) (A)
                 (A) (A) (A) (A) (A) (A) (A) (A) (A) (A) (A) (A)
                 (A) (A) (A) (A) (A) (A) (A) (A) (A) (A) (A) (A)
                 (A) (A) (A) (A) (A) (A) (A)
 The electronic state is 1-A.
 Alpha  occ. eigenvalues --  -19.39980 -19.39493 -19.36757 -19.36471 -14.66037
 Alpha  occ. eigenvalues --  -14.54361 -10.49833 -10.49459 -10.46085 -10.45687
 Alpha  occ. eigenvalues --  -10.45608 -10.44247 -10.40686 -10.40647 -10.39696
 Alpha  occ. eigenvalues --  -10.38362  -1.24516  -1.24274  -1.23352  -1.21470
 Alpha  occ. eigenvalues --   -1.20372  -1.14853  -1.06621  -1.03349  -0.98214
 Alpha  occ. eigenvalues --   -0.94007  -0.89113  -0.87704  -0.86620  -0.81383
 Alpha  occ. eigenvalues --   -0.77578  -0.76292  -0.74704  -0.73635  -0.73355
 Alpha  occ. eigenvalues --   -0.73036  -0.72163  -0.72130  -0.69599  -0.67644
 Alpha  occ. eigenvalues --   -0.67541  -0.66471  -0.63560  -0.63059  -0.62354
 Alpha  occ. eigenvalues --   -0.61531  -0.61228  -0.60019  -0.58985  -0.57467
 Alpha  occ. eigenvalues --   -0.56194  -0.55841  -0.55159  -0.54234  -0.53437
 Alpha  occ. eigenvalues --   -0.52800  -0.52139  -0.51642  -0.51559  -0.51006
 Alpha  occ. eigenvalues --   -0.50005  -0.49929  -0.47818  -0.40428
 Alpha virt. eigenvalues --   -0.12760  -0.09352  -0.06259  -0.04793  -0.04652
 Alpha virt. eigenvalues --   -0.04185  -0.03102  -0.02907  -0.02517  -0.02079
 Alpha virt. eigenvalues --   -0.01720  -0.01467  -0.00913  -0.00707  -0.00559
 Alpha virt. eigenvalues --   -0.00127   0.00477   0.00687   0.01282   0.01569
 Alpha virt. eigenvalues --    0.01985   0.02364   0.02605   0.03214   0.03555
 Alpha virt. eigenvalues --    0.03974   0.04115   0.04173   0.04365   0.04929
 Alpha virt. eigenvalues --    0.05233   0.05772   0.05867   0.06158   0.06374
 Alpha virt. eigenvalues --    0.06710   0.06911   0.06993   0.07461   0.07972
 Alpha virt. eigenvalues --    0.08200   0.08292   0.08867   0.08913   0.09075
 Alpha virt. eigenvalues --    0.09684   0.09907   0.10113   0.10534   0.10939
 Alpha virt. eigenvalues --    0.11240   0.11462   0.11536   0.11870   0.12457
 Alpha virt. eigenvalues --    0.12549   0.12826   0.12947   0.13262   0.13470
 Alpha virt. eigenvalues --    0.13722   0.14077   0.14274   0.14700   0.14721
 Alpha virt. eigenvalues --    0.15033   0.15444   0.15921   0.16095   0.16379
 Alpha virt. eigenvalues --    0.16780   0.16994   0.17224   0.17278   0.17582
 Alpha virt. eigenvalues --    0.17930   0.18215   0.18357   0.18926   0.19192
 Alpha virt. eigenvalues --    0.19490   0.19611   0.20099   0.20388   0.20800
 Alpha virt. eigenvalues --    0.20929   0.21099   0.21469   0.22021   0.22287
 Alpha virt. eigenvalues --    0.22476   0.22570   0.22810   0.23401   0.23686
 Alpha virt. eigenvalues --    0.24004   0.24435   0.24891   0.25004   0.25306
 Alpha virt. eigenvalues --    0.25677   0.25884   0.26341   0.26992   0.27033
 Alpha virt. eigenvalues --    0.27371   0.27523   0.28088   0.28171   0.28582
 Alpha virt. eigenvalues --    0.28834   0.29203   0.29437   0.29752   0.30332
 Alpha virt. eigenvalues --    0.30663   0.31205   0.31583   0.31916   0.32502
 Alpha virt. eigenvalues --    0.32783   0.33021   0.33414   0.33857   0.34093
 Alpha virt. eigenvalues --    0.34685   0.35045   0.35269   0.36274   0.36525
 Alpha virt. eigenvalues --    0.36640   0.37153   0.37576   0.37713   0.38269
 Alpha virt. eigenvalues --    0.38865   0.39009   0.39485   0.39738   0.39957
 Alpha virt. eigenvalues --    0.41005   0.41800   0.41893   0.42405   0.42574
 Alpha virt. eigenvalues --    0.42839   0.43288   0.43592   0.43731   0.43989
 Alpha virt. eigenvalues --    0.44302   0.44526   0.44770   0.45477   0.45979
 Alpha virt. eigenvalues --    0.46135   0.46382   0.46615   0.46764   0.47047
 Alpha virt. eigenvalues --    0.47231   0.47940   0.48476   0.49081   0.49463
 Alpha virt. eigenvalues --    0.50001   0.50349   0.50817   0.50883   0.51092
 Alpha virt. eigenvalues --    0.51270   0.51652   0.52041   0.52468   0.52663
 Alpha virt. eigenvalues --    0.52901   0.53141   0.53393   0.53693   0.53986
 Alpha virt. eigenvalues --    0.54262   0.54963   0.55242   0.55468   0.56081
 Alpha virt. eigenvalues --    0.56196   0.56803   0.57117   0.57761   0.58111
 Alpha virt. eigenvalues --    0.58295   0.58748   0.58909   0.59913   0.60482
 Alpha virt. eigenvalues --    0.60626   0.61120   0.62338   0.62798   0.63248
 Alpha virt. eigenvalues --    0.63894   0.64095   0.64696   0.64849   0.65056
 Alpha virt. eigenvalues --    0.65324   0.65877   0.66193   0.66745   0.67236
 Alpha virt. eigenvalues --    0.68101   0.68790   0.69105   0.69623   0.70132
 Alpha virt. eigenvalues --    0.70282   0.70926   0.71435   0.71599   0.71820
 Alpha virt. eigenvalues --    0.72386   0.72777   0.72950   0.73720   0.74200
 Alpha virt. eigenvalues --    0.74610   0.75087   0.75406   0.75634   0.76657
 Alpha virt. eigenvalues --    0.77180   0.77776   0.78088   0.78414   0.79328
 Alpha virt. eigenvalues --    0.79749   0.80083   0.80620   0.81102   0.81385
 Alpha virt. eigenvalues --    0.82219   0.83312   0.83494   0.83846   0.84830
 Alpha virt. eigenvalues --    0.85174   0.86388   0.86763   0.87156   0.87434
 Alpha virt. eigenvalues --    0.88266   0.89459   0.89631   0.90861   0.91424
 Alpha virt. eigenvalues --    0.92450   0.92672   0.93232   0.93738   0.93966
 Alpha virt. eigenvalues --    0.94584   0.95891   0.97556   0.97794   0.98450
 Alpha virt. eigenvalues --    0.98982   0.99655   0.99789   1.00815   1.01826
 Alpha virt. eigenvalues --    1.02473   1.02937   1.03518   1.04587   1.04761
 Alpha virt. eigenvalues --    1.06138   1.06528   1.07178   1.07551   1.07817
 Alpha virt. eigenvalues --    1.09345   1.09774   1.10407   1.10627   1.12375
 Alpha virt. eigenvalues --    1.13158   1.14082   1.15758   1.16922   1.17273
 Alpha virt. eigenvalues --    1.17569   1.18072   1.18323   1.19344   1.20314
 Alpha virt. eigenvalues --    1.21908   1.23171   1.24106   1.24766   1.25225
 Alpha virt. eigenvalues --    1.26147   1.27558   1.28094   1.30058   1.30493
 Alpha virt. eigenvalues --    1.31256   1.31401   1.32161   1.33202   1.34336
 Alpha virt. eigenvalues --    1.34654   1.35420   1.36327   1.37241   1.37528
 Alpha virt. eigenvalues --    1.38232   1.39033   1.40048   1.40218   1.42281
 Alpha virt. eigenvalues --    1.43943   1.43970   1.44653   1.45771   1.46896
 Alpha virt. eigenvalues --    1.48141   1.48521   1.49915   1.50349   1.51667
 Alpha virt. eigenvalues --    1.52614   1.53811   1.54405   1.55780   1.56021
 Alpha virt. eigenvalues --    1.57453   1.58389   1.59608   1.61243   1.61456
 Alpha virt. eigenvalues --    1.63167   1.63425   1.64875   1.65672   1.66283
 Alpha virt. eigenvalues --    1.66973   1.67288   1.68673   1.68781   1.69977
 Alpha virt. eigenvalues --    1.70221   1.71073   1.72584   1.72734   1.73082
 Alpha virt. eigenvalues --    1.73648   1.74166   1.74758   1.75005   1.76358
 Alpha virt. eigenvalues --    1.77320   1.77478   1.79242   1.79618   1.80349
 Alpha virt. eigenvalues --    1.81094   1.82619   1.83129   1.83462   1.84162
 Alpha virt. eigenvalues --    1.85118   1.85393   1.86799   1.86995   1.87974
 Alpha virt. eigenvalues --    1.88878   1.89326   1.89953   1.90698   1.92117
 Alpha virt. eigenvalues --    1.92999   1.93112   1.93929   1.95377   1.95982
 Alpha virt. eigenvalues --    1.96945   1.97786   1.98296   1.98686   2.00495
 Alpha virt. eigenvalues --    2.01162   2.01350   2.02330   2.03872   2.04630
 Alpha virt. eigenvalues --    2.07010   2.07528   2.08074   2.08781   2.09909
 Alpha virt. eigenvalues --    2.10604   2.12320   2.12830   2.13636   2.14652
 Alpha virt. eigenvalues --    2.14905   2.15545   2.16672   2.17081   2.17796
 Alpha virt. eigenvalues --    2.17999   2.18934   2.19515   2.21075   2.22447
 Alpha virt. eigenvalues --    2.23960   2.24321   2.24493   2.25102   2.25773
 Alpha virt. eigenvalues --    2.27949   2.28895   2.30194   2.30483   2.31691
 Alpha virt. eigenvalues --    2.32030   2.33984   2.34185   2.36278   2.37184
 Alpha virt. eigenvalues --    2.38305   2.40816   2.42050   2.42299   2.44611
 Alpha virt. eigenvalues --    2.45619   2.46437   2.48251   2.48670   2.49722
 Alpha virt. eigenvalues --    2.50808   2.51319   2.52491   2.53400   2.55419
 Alpha virt. eigenvalues --    2.56237   2.56948   2.57278   2.57834   2.59667
 Alpha virt. eigenvalues --    2.61467   2.61893   2.62665   2.64145   2.65322
 Alpha virt. eigenvalues --    2.67075   2.68433   2.69109   2.70210   2.71698
 Alpha virt. eigenvalues --    2.72271   2.73043   2.74261   2.75266   2.75591
 Alpha virt. eigenvalues --    2.78469   2.79646   2.79949   2.81058   2.83181
 Alpha virt. eigenvalues --    2.83447   2.84851   2.85797   2.87758   2.89020
 Alpha virt. eigenvalues --    2.91420   2.94068   2.96871   3.03435   3.05420
 Alpha virt. eigenvalues --    3.14320   3.15159   3.16776   3.21742   3.28354
 Alpha virt. eigenvalues --    3.29094   3.29716   3.33567   3.35207   3.36975
 Alpha virt. eigenvalues --    3.38031   3.40511   3.42341   3.43330   3.44858
 Alpha virt. eigenvalues --    3.45944   3.51340   3.51882   3.53735   3.64645
 Alpha virt. eigenvalues --    3.66340   3.67998   3.72459   3.80550   3.88300
 Alpha virt. eigenvalues --    3.90491   3.99030   4.06642   4.10006   4.28673
 Alpha virt. eigenvalues --    4.91544
          Condensed to atoms (all electrons):
               1          2          3          4          5          6
     1  C    7.201678  -0.817187  -0.440304   0.363895  -0.710066   0.340992
     2  C   -0.817187  20.150729  -2.248655  -0.200113  -0.897128  -5.494069
     3  N   -0.440304  -2.248655   8.850808   0.115098   0.149721   0.793946
     4  C    0.363895  -0.200113   0.115098   5.684400   0.082323  -0.236272
     5  C   -0.710066  -0.897128   0.149721   0.082323   6.141825   0.590619
     6  C    0.340992  -5.494069   0.793946  -0.236272   0.590619  23.882797
     7  C   -0.752212  -1.944008   0.041857  -0.255229   0.152663  -7.771976
     8  N    0.028739   0.459614  -0.056711   0.019366  -0.013659   0.337774
     9  C   -0.139518  -0.962900   0.061416  -0.060329  -0.010148  -0.450780
    10  C    0.288318   0.148790  -0.153221   0.076546   0.067989   1.411434
    11  C   -0.218346  -0.722494   0.386951  -0.094263  -0.354263  -8.394923
    12  C   -0.068163  -0.405853   0.431552  -0.206397   0.008971   0.240051
    13  H    0.381299  -2.234803  -0.129361  -0.126182   0.053281   0.463325
    14  H   -0.347361   0.043797   0.029508   0.064657   0.279104  -0.506894
    15  H   -0.721098   0.196241   0.152749  -0.152477   0.240831   0.210123
    16  H    0.120346  -0.033446   0.087324  -0.028426  -0.226330   0.045769
    17  H    0.322568  -0.018847  -0.032118   0.135389  -0.323304  -0.040649
    18  H   -0.126631  -0.278048   0.459567  -0.284964   0.072733   0.181423
    19  H    0.131627   0.556199  -0.705606  -0.100019  -0.043174  -0.226488
    20  H    0.056771   0.073932  -0.217523   0.025411   0.010285   0.128575
    21  H    0.006073   0.015881   0.003667  -0.001175  -0.000489   0.251915
    22  H   -0.031848  -0.084719   0.006330  -0.006496   0.006187  -0.829096
    23  H    0.153364   0.076590   0.057444   0.017572   0.001691   0.104746
    24  H    0.129489   0.183161  -0.170915  -0.075515  -0.068995   0.051085
    25  H   -0.024063  -0.296533   0.221703   0.015521   0.057034   0.005495
    26  H   -0.058771  -0.064873  -0.256347   0.027798   0.051364   0.126696
    27  H   -0.009697   0.017419  -0.004454   0.001100   0.005156  -0.387044
    28  O   -0.002426  -0.002953   0.000460   0.000191  -0.000206  -0.143046
    29  H    0.001451   0.004392   0.000181   0.000267  -0.000208   0.017274
    30  H   -0.000708   0.004594  -0.000231   0.000067  -0.000106   0.000945
    31  O    0.000190   0.000042  -0.000002  -0.000000   0.000008   0.003360
    32  H    0.000055   0.000039  -0.000008   0.000001   0.000001   0.000778
    33  H    0.000026  -0.000026   0.000003  -0.000001   0.000004   0.000108
    34  O    0.000024   0.000149   0.000000   0.000001  -0.000002   0.002423
    35  H   -0.000020   0.000083  -0.000006   0.000003   0.000003   0.000013
    36  H   -0.000012  -0.000034  -0.000006  -0.000007   0.000003   0.000411
    37  O   -0.000000   0.000004   0.000000   0.000000  -0.000000   0.000084
    38  H    0.000000  -0.000006   0.000000  -0.000000   0.000000  -0.000019
    39  H   -0.000000   0.000017  -0.000000   0.000000  -0.000000   0.000036
               7          8          9         10         11         12
     1  C   -0.752212   0.028739  -0.139518   0.288318  -0.218346  -0.068163
     2  C   -1.944008   0.459614  -0.962900   0.148790  -0.722494  -0.405853
     3  N    0.041857  -0.056711   0.061416  -0.153221   0.386951   0.431552
     4  C   -0.255229   0.019366  -0.060329   0.076546  -0.094263  -0.206397
     5  C    0.152663  -0.013659  -0.010148   0.067989  -0.354263   0.008971
     6  C   -7.771976   0.337774  -0.450780   1.411434  -8.394923   0.240051
     7  C   19.543971  -0.996644  -0.642199  -1.429794  -1.036209  -0.031190
     8  N   -0.996644   7.498136  -0.004797   0.410912  -0.491035  -0.018188
     9  C   -0.642199  -0.004797  10.532957  -3.218477   1.112592   0.011185
    10  C   -1.429794   0.410912  -3.218477  13.972978  -5.664306  -0.001403
    11  C   -1.036209  -0.491035   1.112592  -5.664306  21.777286  -0.062068
    12  C   -0.031190  -0.018188   0.011185  -0.001403  -0.062068   4.481308
    13  H    0.451723  -0.013412   0.046206  -0.080369  -0.031674   0.051193
    14  H    0.137979   0.018880  -0.023184  -0.013041   0.102301   0.017594
    15  H   -0.023630  -0.011373   0.004009   0.031178  -0.042329   0.016614
    16  H    0.019714  -0.001845   0.002353   0.012216   0.010387  -0.015986
    17  H    0.003214  -0.000567   0.000650  -0.005078  -0.000066   0.014139
    18  H    0.017004  -0.000044  -0.000460   0.004237   0.024948  -0.016223
    19  H   -0.017871   0.001907  -0.003214   0.000750  -0.006605  -0.013820
    20  H    0.212144  -0.025169  -0.208413   1.109807  -2.389714  -0.028902
    21  H   -0.002421   0.006115  -0.931167   0.337782   0.058710   0.002997
    22  H    0.747369   0.056984  -0.402088  -0.182529   0.000857  -0.001073
    23  H   -1.061817   0.076371  -0.049299   0.057319   0.009469   0.006224
    24  H   -0.225175   0.024852  -0.010761   0.056823  -0.037508   0.261732
    25  H    0.086583  -0.009736   0.002968   0.000512   0.024132   0.142093
    26  H    0.026983  -0.003638   0.004774  -0.003073  -0.043327   0.348706
    27  H    0.058304  -0.042295   0.539821  -1.343470   0.878048  -0.007771
    28  O    0.122707  -0.222923   0.005086  -0.060609   0.052351  -0.000552
    29  H   -0.019290   0.008936   0.000079   0.008497   0.002685  -0.000396
    30  H   -0.007015   0.006754  -0.003423   0.003071   0.008207   0.000007
    31  O   -0.002779  -0.000075   0.004627   0.001249  -0.000612  -0.000000
    32  H   -0.002674   0.000807   0.000228   0.000429  -0.000429  -0.000001
    33  H    0.001045   0.000021  -0.001259  -0.000090  -0.000195   0.000001
    34  O   -0.003474  -0.002452   0.004088   0.000614   0.000026  -0.000016
    35  H    0.002701  -0.000074  -0.001094   0.000123  -0.000605   0.000011
    36  H   -0.002736   0.000788   0.000236   0.000341  -0.000236   0.000018
    37  O    0.000011   0.000206   0.000175  -0.000001   0.000011  -0.000000
    38  H   -0.000029  -0.000006   0.000017  -0.000038   0.000013   0.000000
    39  H   -0.000013   0.000020   0.000004   0.000034   0.000021  -0.000001
              13         14         15         16         17         18
     1  C    0.381299  -0.347361  -0.721098   0.120346   0.322568  -0.126631
     2  C   -2.234803   0.043797   0.196241  -0.033446  -0.018847  -0.278048
     3  N   -0.129361   0.029508   0.152749   0.087324  -0.032118   0.459567
     4  C   -0.126182   0.064657  -0.152477  -0.028426   0.135389  -0.284964
     5  C    0.053281   0.279104   0.240831  -0.226330  -0.323304   0.072733
     6  C    0.463325  -0.506894   0.210123   0.045769  -0.040649   0.181423
     7  C    0.451723   0.137979  -0.023630   0.019714   0.003214   0.017004
     8  N   -0.013412   0.018880  -0.011373  -0.001845  -0.000567  -0.000044
     9  C    0.046206  -0.023184   0.004009   0.002353   0.000650  -0.000460
    10  C   -0.080369  -0.013041   0.031178   0.012216  -0.005078   0.004237
    11  C   -0.031674   0.102301  -0.042329   0.010387  -0.000066   0.024948
    12  C    0.051193   0.017594   0.016614  -0.015986   0.014139  -0.016223
    13  H    3.154652   0.139783  -0.294190  -0.046814   0.042423  -0.076156
    14  H    0.139783   2.219018  -0.492921  -0.348510   0.142160  -0.040391
    15  H   -0.294190  -0.492921   2.340340   0.190651  -0.304512   0.059913
    16  H   -0.046814  -0.348510   0.190651   2.075152  -0.454254   0.170506
    17  H    0.042423   0.142160  -0.304512  -0.454254   1.920054  -0.202529
    18  H   -0.076156  -0.040391   0.059913   0.170506  -0.202529   1.853286
    19  H    0.051053   0.019616  -0.025410  -0.260150   0.074367  -0.442150
    20  H    0.007683  -0.020094   0.001220   0.010624   0.003900   0.002375
    21  H    0.000386  -0.001493   0.001438   0.000199  -0.000006   0.000138
    22  H    0.002543  -0.003737   0.004442   0.001205  -0.000098   0.000265
    23  H   -0.087284   0.018217   0.003424   0.000341   0.000789   0.003885
    24  H    0.028019   0.008499  -0.003496  -0.007721  -0.000665  -0.003473
    25  H    0.048095   0.001128   0.001242  -0.000989   0.007256   0.002129
    26  H    0.002470  -0.002235   0.000904   0.007369  -0.002491  -0.001202
    27  H    0.003747  -0.001989  -0.001230   0.000369  -0.000379  -0.000122
    28  O    0.000893   0.000094  -0.000140  -0.000016  -0.000001  -0.000035
    29  H    0.000422   0.000223  -0.000044  -0.000024  -0.000003   0.000012
    30  H    0.000120   0.000244  -0.000173  -0.000031   0.000013  -0.000028
    31  O   -0.000022   0.000025   0.000011  -0.000000   0.000000   0.000000
    32  H    0.000009  -0.000006   0.000006  -0.000000   0.000000   0.000000
    33  H   -0.000023  -0.000001   0.000002   0.000001  -0.000000   0.000000
    34  O    0.000066   0.000013  -0.000006  -0.000001   0.000000  -0.000001
    35  H   -0.000041   0.000002  -0.000005  -0.000000   0.000001  -0.000001
    36  H   -0.000016  -0.000006   0.000006   0.000001  -0.000000   0.000001
    37  O    0.000004   0.000000   0.000000  -0.000000  -0.000000  -0.000000
    38  H   -0.000001  -0.000000   0.000000   0.000000  -0.000000   0.000000
    39  H    0.000004   0.000000  -0.000000  -0.000000  -0.000000  -0.000000
              19         20         21         22         23         24
     1  C    0.131627   0.056771   0.006073  -0.031848   0.153364   0.129489
     2  C    0.556199   0.073932   0.015881  -0.084719   0.076590   0.183161
     3  N   -0.705606  -0.217523   0.003667   0.006330   0.057444  -0.170915
     4  C   -0.100019   0.025411  -0.001175  -0.006496   0.017572  -0.075515
     5  C   -0.043174   0.010285  -0.000489   0.006187   0.001691  -0.068995
     6  C   -0.226488   0.128575   0.251915  -0.829096   0.104746   0.051085
     7  C   -0.017871   0.212144  -0.002421   0.747369  -1.061817  -0.225175
     8  N    0.001907  -0.025169   0.006115   0.056984   0.076371   0.024852
     9  C   -0.003214  -0.208413  -0.931167  -0.402088  -0.049299  -0.010761
    10  C    0.000750   1.109807   0.337782  -0.182529   0.057319   0.056823
    11  C   -0.006605  -2.389714   0.058710   0.000857   0.009469  -0.037508
    12  C   -0.013820  -0.028902   0.002997  -0.001073   0.006224   0.261732
    13  H    0.051053   0.007683   0.000386   0.002543  -0.087284   0.028019
    14  H    0.019616  -0.020094  -0.001493  -0.003737   0.018217   0.008499
    15  H   -0.025410   0.001220   0.001438   0.004442   0.003424  -0.003496
    16  H   -0.260150   0.010624   0.000199   0.001205   0.000341  -0.007721
    17  H    0.074367   0.003900  -0.000006  -0.000098   0.000789  -0.000665
    18  H   -0.442150   0.002375   0.000138   0.000265   0.003885  -0.003473
    19  H    2.506422   0.010626  -0.000131  -0.000751  -0.001079   0.007973
    20  H    0.010626   3.330367  -0.016045   0.023508  -0.022163   0.019511
    21  H   -0.000131  -0.016045   2.208627  -0.168063   0.004428  -0.000283
    22  H   -0.000751   0.023508  -0.168063   1.796885  -0.074247  -0.006202
    23  H   -0.001079  -0.022163   0.004428  -0.074247   2.535538   0.007314
    24  H    0.007973   0.019511  -0.000283  -0.006202   0.007314   2.126962
    25  H    0.005588   0.004230   0.000045   0.003303   0.001805  -0.403413
    26  H    0.014057  -0.002552   0.000370   0.000107   0.001526  -0.552626
    27  H   -0.000679  -0.129884  -0.126908   0.012840  -0.001040   0.000889
    28  O    0.000011   0.001160  -0.004205   0.075443   0.006612  -0.000132
    29  H    0.000020  -0.000074   0.008555  -0.044683   0.002283   0.000241
    30  H    0.000013  -0.000279   0.003913  -0.024886   0.003692   0.000045
    31  O    0.000000  -0.000022   0.001275  -0.008332   0.000806   0.000012
    32  H    0.000000  -0.000005  -0.000019   0.003811  -0.000327   0.000001
    33  H   -0.000000  -0.000001  -0.000034   0.002589   0.000092  -0.000000
    34  O    0.000000  -0.000004   0.001381  -0.007126   0.000950   0.000069
    35  H    0.000000  -0.000013  -0.000724   0.000571   0.000232  -0.000014
    36  H   -0.000001  -0.000005   0.000099   0.004017  -0.000176   0.000004
    37  O    0.000000  -0.000001  -0.000313   0.000273  -0.000086   0.000004
    38  H   -0.000000   0.000000  -0.000029   0.000195  -0.000003  -0.000000
    39  H    0.000000   0.000001  -0.000036  -0.000399  -0.000006   0.000001
              25         26         27         28         29         30
     1  C   -0.024063  -0.058771  -0.009697  -0.002426   0.001451  -0.000708
     2  C   -0.296533  -0.064873   0.017419  -0.002953   0.004392   0.004594
     3  N    0.221703  -0.256347  -0.004454   0.000460   0.000181  -0.000231
     4  C    0.015521   0.027798   0.001100   0.000191   0.000267   0.000067
     5  C    0.057034   0.051364   0.005156  -0.000206  -0.000208  -0.000106
     6  C    0.005495   0.126696  -0.387044  -0.143046   0.017274   0.000945
     7  C    0.086583   0.026983   0.058304   0.122707  -0.019290  -0.007015
     8  N   -0.009736  -0.003638  -0.042295  -0.222923   0.008936   0.006754
     9  C    0.002968   0.004774   0.539821   0.005086   0.000079  -0.003423
    10  C    0.000512  -0.003073  -1.343470  -0.060609   0.008497   0.003071
    11  C    0.024132  -0.043327   0.878048   0.052351   0.002685   0.008207
    12  C    0.142093   0.348706  -0.007771  -0.000552  -0.000396   0.000007
    13  H    0.048095   0.002470   0.003747   0.000893   0.000422   0.000120
    14  H    0.001128  -0.002235  -0.001989   0.000094   0.000223   0.000244
    15  H    0.001242   0.000904  -0.001230  -0.000140  -0.000044  -0.000173
    16  H   -0.000989   0.007369   0.000369  -0.000016  -0.000024  -0.000031
    17  H    0.007256  -0.002491  -0.000379  -0.000001  -0.000003   0.000013
    18  H    0.002129  -0.001202  -0.000122  -0.000035   0.000012  -0.000028
    19  H    0.005588   0.014057  -0.000679   0.000011   0.000020   0.000013
    20  H    0.004230  -0.002552  -0.129884   0.001160  -0.000074  -0.000279
    21  H    0.000045   0.000370  -0.126908  -0.004205   0.008555   0.003913
    22  H    0.003303   0.000107   0.012840   0.075443  -0.044683  -0.024886
    23  H    0.001805   0.001526  -0.001040   0.006612   0.002283   0.003692
    24  H   -0.403413  -0.552626   0.000889  -0.000132   0.000241   0.000045
    25  H    1.543706  -0.272724  -0.001456   0.000077  -0.000103  -0.000013
    26  H   -0.272724   1.888994   0.000309  -0.000052  -0.000035  -0.000015
    27  H   -0.001456   0.000309   2.129306  -0.001255  -0.000181   0.000025
    28  O    0.000077  -0.000052  -0.001255   8.052896   0.329102   0.341985
    29  H   -0.000103  -0.000035  -0.000181   0.329102   0.617923  -0.165099
    30  H   -0.000013  -0.000015   0.000025   0.341985  -0.165099   0.628523
    31  O   -0.000001   0.000000   0.000000  -0.041956   0.002770  -0.013615
    32  H   -0.000001   0.000000   0.000003   0.001936  -0.002913  -0.000228
    33  H    0.000001   0.000000   0.000003   0.002076  -0.002256  -0.001033
    34  O   -0.000013  -0.000001  -0.000033  -0.044650   0.002987   0.004682
    35  H    0.000007   0.000002   0.000043   0.004091  -0.006068  -0.000537
    36  H   -0.000001   0.000001  -0.000004   0.000965  -0.002071  -0.002271
    37  O   -0.000001  -0.000000   0.000015   0.000201  -0.005041   0.000853
    38  H    0.000000   0.000000  -0.000001   0.000148  -0.001008   0.000043
    39  H   -0.000001  -0.000000   0.000001   0.000006  -0.000275   0.000193
              31         32         33         34         35         36
     1  C    0.000190   0.000055   0.000026   0.000024  -0.000020  -0.000012
     2  C    0.000042   0.000039  -0.000026   0.000149   0.000083  -0.000034
     3  N   -0.000002  -0.000008   0.000003   0.000000  -0.000006  -0.000006
     4  C   -0.000000   0.000001  -0.000001   0.000001   0.000003  -0.000007
     5  C    0.000008   0.000001   0.000004  -0.000002   0.000003   0.000003
     6  C    0.003360   0.000778   0.000108   0.002423   0.000013   0.000411
     7  C   -0.002779  -0.002674   0.001045  -0.003474   0.002701  -0.002736
     8  N   -0.000075   0.000807   0.000021  -0.002452  -0.000074   0.000788
     9  C    0.004627   0.000228  -0.001259   0.004088  -0.001094   0.000236
    10  C    0.001249   0.000429  -0.000090   0.000614   0.000123   0.000341
    11  C   -0.000612  -0.000429  -0.000195   0.000026  -0.000605  -0.000236
    12  C   -0.000000  -0.000001   0.000001  -0.000016   0.000011   0.000018
    13  H   -0.000022   0.000009  -0.000023   0.000066  -0.000041  -0.000016
    14  H    0.000025  -0.000006  -0.000001   0.000013   0.000002  -0.000006
    15  H    0.000011   0.000006   0.000002  -0.000006  -0.000005   0.000006
    16  H   -0.000000  -0.000000   0.000001  -0.000001  -0.000000   0.000001
    17  H    0.000000   0.000000  -0.000000   0.000000   0.000001  -0.000000
    18  H    0.000000   0.000000   0.000000  -0.000001  -0.000001   0.000001
    19  H    0.000000   0.000000  -0.000000   0.000000   0.000000  -0.000001
    20  H   -0.000022  -0.000005  -0.000001  -0.000004  -0.000013  -0.000005
    21  H    0.001275  -0.000019  -0.000034   0.001381  -0.000724   0.000099
    22  H   -0.008332   0.003811   0.002589  -0.007126   0.000571   0.004017
    23  H    0.000806  -0.000327   0.000092   0.000950   0.000232  -0.000176
    24  H    0.000012   0.000001  -0.000000   0.000069  -0.000014   0.000004
    25  H   -0.000001  -0.000001   0.000001  -0.000013   0.000007  -0.000001
    26  H    0.000000   0.000000   0.000000  -0.000001   0.000002   0.000001
    27  H    0.000000   0.000003   0.000003  -0.000033   0.000043  -0.000004
    28  O   -0.041956   0.001936   0.002076  -0.044650   0.004091   0.000965
    29  H    0.002770  -0.002913  -0.002256   0.002987  -0.006068  -0.002071
    30  H   -0.013615  -0.000228  -0.001033   0.004682  -0.000537  -0.002271
    31  O    7.687184   0.352402   0.352060  -0.001660  -0.000498   0.000265
    32  H    0.352402   0.567401  -0.074230  -0.000066  -0.000063   0.000150
    33  H    0.352060  -0.074230   0.570555   0.000001   0.000063   0.000007
    34  O   -0.001660  -0.000066   0.000001   7.731858   0.329992   0.365423
    35  H   -0.000498  -0.000063   0.000063   0.329992   0.567796  -0.106853
    36  H    0.000265   0.000150   0.000007   0.365423  -0.106853   0.612498
    37  O    0.000063  -0.000017   0.000007  -0.036765   0.005097   0.004521
    38  H    0.000057   0.000004   0.000005   0.001977  -0.000678   0.000032
    39  H   -0.000008  -0.000002  -0.000006   0.000189  -0.002964  -0.000897
              37         38         39
     1  C   -0.000000   0.000000  -0.000000
     2  C    0.000004  -0.000006   0.000017
     3  N    0.000000   0.000000  -0.000000
     4  C    0.000000  -0.000000   0.000000
     5  C   -0.000000   0.000000  -0.000000
     6  C    0.000084  -0.000019   0.000036
     7  C    0.000011  -0.000029  -0.000013
     8  N    0.000206  -0.000006   0.000020
     9  C    0.000175   0.000017   0.000004
    10  C   -0.000001  -0.000038   0.000034
    11  C    0.000011   0.000013   0.000021
    12  C   -0.000000   0.000000  -0.000001
    13  H    0.000004  -0.000001   0.000004
    14  H    0.000000  -0.000000   0.000000
    15  H    0.000000   0.000000  -0.000000
    16  H   -0.000000   0.000000  -0.000000
    17  H   -0.000000  -0.000000  -0.000000
    18  H   -0.000000   0.000000  -0.000000
    19  H    0.000000  -0.000000   0.000000
    20  H   -0.000001   0.000000   0.000001
    21  H   -0.000313  -0.000029  -0.000036
    22  H    0.000273   0.000195  -0.000399
    23  H   -0.000086  -0.000003  -0.000006
    24  H    0.000004  -0.000000   0.000001
    25  H   -0.000001   0.000000  -0.000001
    26  H   -0.000000   0.000000  -0.000000
    27  H    0.000015  -0.000001   0.000001
    28  O    0.000201   0.000148   0.000006
    29  H   -0.005041  -0.001008  -0.000275
    30  H    0.000853   0.000043   0.000193
    31  O    0.000063   0.000057  -0.000008
    32  H   -0.000017   0.000004  -0.000002
    33  H    0.000007   0.000005  -0.000006
    34  O   -0.036765   0.001977   0.000189
    35  H    0.005097  -0.000678  -0.002964
    36  H    0.004521   0.000032  -0.000897
    37  O    7.672490   0.345338   0.348430
    38  H    0.345338   0.558336  -0.071350
    39  H    0.348430  -0.071350   0.575459
 Mulliken charges:
               1
     1  C    0.941529
     2  C    0.775021
     3  N   -0.434814
     4  C    1.198260
     5  C    0.676282
     6  C    1.289060
     7  C    0.602413
     8  N   -0.042537
     9  C    0.790039
    10  C    0.153552
    11  C    1.142214
    12  C    0.843610
    13  H   -0.809049
    14  H   -0.440978
    15  H   -0.382311
    16  H   -0.329983
    17  H   -0.281355
    18  H   -0.379964
    19  H   -0.533082
    20  H   -0.971267
    21  H   -0.660453
    22  H    0.126647
    23  H   -0.855198
    24  H   -0.339793
    25  H   -0.165606
    26  H   -0.238469
    27  H   -0.587508
    28  O   -0.473335
    29  H    0.241473
    30  H    0.211699
    31  O   -0.336825
    32  H    0.152928
    33  H    0.150487
    34  O   -0.350643
    35  H    0.209425
    36  H    0.125547
    37  O   -0.335562
    38  H    0.167003
    39  H    0.151542
 Sum of Mulliken charges =   1.00000
 Mulliken charges with hydrogens summed into heavy atoms:
               1
     1  C    0.118240
     2  C   -0.034028
     3  N   -0.434814
     4  C    0.285213
     5  C    0.064944
     6  C    1.289060
     7  C   -0.252784
     8  N    0.084110
     9  C    0.129586
    10  C   -0.433957
    11  C    0.170947
    12  C    0.099742
    28  O   -0.020163
    31  O   -0.033410
    34  O   -0.015670
    37  O   -0.017017
 Electronic spatial extent (au):  <R**2>=           8277.0539
 Charge=              1.0000 electrons
 Dipole moment (field-independent basis, Debye):
    X=              7.7099    Y=              1.3025    Z=              2.0002  Tot=              8.0710
 Quadrupole moment (field-independent basis, Debye-Ang):
   XX=              5.1812   YY=            -70.7871   ZZ=            -76.7250
   XY=              3.3559   XZ=              6.2493   YZ=             -6.6108
 Traceless Quadrupole moment (field-independent basis, Debye-Ang):
   XX=             52.6249   YY=            -23.3435   ZZ=            -29.2814
   XY=              3.3559   XZ=              6.2493   YZ=             -6.6108
 Octapole moment (field-independent basis, Debye-Ang**2):
  XXX=            567.0942  YYY=             50.1182  ZZZ=             10.6741  XYY=            161.1604
  XXY=            -23.1322  XXZ=             25.9167  XZZ=             60.0928  YZZ=              0.0338
  YYZ=            -14.8347  XYZ=            -28.7686
 Hexadecapole moment (field-independent basis, Debye-Ang**3):
 XXXX=          -3423.1138 YYYY=           -870.4280 ZZZZ=           -651.5888 XXXY=           -388.0311
 XXXZ=            445.7750 YYYX=            244.3304 YYYZ=           -104.0150 ZZZX=           -124.4315
 ZZZY=            -19.5968 XXYY=           -659.1643 XXZZ=          -1245.4972 YYZZ=           -305.2615
 XXYZ=           -193.6026 YYXZ=              0.2327 ZZXY=             -9.0695
 N-N= 1.110564188699D+03 E-N=-4.086163979065D+03  KE= 7.999776298539D+02
 Calling FoFJK, ICntrl=      2127 FMM=F ISym2X=0 I1Cent= 0 IOpClX= 0 NMat=1 NMatS=1 NMatT=0.
 ***** Axes restored to original set *****
 -------------------------------------------------------------------
 Center     Atomic                   Forces (Hartrees/Bohr)
 Number     Number              X              Y              Z
 -------------------------------------------------------------------
      1        6           0.000020592   -0.000026528   -0.000011330
      2        6           0.000084225    0.000023878    0.000003894
[...]
 764,-0.00006235,-0.00002284,-0.00000446,0.00002238,-0.00001996,0.00000
 904,0.00001056,0.00000758,-0.00000463,-0.00002139,-0.00001653,0.000089
 00,0.00013321,-0.00000654,0.00005592,-0.00038329,-0.00000672,0.0001571
 0,-0.00000473,0.00001665,-0.00013475,-0.00002274,-0.00000714,-0.000000
 24,-0.00001687,0.00000530,-0.00003839,-0.00000528,0.00002272,-0.000000
 49,-0.00000946,0.00000229,0.00001457,0.00000245,-0.00000669,-0.0000048
 0,0.00000005,-0.00000368,0.00000285,-0.00000534,-0.00000136,0.00000450
 ,-0.00000611,0.00000074,-0.00000426,-0.00000123,0.00000316,-0.00000864
 ,-0.00001079,-0.00000346,0.00000132,0.00000265,0.00000343,0.00000343,0
 .00003009,0.00002026,-0.00004395,0.00083759,-0.00003935,-0.00042616,0.
 00005301,-0.00001508,0.00000447,0.00000585,0.00001490,-0.00000729,0.00
 000677,-0.00000210,-0.00000028,-0.00001561,-0.00000195,0.00000226,-0.0
 0001143,0.00000843,0.00000248,-0.00038591,-0.00063773,-0.00093980,0.00
 137473,0.00005817,0.00262362,0.00026667,-0.00051059,0.00003282,-0.0001
 1708,0.00039306,0.00004590,0.00003535,-0.00012392,0.00002205,0.0000115
 5,-0.00018563,-0.00007711,0.16633961,-0.12094922,0.10836257,-0.1539460
 3,0.12095360,0.00000727,0.00001138,0.00000795,-0.00006198,-0.00002050,
 0.00001092,0.00007124,0.00000345,-0.00001800,-0.00002856,0.00002008,-0
 .00000349,-0.00000991,-0.00000579,0.00000624,0.00008150,0.00001625,-0.
 00015585,-0.00024872,0.00001166,-0.00009956,0.00073054,0.00005456,-0.0
 0024176,0.00016726,-0.00003283,0.00027574,-0.00004810,0.00001825,-0.00
 006322,0.00003763,-0.00001316,0.00009310,-0.00000159,-0.00000417,0.000
 01634,0.00000658,-0.00000393,-0.00002610,-0.00000127,0.00000462,0.0000
 0174,0.00000016,0.00000494,-0.00000189,0.00000624,0.00000069,-0.000006
 52,0.00000516,-0.00000157,0.00000496,0.00000206,-0.00000380,0.00000479
 ,0.00001042,0.00000402,-0.00000136,-0.00000401,0.00000055,-0.00000430,
 0.00001720,-0.00005317,0.00002535,-0.00143746,-0.00010382,0.00075187,-
 0.00008272,0.00003700,-0.00000817,-0.00000512,-0.00001222,0.00001501,-
 0.00000932,0.00000391,-0.00001301,0.00001576,0.00000053,-0.00000298,0.
 00003150,-0.00000760,-0.00000747,0.00213362,-0.00447704,-0.00281258,-0
 .00200408,0.00699037,0.00471334,0.00065040,0.00045376,-0.00000690,-0.0
 0020917,-0.00039110,-0.00019485,-0.00001264,0.00009985,0.00003591,0.00
 004199,-0.00006092,0.00014386,-0.13626017,0.07700048,-0.16028904,0.164
 57954,-0.09861176,0.18297932,-0.00000041,0.00000426,-0.00000314,-0.000
 02131,0.00000500,0.00006057,0.00004298,-0.00003405,-0.00003958,-0.0000
 2964,0.00000818,0.00000194,-0.00000245,-0.00000225,0.00000254,0.000011
 73,0.00000457,-0.00008826,-0.00005394,-0.00002073,0.00012425,-0.000134
 88,-0.00003339,0.00008651,0.00006474,0.00000775,-0.00002951,-0.0000700
 3,0.00000390,-0.00001771,0.00001631,-0.00000280,0.00005817,-0.00001728
 ,0.00003770,0.00003237,-0.00000101,-0.00000135,-0.00002990,0.00000245,
 -0.00000298,-0.00000632,0.,0.00000239,0.00000316,0.00000266,-0.0000009
 0,-0.00000516,0.00000161,-0.00000289,0.00000371,0.00000112,-0.00000187
 ,-0.00000144,0.00000282,0.00000193,-0.00000166,0.00000061,0.00000422,-
 0.00000007,0.00001837,0.00000007,-0.00001782,0.00041917,0.00006575,-0.
 00002846,-0.00003123,0.00006982,0.00000526,0.00000156,-0.00000108,0.00
 002223,-0.00001086,0.00000220,-0.00002831,0.00000758,-0.00000429,-0.00
 000688,-0.00000034,0.00000352,0.00000167,-0.00087326,0.00164496,-0.000
 29580,0.00107507,-0.00318548,0.00152668,-0.00014962,0.00017389,-0.0000
 5184,-0.00010537,0.00010418,0.00002841,0.00007117,-0.00004680,0.000013
 66,0.00003480,-0.00004695,-0.00003484,-0.04039994,0.04609007,0.0877504
 5,0.00586787,-0.00964629,-0.03181454,0.03572663,0.00000056,0.00000291,
 -0.00000679,0.00002586,0.00001257,-0.00001085,-0.00000689,-0.00003544,
 0.00000599,-0.00000707,-0.00000281,-0.00000208,0.00000394,-0.00000062,
 0.00000021,-0.00000903,-0.00000505,0.00004187,0.00002349,0.00001549,-0
 .00004959,-0.00003017,0.00001426,-0.00001894,-0.00000225,-0.00000604,-
 0.00000310,0.00000949,-0.00000314,0.00000540,-0.00001259,0.00000132,-0
 .00001502,-0.00001403,0.00002785,0.00000132,-0.00000262,0.00000501,0.0
 0000779,-0.00000028,-0.00000107,-0.00000242,0.00000114,-0.00000443,0.0
 0000553,-0.00000177,-0.00000111,0.00000027,0.00000075,-0.00000150,0.00
 000002,0.00000086,0.00000170,-0.00000081,-0.00000332,-0.00000097,0.000
 00122,0.00000061,0.00000382,0.00000346,-0.00000003,0.00001640,0.000003
 68,0.00009536,-0.00003822,-0.00001811,0.00003322,0.00000746,-0.0000098
 8,0.00000563,0.00000510,0.00000852,0.00000001,0.00000032,-0.00000917,-
 0.00000458,-0.00000232,0.00000003,-0.00000122,0.00000506,0.00000216,0.
 00159197,-0.00293602,0.00083977,-0.00241354,0.00399995,-0.00333181,0.0
 0039513,-0.00005684,-0.00043843,-0.00014116,0.00011015,0.00024581,0.00
 002185,-0.00019838,-0.00009016,-0.00000450,-0.00004508,-0.00007788,0.0
 3911478,-0.05559192,-0.14114763,-0.00349406,0.00591883,0.02064049,-0.0
 3627902,0.04966454,-0.00001125,-0.00001659,0.00000139,0.00000861,0.000
 01635,0.00005651,-0.00002117,0.00000108,-0.00004678,0.00001279,-0.0000
 0817,0.00002198,0.00000235,0.00000660,-0.00000251,0.00003031,-0.000005
 94,-0.00001339,0.00001758,-0.00002158,0.00009336,-0.00019670,-0.000013
 86,0.00008883,0.00003013,0.00000881,-0.00007995,-0.00005337,0.00000262
 ,-0.00000890,0.00001163,0.00000129,0.00001665,0.00000498,0.00000723,0.
 00003552,-0.00000378,-0.00000505,-0.00001525,0.00000234,-0.00000562,-0
 .00000507,-0.00000012,0.00000478,-0.00000223,-0.00000070,-0.00000103,-
 0.00000071,-0.00000589,0.00000164,-0.00000125,-0.00000081,-0.00000153,
 -0.00001161,-0.00000299,-0.00000077,-0.00000158,0.00000441,-0.00000046
 ,0.00000345,0.00001021,-0.00000826,-0.00001472,0.00039787,0.00000980,-
 0.00015060,0.00000273,0.00000100,0.00001906,-0.00000390,0.00000460,-0.
 00000398,-0.00000130,0.00000304,-0.00001378,-0.00000144,-0.00000096,-0
 .00000201,-0.00000060,-0.00000370,-0.00000255,-0.00137615,0.00160750,0
 .00037131,0.00186482,-0.00238571,-0.00092411,-0.00000579,-0.00022420,0
 .00007380,-0.00000496,0.00015001,-0.00007937,0.00002262,0.00001128,0.0
 0006782,0.00001473,-0.00005405,0.00000542,0.04643513,-0.11191768,-0.50
 090382,0.00987811,-0.01039103,-0.02187442,-0.05712486,0.12320065,0.522
 54341,-0.00001865,-0.00003218,-0.00000537,0.00005583,0.00003294,0.0000
 3111,-0.00009109,0.00002177,-0.00003025,0.00005206,-0.00002808,0.00002
 583,0.00001057,0.00001429,-0.00000786,0.00002531,-0.00002201,0.0000614
 9,0.00009431,-0.00001745,0.00007987,-0.00035226,0.00000872,0.00015039,
 0.00003528,0.00002241,-0.00013808,-0.00005324,0.00001017,-0.00001782,0
 .00000938,0.00000262,-0.00001755,0.00002126,-0.00001109,0.00001649,-0.
 00001075,-0.00000168,0.00000831,0.00000286,-0.00000978,-0.00000211,-0.
 00000069,0.00000101,-0.00000407,-0.00000600,-0.00000153,0.00000712,-0.
 00001111,0.00000470,-0.00000767,-0.00000327,0.00000219,-0.00001583,-0.
 00001127,-0.00000485,0.00000054,0.00000744,-0.00000382,0.00000283,0.00
 001567,-0.00005238,-0.00005112,0.00068341,-0.00006716,-0.00028497,0.00
 003724,-0.00002953,0.00000794,-0.00000718,0.00001177,-0.00002034,0.000
 00650,0.00000189,0.00000336,-0.00001168,-0.00000051,0.00000343,-0.0000
 0329,-0.00001193,-0.00000601,-0.00065246,0.00149972,0.00056985,0.00083
 061,-0.00207798,-0.00082781,-0.00039491,-0.00047403,0.00001397,0.00021
 968,0.00023357,0.00003756,-0.00003325,-0.00002352,-0.00000119,-0.00007
 648,0.00003653,-0.00003757,-0.00541438,0.00809089,-0.00749385,-0.00507
 403,-0.00500178,0.00064086,-0.00113333,0.00069089,0.00031353,0.5893722
 9,0.00001100,0.00001477,0.00000609,-0.00005451,-0.00003457,-0.00002618
 ,0.00004917,0.00003133,0.00001902,-0.00001519,0.00001674,-0.00001229,-
 0.00000914,-0.00000686,0.00000388,0.00000302,0.00001328,-0.00004838,-0
 .00008631,0.00000637,-0.00007004,0.00037935,0.00003084,-0.00014785,-0.
 00003115,-0.00001771,0.00010604,0.00005111,0.00000220,0.00000736,0.000
 00394,-0.00000074,0.00001411,0.00000938,-0.00003207,-0.00001073,0.0000
 0937,-0.00000090,-0.00000498,-0.00000266,0.00000728,0.00000717,0.00000
 009,0.00000244,-0.00000362,0.00000394,0.00000139,-0.00000252,0.0000057
 3,-0.00000023,0.00000302,0.00000075,-0.00000203,0.00001023,0.00000961,
 0.00000290,-0.00000091,-0.00000392,-0.00000518,-0.00000408,-0.00004068
 ,-0.00001941,0.00003059,-0.00079604,-0.00004490,0.00032541,-0.00003775
 ,-0.00000159,-0.00000430,-0.00000609,-0.00001385,0.00000163,-0.0000041
 5,0.00000112,0.00000879,0.00001262,0.00000247,-0.00000054,0.00000508,-
 0.00000887,-0.00000179,0.00081159,-0.00062034,-0.00022277,-0.00063200,
 0.00095122,0.00026044,-0.00002592,0.00022657,-0.00008949,0.00011452,-0
 .00028905,0.00003024,-0.00004424,0.00008433,-0.00003868,-0.00005623,0.
 00017318,0.00001415,0.00749725,-0.00025239,0.00463978,-0.00432438,-0.0
 0647471,0.00138365,0.00063403,-0.00087300,-0.00013712,0.12105342,0.566
 53857,0.00000204,0.00000320,-0.00000612,0.00002249,-0.00000286,-0.0000
 3432,-0.00002821,0.00000602,0.00004049,0.00001012,-0.00000505,-0.00001
 176,0.00000340,-0.00000079,-0.00000345,-0.00007686,-0.00000702,0.00010
 306,0.00015995,-0.00000438,0.00003839,-0.00034092,-0.00001813,0.000108
 40,-0.00013717,0.00002028,-0.00014421,0.00007117,-0.00001620,0.0000343
 7,-0.00003424,0.00001014,-0.00007131,0.00000260,-0.00001020,-0.0000297
 0,-0.00000046,0.00000439,0.00002292,0.00000003,0.00000142,0.00000270,-
 0.00000013,-0.00000431,0.00000237,-0.00000331,0.00000069,0.00000445,0.
 00000051,0.00000024,-0.00000157,-0.00000125,0.00000281,0.00000531,-0.0
 0000356,-0.00000181,0.00000068,-0.00000195,-0.00000085,-0.00000244,-0.
 00002349,0.00004043,-0.00003343,0.00069009,0.00002925,-0.00038070,0.00
 004406,-0.00002066,0.00000079,0.00000504,0.00000277,-0.00001069,0.0000
 0558,-0.00000477,0.00001884,-0.00000725,0.00000093,0.00000145,-0.00002
 690,0.00000792,0.00000448,-0.00073785,0.00121092,0.00091046,0.00091095
 ,-0.00198622,-0.00108866,-0.00021488,-0.00025520,-0.00010014,0.0000447
 5,0.00020485,0.00017259,0.00002295,-0.00007979,-0.00004772,-0.00001132
 ,0.00001496,-0.00012841,-0.00689414,0.00480623,-0.00128022,0.00056737,
 0.00079757,-0.00558717,0.00047263,-0.00022177,0.00088417,-0.00775613,-
 0.16168940,0.05378095,0.00000497,0.00000844,0.00000074,-0.00001236,-0.
 00000842,-0.00000945,0.00002220,-0.00000703,0.00001008,-0.00001364,0.0
 0000731,-0.00000745,-0.00000280,-0.00000364,0.00000186,-0.00001234,0.0
 0000409,-0.00000744,-0.00000923,0.00000315,-0.00001581,0.00006639,-0.0
 0000198,-0.00003052,-0.00002036,-0.00000266,0.00001879,0.00002119,-0.0
 0000540,0.00000748,-0.00000561,0.00000049,-0.00000155,-0.00000548,0.00
 000326,-0.00000495,0.00000275,0.00000060,-0.00000055,-0.00000082,0.000
 00258,0.00000057,0.00000008,-0.00000050,0.00000139,0.00000141,0.000000
 46,-0.00000185,0.00000296,-0.00000128,0.00000213,0.00000088,-0.0000004
 1,0.00000440,0.00000265,0.00000125,-0.00000013,-0.00000166,0.00000117,
 -0.00000075,-0.00000931,0.00001233,0.00000793,-0.00013001,0.00001249,0
 .00004507,-0.00000566,0.00000503,-0.00000127,0.00000281,-0.00000253,0.
 00000443,-0.00000130,-0.00000065,-0.00000025,0.00000204,0.00000036,-0.
 00000089,-0.00000190,0.00000415,0.00000191,0.00013253,-0.00017012,0.00
 000669,-0.00013618,0.00018140,-0.00000643,0.00002622,0.00010507,-0.000
 02485,-0.00002571,-0.00007622,0.00001305,0.00000939,0.00001110,-0.0000
 0670,0.00001782,0.00002857,-0.00000244,0.00074709,-0.00020094,-0.00012
 798,-0.00157262,-0.00033317,0.00063689,-0.00024642,0.00017352,-0.00015
 915,-0.52583274,-0.11475615,0.01462168,0.53209846,-0.00000072,0.000000
 36,-0.00000081,0.00000823,0.00000729,0.00000584,-0.00000232,-0.0000144
 2,-0.00000463,-0.00000223,-0.00000064,0.00000161,0.00000156,-0.0000001
 0,-0.00000016,0.00000154,-0.00000136,-0.00000047,0.00000143,0.00000254
 ,0.00000726,-0.00004362,-0.00001132,0.00001737,0.00001176,0.00000355,-
 0.00000168,-0.00001322,-0.00000365,-0.00000372,0.00000095,0.00000060,0
 .00000297,-0.00000534,0.00001269,0.00000360,-0.00000167,0.00000038,-0.
 00000088,0.00000055,-0.00000095,-0.00000288,0.00000022,-0.00000074,0.0
 0000235,-0.00000026,-0.00000022,-0.00000034,-0.00000015,-0.00000043,0.
 00000013,0.00000039,0.00000009,-0.00000167,-0.00000152,-0.00000050,0.0
 0000037,0.00000065,0.00000243,0.00000088,0.00001109,0.00001717,0.00000
 157,0.00009609,0.00003016,-0.00003045,0.00000285,0.00000850,0.00000046
 ,0.00000232,0.00000233,0.00000250,0.00000008,-0.00000038,-0.00000456,-
 0.00000207,-0.00000097,-0.00000033,0.00000112,0.00000463,0.00000084,-0
 .00012371,-0.00031472,-0.00012129,-0.00004048,0.00043090,0.00018541,0.
 00018357,0.00008925,0.00003295,-0.00017059,0.00006890,-0.00003318,0.00
 004185,-0.00004176,0.00002768,0.00007672,-0.00012426,0.00000504,0.0009
 4223,-0.00181394,0.00169758,-0.00111885,0.00314538,-0.00333133,0.00023
 273,-0.00002032,0.00006804,-0.05956067,-0.06040212,0.01725087,0.106868
 05,0.06787219,-0.00000325,-0.00000476,0.00000185,0.00000275,0.00000626
 ,0.00001646,-0.00000315,-0.00000297,-0.00001771,0.00000239,-0.00000237
 ,0.00000769,0.00000062,0.00000188,0.00000034,0.00002203,-0.00000058,-0
 .00001786,-0.00002567,-0.00000046,0.00000575,0.00001686,-0.00000021,-0
 .00000277,0.00003619,-0.00000414,0.00001374,-0.00002758,0.00000343,-0.
 00000731,0.00000867,-0.00000152,0.00001577,-0.00000078,0.00000572,0.00
 001184,-0.00000130,-0.00000179,-0.00000606,0.00000035,-0.00000196,-0.0
 0000200,0.00000004,0.00000130,-0.00000082,0.00000030,-0.00000048,-0.00
 000078,-0.00000175,0.00000038,-0.00000037,0.00000013,-0.00000074,-0.00
 000425,-0.00000067,0.,-0.00000012,0.00000167,0.00000033,0.00000202,0.0
 0001123,-0.00000345,0.00000754,-0.00003186,-0.00000088,0.00003449,-0.0
 0000425,0.00000201,0.00000185,-0.00000135,0.00000153,0.00000115,-0.000
 00044,0.00000141,-0.00000640,0.00000002,-0.00000051,0.00000001,0.00000
 632,-0.00000075,-0.00000060,0.00001385,0.00001191,-0.00010708,-0.00003
 702,0.00003237,0.00003927,-0.00001573,-0.00000868,0.00006409,0.0000319
 6,-0.00002243,-0.00008825,-0.00002191,0.00003271,0.00003000,-0.0000018
 6,-0.00000839,0.00006400,-0.00057641,0.00160996,-0.00143936,0.00017367
 ,-0.00279693,0.00196507,-0.00052015,-0.00000724,-0.00001887,0.00052977
 ,0.01556057,-0.00627475,-0.01287693,-0.01685487,0.00592110,0.00000505,
 0.00000978,-0.00000095,-0.00000206,-0.00000361,-0.00001037,0.00002259,
 -0.00002198,0.00001441,-0.00001964,0.00000599,-0.00001046,-0.00000143,
 -0.00000423,0.00000223,-0.00002909,0.00000372,0.00000807,0.00002021,0.
 00000639,-0.00000235,-0.00005250,-0.00002080,0.00000781,-0.00002885,-0
 .00000146,-0.00000531,0.00001860,-0.00000838,0.00001464,-0.00001522,-0
 .00000024,-0.00000967,-0.00001564,0.00001718,-0.00000989,0.00000161,0.
 00000183,0.00000178,-0.00000065,0.00000205,-0.00000079,0.00000016,-0.0
 0000206,0.00000321,0.00000096,0.00000023,-0.00000207,0.00000317,-0.000
 00243,0.00000241,0.00000111,0.00000022,0.00000494,0.00000142,0.0000013
 0,0.00000008,-0.00000242,0.00000399,0.00000014,0.00000566,0.00003618,0
 .00000667,0.00013947,0.00005255,-0.00007036,0.00000592,0.00000943,-0.0
 0000181,0.00000708,0.00000059,0.00000856,-0.00000062,-0.00000226,-0.00
 000196,-0.00000028,-0.00000049,-0.00000139,-0.00000564,0.00001075,0.00
 000579,-0.00018062,0.00002133,0.00008898,0.00013432,-0.00012290,-0.000
 09428,0.00004366,0.00002297,0.00000786,-0.00004273,0.00001120,0.000003
 17,0.00001245,-0.00001026,0.00000086,0.00001678,-0.00002122,-0.0000041
 2,-0.00257854,0.00010059,-0.00142574,0.00469203,0.00082194,0.00236558,
 -0.00008792,0.00023906,-0.00008996,-0.05228760,-0.00973848,-0.00135738
 ,-0.00511570,-0.04739853,0.01329322,0.05533490,-0.00000518,-0.00000715
 ,-0.00000182,0.00002117,0.00001515,0.00001335,-0.00001819,-0.00001375,
 -0.00001163,0.00000577,-0.00000647,0.00000578,0.00000337,0.00000337,-0
 .00000149,0.00001209,-0.00000483,0.00000524,0.00001090,-0.00000348,0.0
 0002043,-0.00008955,-0.00000464,0.00003959,0.00003805,0.00000418,-0.00
 001995,-0.00003186,0.00000224,-0.00001169,0.00000549,-0.00000104,0.000
 00466,-0.00000303,0.00001400,0.00000718,-0.00000424,-0.00000015,-0.000
 00025,0.00000108,-0.00000330,-0.00000289,-0.00000023,-0.00000056,0.000
 00089,-0.00000135,-0.00000061,0.00000071,-0.00000250,0.00000002,-0.000
 00108,-0.00000026,0.00000064,-0.00000465,-0.00000380,-0.00000095,0.000
 00046,0.00000144,0.00000222,0.00000159,0.00001659,-0.00000809,-0.00000
 896,0.00018013,0.00000067,-0.00005683,0.00000782,0.00000166,0.00000078
 ,0.00000246,0.00000593,-0.00000008,0.00000121,-0.00000003,-0.00000530,
 -0.00000535,-0.00000084,0.00000023,0.00000277,0.00000209,-0.00000027,-
 0.00016355,0.00013688,0.00000563,0.00009831,-0.00017935,-0.00001293,-0
 .00000286,-0.00004550,0.00002166,-0.00002484,0.00005999,-0.00001392,0.
 00001199,-0.00001781,0.00000990,0.00001377,-0.00003467,0.00000483,-0.0
 0083523,0.00065526,-0.00032988,0.00073685,-0.00155634,0.00037423,0.000
 21201,0.00001156,0.00009695,-0.06430757,-0.49900648,0.13991352,0.00813
 623,-0.00894654,0.00245435,0.05598006,0.50892671,-0.00000377,-0.000005
 85,0.00000129,0.00000181,0.00000798,0.00002155,-0.00000100,-0.00000531
 ,-0.00002443,0.00000150,-0.00000258,0.00000966,0.00000054,0.00000250,0
 .00000055,0.00003421,-0.00000058,-0.00003040,-0.00004670,-0.00000186,-
 0.00000187,0.00005653,0.00000403,-0.00001199,0.00005207,-0.00000305,0.
 00002732,-0.00003706,0.00000691,-0.00000827,0.00001517,-0.00000275,0.0
 0002536,-0.00000067,0.00000809,0.00001774,-0.00000164,-0.00000169,-0.0
 0000912,0.00000039,-0.00000244,-0.00000201,0.00000006,0.00000155,-0.00
 000122,0.00000043,-0.00000082,-0.00000108,-0.00000191,0.00000031,-0.00
 000035,0.00000026,-0.00000075,-0.00000535,-0.00000042,0.00000020,-0.00
 000009,0.00000261,-0.00000019,0.00000296,0.00000604,-0.00002287,0.0000
 1095,-0.00011939,-0.00001044,0.00007790,-0.00000797,0.00000537,0.00000
 055,-0.00000259,0.00000161,0.00000370,-0.00000167,0.00000282,-0.000010
 68,0.00000103,-0.00000078,0.00000004,0.00001018,-0.00000589,-0.0000021
 4,0.00013398,-0.00011536,-0.00014209,-0.00016725,0.00020656,0.00011163
 ,0.00000694,0.00002410,0.00002192,0.00001121,-0.00003129,-0.00003672,-
 0.00000637,0.00001592,0.00001318,-0.00000602,0.00000745,0.00002668,-0.
 00111210,-0.00045468,-0.00059737,0.00184746,0.00126325,0.00036714,-0.0
 0004794,0.00044749,-0.00010522,0.01422136,0.14008349,-0.04090008,-0.00
 209775,0.00107791,-0.00020867,-0.01274155,-0.14249835,0.04135901\\-0.0
 0000024,-0.00000155,0.00000054,0.00000123,0.00000331,-0.00000012,-0.00
 000236,-0.00000120,-0.00000015,0.00000134,-0.00000050,-0.00000036,-0.0
 0000021,0.00000098,0.00000084,0.00000134,-0.00000003,-0.00000213,-0.00
 000079,-0.00000019,-0.00000118,0.00000105,-0.00000298,0.00000852,-0.00
 000073,-0.00000004,-0.00000142,-0.00000005,-0.00000093,-0.00000056,-0.
 00000146,0.00000029,-0.00000023,0.00000029,0.00000009,-0.00000114,0.,0
 .00000096,0.00000002,0.00000017,0.00000007,0.00000047,0.00000018,0.000
 00085,0.00000073,-0.00000004,0.00000016,0.00000002,0.00000034,0.000000
 53,0.00000021,-0.00000001,0.00000108,-0.00000033,-0.00000005,0.0000005
 5,-0.00000039,0.00000017,-0.00000094,0.00000015,-0.00000046,-0.0000012
 3,0.00000038,0.00000118,-0.00000041,-0.00000297,0.00000018,0.00000022,
 0.00000008,-0.00000014,0.00000007,-0.00000091,-0.00000001,0.00000079,-
 0.00000095,0.,0.00000015,-0.00000097,-0.00000028,-0.00000109,0.,0.0000
 0675,0.00000333,-0.00000099,-0.00000757,-0.00000198,-0.00000403,-0.000
 00304,0.00000291,0.00000186,-0.00000064,-0.00000646,0.00000026,0.00000
 194,0.00000222,0.00000343,-0.00000029,0.00000313,0.00000020,0.00000751
 ,-0.00000438,0.00000640,-0.00000639,-0.00000381,-0.00000437,-0.0000029
 0,0.00000592,-0.00000047,0.00000299,0.00000717,0.00000081,0.00000640,-
 0.00000017,0.00000037,-0.00000540,-0.00000688,-0.00000159\\\@


 THERE IS NO CURE FOR BIRTH AND DEATH SAVE TO ENJOY THE INTERVAL.

                               -- GEORGE SANTAYANA
 Job cpu time:       0 days 23 hours  8 minutes 24.8 seconds.
 Elapsed time:       0 days  0 hours 49 minutes 37.8 seconds.
 File lengths (MBytes):  RWF=   1240 Int=      0 D2E=      0 Chk=     32 Scr=      8
 Normal termination of Gaussian 16 at Fri Jan 27 21:52:24 2023.
