 Entering Gaussian System, Link 0=g16
 Input=NicPy4h8swB97XDaVDZOptFreq.gjf
 Output=NicPy4h8swB97XDaVDZOptFreq.log
 Initial command:
 /sw/contrib/gaussian/g16/A03/g16/l1.exe "/gscratch/scrubbed/gds001/Gau-29943.inp" -scrdir="/gscratch/scrubbed/gds001/"
 Entering Link 1 = /sw/contrib/gaussian/g16/A03/g16/l1.exe PID=     29945.
  
 Copyright (c) 1988,1990,1992,1993,1995,1998,2003,2009,2016,
            Gaussian, Inc.  All Rights Reserved.
  
 This is part of the Gaussian(R) 16 program.  It is based on
 the Gaussian(R) 09 system (copyright 2009, Gaussian, Inc.),
 the Gaussian(R) 03 system (copyright 2003, Gaussian, Inc.),
 the Gaussian(R) 98 system (copyright 1998, Gaussian, Inc.),
 the Gaussian(R) 94 system (copyright 1995, Gaussian, Inc.),
 the Gaussian 92(TM) system (copyright 1992, Gaussian, Inc.),
 the Gaussian 90(TM) system (copyright 1990, Gaussian, Inc.),
 the Gaussian 88(TM) system (copyright 1988, Gaussian, Inc.),
 the Gaussian 86(TM) system (copyright 1986, Carnegie Mellon
 University), and the Gaussian 82(TM) system (copyright 1983,
 Carnegie Mellon University). Gaussian is a federally registered
 trademark of Gaussian, Inc.
  
 This software contains proprietary and confidential information,
 including trade secrets, belonging to Gaussian, Inc.
  
 This software is provided under written license and may be
 used, copied, transmitted, or stored only in accord with that
 written license.
  
 The following legend is applicable only to US Government
 contracts under FAR:
  
                    RESTRICTED RIGHTS LEGEND
  
 Use, reproduction and disclosure by the US Government is
 subject to restrictions as set forth in subparagraphs (a)
 and (c) of the Commercial Computer Software - Restricted
 Rights clause in FAR 52.227-19.
  
 Gaussian, Inc.
 340 Quinnipiac St., Bldg. 40, Wallingford CT 06492
  
  
 ---------------------------------------------------------------
 Warning -- This program may not be used in any manner that
 competes with the business of Gaussian, Inc. or will provide
 assistance to any competitor of Gaussian, Inc.  The licensee
 of this program is prohibited from giving any competitor of
 Gaussian, Inc. access to this program.  By using this program,
 the user acknowledges that Gaussian, Inc. is engaged in the
 business of creating and licensing software in the field of
 computational chemistry and represents and warrants to the
 licensee that it is not a competitor of Gaussian, Inc. and that
 it will not use this program in any manner prohibited above.
 ---------------------------------------------------------------
  

 Cite this work as:
 Gaussian 16, Revision A.03,
 M. J. Frisch, G. W. Trucks, H. B. Schlegel, G. E. Scuseria, 
 M. A. Robb, J. R. Cheeseman, G. Scalmani, V. Barone, 
 G. A. Petersson, H. Nakatsuji, X. Li, M. Caricato, A. V. Marenich, 
 J. Bloino, B. G. Janesko, R. Gomperts, B. Mennucci, H. P. Hratchian, 
 J. V. Ortiz, A. F. Izmaylov, J. L. Sonnenberg, D. Williams-Young, 
 F. Ding, F. Lipparini, F. Egidi, J. Goings, B. Peng, A. Petrone, 
 T. Henderson, D. Ranasinghe, V. G. Zakrzewski, J. Gao, N. Rega, 
 G. Zheng, W. Liang, M. Hada, M. Ehara, K. Toyota, R. Fukuda, 
 J. Hasegawa, M. Ishida, T. Nakajima, Y. Honda, O. Kitao, H. Nakai, 
 T. Vreven, K. Throssell, J. A. Montgomery, Jr., J. E. Peralta, 
 F. Ogliaro, M. J. Bearpark, J. J. Heyd, E. N. Brothers, K. N. Kudin, 
 V. N. Staroverov, T. A. Keith, R. Kobayashi, J. Normand, 
 K. Raghavachari, A. P. Rendell, J. C. Burant, S. S. Iyengar, 
 J. Tomasi, M. Cossi, J. M. Millam, M. Klene, C. Adamo, R. Cammi, 
 J. W. Ochterski, R. L. Martin, K. Morokuma, O. Farkas, 
 J. B. Foresman, and D. J. Fox, Gaussian, Inc., Wallingford CT, 2016.
 
 ******************************************
 Gaussian 16:  ES64L-G16RevA.03 25-Dec-2016
                 8-Nov-2022 
 ******************************************
 %nprocshared=28
 Will use up to   28 processors via shared memory.
 %mem=41GB
 -----------------------------
 # wB97XD/aug-cc-pVDZ opt freq
 -----------------------------
 1/18=20,19=15,26=3,38=1/1,3;
 2/9=110,12=2,17=6,18=5,40=1/2;
 3/5=16,7=10,11=2,25=1,30=1,71=1,74=-58/1,2,3;
 4//1;
 5/5=2,38=5/2;
 6/7=2,8=2,9=2,10=2,28=1/1;
 7//1,2,3,16;
 1/18=20,19=15,26=3/3(2);
 2/9=110/2;
 99//99;
 2/9=110/2;
 3/5=16,7=10,11=2,25=1,30=1,71=1,74=-58/1,2,3;
 4/5=5,16=3,69=1/1;
 5/5=2,38=5/2;
 7//1,2,3,16;
 1/18=20,19=15,26=3/3(-5);
 2/9=110/2;
 6/7=2,8=2,9=2,10=2,19=2,28=1/1;
 99/9=1/99;
 ----
 blah
 ----
 Symbolic Z-matrix:
 Charge =  1 Multiplicity = 1
 N                    -1.53854  -1.06979   0.6502 
 C                    -0.88228  -1.47129  -0.61251 
 C                    -1.53323  -0.56174  -1.66612 
 C                    -2.94409  -0.26235  -1.10291 
 C                    -2.95852  -0.92509   0.2835 
 C                     0.61559  -1.34215  -0.48404 
 C                     1.14999  -0.09814  -0.18423 
 N                     2.45298   0.05609   0.06691 
 C                     3.33062  -0.95829  -0.01025 
 C                     2.87494  -2.2178   -0.35747 
 C                     1.5075   -2.41032  -0.57671 
 O                    -0.68328   1.33807   1.85116 
 O                    -1.67536   2.87918  -0.24737 
 O                     2.15642   2.50773   1.03364 
 H                    -3.43455  -1.92143   0.23702 
 H                    -3.73925  -0.67023  -1.73696 
 H                    -3.0919    0.82094  -1.02435 
 H                    -0.96299   0.36966  -1.77807 
 H                    -1.55067  -1.05122  -2.64688 
 H                    -3.48094  -0.33844   1.0489 
 H                    -1.12477  -2.52699  -0.83536 
 H                     0.55873   0.80792  -0.11395 
 H                     4.36744  -0.73498   0.21681 
 H                     3.57979  -3.04278  -0.42712 
 H                     1.13459  -3.40749  -0.81181 
 C                    -1.33448  -2.02024   1.73945 
 H                    -0.98395   0.48836   1.43347 
 H                     1.40418   2.32997   1.6146 
 H                    -1.05879   1.34659   2.73578 
 H                     2.69246   1.02512   0.40236 
 H                     1.7611    2.94742   0.25216 
 H                    -1.46183   2.52446   0.63203 
 H                    -2.23225   3.64939  -0.11479 
 O                     0.84935   3.03011  -1.30623 
 H                    -0.08946   3.14354  -1.05113 
 H                     1.03238   3.68828  -1.97936 
 H                    -1.67822  -3.03445   1.47045 
 H                    -1.90136  -1.69072   2.62026 
 H                    -0.27402  -2.06319   2.01422 
 
 Add virtual bond connecting atoms H30        and O14        Dist= 3.21D+00.
 Add virtual bond connecting atoms H35        and O13        Dist= 3.40D+00.
 Add virtual bond connecting atoms O34        and H31        Dist= 3.42D+00.
 Add virtual bond connecting atoms O12        and H32        Dist= 3.54D+00.
 Add virtual bond connecting atoms H27        and N1         Dist= 3.46D+00.

 GradGradGradGradGradGradGradGradGradGradGradGradGradGradGradGradGradGrad
 Berny optimization.
 Initialization pass.
                           ----------------------------
                           !    Initial Parameters    !
                           ! (Angstroms and Degrees)  !
 --------------------------                            --------------------------
 ! Name  Definition              Value          Derivative Info.                !
 --------------------------------------------------------------------------------
 ! R1    R(1,2)                  1.4786         estimate D2E/DX2                !
 ! R2    R(1,5)                  1.4737         estimate D2E/DX2                !
 ! R3    R(1,26)                 1.46           estimate D2E/DX2                !
 ! R4    R(1,27)                 1.83           estimate D2E/DX2                !
 ! R5    R(2,3)                  1.5366         estimate D2E/DX2                !
 ! R6    R(2,6)                  1.5089         estimate D2E/DX2                !
 ! R7    R(2,21)                 1.1059         estimate D2E/DX2                !
 ! R8    R(3,4)                  1.5483         estimate D2E/DX2                !
 ! R9    R(3,18)                 1.0978         estimate D2E/DX2                !
 ! R10   R(3,19)                 1.0963         estimate D2E/DX2                !
 ! R11   R(4,5)                  1.5367         estimate D2E/DX2                !
 ! R12   R(4,16)                 1.0957         estimate D2E/DX2                !
 ! R13   R(4,17)                 1.0961         estimate D2E/DX2                !
 ! R14   R(5,15)                 1.1052         estimate D2E/DX2                !
 ! R15   R(5,20)                 1.0968         estimate D2E/DX2                !
 ! R16   R(6,7)                  1.3867         estimate D2E/DX2                !
 ! R17   R(6,11)                 1.3947         estimate D2E/DX2                !
 ! R18   R(7,8)                  1.3359         estimate D2E/DX2                !
 ! R19   R(7,22)                 1.0842         estimate D2E/DX2                !
 ! R20   R(8,9)                  1.3436         estimate D2E/DX2                !
 ! R21   R(8,30)                 1.053          estimate D2E/DX2                !
 ! R22   R(9,10)                 1.3837         estimate D2E/DX2                !
 ! R23   R(9,23)                 1.0846         estimate D2E/DX2                !
 ! R24   R(10,11)                1.3982         estimate D2E/DX2                !
 ! R25   R(10,24)                1.0873         estimate D2E/DX2                !
 ! R26   R(11,25)                1.0903         estimate D2E/DX2                !
 ! R27   R(12,27)                0.9934         estimate D2E/DX2                !
 ! R28   R(12,29)                0.9611         estimate D2E/DX2                !
 ! R29   R(12,32)                1.8708         estimate D2E/DX2                !
 ! R30   R(13,32)                0.972          estimate D2E/DX2                !
 ! R31   R(13,33)                0.9596         estimate D2E/DX2                !
 ! R32   R(13,35)                1.7975         estimate D2E/DX2                !
 ! R33   R(14,28)                0.9669         estimate D2E/DX2                !
 ! R34   R(14,30)                1.6982         estimate D2E/DX2                !
 ! R35   R(14,31)                0.98           estimate D2E/DX2                !
 ! R36   R(26,37)                1.1041         estimate D2E/DX2                !
 ! R37   R(26,38)                1.0981         estimate D2E/DX2                !
 ! R38   R(26,39)                1.0963         estimate D2E/DX2                !
 ! R39   R(31,34)                1.8074         estimate D2E/DX2                !
 ! R40   R(34,35)                0.9794         estimate D2E/DX2                !
 ! R41   R(34,36)                0.9591         estimate D2E/DX2                !
 ! A1    A(2,1,5)              103.9942         estimate D2E/DX2                !
 ! A2    A(2,1,26)             113.4739         estimate D2E/DX2                !
 ! A3    A(2,1,27)             117.5298         estimate D2E/DX2                !
 ! A4    A(5,1,26)             112.5972         estimate D2E/DX2                !
 ! A5    A(5,1,27)             108.3554         estimate D2E/DX2                !
 ! A6    A(26,1,27)            101.1051         estimate D2E/DX2                !
 ! A7    A(1,2,3)              103.698          estimate D2E/DX2                !
 ! A8    A(1,2,6)              110.1597         estimate D2E/DX2                !
 ! A9    A(1,2,21)             109.5108         estimate D2E/DX2                !
 ! A10   A(3,2,6)              115.3568         estimate D2E/DX2                !
 ! A11   A(3,2,21)             109.512          estimate D2E/DX2                !
 ! A12   A(6,2,21)             108.4531         estimate D2E/DX2                !
 ! A13   A(2,3,4)              104.54           estimate D2E/DX2                !
 ! A14   A(2,3,18)             110.614          estimate D2E/DX2                !
 ! A15   A(2,3,19)             110.8475         estimate D2E/DX2                !
 ! A16   A(4,3,18)             110.2643         estimate D2E/DX2                !
 ! A17   A(4,3,19)             113.4074         estimate D2E/DX2                !
 ! A18   A(18,3,19)            107.2083         estimate D2E/DX2                !
 ! A19   A(3,4,5)              104.6749         estimate D2E/DX2                !
 ! A20   A(3,4,16)             112.2583         estimate D2E/DX2                !
 ! A21   A(3,4,17)             109.879          estimate D2E/DX2                !
 ! A22   A(5,4,16)             110.7747         estimate D2E/DX2                !
 ! A23   A(5,4,17)             111.1175         estimate D2E/DX2                !
 ! A24   A(16,4,17)            108.149          estimate D2E/DX2                !
 ! A25   A(1,5,4)              104.9389         estimate D2E/DX2                !
 ! A26   A(1,5,15)             109.6924         estimate D2E/DX2                !
 ! A27   A(1,5,20)             109.745          estimate D2E/DX2                !
 ! A28   A(4,5,15)             110.7867         estimate D2E/DX2                !
 ! A29   A(4,5,20)             113.7904         estimate D2E/DX2                !
 ! A30   A(15,5,20)            107.8418         estimate D2E/DX2                !
 ! A31   A(2,6,7)              118.5374         estimate D2E/DX2                !
 ! A32   A(2,6,11)             124.3074         estimate D2E/DX2                !
 ! A33   A(7,6,11)             117.0643         estimate D2E/DX2                !
 ! A34   A(6,7,8)              121.3378         estimate D2E/DX2                !
 ! A35   A(6,7,22)             123.6107         estimate D2E/DX2                !
 ! A36   A(8,7,22)             115.0394         estimate D2E/DX2                !
 ! A37   A(7,8,9)              122.6266         estimate D2E/DX2                !
 ! A38   A(7,8,30)             112.8263         estimate D2E/DX2                !
 ! A39   A(9,8,30)             124.3675         estimate D2E/DX2                !
 ! A40   A(8,9,10)             119.1127         estimate D2E/DX2                !
 ! A41   A(8,9,23)             117.1911         estimate D2E/DX2                !
 ! A42   A(10,9,23)            123.6936         estimate D2E/DX2                !
 ! A43   A(9,10,11)            119.1275         estimate D2E/DX2                !
 ! A44   A(9,10,24)            119.5533         estimate D2E/DX2                !
 ! A45   A(11,10,24)           121.2963         estimate D2E/DX2                !
 ! A46   A(6,11,10)            120.6348         estimate D2E/DX2                !
 ! A47   A(6,11,25)            119.7417         estimate D2E/DX2                !
 ! A48   A(10,11,25)           119.6203         estimate D2E/DX2                !
 ! A49   A(27,12,29)           106.042          estimate D2E/DX2                !
 ! A50   A(27,12,32)            98.1909         estimate D2E/DX2                !
 ! A51   A(29,12,32)           115.5694         estimate D2E/DX2                !
 ! A52   A(32,13,33)           107.1809         estimate D2E/DX2                !
 ! A53   A(32,13,35)           105.3319         estimate D2E/DX2                !
 ! A54   A(33,13,35)           117.112          estimate D2E/DX2                !
 ! A55   A(28,14,30)           107.9632         estimate D2E/DX2                !
 ! A56   A(28,14,31)           104.3465         estimate D2E/DX2                !
 ! A57   A(30,14,31)           102.8623         estimate D2E/DX2                !
 ! A58   A(1,26,37)            111.8827         estimate D2E/DX2                !
 ! A59   A(1,26,38)            109.3263         estimate D2E/DX2                !
 ! A60   A(1,26,39)            110.3464         estimate D2E/DX2                !
 ! A61   A(37,26,38)           108.0804         estimate D2E/DX2                !
 ! A62   A(37,26,39)           109.0388         estimate D2E/DX2                !
 ! A63   A(38,26,39)           108.064          estimate D2E/DX2                !
 ! A64   A(8,30,14)            148.2132         estimate D2E/DX2                !
 ! A65   A(14,31,34)           155.7303         estimate D2E/DX2                !
 ! A66   A(12,32,13)           155.8441         estimate D2E/DX2                !
 ! A67   A(31,34,35)           105.3226         estimate D2E/DX2                !
 ! A68   A(31,34,36)           122.7036         estimate D2E/DX2                !
 ! A69   A(35,34,36)           106.6338         estimate D2E/DX2                !
 ! A70   A(13,35,34)           160.9286         estimate D2E/DX2                !
 ! A71   L(1,27,12,7,-1)       179.8059         estimate D2E/DX2                !
 ! A72   L(1,27,12,7,-2)       179.5437         estimate D2E/DX2                !
 ! D1    D(5,1,2,3)             42.5763         estimate D2E/DX2                !
 ! D2    D(5,1,2,6)            166.5658         estimate D2E/DX2                !
 ! D3    D(5,1,2,21)           -74.2372         estimate D2E/DX2                !
 ! D4    D(26,1,2,3)           165.2574         estimate D2E/DX2                !
 ! D5    D(26,1,2,6)           -70.7531         estimate D2E/DX2                !
 ! D6    D(26,1,2,21)           48.4439         estimate D2E/DX2                !
 ! D7    D(27,1,2,3)           -77.1517         estimate D2E/DX2                !
 ! D8    D(27,1,2,6)            46.8378         estimate D2E/DX2                !
 ! D9    D(27,1,2,21)          166.0348         estimate D2E/DX2                !
 ! D10   D(2,1,5,4)            -39.8422         estimate D2E/DX2                !
 ! D11   D(2,1,5,15)            79.2102         estimate D2E/DX2                !
 ! D12   D(2,1,5,20)          -162.4816         estimate D2E/DX2                !
 ! D13   D(26,1,5,4)          -163.098          estimate D2E/DX2                !
 ! D14   D(26,1,5,15)          -44.0456         estimate D2E/DX2                !
 ! D15   D(26,1,5,20)           74.2626         estimate D2E/DX2                !
 ! D16   D(27,1,5,4)            85.9306         estimate D2E/DX2                !
 ! D17   D(27,1,5,15)         -155.017          estimate D2E/DX2                !
 ! D18   D(27,1,5,20)          -36.7088         estimate D2E/DX2                !
 ! D19   D(2,1,12,29)         -167.7544         estimate D2E/DX2                !
 ! D20   D(2,1,12,32)           72.6003         estimate D2E/DX2                !
 ! D21   D(5,1,12,29)           74.9601         estimate D2E/DX2                !
 ! D22   D(5,1,12,32)          -44.6852         estimate D2E/DX2                !
 ! D23   D(26,1,12,29)         -43.6345         estimate D2E/DX2                !
 ! D24   D(26,1,12,32)        -163.2798         estimate D2E/DX2                !
 ! D25   D(2,1,26,37)          -56.6632         estimate D2E/DX2                !
 ! D26   D(2,1,26,38)         -176.3515         estimate D2E/DX2                !
 ! D27   D(2,1,26,39)           64.9293         estimate D2E/DX2                !
 ! D28   D(5,1,26,37)           61.1319         estimate D2E/DX2                !
 ! D29   D(5,1,26,38)          -58.5565         estimate D2E/DX2                !
 ! D30   D(5,1,26,39)         -177.2757         estimate D2E/DX2                !
 ! D31   D(27,1,26,37)         176.555          estimate D2E/DX2                !
 ! D32   D(27,1,26,38)          56.8666         estimate D2E/DX2                !
 ! D33   D(27,1,26,39)         -61.8526         estimate D2E/DX2                !
 ! D34   D(1,2,3,4)            -28.4311         estimate D2E/DX2                !
 ! D35   D(1,2,3,18)            90.2443         estimate D2E/DX2                !
 ! D36   D(1,2,3,19)          -150.974          estimate D2E/DX2                !
 ! D37   D(6,2,3,4)           -148.9655         estimate D2E/DX2                !
 ! D38   D(6,2,3,18)           -30.2901         estimate D2E/DX2                !
 ! D39   D(6,2,3,19)            88.4915         estimate D2E/DX2                !
 ! D40   D(21,2,3,4)            88.3816         estimate D2E/DX2                !
 ! D41   D(21,2,3,18)         -152.943          estimate D2E/DX2                !
 ! D42   D(21,2,3,19)          -34.1614         estimate D2E/DX2                !
 ! D43   D(1,2,6,7)            -59.2362         estimate D2E/DX2                !
 ! D44   D(1,2,6,11)           117.1884         estimate D2E/DX2                !
 ! D45   D(3,2,6,7)             57.7091         estimate D2E/DX2                !
 ! D46   D(3,2,6,11)          -125.8663         estimate D2E/DX2                !
 ! D47   D(21,2,6,7)          -179.0757         estimate D2E/DX2                !
 ! D48   D(21,2,6,11)           -2.6511         estimate D2E/DX2                !
 ! D49   D(2,3,4,5)              4.5037         estimate D2E/DX2                !
 ! D50   D(2,3,4,16)          -115.7185         estimate D2E/DX2                !
 ! D51   D(2,3,4,17)           123.8915         estimate D2E/DX2                !
 ! D52   D(18,3,4,5)          -114.4089         estimate D2E/DX2                !
 ! D53   D(18,3,4,16)          125.3689         estimate D2E/DX2                !
 ! D54   D(18,3,4,17)            4.9789         estimate D2E/DX2                !
 ! D55   D(19,3,4,5)           125.3611         estimate D2E/DX2                !
 ! D56   D(19,3,4,16)            5.1389         estimate D2E/DX2                !
 ! D57   D(19,3,4,17)         -115.2511         estimate D2E/DX2                !
 ! D58   D(3,4,5,1)             21.1403         estimate D2E/DX2                !
 ! D59   D(3,4,5,15)           -97.1746         estimate D2E/DX2                !
 ! D60   D(3,4,5,20)           141.1234         estimate D2E/DX2                !
 ! D61   D(16,4,5,1)           142.3472         estimate D2E/DX2                !
 ! D62   D(16,4,5,15)           24.0322         estimate D2E/DX2                !
 ! D63   D(16,4,5,20)          -97.6698         estimate D2E/DX2                !
 ! D64   D(17,4,5,1)           -97.4111         estimate D2E/DX2                !
 ! D65   D(17,4,5,15)          144.2739         estimate D2E/DX2                !
 ! D66   D(17,4,5,20)           22.5719         estimate D2E/DX2                !
 ! D67   D(2,6,7,8)            173.5899         estimate D2E/DX2                !
 ! D68   D(2,6,7,22)            -5.0802         estimate D2E/DX2                !
 ! D69   D(11,6,7,8)            -3.0939         estimate D2E/DX2                !
 ! D70   D(11,6,7,22)          178.236          estimate D2E/DX2                !
 ! D71   D(2,6,11,10)         -175.7231         estimate D2E/DX2                !
 ! D72   D(2,6,11,25)            3.6183         estimate D2E/DX2                !
 ! D73   D(7,6,11,10)            0.7498         estimate D2E/DX2                !
 ! D74   D(7,6,11,25)         -179.9089         estimate D2E/DX2                !
 ! D75   D(6,7,8,9)              2.9516         estimate D2E/DX2                !
 ! D76   D(6,7,8,30)          -172.3721         estimate D2E/DX2                !
 ! D77   D(22,7,8,9)          -178.2708         estimate D2E/DX2                !
 ! D78   D(22,7,8,30)            6.4055         estimate D2E/DX2                !
 ! D79   D(7,8,9,10)            -0.2813         estimate D2E/DX2                !
 ! D80   D(7,8,9,23)          -179.71           estimate D2E/DX2                !
 ! D81   D(30,8,9,10)          174.4957         estimate D2E/DX2                !
 ! D82   D(30,8,9,23)           -4.933          estimate D2E/DX2                !
 ! D83   D(7,8,30,14)           15.8927         estimate D2E/DX2                !
 ! D84   D(9,8,30,14)         -159.3358         estimate D2E/DX2                !
 ! D85   D(8,9,10,11)           -2.0362         estimate D2E/DX2                !
 ! D86   D(8,9,10,24)          179.6816         estimate D2E/DX2                !
 ! D87   D(23,9,10,11)         177.353          estimate D2E/DX2                !
 ! D88   D(23,9,10,24)          -0.9292         estimate D2E/DX2                !
 ! D89   D(9,10,11,6)            1.7607         estimate D2E/DX2                !
 ! D90   D(9,10,11,25)        -177.5814         estimate D2E/DX2                !
 ! D91   D(24,10,11,6)        -179.9881         estimate D2E/DX2                !
 ! D92   D(24,10,11,25)          0.6698         estimate D2E/DX2                !
 ! D93   D(27,12,32,13)        -49.1858         estimate D2E/DX2                !
 ! D94   D(29,12,32,13)       -161.4186         estimate D2E/DX2                !
 ! D95   D(33,13,32,12)        179.1327         estimate D2E/DX2                !
 ! D96   D(35,13,32,12)        -55.4597         estimate D2E/DX2                !
 ! D97   D(32,13,35,34)         32.0507         estimate D2E/DX2                !
 ! D98   D(33,13,35,34)        151.0286         estimate D2E/DX2                !
 ! D99   D(28,14,30,8)          33.7065         estimate D2E/DX2                !
 ! D100  D(31,14,30,8)         -76.2445         estimate D2E/DX2                !
 ! D101  D(28,14,31,34)        -76.6608         estimate D2E/DX2                !
 ! D102  D(30,14,31,34)         35.9784         estimate D2E/DX2                !
 ! D103  D(14,31,34,35)         88.5589         estimate D2E/DX2                !
 ! D104  D(14,31,34,36)       -149.5273         estimate D2E/DX2                !
 ! D105  D(31,34,35,13)        -51.3178         estimate D2E/DX2                !
 ! D106  D(36,34,35,13)        176.8824         estimate D2E/DX2                !
 --------------------------------------------------------------------------------
 Trust Radius=3.00D-01 FncErr=1.00D-07 GrdErr=1.00D-06 EigMax=2.50D+02 EigMin=1.00D-04
 Number of steps in this run=    229 maximum allowed number of steps=    234.
 GradGradGradGradGradGradGradGradGradGradGradGradGradGradGradGradGradGrad

                          Input orientation:                          
 ---------------------------------------------------------------------
 Center     Atomic      Atomic             Coordinates (Angstroms)
 Number     Number       Type             X           Y           Z
 ---------------------------------------------------------------------
      1          7           0       -1.538540   -1.069790    0.650200
      2          6           0       -0.882280   -1.471290   -0.612510
      3          6           0       -1.533230   -0.561740   -1.666120
      4          6           0       -2.944090   -0.262350   -1.102910
      5          6           0       -2.958520   -0.925090    0.283500
      6          6           0        0.615590   -1.342150   -0.484040
      7          6           0        1.149990   -0.098140   -0.184230
      8          7           0        2.452980    0.056090    0.066910
      9          6           0        3.330620   -0.958290   -0.010250
     10          6           0        2.874940   -2.217800   -0.357470
     11          6           0        1.507500   -2.410320   -0.576710
     12          8           0       -0.683280    1.338070    1.851160
     13          8           0       -1.675360    2.879180   -0.247370
     14          8           0        2.156420    2.507730    1.033640
     15          1           0       -3.434550   -1.921430    0.237020
     16          1           0       -3.739250   -0.670230   -1.736960
     17          1           0       -3.091900    0.820940   -1.024350
     18          1           0       -0.962990    0.369660   -1.778070
     19          1           0       -1.550670   -1.051220   -2.646880
     20          1           0       -3.480940   -0.338440    1.048900
     21          1           0       -1.124770   -2.526990   -0.835360
     22          1           0        0.558730    0.807920   -0.113950
     23          1           0        4.367440   -0.734980    0.216810
     24          1           0        3.579790   -3.042780   -0.427120
     25          1           0        1.134590   -3.407490   -0.811810
     26          6           0       -1.334480   -2.020240    1.739450
     27          1           0       -0.983950    0.488360    1.433470
     28          1           0        1.404180    2.329970    1.614600
     29          1           0       -1.058790    1.346590    2.735780
     30          1           0        2.692460    1.025120    0.402360
     31          1           0        1.761100    2.947420    0.252160
     32          1           0       -1.461830    2.524460    0.632030
     33          1           0       -2.232250    3.649390   -0.114790
     34          8           0        0.849350    3.030110   -1.306230
     35          1           0       -0.089460    3.143540   -1.051130
     36          1           0        1.032380    3.688280   -1.979360
     37          1           0       -1.678220   -3.034450    1.470450
     38          1           0       -1.901360   -1.690720    2.620260
     39          1           0       -0.274020   -2.063190    2.014220
 ---------------------------------------------------------------------
                    Distance matrix (angstroms):
                    1          2          3          4          5
     1  N    0.000000
     2  C    1.478620   0.000000
     3  C    2.371388   1.536591   0.000000
     4  C    2.387661   2.439895   1.548343   0.000000
     5  C    1.473686   2.326358   2.442231   1.536739   0.000000
     6  C    2.449685   1.508906   2.573671   3.770980   3.679310
     7  C    2.978015   2.489796   3.100096   4.199099   4.216927
     8  N    4.188086   3.730745   4.390328   5.531568   5.503995
     9  C    4.915012   4.286539   5.153270   6.407045   6.296084
    10  C    4.670346   3.839144   4.887439   6.183896   6.009259
    11  C    3.546927   2.567899   3.721572   4.970645   4.784475
    12  O    2.823396   3.741895   4.086924   4.049585   3.571578
    13  O    4.052001   4.437217   3.724645   3.494401   4.049789
    14  O    5.157364   5.270304   5.506711   6.184933   6.205608
    15  H    2.119165   2.727345   3.014252   2.188266   1.105196
    16  H    3.271285   3.173068   2.209822   1.095749   2.180998
    17  H    2.965115   3.210351   2.180166   1.096146   2.185608
    18  H    2.880932   2.180399   1.097822   2.186329   3.147791
    19  H    3.297155   2.182170   1.096260   2.224360   3.253472
    20  H    2.113469   3.285828   3.348846   2.219073   1.096776
    21  H    2.121680   1.105878   2.172374   2.917208   2.679659
    22  H    2.916892   2.742238   2.943042   3.793846   3.941109
    23  H    5.931317   5.365583   6.196236   7.444697   7.328730
    24  H    5.590224   4.734345   5.816670   7.123798   6.909348
    25  H    3.840304   2.802919   3.993169   5.158709   4.910760
    26  C    1.459952   2.457142   3.710072   3.709452   2.440625
    27  H    1.830004   2.834890   3.318415   3.292254   2.686857
    28  H    4.598699   4.963617   5.268158   5.745645   5.603605
    29  H    3.227801   4.379800   4.821155   4.569309   3.844890
    30  H    4.727730   4.476694   4.965198   5.974455   5.979216
    31  H    5.213831   5.221122   5.181372   5.854712   6.105090
    32  H    3.595114   4.225018   3.848535   3.601864   3.776367
    33  H    4.830849   5.318976   4.541902   4.096927   4.648868
    34  O    5.132136   4.872617   4.325228   5.027108   5.715831
    35  H    4.769330   4.702936   4.023902   4.444286   5.154269
    36  H    6.013605   5.670570   4.974248   5.673443   6.506228
    37  H    2.133591   2.723180   3.996672   3.988627   2.738141
    38  H    2.097219   3.396686   4.447827   4.121835   2.676607
    39  H    2.108650   2.760441   4.169516   4.482053   3.390753
                    6          7          8          9         10
     6  C    0.000000
     7  C    1.386734   0.000000
     8  N    2.373736   1.335905   0.000000
     9  C    2.782663   2.350590   1.343567   0.000000
    10  C    2.426406   2.738325   2.351324   1.383680   0.000000
    11  C    1.394661   2.372347   2.718705   2.398548   1.398221
    12  O    3.784680   3.092958   3.829249   4.984928   5.493923
    13  O    4.808752   4.105000   5.011168   6.312071   6.833488
    14  O    4.415777   3.047403   2.651990   3.805489   4.978161
    15  H    4.154411   4.951752   6.213094   6.837858   6.344361
    16  H    4.581039   5.161679   6.490393   7.283376   6.931484
    17  H    4.326243   4.420876   5.702766   6.741129   6.729179
    18  H    2.663967   2.687722   3.895013   4.829464   4.841772
    19  H    3.074931   3.777111   4.961855   5.548644   5.117454
    20  H    4.487638   4.798319   6.027550   6.921225   6.775476
    21  H    2.134508   3.390843   4.504075   4.795011   4.040007
    22  H    2.182430   1.084192   2.046006   3.288408   3.818260
    23  H    3.864741   3.304298   2.076877   1.084629   2.180851
    24  H    3.417874   3.825419   3.334181   2.140319   1.087316
    25  H    2.154628   3.368366   3.808765   3.385798   2.156526
    26  C    3.034219   3.683423   4.631780   5.094345   4.706944
    27  H    3.096149   2.741284   3.723819   4.774164   5.042004
    28  H    4.302398   3.032511   2.943783   4.142941   5.170533
    29  H    4.516648   3.936040   4.595736   5.667457   6.143883
    30  H    3.271553   1.996250   1.053042   2.124008   3.335741
    31  H    4.500510   3.136770   2.978725   4.217443   5.319002
    32  H    4.529013   3.790239   4.662397   5.958997   6.501978
    33  H    5.758647   5.048599   5.907301   7.224069   7.782429
    34  O    4.455031   3.336947   3.647182   4.872740   5.704710
    35  H    4.576036   3.577183   4.152874   5.441083   6.165452
    36  H    5.264496   4.192052   4.404331   5.545261   6.395884
    37  H    3.456223   4.399847   5.346791   5.620622   4.973879
    38  H    4.011635   4.439844   5.341462   5.901665   5.653117
    39  H    2.748201   3.274509   3.964832   4.279335   3.945221
                   11         12         13         14         15
    11  C    0.000000
    12  O    4.974384   0.000000
    13  O    6.182061   2.786229   0.000000
    14  O    5.215510   3.178103   4.057277   0.000000
    15  H    5.032398   4.560622   5.135683   7.177117   0.000000
    16  H    5.648228   5.123166   4.367703   7.248074   2.356892
    17  H    5.638786   3.786480   2.616608   5.884339   3.037936
    18  H    3.908309   3.766612   3.024600   4.712513   3.926613
    19  H    3.935119   5.166569   4.606652   6.320986   3.552907
    20  H    5.640907   3.358751   3.910692   6.315120   1.779651
    21  H    2.647519   4.727684   5.465854   6.293471   2.617592
    22  H    3.386943   2.384388   3.049439   2.599794   4.849620
    23  H    3.408181   5.698983   7.056419   4.008864   7.891712
    24  H    2.171812   6.523509   7.919503   5.913372   7.134387
    25  H    1.090267   5.737282   6.909170   6.280100   4.917871
    26  C    3.686951   3.422687   5.297921   5.760821   2.584058
    27  H    4.318622   0.993416   3.003213   3.754949   3.639234
    28  H    5.223300   2.323212   3.640348   0.966943   6.586762
    29  H    5.627860   0.961058   3.410011   3.818783   4.750578
    30  H    3.763636   3.686812   4.789315   1.698230   6.800717
    31  H    5.427404   3.334937   3.473247   0.979957   7.120443
    32  H    5.884728   1.870812   0.971991   3.640509   4.879918
    33  H    7.135768   3.406827   0.959650   4.677895   5.709933
    34  O    5.528439   3.896289   2.741920   2.730623   6.726899
    35  H    5.798337   3.469241   1.797497   3.129616   6.205069
    36  H    6.275834   4.810391   3.314557   3.425687   7.505641
    37  H    3.837866   4.500420   6.158079   6.753594   2.417614
    38  H    4.728506   3.353923   5.399849   6.050614   2.843190
    39  H    3.163421   3.429672   5.612982   5.268955   3.628703
                   16         17         18         19         20
    16  H    0.000000
    17  H    1.774954   0.000000
    18  H    2.964908   2.303043   0.000000
    19  H    2.400623   2.917701   1.766097   0.000000
    20  H    2.817415   2.407048   3.851394   4.229987   0.000000
    21  H    3.331058   3.887667   3.050485   2.375056   3.727160
    22  H    4.826150   3.762459   2.297172   3.784403   4.357212
    23  H    8.339055   7.720306   5.797694   6.582154   7.902322
    24  H    7.804679   7.732817   5.840091   5.934245   7.703635
    25  H    5.665934   5.982308   4.427230   4.016231   5.846745
    26  C    4.437440   4.335830   4.268791   4.497291   2.812935
    27  H    4.357251   3.254987   3.213801   4.397810   2.658280
    28  H    6.832937   5.427335   4.577829   6.190622   5.595072
    29  H    5.590870   4.306788   4.619352   5.913076   3.398779
    30  H    6.986973   5.961209   4.306532   5.622562   6.355169
    31  H    6.877343   5.450046   4.264663   5.946543   6.237840
    32  H    4.583099   2.881441   3.271175   4.852281   3.528000
    33  H    4.854029   3.092964   3.890264   5.382543   4.337763
    34  O    5.910439   4.526957   3.253491   4.920843   5.970358
    35  H    5.323173   3.796029   2.997650   4.719911   5.294945
    36  H    6.467134   5.113059   3.877532   5.438804   6.764236
    37  H    4.486074   4.804847   4.759454   4.571857   3.270470
    38  H    4.837831   4.583558   4.946818   5.317397   2.606320
    39  H    5.293346   5.048917   4.557949   4.937588   3.767087
                   21         22         23         24         25
    21  H    0.000000
    22  H    3.804764   0.000000
    23  H    5.872200   4.122647   0.000000
    24  H    4.750325   4.904362   2.522098   0.000000
    25  H    2.424983   4.311416   4.318760   2.502000   0.000000
    26  C    2.632569   3.875284   6.040051   5.467144   3.811784
    27  H    3.776209   2.208277   5.622650   6.062876   4.970628
    28  H    5.998996   2.453428   4.486496   6.145595   6.235270
    29  H    5.268967   3.320768   6.334202   7.126495   6.324365
    30  H    5.359168   2.206027   2.436789   4.245374   4.852752
    31  H    6.283320   2.481369   4.511577   6.296948   6.473749
    32  H    5.271052   2.754207   6.691543   7.585110   6.634312
    33  H    6.316122   3.982904   7.930231   8.869188   7.849905
    34  O    5.916099   2.538527   5.373315   6.716259   6.462856
    35  H    5.768304   2.598765   6.042727   7.219650   6.668701
    36  H    6.677695   3.464184   5.959112   7.362467   7.191910
    37  H    2.424991   4.719966   6.588564   5.589947   3.641397
    38  H    3.639196   4.446476   6.781435   6.415419   4.893199
    39  H    3.009816   3.669585   5.151502   4.666004   3.431876
                   26         27         28         29         30
    26  C    0.000000
    27  H    2.551386   0.000000
    28  H    5.142001   3.021175   0.000000
    29  H    3.521963   1.561464   2.879288   0.000000
    30  H    5.222861   3.855812   2.198141   4.429455   0.000000
    31  H    6.039230   3.870112   1.537816   4.084459   2.141315
    32  H    4.679412   2.239727   3.035998   2.444501   4.422544
    33  H    6.032321   3.734632   4.237367   3.847810   5.604195
    34  O    6.288984   4.162624   3.054387   4.776304   3.215015
    35  H    6.000170   3.744774   3.162115   4.302246   3.786742
    36  H    7.212404   5.094358   3.860025   5.664720   3.939654
    37  H    1.104147   3.590762   6.188616   4.601985   6.060014
    38  H    1.098072   2.645468   5.301311   3.154128   5.779105
    39  H    1.096321   2.711398   4.719736   3.572550   4.575561
                   31         32         33         34         35
    31  H    0.000000
    32  H    3.272686   0.000000
    33  H    4.071150   1.554591   0.000000
    34  O    1.807403   3.058445   3.361442   0.000000
    35  H    2.271916   2.258249   2.392523   0.979442   0.000000
    36  H    2.461623   3.794064   3.759780   0.959058   1.554631
    37  H    7.006848   5.625945   6.891564   7.132843   6.859306
    38  H    6.366620   4.681238   6.008890   6.728296   6.334995
    39  H    5.687951   4.936383   6.403196   6.182965   6.044871
                   36         37         38         39
    36  H    0.000000
    37  H    8.027680   0.000000
    38  H    7.661395   1.782544   0.000000
    39  H    7.122834   1.791873   1.776022   0.000000
 Stoichiometry    C10H23N2O4(1+)
 Framework group  C1[X(C10H23N2O4)]
 Deg. of freedom   111
 Full point group                 C1      NOp   1
 Largest Abelian subgroup         C1      NOp   1
 Largest concise Abelian subgroup C1      NOp   1
                         Standard orientation:                         
 ---------------------------------------------------------------------
 Center     Atomic      Atomic             Coordinates (Angstroms)
 Number     Number       Type             X           Y           Z
 ---------------------------------------------------------------------
      1          7           0       -1.538543   -1.069787    0.650201
      2          6           0       -0.882284   -1.471289   -0.612509
      3          6           0       -1.533232   -0.561737   -1.666119
      4          6           0       -2.944091   -0.262344   -1.102909
      5          6           0       -2.958523   -0.925084    0.283501
      6          6           0        0.615586   -1.342152   -0.484039
      7          6           0        1.149989   -0.098143   -0.184229
      8          7           0        2.452980    0.056084    0.066911
      9          6           0        3.330617   -0.958298   -0.010249
     10          6           0        2.874934   -2.217807   -0.357469
     11          6           0        1.507494   -2.410324   -0.576709
     12          8           0       -0.683278    1.338071    1.851161
     13          8           0       -1.675354    2.879183   -0.247369
     14          8           0        2.156425    2.507724    1.033641
     15          1           0       -3.434555   -1.921423    0.237021
     16          1           0       -3.739252   -0.670222   -1.736959
     17          1           0       -3.091899    0.820946   -1.024349
     18          1           0       -0.962990    0.369662   -1.778069
     19          1           0       -1.550673   -1.051217   -2.646879
     20          1           0       -3.480941   -0.338433    1.048901
     21          1           0       -1.124776   -2.526988   -0.835359
     22          1           0        0.558731    0.807918   -0.113949
     23          1           0        4.367438   -0.734991    0.216811
     24          1           0        3.579782   -3.042789   -0.427119
     25          1           0        1.134582   -3.407493   -0.811809
     26          6           0       -1.334485   -2.020238    1.739451
     27          1           0       -0.983949    0.488362    1.433471
     28          1           0        1.404185    2.329966    1.614601
     29          1           0       -1.058788    1.346592    2.735781
     30          1           0        2.692462    1.025113    0.402361
     31          1           0        1.761106    2.947415    0.252161
     32          1           0       -1.461825    2.524463    0.632031
     33          1           0       -2.232242    3.649394   -0.114789
     34          8           0        0.849356    3.030107   -1.306229
     35          1           0       -0.089453    3.143540   -1.051129
     36          1           0        1.032388    3.688277   -1.979359
     37          1           0       -1.678228   -3.034447    1.470451
     38          1           0       -1.901364   -1.690716    2.620261
     39          1           0       -0.274025   -2.063190    2.014221
 ---------------------------------------------------------------------
 Rotational constants (GHZ):           0.4855027           0.4313538           0.2960570
 Standard basis: Aug-CC-pVDZ (5D, 7F)
 There are   607 symmetry adapted cartesian basis functions of A   symmetry.
 There are   575 symmetry adapted basis functions of A   symmetry.
   575 basis functions,   941 primitive gaussians,   607 cartesian basis functions
    64 alpha electrons       64 beta electrons
       nuclear repulsion energy      1274.8864266432 Hartrees.
 NAtoms=   39 NActive=   39 NUniq=   39 SFac= 1.00D+00 NAtFMM=   60 NAOKFM=F Big=F
 Integral buffers will be    131072 words long.
 Raffenetti 2 integral format.
 Two-electron integral symmetry is turned on.
 Nuclear repulsion after empirical dispersion term =     1274.8530746368 Hartrees.
 One-electron integrals computed using PRISM.
 NBasis=   575 RedAO= T EigKep=  1.23D-06  NBF=   575
 NBsUse=   575 1.00D-06 EigRej= -1.00D+00 NBFU=   575
 ExpMin= 2.97D-02 ExpMax= 1.17D+04 ExpMxC= 4.01D+02 IAcc=3 IRadAn=         5 AccDes= 0.00D+00
 Harris functional with IExCor= 4639 and IRadAn=       5 diagonalized for initial guess.
 HarFok:  IExCor= 4639 AccDes= 0.00D+00 IRadAn=         5 IDoV= 1 UseB2=F ITyADJ=14
 ICtDFT=  3500011 ScaDFX=  1.000000  1.000000  1.000000  1.000000
 FoFCou: FMM=F IPFlag=           0 FMFlag=      100000 FMFlg1=           0
         NFxFlg=           0 DoJE=T BraDBF=F KetDBF=T FulRan=T
         wScrn=  0.000000 ICntrl=       500 IOpCl=  0 I1Cent=   200000004 NGrid=           0
         NMat0=    1 NMatS0=      1 NMatT0=    0 NMatD0=    1 NMtDS0=    0 NMtDT0=    0
 Petite list used in FoFCou.
 Requested convergence on RMS density matrix=1.00D-08 within 128 cycles.
 Requested convergence on MAX density matrix=1.00D-06.
 Requested convergence on             energy=1.00D-06.
 No special actions if energy rises.
 SCF Done:  E(RwB97XD) =  -805.030308587     A.U. after   16 cycles
            NFock= 16  Conv=0.13D-08     -V/T= 2.0063

 **********************************************************************

            Population analysis using the SCF density.

 **********************************************************************

 Orbital symmetries:
       Occupied  (A) (A) (A) (A) (A) (A) (A) (A) (A) (A) (A) (A)
                 (A) (A) (A) (A) (A) (A) (A) (A) (A) (A) (A) (A)
                 (A) (A) (A) (A) (A) (A) (A) (A) (A) (A) (A) (A)
                 (A) (A) (A) (A) (A) (A) (A) (A) (A) (A) (A) (A)
                 (A) (A) (A) (A) (A) (A) (A) (A) (A) (A) (A) (A)
                 (A) (A) (A) (A)
       Virtual   (A) (A) (A) (A) (A) (A) (A) (A) (A) (A) (A) (A)
                 (A) (A) (A) (A) (A) (A) (A) (A) (A) (A) (A) (A)
                 (A) (A) (A) (A) (A) (A) (A) (A) (A) (A) (A) (A)
                 (A) (A) (A) (A) (A) (A) (A) (A) (A) (A) (A) (A)
                 (A) (A) (A) (A) (A) (A) (A) (A) (A) (A) (A) (A)
                 (A) (A) (A) (A) (A) (A) (A) (A) (A) (A) (A) (A)
                 (A) (A) (A) (A) (A) (A) (A) (A) (A) (A) (A) (A)
                 (A) (A) (A) (A) (A) (A) (A) (A) (A) (A) (A) (A)
                 (A) (A) (A) (A) (A) (A) (A) (A) (A) (A) (A) (A)
                 (A) (A) (A) (A) (A) (A) (A) (A) (A) (A) (A) (A)
                 (A) (A) (A) (A) (A) (A) (A) (A) (A) (A) (A) (A)
                 (A) (A) (A) (A) (A) (A) (A) (A) (A) (A) (A) (A)
                 (A) (A) (A) (A) (A) (A) (A) (A) (A) (A) (A) (A)
                 (A) (A) (A) (A) (A) (A) (A) (A) (A) (A) (A) (A)
                 (A) (A) (A) (A) (A) (A) (A) (A) (A) (A) (A) (A)
                 (A) (A) (A) (A) (A) (A) (A) (A) (A) (A) (A) (A)
                 (A) (A) (A) (A) (A) (A) (A) (A) (A) (A) (A) (A)
                 (A) (A) (A) (A) (A) (A) (A) (A) (A) (A) (A) (A)
                 (A) (A) (A) (A) (A) (A) (A) (A) (A) (A) (A) (A)
                 (A) (A) (A) (A) (A) (A) (A) (A) (A) (A) (A) (A)
                 (A) (A) (A) (A) (A) (A) (A) (A) (A) (A) (A) (A)
                 (A) (A) (A) (A) (A) (A) (A) (A) (A) (A) (A) (A)
                 (A) (A) (A) (A) (A) (A) (A) (A) (A) (A) (A) (A)
                 (A) (A) (A) (A) (A) (A) (A) (A) (A) (A) (A) (A)
                 (A) (A) (A) (A) (A) (A) (A) (A) (A) (A) (A) (A)
                 (A) (A) (A) (A) (A) (A) (A) (A) (A) (A) (A) (A)
                 (A) (A) (A) (A) (A) (A) (A) (A) (A) (A) (A) (A)
                 (A) (A) (A) (A) (A) (A) (A) (A) (A) (A) (A) (A)
                 (A) (A) (A) (A) (A) (A) (A) (A) (A) (A) (A) (A)
                 (A) (A) (A) (A) (A) (A) (A) (A) (A) (A) (A) (A)
                 (A) (A) (A) (A) (A) (A) (A) (A) (A) (A) (A) (A)
                 (A) (A) (A) (A) (A) (A) (A) (A) (A) (A) (A) (A)
                 (A) (A) (A) (A) (A) (A) (A) (A) (A) (A) (A) (A)
                 (A) (A) (A) (A) (A) (A) (A) (A) (A) (A) (A) (A)
                 (A) (A) (A) (A) (A) (A) (A) (A) (A) (A) (A) (A)
                 (A) (A) (A) (A) (A) (A) (A) (A) (A) (A) (A) (A)
                 (A) (A) (A) (A) (A) (A) (A) (A) (A) (A) (A) (A)
                 (A) (A) (A) (A) (A) (A) (A) (A) (A) (A) (A) (A)
                 (A) (A) (A) (A) (A) (A) (A) (A) (A) (A) (A) (A)
                 (A) (A) (A) (A) (A) (A) (A) (A) (A) (A) (A) (A)
                 (A) (A) (A) (A) (A) (A) (A) (A) (A) (A) (A) (A)
                 (A) (A) (A) (A) (A) (A) (A) (A) (A) (A) (A) (A)
                 (A) (A) (A) (A) (A) (A) (A)
 The electronic state is 1-A.
 Alpha  occ. eigenvalues --  -19.40180 -19.39254 -19.38641 -19.38569 -14.68092
 Alpha  occ. eigenvalues --  -14.58701 -10.51477 -10.50791 -10.48246 -10.47504
 Alpha  occ. eigenvalues --  -10.47271 -10.46723 -10.43926 -10.43578 -10.41463
 Alpha  occ. eigenvalues --  -10.40288  -1.26401  -1.24619  -1.23636  -1.23090
 Alpha  occ. eigenvalues --   -1.21982  -1.17746  -1.08660  -1.05139  -1.00686
 Alpha  occ. eigenvalues --   -0.96174  -0.90908  -0.90139  -0.89220  -0.82820
 Alpha  occ. eigenvalues --   -0.80027  -0.79777  -0.75764  -0.75244  -0.74524
 Alpha  occ. eigenvalues --   -0.73982  -0.73717  -0.73169  -0.71301  -0.69799
 Alpha  occ. eigenvalues --   -0.69136  -0.68401  -0.65864  -0.65287  -0.64119
 Alpha  occ. eigenvalues --   -0.63415  -0.62177  -0.61182  -0.60737  -0.59525
 Alpha  occ. eigenvalues --   -0.59142  -0.57995  -0.57519  -0.56723  -0.55727
 Alpha  occ. eigenvalues --   -0.54055  -0.54002  -0.53461  -0.53001  -0.52070
 Alpha  occ. eigenvalues --   -0.52056  -0.51300  -0.49638  -0.45113
 Alpha virt. eigenvalues --   -0.14207  -0.11309  -0.06782  -0.05774  -0.04990
 Alpha virt. eigenvalues --   -0.04732  -0.03533  -0.03316  -0.02944  -0.02660
 Alpha virt. eigenvalues --   -0.02447  -0.01585  -0.01141  -0.00840  -0.00423
 Alpha virt. eigenvalues --   -0.00013   0.00294   0.00328   0.00684   0.01628
 Alpha virt. eigenvalues --    0.01732   0.02055   0.02207   0.02623   0.03132
 Alpha virt. eigenvalues --    0.03274   0.03374   0.03472   0.03985   0.04282
 Alpha virt. eigenvalues --    0.04455   0.04822   0.04986   0.05101   0.05736
 Alpha virt. eigenvalues --    0.05836   0.06398   0.06578   0.06624   0.07027
 Alpha virt. eigenvalues --    0.07481   0.07692   0.08068   0.08144   0.08661
 Alpha virt. eigenvalues --    0.08961   0.09077   0.09481   0.09613   0.10197
 Alpha virt. eigenvalues --    0.10600   0.10708   0.11103   0.11428   0.11674
 Alpha virt. eigenvalues --    0.12180   0.12535   0.12633   0.12755   0.12958
 Alpha virt. eigenvalues --    0.13412   0.13794   0.14319   0.14621   0.14907
 Alpha virt. eigenvalues --    0.15023   0.15341   0.15691   0.15747   0.16332
 Alpha virt. eigenvalues --    0.16612   0.17102   0.17123   0.17285   0.17365
 Alpha virt. eigenvalues --    0.17461   0.17925   0.18398   0.18568   0.19007
 Alpha virt. eigenvalues --    0.19272   0.19667   0.19909   0.20171   0.20510
 Alpha virt. eigenvalues --    0.20608   0.21068   0.21344   0.21700   0.21902
 Alpha virt. eigenvalues --    0.22306   0.22536   0.22703   0.23389   0.23583
 Alpha virt. eigenvalues --    0.23849   0.24335   0.24572   0.24975   0.25215
 Alpha virt. eigenvalues --    0.25645   0.25976   0.26655   0.26967   0.27193
 Alpha virt. eigenvalues --    0.27339   0.27512   0.27798   0.28293   0.28821
 Alpha virt. eigenvalues --    0.29375   0.29619   0.30059   0.30504   0.30763
 Alpha virt. eigenvalues --    0.31217   0.31633   0.32039   0.32921   0.33249
 Alpha virt. eigenvalues --    0.33404   0.33859   0.34003   0.34593   0.35217
 Alpha virt. eigenvalues --    0.35422   0.36264   0.36903   0.37288   0.37791
 Alpha virt. eigenvalues --    0.38286   0.38447   0.38561   0.39185   0.39358
 Alpha virt. eigenvalues --    0.39934   0.40536   0.40797   0.40991   0.41838
 Alpha virt. eigenvalues --    0.42015   0.42253   0.42953   0.43303   0.43479
 Alpha virt. eigenvalues --    0.44368   0.44986   0.45064   0.45355   0.45696
 Alpha virt. eigenvalues --    0.46425   0.46469   0.46994   0.47432   0.47738
 Alpha virt. eigenvalues --    0.48053   0.48272   0.49043   0.49521   0.49981
 Alpha virt. eigenvalues --    0.50001   0.50401   0.50835   0.50966   0.51364
 Alpha virt. eigenvalues --    0.51726   0.52085   0.52615   0.52918   0.53399
 Alpha virt. eigenvalues --    0.53814   0.54209   0.54610   0.55135   0.55334
 Alpha virt. eigenvalues --    0.55516   0.56071   0.56347   0.56688   0.57022
 Alpha virt. eigenvalues --    0.57230   0.57826   0.57949   0.58684   0.58913
 Alpha virt. eigenvalues --    0.59203   0.59791   0.59891   0.60377   0.61011
 Alpha virt. eigenvalues --    0.61495   0.61976   0.62182   0.62641   0.63020
 Alpha virt. eigenvalues --    0.63143   0.63672   0.64355   0.64888   0.65556
 Alpha virt. eigenvalues --    0.65783   0.66298   0.67096   0.67207   0.68132
 Alpha virt. eigenvalues --    0.68573   0.68832   0.69007   0.69306   0.69397
 Alpha virt. eigenvalues --    0.69626   0.70814   0.71077   0.71199   0.72235
 Alpha virt. eigenvalues --    0.72385   0.72825   0.73063   0.73747   0.73866
 Alpha virt. eigenvalues --    0.74457   0.74943   0.75100   0.75596   0.76181
 Alpha virt. eigenvalues --    0.76588   0.77097   0.78342   0.79127   0.79505
 Alpha virt. eigenvalues --    0.80070   0.80190   0.81199   0.82150   0.82255
 Alpha virt. eigenvalues --    0.82510   0.82974   0.83211   0.83485   0.84130
 Alpha virt. eigenvalues --    0.85290   0.86797   0.87060   0.87671   0.88528
 Alpha virt. eigenvalues --    0.88884   0.89554   0.90334   0.90828   0.91530
 Alpha virt. eigenvalues --    0.91617   0.92025   0.93341   0.94447   0.94727
 Alpha virt. eigenvalues --    0.95536   0.96571   0.97018   0.97812   0.98060
 Alpha virt. eigenvalues --    0.99393   0.99716   1.00472   1.01260   1.02356
 Alpha virt. eigenvalues --    1.03314   1.04273   1.05363   1.05639   1.05810
 Alpha virt. eigenvalues --    1.07222   1.07575   1.08231   1.08571   1.09667
 Alpha virt. eigenvalues --    1.10696   1.11531   1.12109   1.12676   1.13442
 Alpha virt. eigenvalues --    1.15191   1.15729   1.16452   1.16819   1.17316
 Alpha virt. eigenvalues --    1.18009   1.18562   1.19532   1.19952   1.20715
 Alpha virt. eigenvalues --    1.21173   1.22467   1.23192   1.24014   1.25324
 Alpha virt. eigenvalues --    1.26397   1.26882   1.27646   1.28293   1.29460
 Alpha virt. eigenvalues --    1.30956   1.31900   1.32581   1.33062   1.34502
 Alpha virt. eigenvalues --    1.35522   1.35921   1.36300   1.38055   1.38189
 Alpha virt. eigenvalues --    1.38849   1.39741   1.42400   1.42477   1.43675
 Alpha virt. eigenvalues --    1.43921   1.44747   1.45042   1.46085   1.47000
 Alpha virt. eigenvalues --    1.47427   1.48548   1.50077   1.50167   1.51360
 Alpha virt. eigenvalues --    1.52394   1.53318   1.54160   1.55127   1.56787
 Alpha virt. eigenvalues --    1.57035   1.57898   1.59019   1.59424   1.60248
 Alpha virt. eigenvalues --    1.60731   1.61579   1.62073   1.63071   1.64016
 Alpha virt. eigenvalues --    1.64588   1.65864   1.66670   1.67674   1.68161
 Alpha virt. eigenvalues --    1.69316   1.69788   1.70145   1.70545   1.71706
 Alpha virt. eigenvalues --    1.72836   1.73224   1.74447   1.74694   1.75702
 Alpha virt. eigenvalues --    1.76815   1.77875   1.78701   1.79725   1.80167
 Alpha virt. eigenvalues --    1.81105   1.81283   1.82027   1.82822   1.83343
 Alpha virt. eigenvalues --    1.84307   1.85264   1.86302   1.87122   1.87864
 Alpha virt. eigenvalues --    1.89245   1.89421   1.90334   1.90815   1.91338
 Alpha virt. eigenvalues --    1.92009   1.93216   1.93632   1.94140   1.94849
 Alpha virt. eigenvalues --    1.95795   1.96838   1.97609   1.98550   1.99351
 Alpha virt. eigenvalues --    1.99872   2.00791   2.02054   2.02276   2.03012
 Alpha virt. eigenvalues --    2.03224   2.04488   2.05251   2.05998   2.06797
 Alpha virt. eigenvalues --    2.07517   2.09794   2.10271   2.10720   2.12466
 Alpha virt. eigenvalues --    2.13082   2.13794   2.14453   2.15351   2.15387
 Alpha virt. eigenvalues --    2.17527   2.19129   2.19849   2.20812   2.21746
 Alpha virt. eigenvalues --    2.22832   2.23007   2.24114   2.24854   2.26308
 Alpha virt. eigenvalues --    2.26441   2.26989   2.28136   2.29000   2.29490
 Alpha virt. eigenvalues --    2.30495   2.31064   2.32495   2.33583   2.34623
 Alpha virt. eigenvalues --    2.36009   2.37070   2.38198   2.39264   2.40678
 Alpha virt. eigenvalues --    2.41900   2.42788   2.43229   2.43878   2.44243
 Alpha virt. eigenvalues --    2.46546   2.46958   2.49408   2.50729   2.51045
 Alpha virt. eigenvalues --    2.52555   2.54486   2.54908   2.56240   2.57037
 Alpha virt. eigenvalues --    2.59249   2.60150   2.60613   2.61766   2.62896
 Alpha virt. eigenvalues --    2.63663   2.64132   2.65084   2.66411   2.67910
 Alpha virt. eigenvalues --    2.68637   2.68969   2.71225   2.71897   2.72946
 Alpha virt. eigenvalues --    2.75261   2.75802   2.78920   2.80270   2.81254
 Alpha virt. eigenvalues --    2.83639   2.84196   2.85099   2.88497   2.89236
 Alpha virt. eigenvalues --    2.90669   2.92373   2.94356   2.97782   2.98309
 Alpha virt. eigenvalues --    3.00794   3.02568   3.04944   3.06338   3.11748
 Alpha virt. eigenvalues --    3.12208   3.20887   3.23290   3.25438   3.31476
 Alpha virt. eigenvalues --    3.37184   3.39951   3.41248   3.41970   3.45782
 Alpha virt. eigenvalues --    3.45893   3.46499   3.49218   3.50080   3.51973
 Alpha virt. eigenvalues --    3.54806   3.56329   3.56864   3.64803   3.69401
 Alpha virt. eigenvalues --    3.72763   3.79908   3.81816   3.84716   3.94312
 Alpha virt. eigenvalues --    4.00578   4.02022   4.03542   4.08382   4.38150
 Alpha virt. eigenvalues --    5.03238
          Condensed to atoms (all electrons):
               1          2          3          4          5          6
     1  N   13.387810  -3.537258  -0.815114  -0.667713  -0.112993   1.699551
     2  C   -3.537258  30.258267  -2.934396   1.074290  -0.766664  -7.564773
     3  C   -0.815114  -2.934396  10.069014  -1.611158   1.185692   0.913987
     4  C   -0.667713   1.074290  -1.611158   7.395214  -0.514478  -0.104210
     5  C   -0.112993  -0.766664   1.185692  -0.514478   6.343251  -0.329246
     6  C    1.699551  -7.564773   0.913987  -0.104210  -0.329246  33.250719
     7  C    0.266976  -5.777121  -1.155397  -0.082205  -0.327825 -11.148141
     8  N   -0.267399   1.147512   0.016733   0.027074   0.028123   0.408782
     9  C   -0.007453  -0.007222  -0.039562   0.012572  -0.031597  -0.088569
    10  C    0.026153  -0.842176  -0.089324  -0.050530   0.001119  -1.278358
    11  C   -0.878511  -2.265596  -0.267690  -0.075208  -0.086471 -11.161536
    12  O   -0.091937   0.099045  -0.010679   0.051689  -0.009762   0.005927
    13  O    0.041820  -0.061845  -0.003445  -0.011064   0.015772   0.053399
    14  O    0.005955   0.007267   0.011261   0.003047   0.004779   0.015463
    15  H   -0.025240  -0.132219   0.049341  -0.096249  -0.115319   0.133259
    16  H   -0.037755  -0.021805   0.230898  -0.309779   0.086392   0.023607
    17  H    0.081513   0.245411   0.291946  -0.646852   0.200192  -0.187877
    18  H   -0.086917  -0.278928  -0.092599   0.345811   0.034250   0.103329
    19  H    0.399297   0.442332  -1.225213   0.227538  -0.194410   0.207234
    20  H   -0.774692   0.531999   0.044567   0.381855  -0.524550  -0.109201
    21  H   -0.064646  -3.772397   0.735447  -0.169203   0.006944   1.316948
    22  H   -0.476322  -0.623212  -0.243179  -0.130389  -0.013481  -2.271340
    23  H    0.004287  -0.028360   0.004310   0.000141  -0.001181  -0.291994
    24  H    0.002933   0.123601   0.008858   0.000519   0.000650   0.581504
    25  H    0.010491  -0.204987  -0.074770  -0.004511  -0.009296   1.238815
    26  C    0.898785  -0.647017  -0.175441  -0.092653  -0.044943   0.597979
    27  H   -0.085957   0.663157  -0.021430   0.143631  -0.242870  -0.208971
    28  H   -0.007151   0.005151   0.007869   0.001569   0.001614   0.058594
    29  H   -0.043337  -0.069469   0.015824  -0.010398   0.036998   0.009090
    30  H    0.031514  -0.047991  -0.028530  -0.001124  -0.000095  -0.419629
    31  H    0.002891  -0.001033   0.005350   0.000285   0.000285   0.002550
    32  H   -0.023749  -0.004870  -0.004016   0.005133  -0.001386   0.008170
    33  H    0.004746  -0.003176   0.007004  -0.008097   0.001508  -0.000607
    34  O    0.017754  -0.069950  -0.011596  -0.002478  -0.008527  -0.091484
    35  H   -0.010343   0.017554  -0.008677   0.001072   0.000337  -0.009261
    36  H    0.000633   0.008546  -0.001724   0.000676  -0.000024   0.004038
    37  H   -0.779456  -0.216279   0.021818  -0.006304   0.107943   0.149770
    38  H   -0.218343   0.105162  -0.089106   0.065527  -0.007524   0.012658
    39  H    0.224550  -0.008879   0.144627  -0.049943  -0.020408   0.096285
               7          8          9         10         11         12
     1  N    0.266976  -0.267399  -0.007453   0.026153  -0.878511  -0.091937
     2  C   -5.777121   1.147512  -0.007222  -0.842176  -2.265596   0.099045
     3  C   -1.155397   0.016733  -0.039562  -0.089324  -0.267690  -0.010679
     4  C   -0.082205   0.027074   0.012572  -0.050530  -0.075208   0.051689
     5  C   -0.327825   0.028123  -0.031597   0.001119  -0.086471  -0.009762
     6  C  -11.148141   0.408782  -0.088569  -1.278358 -11.161536   0.005927
     7  C   25.856074  -1.731330  -2.910366   2.175547   0.135048  -0.165913
     8  N   -1.731330   7.771543   0.328459  -0.198521  -0.555804   0.023092
     9  C   -2.910366   0.328459  10.385172  -2.542887   1.304018  -0.004222
    10  C    2.175547  -0.198521  -2.542887  11.337363  -2.978345   0.006759
    11  C    0.135048  -0.555804   1.304018  -2.978345  23.325176  -0.021649
    12  O   -0.165913   0.023092  -0.004222   0.006759  -0.021649   8.235513
    13  O   -0.002746  -0.007597  -0.001929   0.000737   0.000728  -0.015590
    14  O    0.187508  -0.199796   0.001081  -0.012212   0.018096  -0.029740
    15  H    0.014980   0.000811   0.001613  -0.004128   0.010549   0.000049
    16  H    0.027844  -0.001505   0.001679  -0.001692   0.013248  -0.003515
    17  H   -0.021373   0.007979  -0.000324  -0.002679  -0.008019   0.011128
    18  H   -0.273965  -0.021775  -0.034991  -0.000819   0.035152  -0.001334
    19  H    0.176490  -0.008941   0.011579  -0.012981  -0.096484  -0.000532
    20  H   -0.042316   0.003201  -0.002262   0.000808   0.023100   0.001701
    21  H    0.326788  -0.021625  -0.003414   0.068219   0.231294   0.000402
    22  H   -0.662860   0.302868  -0.041119   0.187492   0.194519  -0.018579
    23  H    0.419709  -0.177452  -0.495644   0.105035   0.196593  -0.000406
    24  H   -0.575553   0.035235   0.320446  -1.152511   0.388973   0.000174
    25  H    0.202449  -0.038754  -0.240059   0.655896  -2.355716  -0.001748
    26  C   -0.212638  -0.034551  -0.030781   0.066687  -0.329869   0.012701
    27  H   -0.108068   0.024788   0.052200  -0.038834   0.011056   0.013846
    28  H    0.038680   0.015888   0.014493   0.000855  -0.014181   0.028644
    29  H    0.037404  -0.002629  -0.003518   0.001984   0.000322   0.400991
    30  H    0.590436   0.101113  -0.503632   0.002311   0.007627  -0.006451
    31  H    0.015044  -0.026826  -0.014548   0.004777  -0.001713   0.002942
    32  H   -0.015547  -0.000721  -0.001148  -0.000687   0.001920   0.056811
    33  H    0.009784  -0.000054   0.000193   0.000261   0.000019  -0.004935
    34  O    0.019325  -0.006000  -0.032606   0.020816   0.008078   0.015941
    35  H   -0.026070   0.009605   0.003788  -0.004558   0.006081  -0.002054
    36  H    0.017167   0.000009   0.001669  -0.000261  -0.002054  -0.000733
    37  H    0.067119  -0.005623   0.001869  -0.004241   0.071080  -0.005938
    38  H   -0.014666   0.001313  -0.004100   0.015449  -0.022578   0.024799
    39  H   -0.129834   0.023021  -0.005141  -0.008826  -0.012734  -0.000512
              13         14         15         16         17         18
     1  N    0.041820   0.005955  -0.025240  -0.037755   0.081513  -0.086917
     2  C   -0.061845   0.007267  -0.132219  -0.021805   0.245411  -0.278928
     3  C   -0.003445   0.011261   0.049341   0.230898   0.291946  -0.092599
     4  C   -0.011064   0.003047  -0.096249  -0.309779  -0.646852   0.345811
     5  C    0.015772   0.004779  -0.115319   0.086392   0.200192   0.034250
     6  C    0.053399   0.015463   0.133259   0.023607  -0.187877   0.103329
     7  C   -0.002746   0.187508   0.014980   0.027844  -0.021373  -0.273965
     8  N   -0.007597  -0.199796   0.000811  -0.001505   0.007979  -0.021775
     9  C   -0.001929   0.001081   0.001613   0.001679  -0.000324  -0.034991
    10  C    0.000737  -0.012212  -0.004128  -0.001692  -0.002679  -0.000819
    11  C    0.000728   0.018096   0.010549   0.013248  -0.008019   0.035152
    12  O   -0.015590  -0.029740   0.000049  -0.003515   0.011128  -0.001334
    13  O    7.813936   0.003128   0.000019   0.001634  -0.010499   0.025006
    14  O    0.003128   8.133377  -0.000098   0.000279  -0.001078   0.015336
    15  H    0.000019  -0.000098   2.440571  -0.327563   0.248006  -0.080823
    16  H    0.001634   0.000279  -0.327563   2.209492  -0.720813   0.243942
    17  H   -0.010499  -0.001078   0.248006  -0.720813   2.545825  -0.524569
    18  H    0.025006   0.015336  -0.080823   0.243942  -0.524569   3.045729
    19  H   -0.002345  -0.000363   0.074111  -0.352649   0.230732  -0.937382
    20  H   -0.000409   0.001007  -0.727843   0.156441  -0.379472   0.076935
    21  H   -0.000910   0.000219  -0.119374   0.068567  -0.071284   0.293966
    22  H   -0.051396  -0.178604   0.025301  -0.014203   0.058940  -0.492270
    23  H    0.000023   0.001968   0.000187  -0.000003   0.000153  -0.000805
    24  H   -0.000005  -0.000164  -0.000379   0.000033  -0.000064   0.002364
    25  H    0.000011   0.000056   0.003251   0.001558  -0.000814  -0.017709
    26  C    0.006533   0.001644   0.109223  -0.028867   0.050623  -0.103842
    27  H   -0.012564  -0.006999  -0.071841   0.039187  -0.073634   0.133080
    28  H    0.001553   0.240491  -0.000240   0.000147  -0.000754   0.007832
    29  H    0.001862   0.005083   0.006519  -0.003202   0.005006  -0.006075
    30  H   -0.001685   0.103713  -0.000564   0.000703  -0.002247  -0.002380
    31  H    0.001207   0.296847  -0.000189   0.000018  -0.000806   0.006997
    32  H    0.343430   0.000905   0.004251  -0.000416   0.002526   0.001632
    33  H    0.323632   0.000118  -0.000384   0.000550  -0.003223   0.000953
    34  O   -0.030382  -0.088346  -0.000461   0.000121  -0.003547   0.017638
    35  H    0.014082  -0.005883  -0.000092  -0.000104   0.003655  -0.001492
    36  H    0.000328   0.004360   0.000033  -0.000063   0.000378  -0.002365
    37  H    0.000221   0.000274   0.068261   0.000287  -0.000269  -0.007764
    38  H   -0.000196  -0.000518  -0.010335  -0.003100   0.011195  -0.013596
    39  H    0.001162   0.000287   0.012718  -0.002167  -0.001929   0.012607
              19         20         21         22         23         24
     1  N    0.399297  -0.774692  -0.064646  -0.476322   0.004287   0.002933
     2  C    0.442332   0.531999  -3.772397  -0.623212  -0.028360   0.123601
     3  C   -1.225213   0.044567   0.735447  -0.243179   0.004310   0.008858
     4  C    0.227538   0.381855  -0.169203  -0.130389   0.000141   0.000519
     5  C   -0.194410  -0.524550   0.006944  -0.013481  -0.001181   0.000650
     6  C    0.207234  -0.109201   1.316948  -2.271340  -0.291994   0.581504
     7  C    0.176490  -0.042316   0.326788  -0.662860   0.419709  -0.575553
     8  N   -0.008941   0.003201  -0.021625   0.302868  -0.177452   0.035235
     9  C    0.011579  -0.002262  -0.003414  -0.041119  -0.495644   0.320446
    10  C   -0.012981   0.000808   0.068219   0.187492   0.105035  -1.152511
    11  C   -0.096484   0.023100   0.231294   0.194519   0.196593   0.388973
    12  O   -0.000532   0.001701   0.000402  -0.018579  -0.000406   0.000174
    13  O   -0.002345  -0.000409  -0.000910  -0.051396   0.000023  -0.000005
    14  O   -0.000363   0.001007   0.000219  -0.178604   0.001968  -0.000164
    15  H    0.074111  -0.727843  -0.119374   0.025301   0.000187  -0.000379
    16  H   -0.352649   0.156441   0.068567  -0.014203  -0.000003   0.000033
    17  H    0.230732  -0.379472  -0.071284   0.058940   0.000153  -0.000064
    18  H   -0.937382   0.076935   0.293966  -0.492270  -0.000805   0.002364
    19  H    2.849683  -0.046855  -0.396551   0.137788   0.001135  -0.001838
    20  H   -0.046855   3.043072   0.083978  -0.041597  -0.000225   0.000211
    21  H   -0.396551   0.083978   3.510772   0.018827  -0.000306   0.001684
    22  H    0.137788  -0.041597   0.018827   6.748871   0.025732  -0.035530
    23  H    0.001135  -0.000225  -0.000306   0.025732   2.201417  -0.112450
    24  H   -0.001838   0.000211   0.001684  -0.035530  -0.112450   2.144539
    25  H    0.007054  -0.002878  -0.133305   0.032048  -0.007679  -0.142469
    26  C    0.103024  -0.289231  -0.166543   0.108622   0.001524  -0.006331
    27  H   -0.059401   0.203870   0.036980  -0.364567   0.001038   0.002095
    28  H   -0.000958   0.000509  -0.000341  -0.114468   0.002543   0.000226
    29  H    0.003331  -0.005872  -0.003827   0.033523  -0.000155  -0.000093
    30  H   -0.001529   0.001330   0.001242  -0.085930  -0.181018   0.008181
    31  H   -0.001140   0.000424   0.000773  -0.015099   0.003906  -0.000193
    32  H    0.000517  -0.003960  -0.000516   0.020824  -0.000703   0.000071
    33  H    0.000054   0.001462  -0.000000  -0.000178   0.000063   0.000000
    34  O   -0.000284  -0.000204   0.000582  -0.028686  -0.000672   0.000403
    35  H    0.000409   0.000549  -0.000290   0.024231  -0.000873   0.000084
    36  H    0.000537  -0.000135   0.000026  -0.009360   0.000265  -0.000050
    37  H    0.012705   0.017415   0.061042   0.036282  -0.000259   0.000975
    38  H    0.002099  -0.021522   0.012830   0.048655   0.000437  -0.000989
    39  H   -0.000287  -0.005449  -0.016686  -0.039252  -0.002306  -0.002192
              25         26         27         28         29         30
     1  N    0.010491   0.898785  -0.085957  -0.007151  -0.043337   0.031514
     2  C   -0.204987  -0.647017   0.663157   0.005151  -0.069469  -0.047991
     3  C   -0.074770  -0.175441  -0.021430   0.007869   0.015824  -0.028530
     4  C   -0.004511  -0.092653   0.143631   0.001569  -0.010398  -0.001124
     5  C   -0.009296  -0.044943  -0.242870   0.001614   0.036998  -0.000095
     6  C    1.238815   0.597979  -0.208971   0.058594   0.009090  -0.419629
     7  C    0.202449  -0.212638  -0.108068   0.038680   0.037404   0.590436
     8  N   -0.038754  -0.034551   0.024788   0.015888  -0.002629   0.101113
     9  C   -0.240059  -0.030781   0.052200   0.014493  -0.003518  -0.503632
    10  C    0.655896   0.066687  -0.038834   0.000855   0.001984   0.002311
    11  C   -2.355716  -0.329869   0.011056  -0.014181   0.000322   0.007627
    12  O   -0.001748   0.012701   0.013846   0.028644   0.400991  -0.006451
    13  O    0.000011   0.006533  -0.012564   0.001553   0.001862  -0.001685
    14  O    0.000056   0.001644  -0.006999   0.240491   0.005083   0.103713
    15  H    0.003251   0.109223  -0.071841  -0.000240   0.006519  -0.000564
    16  H    0.001558  -0.028867   0.039187   0.000147  -0.003202   0.000703
    17  H   -0.000814   0.050623  -0.073634  -0.000754   0.005006  -0.002247
    18  H   -0.017709  -0.103842   0.133080   0.007832  -0.006075  -0.002380
    19  H    0.007054   0.103024  -0.059401  -0.000958   0.003331  -0.001529
    20  H   -0.002878  -0.289231   0.203870   0.000509  -0.005872   0.001330
    21  H   -0.133305  -0.166543   0.036980  -0.000341  -0.003827   0.001242
    22  H    0.032048   0.108622  -0.364567  -0.114468   0.033523  -0.085930
    23  H   -0.007679   0.001524   0.001038   0.002543  -0.000155  -0.181018
    24  H   -0.142469  -0.006331   0.002095   0.000226  -0.000093   0.008181
    25  H    2.890161   0.058245  -0.007922  -0.000667   0.000630   0.002149
    26  C    0.058245   4.882651  -0.329725  -0.001633   0.029210  -0.004357
    27  H   -0.007922  -0.329725   1.076228   0.023740  -0.248098  -0.005355
    28  H   -0.000667  -0.001633   0.023740   0.542388  -0.002575  -0.027278
    29  H    0.000630   0.029210  -0.248098  -0.002575   0.578737   0.000270
    30  H    0.002149  -0.004357  -0.005355  -0.027278   0.000270   1.317279
    31  H   -0.000435  -0.001453   0.005238  -0.075867  -0.001811   0.010214
    32  H    0.000219   0.010374  -0.026288   0.000467   0.004723   0.002136
    33  H    0.000010  -0.001165   0.000659  -0.000108   0.001070  -0.000168
    34  O    0.000608  -0.002009   0.002925  -0.003046  -0.000517   0.013839
    35  H   -0.000092  -0.001238  -0.000649  -0.001257  -0.000566   0.000564
    36  H    0.000062   0.000341  -0.001020   0.000386  -0.000012   0.000931
    37  H    0.010708   0.333774  -0.093618  -0.000036   0.008271   0.001816
    38  H    0.003619   0.166307   0.059035  -0.000445  -0.012815  -0.002095
    39  H   -0.006991   0.017703  -0.002604  -0.000697   0.011736  -0.002105
              31         32         33         34         35         36
     1  N    0.002891  -0.023749   0.004746   0.017754  -0.010343   0.000633
     2  C   -0.001033  -0.004870  -0.003176  -0.069950   0.017554   0.008546
     3  C    0.005350  -0.004016   0.007004  -0.011596  -0.008677  -0.001724
     4  C    0.000285   0.005133  -0.008097  -0.002478   0.001072   0.000676
     5  C    0.000285  -0.001386   0.001508  -0.008527   0.000337  -0.000024
     6  C    0.002550   0.008170  -0.000607  -0.091484  -0.009261   0.004038
     7  C    0.015044  -0.015547   0.009784   0.019325  -0.026070   0.017167
     8  N   -0.026826  -0.000721  -0.000054  -0.006000   0.009605   0.000009
     9  C   -0.014548  -0.001148   0.000193  -0.032606   0.003788   0.001669
    10  C    0.004777  -0.000687   0.000261   0.020816  -0.004558  -0.000261
    11  C   -0.001713   0.001920   0.000019   0.008078   0.006081  -0.002054
    12  O    0.002942   0.056811  -0.004935   0.015941  -0.002054  -0.000733
    13  O    0.001207   0.343430   0.323632  -0.030382   0.014082   0.000328
    14  O    0.296847   0.000905   0.000118  -0.088346  -0.005883   0.004360
    15  H   -0.000189   0.004251  -0.000384  -0.000461  -0.000092   0.000033
    16  H    0.000018  -0.000416   0.000550   0.000121  -0.000104  -0.000063
    17  H   -0.000806   0.002526  -0.003223  -0.003547   0.003655   0.000378
    18  H    0.006997   0.001632   0.000953   0.017638  -0.001492  -0.002365
    19  H   -0.001140   0.000517   0.000054  -0.000284   0.000409   0.000537
    20  H    0.000424  -0.003960   0.001462  -0.000204   0.000549  -0.000135
    21  H    0.000773  -0.000516  -0.000000   0.000582  -0.000290   0.000026
    22  H   -0.015099   0.020824  -0.000178  -0.028686   0.024231  -0.009360
    23  H    0.003906  -0.000703   0.000063  -0.000672  -0.000873   0.000265
    24  H   -0.000193   0.000071   0.000000   0.000403   0.000084  -0.000050
    25  H   -0.000435   0.000219   0.000010   0.000608  -0.000092   0.000062
    26  C   -0.001453   0.010374  -0.001165  -0.002009  -0.001238   0.000341
    27  H    0.005238  -0.026288   0.000659   0.002925  -0.000649  -0.001020
    28  H   -0.075867   0.000467  -0.000108  -0.003046  -0.001257   0.000386
    29  H   -0.001811   0.004723   0.001070  -0.000517  -0.000566  -0.000012
    30  H    0.010214   0.002136  -0.000168   0.013839   0.000564   0.000931
    31  H    0.490699  -0.002712   0.000875   0.034799  -0.009922   0.002672
    32  H   -0.002712   0.515034  -0.112164   0.004256  -0.005983   0.000586
    33  H    0.000875  -0.112164   0.571279  -0.000494   0.002611   0.000351
    34  O    0.034799   0.004256  -0.000494   8.002645   0.343794   0.280917
    35  H   -0.009922  -0.005983   0.002611   0.343794   0.557239  -0.128091
    36  H    0.002672   0.000586   0.000351   0.280917  -0.128091   0.612745
    37  H   -0.000447   0.003864  -0.000276  -0.000010   0.000073   0.000002
    38  H   -0.000046  -0.001142  -0.000159  -0.000192  -0.000197   0.000032
    39  H    0.000796  -0.001880   0.000081  -0.000518   0.000094  -0.000022
              37         38         39
     1  N   -0.779456  -0.218343   0.224550
     2  C   -0.216279   0.105162  -0.008879
     3  C    0.021818  -0.089106   0.144627
     4  C   -0.006304   0.065527  -0.049943
     5  C    0.107943  -0.007524  -0.020408
     6  C    0.149770   0.012658   0.096285
     7  C    0.067119  -0.014666  -0.129834
     8  N   -0.005623   0.001313   0.023021
     9  C    0.001869  -0.004100  -0.005141
    10  C   -0.004241   0.015449  -0.008826
    11  C    0.071080  -0.022578  -0.012734
    12  O   -0.005938   0.024799  -0.000512
    13  O    0.000221  -0.000196   0.001162
    14  O    0.000274  -0.000518   0.000287
    15  H    0.068261  -0.010335   0.012718
    16  H    0.000287  -0.003100  -0.002167
    17  H   -0.000269   0.011195  -0.001929
    18  H   -0.007764  -0.013596   0.012607
    19  H    0.012705   0.002099  -0.000287
    20  H    0.017415  -0.021522  -0.005449
    21  H    0.061042   0.012830  -0.016686
    22  H    0.036282   0.048655  -0.039252
    23  H   -0.000259   0.000437  -0.002306
    24  H    0.000975  -0.000989  -0.002192
    25  H    0.010708   0.003619  -0.006991
    26  C    0.333774   0.166307   0.017703
    27  H   -0.093618   0.059035  -0.002604
    28  H   -0.000036  -0.000445  -0.000697
    29  H    0.008271  -0.012815   0.011736
    30  H    0.001816  -0.002095  -0.002105
    31  H   -0.000447  -0.000046   0.000796
    32  H    0.003864  -0.001142  -0.001880
    33  H   -0.000276  -0.000159   0.000081
    34  O   -0.000010  -0.000192  -0.000518
    35  H    0.000073  -0.000197   0.000094
    36  H    0.000002   0.000032  -0.000022
    37  H    2.135495  -0.345988  -0.423700
    38  H   -0.345988   2.106082  -0.690503
    39  H   -0.423700  -0.690503   2.067637
 Mulliken charges:
               1
     1  N   -1.095375
     2  C    1.158324
     3  C    1.138500
     4  C    0.906904
     5  C    1.307201
     6  C    0.373541
     7  C    0.799561
     8  N    0.029753
     9  C    0.606262
    10  C    0.546300
    11  C    1.151481
    12  O   -0.595925
    13  O   -0.435615
    14  O   -0.539746
    15  H   -0.489712
    16  H   -0.277427
    17  H   -0.333081
    18  H   -0.420159
    19  H   -0.547507
    20  H   -0.595763
    21  H   -0.836313
    22  H   -1.052901
    23  H   -0.667974
    24  H   -0.592948
    25  H   -0.867237
    26  C    1.048337
    27  H    0.517664
    28  H    0.258064
    29  H    0.222385
    30  H    0.126794
    31  H    0.264650
    32  H    0.220037
    33  H    0.207906
    34  O   -0.402431
    35  H    0.231869
    36  H    0.208221
    37  H   -0.220858
    38  H   -0.175044
    39  H   -0.177739
 Sum of Mulliken charges =   1.00000
 Mulliken charges with hydrogens summed into heavy atoms:
               1
     1  N   -1.095375
     2  C    0.322010
     3  C    0.170834
     4  C    0.296396
     5  C    0.221726
     6  C    0.373541
     7  C   -0.253340
     8  N    0.156548
     9  C   -0.061712
    10  C   -0.046648
    11  C    0.284244
    12  O    0.144123
    13  O   -0.007671
    14  O   -0.017032
    26  C    0.474697
    34  O    0.037658
 Electronic spatial extent (au):  <R**2>=           4144.2648
 Charge=              1.0000 electrons
 Dipole moment (field-independent basis, Debye):
    X=              1.3985    Y=             -1.8282    Z=              0.5014  Tot=              2.3558
 Quadrupole moment (field-independent basis, Debye-Ang):
   XX=            -63.1806   YY=            -64.1905   ZZ=            -85.9239
   XY=            -13.1029   XZ=             -6.2705   YZ=             -1.2859
 Traceless Quadrupole moment (field-independent basis, Debye-Ang):
[...]
 0.00002039,-0.00006203,0.00001957,-0.00029245,0.00052007,0.00007607,0.
 00069141,-0.00068361,-0.00043066,-0.00000225,-0.00027508,-0.00002502,-
 0.00024642,0.00041376,0.00016497,-0.00031581,-0.00022355,-0.00009623,0
 .00037235,-0.00010698,0.00005419,0.00019170,-0.00029862,-0.00031500,-0
 .00053071,-0.01177839,0.00365546,0.00012847,-0.00018174,0.00026583,0.0
 0000371,0.00003638,0.00000006,0.00006791,0.00002426,-0.00001787,-0.000
 03920,-0.00001974,-0.00001292,0.00002859,-0.00015917,-0.00018101,0.000
 09746,0.00018743,-0.00000674,0.00001385,0.00000644,-0.00004498,-0.0000
 2098,0.00008754,-0.00008744,0.00024939,-0.00106479,0.00107616,-0.00001
 833,0.00005470,0.00000647,-0.00000601,-0.00000819,-0.00001604,-0.00001
 519,0.00002165,0.00000079,0.00004097,-0.00008738,0.00006686,-0.0000635
 9,0.00000337,0.00015340,-0.00007158,0.00003193,0.00004259,0.00009065,0
 .00014563,0.00004212,0.00025334,0.00095592,-0.00005582,-0.00092878,-0.
 00068345,-0.00059823,-0.00273882,0.00016004,0.00006955,0.00450390,0.00
 189543,-0.00233683,0.05211984,-0.02657175,0.00362820,-0.02989152,0.037
 46081,0.00002559,-0.00049887,-0.00035414,-0.00011118,0.00007219,0.0002
 8812,-0.00017095,-0.00018618,-0.00014071,-0.00013370,0.00029603,0.0000
 4974,0.00010570,0.00002000,-0.00000587,0.00012349,-0.00022428,-0.00005
 904,-0.00050147,0.00023734,0.00006220,0.00020897,0.00040801,-0.0000010
 0,0.00023609,-0.00021577,-0.00000627,0.00011772,0.00011413,0.00003882,
 -0.00011717,-0.00002356,0.00000682,0.00008850,-0.00167322,0.00068912,-
 0.00712272,0.00145740,-0.00497422,-0.00233669,0.00153466,-0.00489390,-
 0.00000699,-0.00007545,0.00000229,0.00003935,-0.00012592,-0.00005392,0
 .00024641,0.00006140,0.00004742,-0.00016340,-0.00001219,0.00035376,-0.
 00000595,-0.00012368,-0.00005355,0.00005954,0.00006187,-0.00004176,0.0
 0002084,-0.00003398,-0.00009836,-0.00052903,0.00096250,0.00028753,0.00
 001583,-0.00005093,0.00002170,0.00001099,0.00000420,0.00001333,0.00000
 325,-0.00000857,0.00001218,-0.00000258,0.00010200,-0.00011878,-0.00002
 873,0.00110564,0.00060382,-0.00072870,0.00033555,-0.00013045,-0.000021
 27,-0.00007498,-0.00012163,-0.00026257,-0.00109438,0.00014842,0.002565
 85,-0.00087802,0.00841147,0.00349163,0.00258549,-0.00305120,-0.0006416
 1,-0.00218681,0.00056596,0.07875143,0.01454947,-0.07484703,-0.11012850
 ,-0.01330409,0.08812580,-0.00002713,0.00006570,-0.00003068,0.00006194,
 0.00000488,0.00002286,-0.00008223,-0.00008766,-0.00003611,-0.00000860,
 0.00000070,-0.00002154,0.00000613,-0.00002495,0.00002853,-0.00000156,0
 .00010944,0.00001022,0.00007722,-0.00011888,-0.00006476,0.00004814,-0.
 00000414,0.00002334,0.00004831,0.00008634,-0.00000189,-0.00008718,-0.0
 0001510,0.00000617,0.00006474,-0.00002140,0.00000745,-0.00002536,0.000
 11913,-0.00008691,-0.00300920,0.00135693,-0.00066667,-0.00369894,-0.00
 007660,-0.00169432,-0.00000504,0.00001849,-0.00000844,-0.00000031,-0.0
 0000456,-0.00000174,-0.00001733,0.00000712,0.00003137,0.00003616,-0.00
 003296,0.00008122,0.00000738,-0.00000381,0.00000006,-0.00000234,-0.000
 00094,-0.00001065,-0.00001226,0.00002723,-0.00001944,-0.00013755,-0.00
 007562,0.00002957,-0.00000212,0.00001872,-0.00003021,0.00000291,0.0000
 0939,-0.00000566,0.00000292,0.00000202,-0.00000272,0.00000942,-0.00003
 140,0.00002229,-0.00000023,-0.00004845,-0.00000501,-0.00028139,0.00017
 313,-0.00017269,-0.00000099,0.00000351,0.00002338,0.00019241,-0.000235
 99,-0.00002786,0.00571088,0.00224083,0.00011210,0.00038159,-0.00015173
 ,0.00006884,-0.00065033,-0.00036497,0.00043987,-0.04928832,-0.00040612
 ,0.01383358,0.00260204,-0.02329103,0.03688169,0.04809066,-0.00001296,0
 .00002893,-0.00008805,0.00006184,0.00000233,0.00011139,-0.00006847,-0.
 00013952,-0.00004523,-0.00003050,0.00005981,-0.00001738,0.00001897,-0.
 00003095,0.00001721,0.00014384,-0.00009754,-0.00004170,-0.00038696,-0.
 00004403,0.00032783,0.00002588,0.00000358,-0.00007722,0.00003087,-0.00
 005289,0.00001361,0.00004021,-0.00002527,-0.00000756,-0.00003407,-0.00
 005862,-0.00004935,-0.00002120,-0.00000754,-0.00008526,0.00102087,0.00
 012513,-0.00026231,-0.00150581,0.00047919,-0.00056355,-0.00000500,0.00
 001619,-0.00000622,0.00001395,0.00000870,-0.00000347,-0.00000351,-0.00
 000275,0.00000629,-0.00003103,-0.00000063,0.00018914,-0.00003469,-0.00
 006226,-0.00002232,0.00000187,0.00000510,-0.00002563,-0.00001753,0.000
 02440,-0.00003553,0.00024558,0.00005311,-0.00017944,0.00002752,-0.0000
 0950,0.00001807,0.00000007,-0.00000815,0.00001049,0.00001315,-0.000020
 04,0.00000864,0.00001909,-0.00003554,0.00001723,0.00001804,0.00005521,
 0.00004100,0.00020785,0.00016361,-0.00009005,-0.00000349,0.00002964,0.
 00002198,-0.00009844,0.00014225,0.00007757,0.00193958,-0.00042715,0.00
 039111,0.00002913,-0.00019388,0.00003498,0.00012519,0.00024521,-0.0001
 2518,-0.02507438,-0.14516253,0.24314116,0.00260619,0.00045996,-0.00309
 804,0.02074011,0.14445936,-0.00004422,-0.00009399,-0.00007508,0.000031
 33,0.00001511,0.00003830,0.00000827,0.00004076,0.00000733,-0.00001968,
 0.00003373,-0.00001054,0.00003732,0.00000638,0.00001859,0.00008660,-0.
 00014948,-0.00004587,-0.00002626,0.00003598,0.00015551,-0.00003290,-0.
 00017684,-0.00002854,-0.00005529,-0.00001151,-0.00001242,0.00007109,-0
 .00000067,-0.00000273,-0.00008939,0.00002777,-0.00002511,0.00000470,-0
 .00025805,0.00011425,-0.00066624,-0.00066528,0.00054447,-0.00042427,-0
 .00077468,0.00024766,-0.00000617,-0.00001847,-0.00000297,-0.00001700,-
 0.00002793,-0.00000480,0.00003767,0.00000698,0.00001779,0.00002311,0.0
 0007066,0.00011265,-0.00003066,-0.00008028,-0.00001693,0.00000323,0.00
 001234,-0.00000637,-0.00000719,-0.00002430,-0.00000477,-0.00001528,0.0
 0011958,-0.00011946,0.00000514,-0.00000171,0.00001582,-0.00000204,-0.0
 0000707,0.00000950,0.00000068,-0.00001366,0.00000871,0.00000201,0.0000
 3211,-0.00001968,0.00002688,0.00017547,0.00007236,-0.00018591,0.000129
 36,-0.00013898,0.00000806,0.00000300,-0.00001196,-0.00000240,0.0003378
 2,0.00002407,0.00058307,0.00201617,-0.00232866,-0.00014756,0.00019514,
 -0.00026677,0.00025953,0.00018280,0.00007998,0.05361114,0.23035535,-0.
 40012496,-0.00429281,0.00811015,-0.01078173,-0.04873010,-0.23959729,0.
 41256995,0.00124258,0.00552742,0.00183844,0.00003226,-0.00121967,-0.00
 064874,0.00004236,0.00004809,0.00017585,-0.00008336,-0.00009523,-0.000
 17160,0.00238355,0.00299918,0.00139231,-0.00014346,0.00015666,-0.00002
 210,-0.00008241,-0.00010734,-0.00003015,0.00018088,0.00011748,0.000032
 36,0.00000532,0.00001638,-0.00001011,-0.00001416,0.00005202,-0.0000226
 5,0.00002784,-0.00030952,-0.00014082,0.00006775,-0.00010342,0.00011454
 ,-0.00001749,-0.00002185,0.00002773,-0.00000763,0.00001296,0.00002051,
 0.00021854,-0.00091393,-0.00000102,-0.00000029,-0.00002849,-0.00004575
 ,-0.00007892,-0.00007342,0.00002210,-0.00009310,0.00005497,0.00000052,
 -0.00000787,-0.00000814,0.00003286,-0.00007856,-0.00012756,-0.00001780
 ,-0.00006901,-0.00002883,0.00024247,0.00001684,0.00001676,-0.00001426,
 0.00000328,0.00000980,0.00000844,-0.00001246,-0.00000895,-0.00000058,-
 0.00006278,0.00005736,0.00014972,-0.06316203,-0.05092305,-0.02257076,-
 0.00009461,0.00021958,-0.00010366,0.00000625,0.00000933,-0.00000893,-0
 .00006777,-0.00000093,0.00000277,0.00000332,-0.00003768,-0.00002754,0.
 00000165,-0.00000044,-0.00000549,0.00000025,0.00003670,-0.00003435,-0.
 00000048,0.00000549,-0.00000044,-0.00001197,0.00000533,0.00001244,0.00
 001853,-0.00000117,-0.00001326,0.00000148,-0.00000165,-0.00000276,0.06
 014093,-0.00305157,-0.03460007,0.00321336,0.00165846,0.00077627,-0.002
 96420,0.00022039,0.00063796,-0.00001753,0.00008489,0.00063500,0.000035
 89,-0.00312676,0.00062807,-0.00139793,0.00006913,0.00021576,0.00019930
 ,0.00007209,-0.00019673,-0.00007950,0.00005390,0.00007798,0.00004443,-
 0.00005429,0.00004264,0.00001663,-0.00008390,0.00002832,-0.00003580,-0
 .00003904,-0.00030821,-0.00010120,-0.00025955,-0.00173967,-0.00120772,
 -0.00001292,-0.00018442,0.00020139,-0.00006161,-0.00001172,0.00000003,
 0.00159752,0.00044981,0.00074786,0.00000495,-0.00003183,0.00016469,0.0
 0001283,0.00017718,-0.00020274,-0.00008946,0.00017444,-0.00017083,0.00
 005040,-0.00003702,0.00013479,0.00020284,0.00002071,-0.00003087,-0.000
 80779,0.00068553,0.00183282,0.00011815,0.00007355,-0.00002981,0.000001
 87,0.00001448,0.00000221,-0.00001741,-0.00000922,0.00000193,-0.0000524
 1,0.00003130,0.00010288,-0.04974476,-0.24210652,-0.08650179,0.00051979
 ,0.00262006,0.00226538,0.00002536,0.00001141,0.00000223,-0.00009032,-0
 .00021084,0.00005719,0.00002143,-0.00000248,0.00000240,0.00004651,0.00
 000822,0.00000798,-0.00003138,0.00030705,-0.00024506,-0.00002508,0.000
 02627,-0.00001338,-0.00009394,-0.00002432,0.00004386,0.00010600,0.0000
 3105,-0.00006434,0.00001060,0.00000671,-0.00001544,0.05427857,0.274991
 14,0.00433576,0.02830534,0.00390917,-0.00086579,0.00433272,0.00427010,
 -0.00012312,-0.00025831,-0.00003425,0.00006117,-0.00022404,0.00006788,
 0.00299801,0.00169383,0.00155488,0.00008062,-0.00035019,-0.00032136,-0
 .00004825,0.00007353,0.,-0.00001073,-0.00005750,-0.00000160,0.00003544
 ,-0.00000635,-0.00002404,0.00000714,0.00000802,-0.00000744,0.00003462,
 -0.00009469,0.00002589,0.00024480,0.00044806,0.00074031,0.00001272,-0.
 00002201,0.00005838,-0.00001338,-0.00004040,0.00002088,0.00012746,-0.0
 0143575,0.00008987,0.00001406,-0.00006792,-0.00002567,0.00003991,-0.00
 006210,0.00000144,-0.00000784,-0.00010164,0.00003332,-0.00004855,-0.00
 007248,-0.00005783,-0.00028890,-0.00019912,-0.00028295,-0.00055129,-0.
 00173662,0.00027952,-0.00002227,-0.00001240,-0.00002331,0.00000441,-0.
 00000205,0.00000203,-0.00000151,-0.00000824,0.00000159,0.00000286,-0.0
 0000322,0.00003968,-0.02245825,-0.08804504,-0.08810151,-0.00035162,-0.
 00025681,-0.00122310,0.00001163,0.00001093,-0.00000495,-0.00002025,0.0
 0032686,0.00001031,0.00000427,0.00004881,-0.00000042,-0.00000924,0.000
 01024,-0.00001908,-0.00001926,0.00003582,-0.00009099,-0.00000693,0.000
 00646,-0.00000843,0.00000225,-0.00000938,0.00002007,0.00000113,0.00000
 150,-0.00000842,0.00000274,0.00000223,-0.00000599,0.02441660,0.0865849
 0,0.09054588,0.00338453,-0.00143365,-0.00669745,0.00002843,0.00067432,
 -0.00124702,0.00016680,0.00031062,-0.00038676,0.00013079,-0.00014821,0
 .00004078,0.00112366,-0.00024299,-0.00129621,0.00012956,-0.00003315,-0
 .00001848,0.00019082,0.00028797,0.00012982,-0.00012294,-0.00010769,-0.
 00008537,0.00001700,0.00001313,0.00002520,0.00006223,-0.00002791,0.000
 01091,0.00009038,-0.00013643,-0.00003533,-0.00013577,0.00003852,-0.000
 47332,-0.00000337,0.00002564,-0.00010357,-0.00001058,-0.00008877,-0.00
 003829,-0.00005598,-0.00005713,0.00009185,0.00001676,-0.00000788,-0.00
 000161,-0.00001058,-0.00001755,0.00002827,-0.00000244,0.00005271,-0.00
 006467,0.00003341,0.00003289,-0.00005922,0.00018914,0.00016168,0.00029
 445,-0.00010518,0.00006725,0.00005380,-0.00004321,0.00002414,0.0000300
 7,0.00000477,-0.00000276,-0.00000175,-0.00000241,-0.00000484,-0.000002
 22,0.00000003,-0.00003842,-0.00005476,-0.14334134,0.03086510,0.1298700
 9,0.00006894,0.00011659,0.00061220,-0.00000334,-0.00000751,0.00002415,
 0.00011449,-0.00028864,0.00005839,0.00002990,0.00017980,0.00004869,-0.
 00000340,0.00001580,0.00000338,0.00002366,-0.00008698,0.00014708,0.000
 01001,0.00000572,0.00000463,0.00002139,-0.00003847,-0.00001178,-0.0000
 3698,0.00001498,0.00002539,0.00000138,0.00000787,0.00000096,0.00464884
 ,-0.00205681,-0.00730543,0.14862129,-0.01796915,0.00253497,0.02428104,
 0.00186730,-0.00318289,0.00224984,-0.00044864,0.00050325,0.00136955,-0
 .00040586,-0.00002746,-0.00020637,-0.00086601,0.00108811,0.00018164,0.
 00055522,0.00013850,0.00012982,-0.00007493,-0.00004460,-0.00006970,0.0
 0004656,0.00000524,0.00001359,-0.00004037,-0.00000295,0.00000083,-0.00
 004433,0.00005769,0.00000744,-0.00005794,-0.00016514,-0.00015729,0.000
 12794,0.00008680,-0.00047775,0.00000006,0.00006072,-0.00012596,0.00001
 586,0.00000742,-0.00001683,0.00034330,-0.00034378,-0.00016120,0.000030
 70,0.00001675,-0.00006917,0.00003805,-0.00001304,0.00000319,-0.0000498
 9,-0.00000264,0.00002581,0.00013845,-0.00035776,0.00029360,0.00027163,
 -0.00000844,-0.00020335,-0.00000258,0.00031130,0.00052282,-0.00000606,
 0.00002933,0.00004961,0.00000110,0.00000749,0.00000407,-0.00001820,-0.
 00000427,-0.00000285,-0.00006132,0.00003170,0.00009723,0.03531928,-0.0
 5907641,-0.04666077,-0.00023481,0.00038634,0.00073280,-0.00001161,-0.0
 0000648,0.00000428,-0.00003802,-0.00028940,-0.00002281,-0.00001130,-0.
 00000180,0.00000812,-0.00000082,-0.00000364,0.00001292,0.00002542,-0.0
 0012640,0.00017792,0.00000847,-0.00001068,0.00000551,0.00001937,-0.000
 00928,-0.00002919,-0.00003784,0.00000451,0.00003156,-0.00000075,0.0000
 0345,0.00000571,0.01716784,-0.00412204,-0.02138270,-0.03417448,0.06292
 678,0.01428999,-0.00127328,-0.02136593,-0.00252291,0.00368368,-0.00146
 403,0.00086029,-0.00020168,-0.00086094,0.00011987,0.00011171,0.0000679
 6,0.00136301,-0.00091702,0.00049929,-0.00065531,-0.00015599,0.00001244
 ,0.00012743,0.00006296,0.00009499,0.00000622,0.00007934,0.00002220,0.0
 0004986,-0.00002092,-0.00001994,0.00005083,-0.00000608,0.00003664,0.00
 008462,-0.00003399,0.00009604,-0.00003609,0.00037223,0.00031260,-0.000
 04186,0.00000272,0.00005182,0.00001184,0.00003890,0.00001627,-0.000120
 34,-0.00023256,-0.00018114,-0.00004234,-0.00002043,0.00006463,-0.00004
 754,-0.00000140,0.00002359,-0.00011476,0.00011977,-0.00013217,-0.00016
 840,0.00027814,-0.00020416,-0.00062708,0.00044805,-0.00007261,-0.00015
 079,0.00007938,0.00041552,0.00000152,-0.00002738,-0.00003835,-0.000004
 86,0.00000116,-0.00000422,0.00001161,0.00000349,-0.00000542,-0.0000520
 5,0.00000847,-0.00002725,0.12407627,-0.04022531,-0.21444839,0.00013019
 ,-0.00047977,-0.00056910,-0.00000100,0.00000092,-0.00000812,0.00005243
 ,0.00017613,0.00006226,-0.00000352,-0.00007003,-0.00002159,-0.00000648
 ,-0.00000837,-0.00000549,0.00001435,0.00003547,-0.00006118,0.00000962,
 0.00000647,0.00000068,-0.00000427,0.00003734,0.00001516,0.00002614,-0.
 00002249,-0.00002208,-0.00000377,-0.00001109,-0.00000039,0.00705011,-0
 .00212741,-0.00814324,-0.13742558,0.03846694,0.23668877,-0.00284915,0.
 00210866,-0.00136031,-0.00016526,0.00013565,0.00077685,-0.00009085,0.0
 0004898,-0.00017498,-0.00027415,-0.00018422,0.00013915,0.00174523,0.00
 075409,-0.00087664,-0.00018682,-0.00059416,0.00031296,0.00034581,0.000
 21558,0.00029420,-0.00016178,0.00005919,-0.00005880,0.00006043,-0.0001
 4656,-0.00010658,0.00016711,0.00006048,0.00012837,-0.00022793,-0.00015
 072,0.00038676,0.00033656,0.00026946,0.00041324,0.00008506,0.00004215,
 0.00004780,0.00001795,-0.00003935,0.00003469,0.00020791,0.00000634,0.0
 0022071,0.00004065,0.00009351,-0.00013459,0.00002311,0.00004141,-0.000
 06622,0.00003199,0.00001831,-0.00001505,0.00002937,-0.00000803,-0.0000
 3877,0.00018456,-0.00017863,0.00007105,-0.00004604,-0.00010225,-0.0000
 5346,-0.00003367,0.00001541,-0.00001629,0.00000373,-0.00000146,-0.0000
 0169,0.00001875,0.00001028,-0.00002368,0.00001267,-0.00000919,-0.00012
 010,-0.29526141,-0.00574560,-0.07624649,-0.00040953,-0.00043477,-0.000
 52012,0.00000190,0.00001031,-0.00000919,-0.00017029,0.00012720,-0.0000
 5470,0.00000442,0.00005034,0.00000599,-0.00003906,0.00001423,-0.000038
 97,-0.00004722,0.00001270,-0.00007720,-0.00001538,-0.00001971,-0.00000
 614,0.00006235,-0.00000082,0.00002174,-0.00006173,-0.00000877,0.000008
 21,-0.00000732,-0.00000798,-0.00000267,-0.00495409,0.00054329,-0.00028
 500,-0.01523070,-0.00142165,-0.00630724,0.31685280,0.02888249,-0.00284
 804,0.00832558,0.00028820,0.00077585,-0.00062766,0.00015025,-0.0001186
 9,-0.00026695,0.00146547,0.00041754,0.00069832,-0.00169630,-0.00269518
 ,0.00349658,-0.00017070,-0.00020110,0.00034477,0.00017974,0.00011259,0
 .00015473,-0.00033394,-0.00000769,-0.00009392,0.00004778,-0.00016156,-
 0.00002407,0.00019293,0.00010104,0.00010097,-0.00036918,0.00018269,0.0
 0004709,-0.00040607,-0.00001903,-0.00041282,-0.00005837,0.00001346,-0.
 00010236,0.00000935,0.00002261,-0.00003606,0.00040627,0.00030229,0.000
 35004,-0.00004613,-0.00035816,0.00038669,0.00004475,0.00000107,-0.0000
 2276,-0.00002852,-0.00000043,0.00001869,-0.00004028,0.00002942,-0.0000
 2203,-0.00021030,0.00004408,-0.00013082,-0.00028001,-0.00019774,0.0002
 3845,0.00000628,-0.00005138,0.00004072,-0.00000187,-0.00000958,-0.0000
 0132,0.00001445,0.00000426,-0.00001563,-0.00001205,-0.00005781,-0.0001
 2373,-0.01253955,-0.04858844,-0.00336060,0.00058455,0.00053449,0.00053
 063,-0.00001180,-0.00001300,0.00000891,0.00012726,-0.00013469,0.000002
 14,-0.00001302,-0.00000580,0.00002783,0.00001477,-0.00001095,0.0000292
 2,0.00004936,-0.00008505,0.00015102,0.00001666,0.00000650,0.00000619,-
 0.00001762,0.00000050,-0.00002968,0.00001120,0.00000159,0.00001380,0.0
 0000278,0.00000693,0.00000427,-0.02678065,0.00091418,-0.00744029,0.006
 10553,-0.00040125,0.00182193,0.00441631,0.05249450,-0.02506266,0.00227
 294,-0.00909613,-0.00146916,-0.00050784,0.00084871,-0.00019649,0.00007
 482,0.00021846,-0.00136134,0.00028441,-0.00019189,0.00185632,0.0027513
 4,-0.00299125,0.00024478,0.00015328,-0.00063804,0.00024645,0.00043925,
 0.00010518,-0.00016923,-0.00019533,-0.00008318,-0.00000952,0.00004089,
 0.00000401,0.00011776,-0.00011814,-0.00000620,0.00036941,-0.00003431,-
 0.00018897,0.00006686,0.00036188,0.00000589,0.00009438,0.00005414,-0.0
 0003778,-0.00000651,-0.00016485,-0.00003103,0.00033127,-0.00000929,0.0
 0003444,0.00003902,0.00025769,-0.00025823,-0.00000623,0.00008478,-0.00
 018953,0.00006544,0.00002042,-0.00001929,0.00003486,-0.00003184,0.0000
 2827,-0.00030363,0.00022463,0.00018022,0.00004412,-0.00017233,-0.00015
 764,-0.00009282,0.00000136,0.00000988,0.00000824,-0.00000728,0.0000004
 1,0.00000609,-0.00000480,0.00000526,-0.00001787,-0.00005838,-0.0000816
 4,-0.07066793,-0.00181091,-0.06962130,-0.00008814,-0.00047078,-0.00015
 512,0.00000099,-0.00000639,0.00003055,0.00007084,-0.00002872,0.0000264
 7,0.00005968,0.00030480,0.00006506,-0.00003596,0.00003387,-0.00002892,
 -0.00003490,-0.00004999,0.00004728,-0.00000701,-0.00001408,-0.00000663
 ,0.00007910,-0.00005532,0.00000848,-0.00009695,0.00001250,0.00003556,-
 0.00000412,0.00000195,-0.00000222,-0.01164700,-0.00045659,-0.00328662,
 0.02380869,0.00091011,0.00917486,0.08373317,-0.00408788,0.07624261\\-0
 .00000175,0.00000299,-0.00001443,-0.00000997,0.00001534,0.00001232,-0.
 00000717,0.00000229,-0.00000104,0.00000794,0.00001223,0.00000510,-0.00
 000046,-0.00001163,-0.00000043,0.00001363,-0.00000459,-0.00000197,0.00
 000384,-0.00000420,-0.00000063,0.00000628,-0.00002254,0.00000823,-0.00
 001403,-0.00001077,-0.00000835,0.00000869,0.00001479,0.00000283,-0.000
 01252,-0.00000048,0.00000285,0.00000278,0.00004442,-0.00001135,0.00003
 060,-0.00001078,-0.00002236,0.00001449,-0.00001787,0.00001278,-0.00000
 079,0.00000298,0.00000377,0.00000515,-0.00000208,0.00000121,-0.0000054
 6,-0.00000990,-0.00000273,-0.00000121,-0.00000057,0.00000079,-0.000002
 88,0.00000243,0.00000487,0.00000296,0.00000357,-0.00000053,0.00000442,
 -0.00000309,-0.00000384,0.00000103,-0.00000365,0.00000228,0.00000843,0
 .00000253,0.00000263,0.00000018,-0.00000011,-0.00000052,0.00000128,-0.
 00000014,-0.00000313,-0.00000794,0.00000877,0.00000416,-0.00000526,-0.
 00004165,-0.00000037,0.00000277,-0.00000847,-0.00000618,0.00000676,-0.
 00002161,0.00000920,-0.00001249,0.00004281,-0.00001037,-0.00001839,0.0
 0001534,-0.00000066,-0.00000860,0.00001767,0.00002764,-0.00000959,0.00
 000299,0.00001030,0.00003449,0.00000398,0.00003360,-0.00003756,-0.0000
 2080,-0.00004310,-0.00001040,0.00000430,-0.00001011,0.00000261,-0.0000
 0195,-0.00000035,0.00000335,-0.00000188,-0.00000350,0.00000479,-0.0000
 0068,0.00000136\\\@


 Until you make peace with who you are,
 you'll never be content with what you have.
                           -- Doris Mortman
 Job cpu time:       1 days  9 hours 58 minutes 52.8 seconds.
 Elapsed time:       0 days  1 hours 12 minutes 54.5 seconds.
 File lengths (MBytes):  RWF=   1240 Int=      0 D2E=      0 Chk=     32 Scr=      8
 Normal termination of Gaussian 16 at Tue Nov  8 17:54:30 2022.
