 Entering Gaussian System, Link 0=g16
 Input=NicPyWa4h8wB07XDaVDZ130K.gjf
 Output=NicPyWa4h8wB07XDaVDZ130K.log
 Initial command:
 /sw/contrib/gaussian/g16/A03/g16/l1.exe "/gscratch/scrubbed/gds001/Gau-21571.inp" -scrdir="/gscratch/scrubbed/gds001/"
 Entering Link 1 = /sw/contrib/gaussian/g16/A03/g16/l1.exe PID=     21573.
  
 Copyright (c) 1988,1990,1992,1993,1995,1998,2003,2009,2016,
            Gaussian, Inc.  All Rights Reserved.
  
 This is part of the Gaussian(R) 16 program.  It is based on
 the Gaussian(R) 09 system (copyright 2009, Gaussian, Inc.),
 the Gaussian(R) 03 system (copyright 2003, Gaussian, Inc.),
 the Gaussian(R) 98 system (copyright 1998, Gaussian, Inc.),
 the Gaussian(R) 94 system (copyright 1995, Gaussian, Inc.),
 the Gaussian 92(TM) system (copyright 1992, Gaussian, Inc.),
 the Gaussian 90(TM) system (copyright 1990, Gaussian, Inc.),
 the Gaussian 88(TM) system (copyright 1988, Gaussian, Inc.),
 the Gaussian 86(TM) system (copyright 1986, Carnegie Mellon
 University), and the Gaussian 82(TM) system (copyright 1983,
 Carnegie Mellon University). Gaussian is a federally registered
 trademark of Gaussian, Inc.
  
 This software contains proprietary and confidential information,
 including trade secrets, belonging to Gaussian, Inc.
  
 This software is provided under written license and may be
 used, copied, transmitted, or stored only in accord with that
 written license.
  
 The following legend is applicable only to US Government
 contracts under FAR:
  
                    RESTRICTED RIGHTS LEGEND
  
 Use, reproduction and disclosure by the US Government is
 subject to restrictions as set forth in subparagraphs (a)
 and (c) of the Commercial Computer Software - Restricted
 Rights clause in FAR 52.227-19.
  
 Gaussian, Inc.
 340 Quinnipiac St., Bldg. 40, Wallingford CT 06492
  
  
 ---------------------------------------------------------------
 Warning -- This program may not be used in any manner that
 competes with the business of Gaussian, Inc. or will provide
 assistance to any competitor of Gaussian, Inc.  The licensee
 of this program is prohibited from giving any competitor of
 Gaussian, Inc. access to this program.  By using this program,
 the user acknowledges that Gaussian, Inc. is engaged in the
 business of creating and licensing software in the field of
 computational chemistry and represents and warrants to the
 licensee that it is not a competitor of Gaussian, Inc. and that
 it will not use this program in any manner prohibited above.
 ---------------------------------------------------------------
  

 Cite this work as:
 Gaussian 16, Revision A.03,
 M. J. Frisch, G. W. Trucks, H. B. Schlegel, G. E. Scuseria, 
 M. A. Robb, J. R. Cheeseman, G. Scalmani, V. Barone, 
 G. A. Petersson, H. Nakatsuji, X. Li, M. Caricato, A. V. Marenich, 
 J. Bloino, B. G. Janesko, R. Gomperts, B. Mennucci, H. P. Hratchian, 
 J. V. Ortiz, A. F. Izmaylov, J. L. Sonnenberg, D. Williams-Young, 
 F. Ding, F. Lipparini, F. Egidi, J. Goings, B. Peng, A. Petrone, 
 T. Henderson, D. Ranasinghe, V. G. Zakrzewski, J. Gao, N. Rega, 
 G. Zheng, W. Liang, M. Hada, M. Ehara, K. Toyota, R. Fukuda, 
 J. Hasegawa, M. Ishida, T. Nakajima, Y. Honda, O. Kitao, H. Nakai, 
 T. Vreven, K. Throssell, J. A. Montgomery, Jr., J. E. Peralta, 
 F. Ogliaro, M. J. Bearpark, J. J. Heyd, E. N. Brothers, K. N. Kudin, 
 V. N. Staroverov, T. A. Keith, R. Kobayashi, J. Normand, 
 K. Raghavachari, A. P. Rendell, J. C. Burant, S. S. Iyengar, 
 J. Tomasi, M. Cossi, J. M. Millam, M. Klene, C. Adamo, R. Cammi, 
 J. W. Ochterski, R. L. Martin, K. Morokuma, O. Farkas, 
 J. B. Foresman, and D. J. Fox, Gaussian, Inc., Wallingford CT, 2016.
 
 ******************************************
 Gaussian 16:  ES64L-G16RevA.03 25-Dec-2016
                27-Aug-2020 
 ******************************************
 %nprocshared=28
 Will use up to   28 processors via shared memory.
 %mem=41GB
 %chk=NicPyWa4h8.chk
 -----------------------------------------
 # wB97XD/aug-cc-pVDZ Temperature=130 Freq
 -----------------------------------------
 1/10=4,30=1,38=1,112=130000/1,3;
 2/12=2,17=6,18=5,40=1/2;
 3/5=16,7=10,11=2,25=1,30=1,71=2,74=-58,140=1/1,2,3;
 4//1;
 5/5=2,38=5,98=1/2;
 8/6=4,10=90,11=11/1;
 11/6=1,8=1,9=11,15=111,16=1/1,2,10;
 10/6=1/2;
 6/7=2,8=2,9=2,10=2,28=1/1;
 7/8=1,10=1,25=1/1,2,3,16;
 1/10=4,30=1/3;
 99//99;
 ---------------------------
 p-Py Nicotine, W anti, 4H2O
 ---------------------------
 Symbolic Z-matrix:
 Charge =  1 Multiplicity = 1
 C                     0.40904   2.73389  -0.10371 
 C                     0.46938   1.35694  -0.33372 
 C                    -0.73419   0.65853  -0.34643 
 N                    -1.89311   1.30257  -0.14607 
 C                    -1.96668   2.62323   0.08316 
 C                    -0.81006   3.37716   0.11074 
 C                     1.79543   0.66033  -0.54519 
 N                     2.21877  -0.10688   0.63681 
 C                     3.35919  -0.89656   0.14477 
 C                     2.88746  -1.41492  -1.21654 
 C                     1.84983  -0.36827  -1.69025 
 O                    -4.21695   0.04608  -0.14723 
 O                    -3.57281  -2.3971    0.59033 
 O                    -1.16605  -2.57923  -0.67935 
 H                     3.60054  -1.69267   0.85824 
 H                     3.72242  -1.52032  -1.916 
 H                     2.41833  -2.39849  -1.10601 
 H                     2.13326   0.1196   -2.62858 
 H                     0.8726   -0.83764  -1.84927 
 H                     4.24887  -0.24936   0.03545 
 H                     2.54664   1.45032  -0.74219 
 H                    -0.81374  -0.41476  -0.52504 
 H                    -2.96248   3.03242   0.23604 
 H                    -0.86288   4.44773   0.29304 
 H                     1.33227   3.31405  -0.09232 
 C                     2.55331   0.72032   1.78904 
 H                    -2.80431   0.75898  -0.18344 
 H                    -0.50559  -2.60787   0.05092 
 H                    -0.92108  -3.26962  -1.29981 
 H                    -4.12772  -0.89713   0.13426 
 H                    -4.84743   0.06071  -0.8711 
 H                    -4.06871  -3.19691   0.77513 
 H                    -2.76443  -2.65051   0.10222 
 H                     1.12883  -1.43232   1.14155 
 O                     0.59984  -2.25877   1.27222 
 H                     0.44573  -2.3699    2.21239 
 H                     2.92002   0.08119   2.60054 
 H                     1.66285   1.24974   2.15035 
 H                     3.33815   1.46119   1.54945 
 

 GradGradGradGradGradGradGradGradGradGradGradGradGradGradGradGradGradGrad
 Berny optimization.
 Initialization pass.
 Trust Radius=3.00D-01 FncErr=1.00D-07 GrdErr=1.00D-07 EigMax=2.50D+02 EigMin=1.00D-04
 Number of steps in this run=      2 maximum allowed number of steps=      2.
 GradGradGradGradGradGradGradGradGradGradGradGradGradGradGradGradGradGrad

                          Input orientation:                          
 ---------------------------------------------------------------------
 Center     Atomic      Atomic             Coordinates (Angstroms)
 Number     Number       Type             X           Y           Z
 ---------------------------------------------------------------------
      1          6           0        0.409044    2.733891   -0.103707
      2          6           0        0.469375    1.356942   -0.333720
      3          6           0       -0.734194    0.658532   -0.346427
      4          7           0       -1.893112    1.302571   -0.146074
      5          6           0       -1.966678    2.623227    0.083162
      6          6           0       -0.810063    3.377164    0.110735
      7          6           0        1.795427    0.660334   -0.545188
      8          7           0        2.218765   -0.106875    0.636806
      9          6           0        3.359185   -0.896560    0.144768
     10          6           0        2.887458   -1.414918   -1.216535
     11          6           0        1.849826   -0.368269   -1.690245
     12          8           0       -4.216954    0.046075   -0.147228
     13          8           0       -3.572811   -2.397104    0.590330
     14          8           0       -1.166054   -2.579230   -0.679352
     15          1           0        3.600538   -1.692672    0.858241
     16          1           0        3.722415   -1.520320   -1.916001
     17          1           0        2.418327   -2.398492   -1.106008
     18          1           0        2.133264    0.119604   -2.628581
     19          1           0        0.872604   -0.837637   -1.849272
     20          1           0        4.248875   -0.249364    0.035454
     21          1           0        2.546638    1.450321   -0.742191
     22          1           0       -0.813741   -0.414760   -0.525042
     23          1           0       -2.962478    3.032422    0.236042
     24          1           0       -0.862884    4.447729    0.293044
     25          1           0        1.332273    3.314047   -0.092315
     26          6           0        2.553306    0.720315    1.789038
     27          1           0       -2.804308    0.758984   -0.183444
     28          1           0       -0.505590   -2.607869    0.050921
     29          1           0       -0.921081   -3.269620   -1.299809
     30          1           0       -4.127721   -0.897131    0.134257
     31          1           0       -4.847426    0.060712   -0.871100
     32          1           0       -4.068706   -3.196914    0.775126
     33          1           0       -2.764432   -2.650508    0.102224
     34          1           0        1.128833   -1.432317    1.141554
     35          8           0        0.599839   -2.258773    1.272219
     36          1           0        0.445732   -2.369896    2.212393
     37          1           0        2.920024    0.081192    2.600543
     38          1           0        1.662848    1.249736    2.150346
     39          1           0        3.338145    1.461192    1.549449
 ---------------------------------------------------------------------
                    Distance matrix (angstroms):
                    1          2          3          4          5
     1  C    0.000000
     2  C    1.397331   0.000000
     3  C    2.381810   1.391588   0.000000
     4  N    2.711161   2.370551   1.340902   0.000000
     5  C    2.385628   2.776981   2.358726   1.342421   0.000000
     6  C    1.394994   2.432242   2.757846   2.354333   1.380920
     7  C    2.533101   1.512744   2.537418   3.765246   4.289663
     8  N    3.448681   2.478920   3.205084   4.416670   5.027714
     9  C    4.684575   3.695703   4.406284   5.701525   6.384161
    10  C    4.959187   3.782816   4.262939   5.602186   6.446585
    11  C    3.770458   2.592712   3.088256   4.380155   5.163305
    12  O    5.350337   4.869788   3.541808   2.641784   3.429072
    13  O    6.531766   5.593389   4.274596   4.129319   5.295338
    14  O    5.571495   4.276393   3.283359   3.985145   5.318645
    15  H    5.541249   4.530463   5.076346   6.337217   7.086722
    16  H    5.688686   4.622177   5.203107   6.529586   7.316516
    17  H    5.602069   4.300945   4.456540   5.762625   6.772005
    18  H    4.022738   3.092882   3.704185   4.875854   5.516448
    19  H    4.002212   2.697345   2.660614   3.889802   4.875798
    20  H    4.864512   4.123242   5.079477   6.337623   6.847420
    21  H    2.573815   2.119101   3.398149   4.482027   4.735709
    22  H    3.403929   2.195887   1.090957   2.063464   3.305834
    23  H    3.401722   3.861279   3.307548   2.069285   1.087396
    24  H    2.170818   3.423552   3.844931   3.338594   2.142713
    25  H    1.090441   2.152471   3.374406   3.801583   3.375071
    26  C    3.497832   3.042066   3.920674   4.884088   5.192431
    27  H    3.772565   3.331237   2.078948   1.061679   2.061093
    28  H    5.421703   4.101004   3.298412   4.153982   5.431407
    29  H    6.264346   4.926639   4.046510   4.814653   6.142599
    30  H    5.815770   5.141317   3.763930   3.148135   4.131058
    31  H    5.946869   5.498851   4.189433   3.285704   3.971877
    32  H    7.483117   6.523904   5.219321   5.082045   6.226667
    33  H    6.253408   5.167902   3.908056   4.055574   5.333766
    34  H    4.407500   3.223551   3.171215   4.274313   5.210549
    35  O    5.182303   3.958466   3.593094   4.572694   5.642233
    36  H    5.604847   4.513599   4.136564   4.951724   5.940086
    37  H    4.544755   4.030275   4.729827   5.674676   6.056319
    38  H    2.975818   2.757980   3.511297   4.233342   4.396952
    39  H    3.596154   3.433225   4.563174   5.501455   5.625075
                    6          7          8          9         10
     6  C    0.000000
     7  C    3.820992   0.000000
     8  N    4.646405   1.471372   0.000000
     9  C    5.970637   2.311990   1.471823   0.000000
    10  C    6.196560   2.439244   2.364952   1.531133   0.000000
    11  C    4.934248   1.540175   2.370571   2.434035   1.548081
    12  O    4.771751   6.056766   6.485105   7.640138   7.331479
    13  O    6.419109   6.281346   6.228135   7.106527   6.779714
    14  O    6.019103   4.391258   4.393383   4.897789   4.251488
    15  H    6.761317   3.280957   2.114966   1.095942   2.211408
    16  H    6.973978   3.216778   3.282623   2.183525   1.094310
    17  H    6.727642   3.171583   2.885955   2.169206   1.095316
    18  H    5.174816   2.178772   3.274348   3.197958   2.217530
    19  H    4.943434   2.190012   2.920059   3.187907   2.189348
    20  H    6.224968   2.680318   2.122092   1.105604   2.186195
    21  H    3.963288   1.107794   2.105705   2.637192   2.924167
    22  H    3.844855   2.822054   3.262020   4.253715   3.895812
    23  H    2.183447   5.373526   6.071332   7.443699   7.490699
    24  H    1.087261   4.702511   5.509914   6.812435   7.121413
    25  H    2.152862   2.731629   3.608350   4.679080   5.103487
    26  C    4.603021   2.454911   1.457326   2.442816   3.701938
    27  H    3.304303   4.614992   5.162730   6.390399   6.179751
    28  H    5.993071   4.041185   3.744375   4.227750   3.813444
    29  H    6.795712   4.836673   4.859225   5.102832   4.236959
    30  H    5.410823   6.162063   6.415212   7.486913   7.162784
    31  H    5.316310   6.677819   7.227235   8.324471   7.881957
    32  H    7.367406   7.142104   7.007122   7.801445   7.451875
    33  H    6.336597   5.672136   5.620329   6.369994   5.933774
    34  H    5.287061   2.769230   1.788720   2.501017   2.941708
    35  O    5.924581   3.640547   2.766828   3.277310   3.484134
    36  H    6.246814   4.313725   3.278320   3.864453   4.316429
    37  H    5.565620   3.390538   2.093656   2.679495   4.099938
    38  H    3.847239   2.762404   2.107188   3.392122   4.464968
    39  H    4.790457   2.721921   2.131845   2.744552   4.015694
                   11         12         13         14         15
    11  C    0.000000
    12  O    6.273627   0.000000
    13  O    6.222715   2.632116   0.000000
    14  O    3.873730   4.059972   2.727222   0.000000
    15  H    3.363602   8.071393   7.212831   5.086313   0.000000
    16  H    2.210153   8.283461   7.763425   5.152448   2.782261
    17  H    2.187769   7.135974   6.226660   3.614207   2.398766
    18  H    1.094912   6.818195   7.018155   4.687078   4.194659
    19  H    1.095700   5.438888   5.305215   2.925403   3.937428
    20  H    2.957636   8.472952   8.130157   5.938070   1.783384
    21  H    2.166015   6.933402   7.350235   5.479536   3.681099
    22  H    2.907653   3.454992   3.575781   2.198378   4.799207
    23  H    6.199480   3.261729   5.475197   5.962862   8.110908
    24  H    5.872484   5.551413   7.367756   7.100396   7.612234
    25  H    4.047307   6.440231   7.559305   6.427827   5.578155
    26  C    3.712857   7.073906   6.977429   5.550999   2.790266
    27  H    5.020171   1.582757   3.339194   3.751463   6.936698
    28  H    3.687201   4.566936   3.121415   0.985054   4.283648
    29  H    4.030906   4.815086   3.371288   0.960009   5.252522
    30  H    6.272126   0.988349   1.663083   3.501841   7.802758
    31  H    6.760785   0.960052   3.130700   4.534155   8.799606
    32  H    7.007732   3.374862   0.959040   3.304910   7.815814
    33  H    5.450957   3.073045   0.977721   1.780661   6.480884
    34  H    3.109842   5.694211   4.831161   3.146047   2.501475
    35  O    3.729969   5.525274   4.230262   2.651358   3.081565
    36  H    4.605277   5.757201   4.333649   3.317207   3.499309
    37  H    4.445020   7.647740   7.234626   5.876359   2.577850
    38  H    4.171695   6.426486   6.568502   5.538128   3.752591
    39  H    4.007198   7.871518   7.972934   6.448284   3.239364
                   16         17         18         19         20
    16  H    0.000000
    17  H    1.768593   0.000000
    18  H    2.392179   2.956399   0.000000
    19  H    2.931200   2.319045   1.764340   0.000000
    20  H    2.387607   3.045093   3.421846   3.911197   0.000000
    21  H    3.403673   3.868099   2.345241   3.043480   2.528096
    22  H    4.871729   3.836532   3.659954   2.185445   5.096233
    23  H    8.369381   7.762022   6.531245   5.833845   7.925526
    24  H    7.843625   7.719743   6.020420   5.961252   6.946878
    25  H    5.692953   5.902558   4.156765   4.531520   4.606603
    26  C    4.484928   4.257519   4.478018   4.299915   2.624936
    27  H    7.127068   6.172252   5.546812   4.340952   7.128259
    28  H    4.788274   3.151446   4.645685   2.940047   5.307327
    29  H    5.000180   3.456598   4.751999   3.071442   6.134600
    30  H    8.137356   6.829574   6.918595   5.379700   8.402186
    31  H    8.776882   7.674245   7.198767   5.872188   9.146621
    32  H    8.411581   6.801304   7.813382   6.072083   8.855355
    33  H    6.886925   5.327694   6.254458   4.508089   7.413260
    34  H    4.010368   2.765470   4.198959   3.060121   3.515323
    35  O    4.523333   2.997063   4.819161   3.440601   4.345432
    36  H    5.338733   3.860535   5.699158   4.362013   4.868225
    37  H    4.858790   4.487656   5.288119   4.983676   2.907713
    38  H    5.333873   4.948147   4.933217   4.580235   3.661640
    39  H    4.587638   4.774377   4.550553   4.786942   2.459189
                   21         22         23         24         25
    21  H    0.000000
    22  H    3.849393   0.000000
    23  H    5.814666   4.132721   0.000000
    24  H    4.656287   4.931073   2.532714   0.000000
    25  H    2.317433   4.323960   4.316482   2.500490   0.000000
    26  C    2.634402   4.240326   6.179119   5.272757   3.428973
    27  H    5.424276   2.335963   2.317220   4.195594   4.862916
    28  H    5.139458   2.288322   6.154953   7.068787   6.202205
    29  H    5.883354   2.960069   6.800138   7.880231   7.062600
    30  H    7.129219   3.413183   4.099944   6.265134   6.899050
    31  H    7.524614   4.076327   3.689153   6.039679   7.027046
    32  H    8.225681   4.474999   6.349723   8.303630   8.503860
    33  H    6.762936   3.032693   5.687954   7.351004   7.238560
    34  H    3.724012   2.754371   6.123126   6.265927   4.908339
    35  O    4.648145   2.937472   6.462237   6.933651   5.784007
    36  H    5.266634   3.591988   6.686322   7.202526   6.197164
    37  H    3.631501   4.894512   6.993172   6.221060   4.497087
    38  H    3.031186   4.007710   5.313772   4.478398   3.065973
    39  H    2.424503   5.006083   6.625077   5.305337   3.186218
                   26         27         28         29         30
    26  C    0.000000
    27  H    5.709309   0.000000
    28  H    4.843006   4.083470   0.000000
    29  H    6.126330   4.585026   1.560455   0.000000
    30  H    7.070400   2.143612   4.006670   4.238843   0.000000
    31  H    7.891910   2.266007   5.179091   5.166342   1.564027
    32  H    7.760396   4.262240   3.683374   3.770701   2.388137
    33  H    6.518138   3.421671   2.259827   2.397277   2.221242
    34  H    2.661237   4.693295   2.289703   3.679413   5.378888
    35  O    3.599736   4.776403   1.683868   3.154416   5.049639
    36  H    3.764373   5.108100   2.373522   3.874693   5.234898
    37  H    1.096130   6.401403   5.046430   6.418316   7.530630
    38  H    1.097153   5.063882   4.898043   6.245385   6.496487
    39  H    1.105565   6.420728   5.794579   6.974228   7.956357
                   31         32         33         34         35
    31  H    0.000000
    32  H    3.732103   0.000000
    33  H    3.554847   1.566042   0.000000
    34  H    6.480400   5.501135   4.209716   0.000000
    35  O    6.296548   4.787747   3.583387   0.989918   0.000000
    36  H    6.590395   4.809350   3.851845   1.578727   0.959179
    37  H    8.507996   7.932243   6.783570   2.761833   3.552906
    38  H    7.275066   7.383403   6.245600   2.914831   3.769712
    39  H    8.650085   8.784018   7.499466   3.663309   4.627452
                   36         37         38         39
    36  H    0.000000
    37  H    3.504371   0.000000
    38  H    3.819287   1.774447   0.000000
    39  H    4.845904   1.784383   1.792320   0.000000
 Stoichiometry    C10H23N2O4(1+)
 Framework group  C1[X(C10H23N2O4)]
 Deg. of freedom   111
 Full point group                 C1      NOp   1
 Largest Abelian subgroup         C1      NOp   1
 Largest concise Abelian subgroup C1      NOp   1
                         Standard orientation:                         
 ---------------------------------------------------------------------
 Center     Atomic      Atomic             Coordinates (Angstroms)
 Number     Number       Type             X           Y           Z
 ---------------------------------------------------------------------
      1          6           0        0.409044    2.733891   -0.103707
      2          6           0        0.469375    1.356942   -0.333720
      3          6           0       -0.734194    0.658532   -0.346427
      4          7           0       -1.893112    1.302571   -0.146074
      5          6           0       -1.966678    2.623227    0.083162
      6          6           0       -0.810063    3.377164    0.110735
      7          6           0        1.795427    0.660334   -0.545188
      8          7           0        2.218765   -0.106875    0.636806
      9          6           0        3.359185   -0.896560    0.144768
     10          6           0        2.887458   -1.414918   -1.216535
     11          6           0        1.849826   -0.368269   -1.690245
     12          8           0       -4.216954    0.046075   -0.147228
     13          8           0       -3.572811   -2.397104    0.590330
     14          8           0       -1.166054   -2.579230   -0.679352
     15          1           0        3.600538   -1.692672    0.858241
     16          1           0        3.722415   -1.520320   -1.916001
     17          1           0        2.418327   -2.398492   -1.106008
     18          1           0        2.133264    0.119604   -2.628581
     19          1           0        0.872604   -0.837637   -1.849272
     20          1           0        4.248875   -0.249364    0.035454
     21          1           0        2.546638    1.450321   -0.742191
     22          1           0       -0.813741   -0.414760   -0.525042
     23          1           0       -2.962478    3.032422    0.236042
     24          1           0       -0.862884    4.447729    0.293044
     25          1           0        1.332273    3.314047   -0.092315
     26          6           0        2.553306    0.720315    1.789038
     27          1           0       -2.804308    0.758984   -0.183444
     28          1           0       -0.505590   -2.607869    0.050921
     29          1           0       -0.921081   -3.269620   -1.299809
     30          1           0       -4.127721   -0.897131    0.134257
     31          1           0       -4.847426    0.060712   -0.871100
     32          1           0       -4.068706   -3.196914    0.775126
     33          1           0       -2.764432   -2.650508    0.102224
     34          1           0        1.128833   -1.432317    1.141554
     35          8           0        0.599839   -2.258773    1.272219
     36          1           0        0.445732   -2.369896    2.212393
     37          1           0        2.920024    0.081192    2.600543
     38          1           0        1.662848    1.249736    2.150346
     39          1           0        3.338145    1.461192    1.549449
 ---------------------------------------------------------------------
 Rotational constants (GHZ):           0.5200161           0.3484552           0.2457489
 Standard basis: Aug-CC-pVDZ (5D, 7F)
 There are   607 symmetry adapted cartesian basis functions of A   symmetry.
 There are   575 symmetry adapted basis functions of A   symmetry.
   575 basis functions,   941 primitive gaussians,   607 cartesian basis functions
    64 alpha electrons       64 beta electrons
       nuclear repulsion energy      1240.3077752126 Hartrees.
 NAtoms=   39 NActive=   39 NUniq=   39 SFac= 1.00D+00 NAtFMM=   60 NAOKFM=F Big=F
 Integral buffers will be    131072 words long.
 Raffenetti 2 integral format.
 Two-electron integral symmetry is turned on.
 Nuclear repulsion after empirical dispersion term =     1240.2769273883 Hartrees.
 One-electron integrals computed using PRISM.
 NBasis=   575 RedAO= T EigKep=  1.79D-06  NBF=   575
 NBsUse=   575 1.00D-06 EigRej= -1.00D+00 NBFU=   575
 ExpMin= 2.97D-02 ExpMax= 1.17D+04 ExpMxC= 4.01D+02 IAcc=3 IRadAn=         5 AccDes= 0.00D+00
 Harris functional with IExCor= 4639 and IRadAn=       5 diagonalized for initial guess.
 HarFok:  IExCor= 4639 AccDes= 0.00D+00 IRadAn=         5 IDoV= 1 UseB2=F ITyADJ=14
 ICtDFT=  3500011 ScaDFX=  1.000000  1.000000  1.000000  1.000000
 FoFCou: FMM=F IPFlag=           0 FMFlag=      100000 FMFlg1=           0
         NFxFlg=           0 DoJE=T BraDBF=F KetDBF=T FulRan=T
         wScrn=  0.000000 ICntrl=       500 IOpCl=  0 I1Cent=   200000004 NGrid=           0
         NMat0=    1 NMatS0=      1 NMatT0=    0 NMatD0=    1 NMtDS0=    0 NMtDT0=    0
 Petite list used in FoFCou.
 Requested convergence on RMS density matrix=1.00D-08 within 128 cycles.
 Requested convergence on MAX density matrix=1.00D-06.
 Requested convergence on             energy=1.00D-06.
 No special actions if energy rises.
 SCF Done:  E(RwB97XD) =  -805.034439199     A.U. after   15 cycles
            NFock= 15  Conv=0.32D-08     -V/T= 2.0062
 DoSCS=F DFT=T ScalE2(SS,OS)=  1.000000  1.000000
 Range of M.O.s used for correlation:     1   575
 NBasis=   575 NAE=    64 NBE=    64 NFC=     0 NFV=     0
 NROrb=    575 NOA=    64 NOB=    64 NVA=   511 NVB=   511

 **** Warning!!: The largest alpha MO coefficient is  0.10053127D+03

 Symmetrizing basis deriv contribution to polar:
 IMax=3 JMax=2 DiffMx= 0.00D+00
 G2DrvN: will do    40 centers at a time, making    1 passes.
 Calling FoFCou, ICntrl=  3107 FMM=F I1Cent=   0 AccDes= 0.00D+00.
 End of G2Drv F.D. properties file   721 does not exist.
 End of G2Drv F.D. properties file   722 does not exist.
 End of G2Drv F.D. properties file   788 does not exist.
          IDoAtm=111111111111111111111111111111111111111
          Differentiating once with respect to electric field.
                with respect to dipole field.
          Differentiating once with respect to nuclear coordinates.
 CalDSu exits because no D1Ps are significant.
          There are   120 degrees of freedom in the 1st order CPHF.  IDoFFX=6 NUNeed=     3.
    117 vectors produced by pass  0 Test12= 3.27D-14 1.00D-09 XBig12= 7.57D+01 3.78D+00.
 AX will form   117 AO Fock derivatives at one time.
    117 vectors produced by pass  1 Test12= 3.27D-14 1.00D-09 XBig12= 9.39D+00 7.00D-01.
    117 vectors produced by pass  2 Test12= 3.27D-14 1.00D-09 XBig12= 2.32D-01 4.79D-02.
    117 vectors produced by pass  3 Test12= 3.27D-14 1.00D-09 XBig12= 2.39D-03 5.54D-03.
    117 vectors produced by pass  4 Test12= 3.27D-14 1.00D-09 XBig12= 2.22D-05 2.89D-04.
    117 vectors produced by pass  5 Test12= 3.27D-14 1.00D-09 XBig12= 1.44D-07 2.36D-05.
    115 vectors produced by pass  6 Test12= 3.27D-14 1.00D-09 XBig12= 8.22D-10 1.82D-06.
     43 vectors produced by pass  7 Test12= 3.27D-14 1.00D-09 XBig12= 4.06D-12 1.27D-07.
      3 vectors produced by pass  8 Test12= 3.27D-14 1.00D-09 XBig12= 2.31D-14 1.02D-08.
      3 vectors produced by pass  9 Test12= 3.27D-14 1.00D-09 XBig12= 2.07D-15 3.75D-09.
      1 vectors produced by pass 10 Test12= 3.27D-14 1.00D-09 XBig12= 1.66D-16 1.04D-09.
 InvSVY:  IOpt=1 It=  1 EMax= 1.60D-14
 Solved reduced A of dimension   867 with   120 vectors.
 Isotropic polarizability for W=    0.000000      162.75 Bohr**3.
 End of Minotr F.D. properties file   721 does not exist.
 End of Minotr F.D. properties file   722 does not exist.
 End of Minotr F.D. properties file   788 does not exist.

 **********************************************************************

            Population analysis using the SCF density.

 **********************************************************************

 Orbital symmetries:
       Occupied  (A) (A) (A) (A) (A) (A) (A) (A) (A) (A) (A) (A)
                 (A) (A) (A) (A) (A) (A) (A) (A) (A) (A) (A) (A)
                 (A) (A) (A) (A) (A) (A) (A) (A) (A) (A) (A) (A)
                 (A) (A) (A) (A) (A) (A) (A) (A) (A) (A) (A) (A)
                 (A) (A) (A) (A) (A) (A) (A) (A) (A) (A) (A) (A)
                 (A) (A) (A) (A)
       Virtual   (A) (A) (A) (A) (A) (A) (A) (A) (A) (A) (A) (A)
                 (A) (A) (A) (A) (A) (A) (A) (A) (A) (A) (A) (A)
                 (A) (A) (A) (A) (A) (A) (A) (A) (A) (A) (A) (A)
                 (A) (A) (A) (A) (A) (A) (A) (A) (A) (A) (A) (A)
                 (A) (A) (A) (A) (A) (A) (A) (A) (A) (A) (A) (A)
                 (A) (A) (A) (A) (A) (A) (A) (A) (A) (A) (A) (A)
                 (A) (A) (A) (A) (A) (A) (A) (A) (A) (A) (A) (A)
                 (A) (A) (A) (A) (A) (A) (A) (A) (A) (A) (A) (A)
                 (A) (A) (A) (A) (A) (A) (A) (A) (A) (A) (A) (A)
                 (A) (A) (A) (A) (A) (A) (A) (A) (A) (A) (A) (A)
                 (A) (A) (A) (A) (A) (A) (A) (A) (A) (A) (A) (A)
                 (A) (A) (A) (A) (A) (A) (A) (A) (A) (A) (A) (A)
                 (A) (A) (A) (A) (A) (A) (A) (A) (A) (A) (A) (A)
                 (A) (A) (A) (A) (A) (A) (A) (A) (A) (A) (A) (A)
                 (A) (A) (A) (A) (A) (A) (A) (A) (A) (A) (A) (A)
                 (A) (A) (A) (A) (A) (A) (A) (A) (A) (A) (A) (A)
                 (A) (A) (A) (A) (A) (A) (A) (A) (A) (A) (A) (A)
                 (A) (A) (A) (A) (A) (A) (A) (A) (A) (A) (A) (A)
                 (A) (A) (A) (A) (A) (A) (A) (A) (A) (A) (A) (A)
                 (A) (A) (A) (A) (A) (A) (A) (A) (A) (A) (A) (A)
                 (A) (A) (A) (A) (A) (A) (A) (A) (A) (A) (A) (A)
                 (A) (A) (A) (A) (A) (A) (A) (A) (A) (A) (A) (A)
                 (A) (A) (A) (A) (A) (A) (A) (A) (A) (A) (A) (A)
                 (A) (A) (A) (A) (A) (A) (A) (A) (A) (A) (A) (A)
                 (A) (A) (A) (A) (A) (A) (A) (A) (A) (A) (A) (A)
                 (A) (A) (A) (A) (A) (A) (A) (A) (A) (A) (A) (A)
                 (A) (A) (A) (A) (A) (A) (A) (A) (A) (A) (A) (A)
                 (A) (A) (A) (A) (A) (A) (A) (A) (A) (A) (A) (A)
                 (A) (A) (A) (A) (A) (A) (A) (A) (A) (A) (A) (A)
                 (A) (A) (A) (A) (A) (A) (A) (A) (A) (A) (A) (A)
                 (A) (A) (A) (A) (A) (A) (A) (A) (A) (A) (A) (A)
                 (A) (A) (A) (A) (A) (A) (A) (A) (A) (A) (A) (A)
                 (A) (A) (A) (A) (A) (A) (A) (A) (A) (A) (A) (A)
                 (A) (A) (A) (A) (A) (A) (A) (A) (A) (A) (A) (A)
                 (A) (A) (A) (A) (A) (A) (A) (A) (A) (A) (A) (A)
                 (A) (A) (A) (A) (A) (A) (A) (A) (A) (A) (A) (A)
                 (A) (A) (A) (A) (A) (A) (A) (A) (A) (A) (A) (A)
                 (A) (A) (A) (A) (A) (A) (A) (A) (A) (A) (A) (A)
                 (A) (A) (A) (A) (A) (A) (A) (A) (A) (A) (A) (A)
                 (A) (A) (A) (A) (A) (A) (A) (A) (A) (A) (A) (A)
                 (A) (A) (A) (A) (A) (A) (A) (A) (A) (A) (A) (A)
                 (A) (A) (A) (A) (A) (A) (A) (A) (A) (A) (A) (A)
                 (A) (A) (A) (A) (A) (A) (A)
 The electronic state is 1-A.
 Alpha  occ. eigenvalues --  -19.39189 -19.38742 -19.38024 -19.37918 -14.67447
 Alpha  occ. eigenvalues --  -14.58229 -10.51092 -10.50634 -10.47949 -10.47366
 Alpha  occ. eigenvalues --  -10.46966 -10.46528 -10.43487 -10.43248 -10.41480
 Alpha  occ. eigenvalues --  -10.40438  -1.25847  -1.23932  -1.23464  -1.22049
 Alpha  occ. eigenvalues --   -1.21412  -1.17558  -1.08356  -1.04765  -1.00619
 Alpha  occ. eigenvalues --   -0.95978  -0.90735  -0.89807  -0.88820  -0.82484
 Alpha  occ. eigenvalues --   -0.79825  -0.79661  -0.75148  -0.74844  -0.74805
 Alpha  occ. eigenvalues --   -0.74038  -0.73373  -0.73285  -0.70914  -0.69365
 Alpha  occ. eigenvalues --   -0.69130  -0.68137  -0.65827  -0.64861  -0.64049
 Alpha  occ. eigenvalues --   -0.63113  -0.62280  -0.61472  -0.59920  -0.58835
 Alpha  occ. eigenvalues --   -0.58062  -0.57186  -0.56938  -0.56300  -0.55600
 Alpha  occ. eigenvalues --   -0.53886  -0.53597  -0.52994  -0.52277  -0.51883
 Alpha  occ. eigenvalues --   -0.51734  -0.51280  -0.49631  -0.44609
 Alpha virt. eigenvalues --   -0.13992  -0.11156  -0.06452  -0.05450  -0.04946
 Alpha virt. eigenvalues --   -0.04533  -0.03562  -0.03389  -0.03082  -0.02561
 Alpha virt. eigenvalues --   -0.02177  -0.01427  -0.01264  -0.00827  -0.00370
 Alpha virt. eigenvalues --    0.00047   0.00247   0.00911   0.01204   0.01391
 Alpha virt. eigenvalues --    0.01766   0.02111   0.02346   0.02628   0.03056
 Alpha virt. eigenvalues --    0.03461   0.03569   0.03927   0.04081   0.04695
 Alpha virt. eigenvalues --    0.04905   0.05033   0.05218   0.05434   0.05778
 Alpha virt. eigenvalues --    0.06100   0.06431   0.06737   0.07020   0.07305
 Alpha virt. eigenvalues --    0.07696   0.07760   0.07991   0.08355   0.08701
 Alpha virt. eigenvalues --    0.08965   0.09136   0.09737   0.09927   0.10236
 Alpha virt. eigenvalues --    0.10637   0.10918   0.11017   0.11307   0.11649
 Alpha virt. eigenvalues --    0.11967   0.12445   0.12791   0.12943   0.13126
 Alpha virt. eigenvalues --    0.13392   0.13797   0.14064   0.14729   0.14834
 Alpha virt. eigenvalues --    0.15261   0.15680   0.15939   0.16034   0.16242
 Alpha virt. eigenvalues --    0.16438   0.16852   0.17239   0.17275   0.17545
 Alpha virt. eigenvalues --    0.17999   0.18206   0.18449   0.18646   0.18993
 Alpha virt. eigenvalues --    0.19250   0.19570   0.19730   0.20049   0.20316
 Alpha virt. eigenvalues --    0.20866   0.21323   0.21615   0.21801   0.21958
 Alpha virt. eigenvalues --    0.22499   0.22855   0.23240   0.23513   0.23909
 Alpha virt. eigenvalues --    0.24193   0.24698   0.25041   0.25371   0.25416
 Alpha virt. eigenvalues --    0.25685   0.26046   0.26431   0.26809   0.26893
 Alpha virt. eigenvalues --    0.27410   0.27737   0.28335   0.28552   0.28690
 Alpha virt. eigenvalues --    0.28997   0.29444   0.30057   0.30552   0.30747
 Alpha virt. eigenvalues --    0.30922   0.31667   0.31836   0.32378   0.32856
 Alpha virt. eigenvalues --    0.33010   0.33534   0.33943   0.34150   0.34536
 Alpha virt. eigenvalues --    0.34873   0.35307   0.35696   0.36153   0.36467
 Alpha virt. eigenvalues --    0.37401   0.37791   0.38031   0.38176   0.38875
 Alpha virt. eigenvalues --    0.39111   0.39386   0.40102   0.40474   0.40855
 Alpha virt. eigenvalues --    0.41381   0.41813   0.42228   0.42787   0.43353
 Alpha virt. eigenvalues --    0.43507   0.43880   0.44237   0.44564   0.44960
 Alpha virt. eigenvalues --    0.45006   0.45400   0.45901   0.46101   0.46321
 Alpha virt. eigenvalues --    0.47063   0.47623   0.48346   0.49197   0.49294
 Alpha virt. eigenvalues --    0.49695   0.49946   0.50598   0.50682   0.50933
 Alpha virt. eigenvalues --    0.51130   0.51357   0.51762   0.51984   0.52277
 Alpha virt. eigenvalues --    0.53258   0.53532   0.53720   0.53860   0.54162
 Alpha virt. eigenvalues --    0.54425   0.55258   0.55292   0.55744   0.55977
 Alpha virt. eigenvalues --    0.56196   0.56790   0.57355   0.57432   0.57974
 Alpha virt. eigenvalues --    0.58263   0.58582   0.59311   0.59459   0.60028
 Alpha virt. eigenvalues --    0.60309   0.61079   0.61173   0.61826   0.62191
 Alpha virt. eigenvalues --    0.63172   0.63388   0.63817   0.64365   0.64603
 Alpha virt. eigenvalues --    0.65027   0.65495   0.65865   0.66194   0.66849
 Alpha virt. eigenvalues --    0.66988   0.67211   0.68342   0.68848   0.69025
 Alpha virt. eigenvalues --    0.69321   0.69967   0.70399   0.71130   0.71397
 Alpha virt. eigenvalues --    0.72186   0.72401   0.72641   0.73143   0.73624
 Alpha virt. eigenvalues --    0.73690   0.74677   0.75325   0.75519   0.75976
 Alpha virt. eigenvalues --    0.76511   0.76777   0.77348   0.77528   0.78272
 Alpha virt. eigenvalues --    0.78399   0.79460   0.80204   0.80665   0.81562
 Alpha virt. eigenvalues --    0.81944   0.82425   0.83155   0.83799   0.84211
 Alpha virt. eigenvalues --    0.84733   0.85611   0.85726   0.86289   0.87365
 Alpha virt. eigenvalues --    0.87741   0.88138   0.89448   0.89558   0.91004
 Alpha virt. eigenvalues --    0.91520   0.92669   0.93066   0.94149   0.95184
 Alpha virt. eigenvalues --    0.95581   0.96030   0.96663   0.96924   0.97383
 Alpha virt. eigenvalues --    0.98363   0.99330   0.99968   1.00215   1.00364
 Alpha virt. eigenvalues --    1.01706   1.02666   1.04019   1.04510   1.05111
 Alpha virt. eigenvalues --    1.05755   1.07157   1.07512   1.07660   1.08203
 Alpha virt. eigenvalues --    1.08971   1.10884   1.11317   1.11874   1.12217
 Alpha virt. eigenvalues --    1.13217   1.14088   1.14982   1.15561   1.16615
 Alpha virt. eigenvalues --    1.18273   1.18568   1.19071   1.20190   1.20839
 Alpha virt. eigenvalues --    1.21628   1.22076   1.22783   1.23764   1.24614
 Alpha virt. eigenvalues --    1.25373   1.25718   1.26675   1.27511   1.29280
 Alpha virt. eigenvalues --    1.29552   1.30490   1.31582   1.32324   1.33002
 Alpha virt. eigenvalues --    1.33385   1.34779   1.35293   1.36894   1.37790
 Alpha virt. eigenvalues --    1.38268   1.38724   1.39157   1.40629   1.41494
 Alpha virt. eigenvalues --    1.41923   1.42732   1.44137   1.44727   1.45796
 Alpha virt. eigenvalues --    1.47644   1.48388   1.48690   1.50668   1.51062
 Alpha virt. eigenvalues --    1.51813   1.52203   1.53552   1.55024   1.56138
 Alpha virt. eigenvalues --    1.57183   1.57398   1.58043   1.58487   1.60343
 Alpha virt. eigenvalues --    1.60536   1.61583   1.62682   1.63475   1.64143
 Alpha virt. eigenvalues --    1.64776   1.65392   1.66225   1.66829   1.68292
 Alpha virt. eigenvalues --    1.68536   1.69923   1.70828   1.71310   1.71910
 Alpha virt. eigenvalues --    1.72543   1.73009   1.73699   1.74854   1.75303
 Alpha virt. eigenvalues --    1.76125   1.77420   1.78031   1.78676   1.79114
 Alpha virt. eigenvalues --    1.79694   1.81496   1.81966   1.82720   1.83202
 Alpha virt. eigenvalues --    1.83884   1.84731   1.85591   1.86003   1.87656
 Alpha virt. eigenvalues --    1.87839   1.88465   1.89042   1.90323   1.90600
 Alpha virt. eigenvalues --    1.91265   1.91893   1.92490   1.93731   1.94745
 Alpha virt. eigenvalues --    1.95183   1.95964   1.97546   1.98174   1.98900
 Alpha virt. eigenvalues --    1.99342   1.99903   2.00680   2.01049   2.02420
 Alpha virt. eigenvalues --    2.02789   2.03065   2.04457   2.06387   2.07169
 Alpha virt. eigenvalues --    2.08849   2.09836   2.10745   2.10999   2.11747
 Alpha virt. eigenvalues --    2.12320   2.13609   2.13956   2.14886   2.16362
 Alpha virt. eigenvalues --    2.17194   2.18126   2.19022   2.19620   2.21693
 Alpha virt. eigenvalues --    2.22295   2.22796   2.23970   2.25408   2.26005
 Alpha virt. eigenvalues --    2.27004   2.27208   2.28555   2.29048   2.29917
 Alpha virt. eigenvalues --    2.31273   2.31659   2.32083   2.32633   2.34797
 Alpha virt. eigenvalues --    2.36760   2.37110   2.38155   2.39765   2.40838
 Alpha virt. eigenvalues --    2.41389   2.42112   2.43853   2.44578   2.45662
 Alpha virt. eigenvalues --    2.47349   2.48854   2.49803   2.50584   2.51883
 Alpha virt. eigenvalues --    2.52851   2.54888   2.55742   2.56799   2.57503
 Alpha virt. eigenvalues --    2.58313   2.58654   2.59362   2.60780   2.62534
 Alpha virt. eigenvalues --    2.62838   2.64671   2.65118   2.66147   2.67611
 Alpha virt. eigenvalues --    2.69686   2.70630   2.73055   2.73386   2.74390
 Alpha virt. eigenvalues --    2.75337   2.76456   2.78102   2.78763   2.80252
 Alpha virt. eigenvalues --    2.82895   2.84385   2.85800   2.86231   2.87362
 Alpha virt. eigenvalues --    2.88336   2.89613   2.91179   2.93174   2.96392
 Alpha virt. eigenvalues --    2.98615   3.03725   3.04922   3.05973   3.11234
 Alpha virt. eigenvalues --    3.14091   3.17369   3.21450   3.24218   3.29555
 Alpha virt. eigenvalues --    3.34041   3.38121   3.38559   3.39958   3.41014
 Alpha virt. eigenvalues --    3.43528   3.45213   3.46062   3.48155   3.51333
 Alpha virt. eigenvalues --    3.52188   3.59603   3.59846   3.64849   3.66141
 Alpha virt. eigenvalues --    3.78305   3.79184   3.81317   3.84731   3.89987
 Alpha virt. eigenvalues --    4.00110   4.03237   4.05656   4.11530   4.34765
 Alpha virt. eigenvalues --    5.05867
          Condensed to atoms (all electrons):
               1          2          3          4          5          6
     1  C   25.629605 -11.619251  -2.117243  -0.096232   2.322357  -4.976705
     2  C  -11.619251  24.545755  -4.247654  -0.329376  -2.287386   2.042936
     3  C   -2.117243  -4.247654  16.988966  -0.867443  -0.903500  -0.046986
     4  N   -0.096232  -0.329376  -0.867443   7.714010   0.385266  -0.067512
     5  C    2.322357  -2.287386  -0.903500   0.385266  10.463399  -3.116621
     6  C   -4.976705   2.042936  -0.046986  -0.067512  -3.116621  12.277620
     7  C   -1.067450  -7.413253  -1.293776   0.641168  -0.208516  -0.509034
     8  N   -0.736518   1.751219  -0.323191  -0.033938  -0.073480   0.167231
     9  C    0.064670  -0.277714  -0.350736   0.030794  -0.044115   0.012243
    10  C   -0.176020   0.252674   0.130632   0.002251   0.004998  -0.022805
    11  C   -0.128112   0.597336  -1.096721  -0.061849  -0.107227  -0.041274
    12  O    0.041230  -0.059740  -0.012724  -0.165206   0.073281  -0.039304
    13  O    0.003655  -0.003408  -0.013039   0.003190   0.001865  -0.004357
    14  O    0.010421   0.001697  -0.053280   0.012189  -0.009182   0.009694
    15  H    0.023195  -0.180621  -0.026889   0.003303  -0.001008  -0.001385
    16  H   -0.006533  -0.028469   0.010125  -0.002152  -0.000072   0.001189
    17  H    0.008844  -0.043808  -0.001846   0.005420   0.000307  -0.002564
    18  H    0.045778   0.027746   0.344277   0.001042   0.009824  -0.016798
    19  H   -0.071917   0.029074  -0.283918  -0.046513  -0.008122  -0.024661
    20  H    0.015063   0.166918   0.025208  -0.002682  -0.000727  -0.000604
    21  H   -0.056043   1.171282  -0.200276  -0.025143   0.021205   0.041246
    22  H   -0.212913  -0.090598  -1.318883   0.113236  -0.185640   0.189680
    23  H    0.230471  -0.158938   0.292110  -0.146212  -0.712700   0.209969
    24  H    0.586113   0.008670  -0.174051  -0.008152   0.452917  -1.194468
    25  H   -2.931281   1.629291   0.133385  -0.057461  -0.329055   0.787817
    26  C   -0.179153   0.450438  -0.013986   0.006242  -0.030545   0.096241
    27  H   -0.026860  -0.284477   0.326440   0.038166  -0.499204  -0.068002
    28  H    0.005173   0.013222  -0.051377  -0.005445  -0.002915   0.000536
    29  H   -0.001605   0.000575   0.025149   0.000778   0.000509   0.000983
    30  H    0.003904   0.002183  -0.010843  -0.008234  -0.004246   0.005594
    31  H   -0.003695   0.007170   0.002256   0.002555  -0.015456   0.005639
    32  H   -0.000627   0.002024   0.000925   0.001924  -0.000288   0.000228
    33  H    0.000915  -0.001986   0.004347  -0.009894   0.000570  -0.003500
    34  H   -0.067669  -0.135318   0.010931  -0.028814  -0.002030   0.001294
    35  O   -0.018053   0.018096  -0.106078  -0.003315  -0.008736   0.001783
    36  H    0.005810   0.014276   0.013006   0.002946   0.001144  -0.000483
    37  H   -0.037813   0.083024   0.030547  -0.002669   0.002320   0.015482
    38  H   -0.010631   0.046847   0.027858  -0.001004  -0.002877  -0.017500
    39  H    0.121463  -0.080026  -0.028177   0.003717  -0.000409  -0.016475
               7          8          9         10         11         12
     1  C   -1.067450  -0.736518   0.064670  -0.176020  -0.128112   0.041230
     2  C   -7.413253   1.751219  -0.277714   0.252674   0.597336  -0.059740
     3  C   -1.293776  -0.323191  -0.350736   0.130632  -1.096721  -0.012724
     4  N    0.641168  -0.033938   0.030794   0.002251  -0.061849  -0.165206
     5  C   -0.208516  -0.073480  -0.044115   0.004998  -0.107227   0.073281
     6  C   -0.509034   0.167231   0.012243  -0.022805  -0.041274  -0.039304
     7  C   25.282853  -4.611881  -0.541042   0.346195  -3.287063   0.013196
     8  N   -4.611881  14.553283  -0.224194  -0.516725  -0.606201  -0.000200
     9  C   -0.541042  -0.224194   5.851481  -0.063185   0.833120   0.000294
    10  C    0.346195  -0.516725  -0.063185   6.421541  -1.151348  -0.000455
    11  C   -3.287063  -0.606201   0.833120  -1.151348  10.341601  -0.001673
    12  O    0.013196  -0.000200   0.000294  -0.000455  -0.001673   7.895959
    13  O    0.000174   0.000761   0.000400  -0.000637   0.000340  -0.063371
    14  O    0.021566   0.008504  -0.012195   0.000277  -0.028909  -0.002320
    15  H    0.557927  -0.944831  -0.176523   0.057886   0.148459   0.000045
    16  H    0.035578  -0.191395   0.206174  -0.337243   0.272567  -0.000034
    17  H    0.155765   0.170760  -0.075680  -0.365718   0.142830   0.000011
    18  H    0.789804   0.272552  -0.241712   0.156552  -1.466561   0.000258
    19  H   -0.361988  -0.143075   0.113317   0.314268   0.289394   0.001328
    20  H   -0.052820  -0.267745  -0.237444   0.086683  -0.002527  -0.000002
    21  H   -3.132461   0.241416   0.007015  -0.068066   0.846531   0.000300
    22  H    0.165181  -0.105615   0.002485   0.030649  -0.187367   0.006190
    23  H   -0.028586   0.001657  -0.000631   0.000390   0.000740   0.013676
    24  H    0.059413  -0.001458  -0.001404   0.001443   0.009302  -0.000734
    25  H   -0.120232   0.031431  -0.009967  -0.000061  -0.113982   0.000439
    26  C   -0.756654   1.037634  -0.225676   0.059884  -0.469245   0.000025
    27  H    0.033024   0.000706  -0.006963  -0.003623  -0.013903   0.006873
    28  H    0.014896  -0.028692   0.017159  -0.027235   0.028099  -0.000370
    29  H   -0.007386   0.005266   0.002817  -0.000989  -0.002621   0.000626
    30  H    0.005418  -0.000762   0.000864  -0.000597   0.002252   0.327362
    31  H    0.000180   0.000044   0.000051   0.000201   0.000015   0.372602
    32  H   -0.000823   0.000384   0.000072  -0.000183  -0.000406   0.001174
    33  H    0.000932   0.000129  -0.001589   0.002486   0.005665   0.002453
    34  H    0.379139  -0.230682  -0.063617  -0.084674   0.155567  -0.001409
    35  O    0.084186  -0.133372  -0.000329   0.026668   0.039219  -0.000668
    36  H   -0.041700  -0.015839   0.004545   0.012477  -0.007943   0.000242
    37  H    0.067264  -0.536381  -0.015900   0.064225  -0.098144   0.000002
    38  H    0.060024   0.335158  -0.055131  -0.049902   0.081935   0.000173
    39  H   -0.060220  -0.404550   0.129848   0.035207   0.015674  -0.000040
              13         14         15         16         17         18
     1  C    0.003655   0.010421   0.023195  -0.006533   0.008844   0.045778
     2  C   -0.003408   0.001697  -0.180621  -0.028469  -0.043808   0.027746
     3  C   -0.013039  -0.053280  -0.026889   0.010125  -0.001846   0.344277
     4  N    0.003190   0.012189   0.003303  -0.002152   0.005420   0.001042
     5  C    0.001865  -0.009182  -0.001008  -0.000072   0.000307   0.009824
     6  C   -0.004357   0.009694  -0.001385   0.001189  -0.002564  -0.016798
     7  C    0.000174   0.021566   0.557927   0.035578   0.155765   0.789804
     8  N    0.000761   0.008504  -0.944831  -0.191395   0.170760   0.272552
     9  C    0.000400  -0.012195  -0.176523   0.206174  -0.075680  -0.241712
    10  C   -0.000637   0.000277   0.057886  -0.337243  -0.365718   0.156552
    11  C    0.000340  -0.028909   0.148459   0.272567   0.142830  -1.466561
    12  O   -0.063371  -0.002320   0.000045  -0.000034   0.000011   0.000258
    13  O    7.773912  -0.031868   0.000066  -0.000029  -0.000295   0.000067
    14  O   -0.031868   8.057772   0.000479  -0.001195   0.003057   0.000609
    15  H    0.000066   0.000479   2.854658   0.122799  -0.331425  -0.034992
    16  H   -0.000029  -0.001195   0.122799   2.117935  -0.622487  -0.315692
    17  H   -0.000295   0.003057  -0.331425  -0.622487   2.330324   0.205488
    18  H    0.000067   0.000609  -0.034992  -0.315692   0.205488   2.708192
    19  H   -0.000925  -0.000543   0.066656   0.204042  -0.468499  -0.881207
    20  H    0.000014  -0.000518  -0.588781  -0.222077   0.201871   0.055094
    21  H   -0.000087   0.002229   0.073093   0.051905  -0.067642  -0.383859
    22  H    0.010290  -0.049226  -0.029673  -0.013712   0.060229   0.149239
    23  H    0.000557   0.000316  -0.000060  -0.000019   0.000238   0.001225
    24  H   -0.000141   0.000216   0.000067   0.000109  -0.000096  -0.002445
    25  H    0.000107  -0.000014  -0.004926   0.000879   0.001782   0.013759
    26  C   -0.000121   0.003753  -0.189343  -0.025479   0.039278   0.104978
    27  H    0.006134   0.004153  -0.000092   0.000128  -0.001609  -0.000061
    28  H   -0.000644   0.351515  -0.004853   0.002310   0.003994  -0.004542
    29  H    0.004458   0.280229   0.000118   0.000315  -0.000477   0.002593
    30  H    0.018271  -0.003182   0.000088  -0.000006  -0.000186  -0.000200
    31  H   -0.004738  -0.000285  -0.000004   0.000005   0.000038  -0.000080
    32  H    0.368284  -0.005089  -0.000062  -0.000013   0.000075   0.000099
    33  H    0.286225   0.036896   0.000974   0.000024  -0.000967  -0.001553
    34  H    0.000078  -0.021766   0.138110   0.020177  -0.015815  -0.028302
    35  O   -0.001120  -0.030238   0.022547   0.000674  -0.002757  -0.007621
    36  H   -0.000417   0.016148  -0.006981  -0.000950   0.002383   0.001983
    37  H   -0.000050  -0.000244  -0.009954  -0.002686   0.012511   0.004328
    38  H    0.000108   0.000360   0.002752   0.001300  -0.007976  -0.003797
    39  H   -0.000011   0.000132   0.020079  -0.001441   0.001979   0.009542
              19         20         21         22         23         24
     1  C   -0.071917   0.015063  -0.056043  -0.212913   0.230471   0.586113
     2  C    0.029074   0.166918   1.171282  -0.090598  -0.158938   0.008670
     3  C   -0.283918   0.025208  -0.200276  -1.318883   0.292110  -0.174051
     4  N   -0.046513  -0.002682  -0.025143   0.113236  -0.146212  -0.008152
     5  C   -0.008122  -0.000727   0.021205  -0.185640  -0.712700   0.452917
     6  C   -0.024661  -0.000604   0.041246   0.189680   0.209969  -1.194468
     7  C   -0.361988  -0.052820  -3.132461   0.165181  -0.028586   0.059413
     8  N   -0.143075  -0.267745   0.241416  -0.105615   0.001657  -0.001458
     9  C    0.113317  -0.237444   0.007015   0.002485  -0.000631  -0.001404
    10  C    0.314268   0.086683  -0.068066   0.030649   0.000390   0.001443
    11  C    0.289394  -0.002527   0.846531  -0.187367   0.000740   0.009302
    12  O    0.001328  -0.000002   0.000300   0.006190   0.013676  -0.000734
    13  O   -0.000925   0.000014  -0.000087   0.010290   0.000557  -0.000141
    14  O   -0.000543  -0.000518   0.002229  -0.049226   0.000316   0.000216
    15  H    0.066656  -0.588781   0.073093  -0.029673  -0.000060   0.000067
    16  H    0.204042  -0.222077   0.051905  -0.013712  -0.000019   0.000109
    17  H   -0.468499   0.201871  -0.067642   0.060229   0.000238  -0.000096
    18  H   -0.881207   0.055094  -0.383859   0.149239   0.001225  -0.002445
    19  H    2.740279  -0.043695   0.297874  -0.326964  -0.004762   0.003432
    20  H   -0.043695   2.433173  -0.103766   0.007998   0.000106  -0.000631
    21  H    0.297874  -0.103766   3.277822  -0.077660  -0.002055   0.009310
    22  H   -0.326964   0.007998  -0.077660   4.079332   0.055189  -0.015482
    23  H   -0.004762   0.000106  -0.002055   0.055189   2.227341  -0.116399
    24  H    0.003432  -0.000631   0.009310  -0.015482  -0.116399   2.101485
    25  H   -0.029197   0.006155  -0.134623  -0.003083  -0.010140  -0.141690
    26  C   -0.138900  -0.046281  -0.086798   0.076927   0.002813  -0.012047
    27  H    0.006804   0.000098   0.002192  -0.194725  -0.196353   0.013533
    28  H    0.000845   0.000336   0.001835   0.015711  -0.000310  -0.000098
    29  H    0.003528  -0.000057  -0.001409  -0.002859  -0.000113   0.000002
    30  H    0.002111   0.000014   0.000173   0.002774   0.004447  -0.000226
    31  H    0.000659   0.000002   0.000020  -0.008681   0.003753  -0.000140
    32  H   -0.001356   0.000011  -0.000098   0.004312  -0.000213   0.000005
    33  H    0.011085  -0.000171   0.001061  -0.015599   0.000289   0.000043
    34  H    0.077075   0.012856   0.024069  -0.087357  -0.002030   0.001018
    35  O    0.052801  -0.005650   0.008888  -0.038534  -0.000280   0.000058
    36  H   -0.010308   0.001962  -0.002176   0.019079   0.000245  -0.000042
    37  H   -0.017603   0.019499  -0.002809   0.024265   0.000575  -0.001600
    38  H    0.013313  -0.001357  -0.007746  -0.007318  -0.002724   0.001107
    39  H   -0.004796   0.045574   0.051886   0.002020   0.000269   0.000283
              25         26         27         28         29         30
     1  C   -2.931281  -0.179153  -0.026860   0.005173  -0.001605   0.003904
     2  C    1.629291   0.450438  -0.284477   0.013222   0.000575   0.002183
     3  C    0.133385  -0.013986   0.326440  -0.051377   0.025149  -0.010843
     4  N   -0.057461   0.006242   0.038166  -0.005445   0.000778  -0.008234
     5  C   -0.329055  -0.030545  -0.499204  -0.002915   0.000509  -0.004246
     6  C    0.787817   0.096241  -0.068002   0.000536   0.000983   0.005594
     7  C   -0.120232  -0.756654   0.033024   0.014896  -0.007386   0.005418
     8  N    0.031431   1.037634   0.000706  -0.028692   0.005266  -0.000762
     9  C   -0.009967  -0.225676  -0.006963   0.017159   0.002817   0.000864
    10  C   -0.000061   0.059884  -0.003623  -0.027235  -0.000989  -0.000597
    11  C   -0.113982  -0.469245  -0.013903   0.028099  -0.002621   0.002252
    12  O    0.000439   0.000025   0.006873  -0.000370   0.000626   0.327362
    13  O    0.000107  -0.000121   0.006134  -0.000644   0.004458   0.018271
    14  O   -0.000014   0.003753   0.004153   0.351515   0.280229  -0.003182
    15  H   -0.004926  -0.189343  -0.000092  -0.004853   0.000118   0.000088
    16  H    0.000879  -0.025479   0.000128   0.002310   0.000315  -0.000006
    17  H    0.001782   0.039278  -0.001609   0.003994  -0.000477  -0.000186
    18  H    0.013759   0.104978  -0.000061  -0.004542   0.002593  -0.000200
    19  H   -0.029197  -0.138900   0.006804   0.000845   0.003528   0.002111
    20  H    0.006155  -0.046281   0.000098   0.000336  -0.000057   0.000014
    21  H   -0.134623  -0.086798   0.002192   0.001835  -0.001409   0.000173
    22  H   -0.003083   0.076927  -0.194725   0.015711  -0.002859   0.002774
    23  H   -0.010140   0.002813  -0.196353  -0.000310  -0.000113   0.004447
    24  H   -0.141690  -0.012047   0.013533  -0.000098   0.000002  -0.000226
    25  H    3.145258   0.084291   0.007521  -0.000554   0.000222  -0.000248
    26  C    0.084291   4.839198  -0.002299  -0.002599   0.000948  -0.000528
    27  H    0.007521  -0.002299   1.766417   0.003065  -0.000236  -0.005087
    28  H   -0.000554  -0.002599   0.003065   0.488726  -0.122273   0.001311
    29  H    0.000222   0.000948  -0.000236  -0.122273   0.604429  -0.000014
    30  H   -0.000248  -0.000528  -0.005087   0.001311  -0.000014   0.522408
    31  H   -0.000037   0.000042   0.009346  -0.000412   0.000077  -0.095203
    32  H    0.000009   0.000283   0.001833   0.001774   0.001640  -0.003516
    33  H   -0.000274  -0.002044  -0.002725  -0.010884   0.001290  -0.007498
    34  H   -0.000401  -0.174324   0.005116   0.002214  -0.003074   0.000244
    35  O   -0.001979  -0.015169   0.001176   0.010061  -0.009334   0.000832
    36  H    0.000502   0.014151   0.000142  -0.006156  -0.000056  -0.000366
    37  H    0.010900   0.287568  -0.000959   0.001863  -0.000095  -0.000018
    38  H   -0.035127  -0.071547   0.003168  -0.001204  -0.000271  -0.000011
    39  H    0.003371   0.216824  -0.000117   0.000394   0.000124  -0.000021
              31         32         33         34         35         36
     1  C   -0.003695  -0.000627   0.000915  -0.067669  -0.018053   0.005810
     2  C    0.007170   0.002024  -0.001986  -0.135318   0.018096   0.014276
     3  C    0.002256   0.000925   0.004347   0.010931  -0.106078   0.013006
     4  N    0.002555   0.001924  -0.009894  -0.028814  -0.003315   0.002946
     5  C   -0.015456  -0.000288   0.000570  -0.002030  -0.008736   0.001144
     6  C    0.005639   0.000228  -0.003500   0.001294   0.001783  -0.000483
     7  C    0.000180  -0.000823   0.000932   0.379139   0.084186  -0.041700
     8  N    0.000044   0.000384   0.000129  -0.230682  -0.133372  -0.015839
     9  C    0.000051   0.000072  -0.001589  -0.063617  -0.000329   0.004545
    10  C    0.000201  -0.000183   0.002486  -0.084674   0.026668   0.012477
    11  C    0.000015  -0.000406   0.005665   0.155567   0.039219  -0.007943
    12  O    0.372602   0.001174   0.002453  -0.001409  -0.000668   0.000242
    13  O   -0.004738   0.368284   0.286225   0.000078  -0.001120  -0.000417
    14  O   -0.000285  -0.005089   0.036896  -0.021766  -0.030238   0.016148
    15  H   -0.000004  -0.000062   0.000974   0.138110   0.022547  -0.006981
    16  H    0.000005  -0.000013   0.000024   0.020177   0.000674  -0.000950
    17  H    0.000038   0.000075  -0.000967  -0.015815  -0.002757   0.002383
    18  H   -0.000080   0.000099  -0.001553  -0.028302  -0.007621   0.001983
    19  H    0.000659  -0.001356   0.011085   0.077075   0.052801  -0.010308
    20  H    0.000002   0.000011  -0.000171   0.012856  -0.005650   0.001962
    21  H    0.000020  -0.000098   0.001061   0.024069   0.008888  -0.002176
    22  H   -0.008681   0.004312  -0.015599  -0.087357  -0.038534   0.019079
    23  H    0.003753  -0.000213   0.000289  -0.002030  -0.000280   0.000245
    24  H   -0.000140   0.000005   0.000043   0.001018   0.000058  -0.000042
    25  H   -0.000037   0.000009  -0.000274  -0.000401  -0.001979   0.000502
    26  C    0.000042   0.000283  -0.002044  -0.174324  -0.015169   0.014151
    27  H    0.009346   0.001833  -0.002725   0.005116   0.001176   0.000142
    28  H   -0.000412   0.001774  -0.010884   0.002214   0.010061  -0.006156
    29  H    0.000077   0.001640   0.001290  -0.003074  -0.009334  -0.000056
    30  H   -0.095203  -0.003516  -0.007498   0.000244   0.000832  -0.000366
    31  H    0.586140  -0.000304   0.001483   0.000203  -0.000028  -0.000034
    32  H   -0.000304   0.594382  -0.128209  -0.001480  -0.001216   0.000384
    33  H    0.001483  -0.128209   0.586799   0.009136   0.005491  -0.002655
    34  H    0.000203  -0.001480   0.009136   0.720989   0.120436  -0.155482
    35  O   -0.000028  -0.001216   0.005491   0.120436   7.976344   0.386656
    36  H   -0.000034   0.000384  -0.002655  -0.155482   0.386656   0.589682
    37  H    0.000012   0.000056  -0.000386   0.026371   0.005278  -0.002052
    38  H   -0.000033  -0.000041   0.000489   0.023449   0.009446   0.000823
    39  H   -0.000004   0.000010  -0.000146  -0.050661  -0.002958   0.004977
              37         38         39
     1  C   -0.037813  -0.010631   0.121463
     2  C    0.083024   0.046847  -0.080026
     3  C    0.030547   0.027858  -0.028177
     4  N   -0.002669  -0.001004   0.003717
     5  C    0.002320  -0.002877  -0.000409
     6  C    0.015482  -0.017500  -0.016475
     7  C    0.067264   0.060024  -0.060220
     8  N   -0.536381   0.335158  -0.404550
     9  C   -0.015900  -0.055131   0.129848
    10  C    0.064225  -0.049902   0.035207
    11  C   -0.098144   0.081935   0.015674
    12  O    0.000002   0.000173  -0.000040
    13  O   -0.000050   0.000108  -0.000011
    14  O   -0.000244   0.000360   0.000132
    15  H   -0.009954   0.002752   0.020079
    16  H   -0.002686   0.001300  -0.001441
    17  H    0.012511  -0.007976   0.001979
    18  H    0.004328  -0.003797   0.009542
    19  H   -0.017603   0.013313  -0.004796
    20  H    0.019499  -0.001357   0.045574
    21  H   -0.002809  -0.007746   0.051886
    22  H    0.024265  -0.007318   0.002020
    23  H    0.000575  -0.002724   0.000269
    24  H   -0.001600   0.001107   0.000283
    25  H    0.010900  -0.035127   0.003371
    26  C    0.287568  -0.071547   0.216824
    27  H   -0.000959   0.003168  -0.000117
    28  H    0.001863  -0.001204   0.000394
    29  H   -0.000095  -0.000271   0.000124
    30  H   -0.000018  -0.000011  -0.000021
    31  H    0.000012  -0.000033  -0.000004
    32  H    0.000056  -0.000041   0.000010
    33  H   -0.000386   0.000489  -0.000146
    34  H    0.026371   0.023449  -0.050661
    35  O    0.005278   0.009446  -0.002958
    36  H   -0.002052   0.000823   0.004977
    37  H    2.283220  -0.668348  -0.329822
    38  H   -0.668348   1.933381  -0.422221
    39  H   -0.329822  -0.422221   1.865818
 Mulliken charges:
               1
     1  C    1.423661
     2  C    0.379571
     3  C    1.176455
     4  N    0.001048
     5  C    0.814095
     6  C    0.303632
     7  C    0.781001
     8  N   -1.447408
     9  C    1.348399
    10  C    0.861877
    11  C    1.062429
    12  O   -0.409490
    13  O   -0.353698
    14  O   -0.572160
    15  H   -0.560898
    16  H   -0.276551
    17  H   -0.337335
    18  H   -0.515610
    19  H   -0.358934
    20  H   -0.501102
    21  H   -0.778636
    22  H   -1.042896
    23  H   -0.663855
    24  H   -0.577220
    25  H   -0.932789
    26  C    1.121217
    27  H    0.071259
    28  H    0.305522
    29  H    0.216193
    30  H    0.240742
    31  H    0.136641
    32  H    0.164036
    33  H    0.231298
    34  H    0.426432
    35  O   -0.383205
    36  H    0.160078
    37  H   -0.211777
    38  H   -0.174927
    39  H   -0.127097
 Sum of Mulliken charges =   1.00000
 Mulliken charges with hydrogens summed into heavy atoms:
               1
     1  C    0.490872
     2  C    0.379571
     3  C    0.133559
     4  N    0.072307
     5  C    0.150240
     6  C   -0.273588
     7  C    0.002366
     8  N   -1.447408
     9  C    0.286399
    10  C    0.247991
    11  C    0.187885
    12  O   -0.032107
    13  O    0.041636
    14  O   -0.050445
    26  C    0.607416
    35  O    0.203306
 APT charges:
               1
     1  C    0.150576
     2  C   -0.057955
     3  C    0.098409
     4  N   -0.356670
     5  C    0.130181
     6  C   -0.120873
     7  C    0.337860
     8  N   -0.696709
     9  C    0.306757
    10  C    0.071739
    11  C    0.040483
    12  O   -0.809349
    13  O   -0.707216
    14  O   -0.747879
    15  H   -0.006906
    16  H   -0.006977
    17  H   -0.010441
    18  H   -0.006295
    19  H   -0.000144
    20  H   -0.055879
    21  H   -0.073470
    22  H    0.182188
    23  H    0.110702
    24  H    0.090492
    25  H    0.080473
    26  C    0.276545
    27  H    0.636513
    28  H    0.454780
    29  H    0.268432
    30  H    0.482153
    31  H    0.274952
    32  H    0.281365
    33  H    0.435690
    34  H    0.469368
    35  O   -0.746434
    36  H    0.261509
    37  H    0.009808
    38  H   -0.009880
    39  H   -0.037898
 Sum of APT charges =   1.00000
 APT charges with hydrogens summed into heavy atoms:
               1
     1  C    0.231049
     2  C   -0.057955
     3  C    0.280597
     4  N    0.279843
     5  C    0.240883
     6  C   -0.030382
     7  C    0.264391
     8  N   -0.696709
     9  C    0.243972
    10  C    0.054321
    11  C    0.034044
    12  O   -0.052244
    13  O    0.009838
    14  O   -0.024668
    26  C    0.238575
    35  O   -0.015558
 Electronic spatial extent (au):  <R**2>=           4707.1621
 Charge=              1.0000 electrons
 Dipole moment (field-independent basis, Debye):
    X=             -1.6661    Y=              2.4274    Z=             -0.5329  Tot=              2.9920
 Quadrupole moment (field-independent basis, Debye-Ang):
   XX=            -57.9831   YY=            -58.1982   ZZ=            -88.4887
   XY=              2.4643   XZ=              5.4675   YZ=              1.1763
 Traceless Quadrupole moment (field-independent basis, Debye-Ang):
   XX=             10.2402   YY=             10.0252   ZZ=            -20.2654
   XY=              2.4643   XZ=              5.4675   YZ=              1.1763
 Octapole moment (field-independent basis, Debye-Ang**2):
  XXX=           -110.3079  YYY=            -11.9654  ZZZ=             17.1063  XYY=            -70.9867
  XXY=            -32.1685  XXZ=            -21.6474  XZZ=             -1.3054  YZZ=            -31.5479
  YYZ=              5.6935  XYZ=              4.1732
 Hexadecapole moment (field-independent basis, Debye-Ang**3):
 XXXX=          -2512.5109 YYYY=          -1490.6667 ZZZZ=           -537.2892 XXXY=            156.5998
 XXXZ=            126.0209 YYYX=            139.6128 YYYZ=             30.7084 ZZZX=             26.5576
 ZZZY=            -32.4777 XXYY=           -631.6291 XXZZ=           -579.2772 YYZZ=           -403.0427
 XXYZ=            -30.4709 YYXZ=            -29.8148 ZZXY=             14.3927
 N-N= 1.240276927388D+03 E-N=-4.343689690608D+03  KE= 8.000559363925D+02
  Exact polarizability: 185.015  -8.709 174.705  -1.426   6.157 128.522
 Approx polarizability: 189.311  -1.498 188.811  -2.863   6.023 146.973
 Calling FoFJK, ICntrl=    100127 FMM=F ISym2X=0 I1Cent= 0 IOpClX= 0 NMat=1 NMatS=1 NMatT=0.
 Full mass-weighted force constant matrix:
 Low frequencies ---   -4.8289   -2.5640   -0.0008   -0.0003    0.0005    6.7946
 Low frequencies ---   23.2095   30.5356   38.7211
 Diagonal vibrational polarizability:
      224.1564724     146.9875108     125.4846151
 Harmonic frequencies (cm**-1), IR intensities (KM/Mole), Raman scattering
 activities (A**4/AMU), depolarization ratios for plane and unpolarized
 incident light, reduced masses (AMU), force constants (mDyne/A),
 and normal coordinates:
                      1                      2                      3
                      A                      A                      A
 Frequencies --     23.1919                30.5012                38.7189
 Red. masses --      4.3019                 4.7969                 4.2270
 Frc consts  --      0.0014                 0.0026                 0.0037
 IR Inten    --      0.5554                 1.8060                 1.0327
  Atom  AN      X      Y      Z        X      Y      Z        X      Y      Z
     1   6    -0.01  -0.00  -0.01     0.01   0.06  -0.14    -0.01   0.01   0.07
     2   6     0.00  -0.01   0.00     0.01   0.04  -0.02    -0.02   0.02   0.01
     3   6     0.01  -0.01  -0.03     0.01   0.03   0.06    -0.02   0.03  -0.04
     4   7    -0.00  -0.02  -0.06     0.01   0.05   0.03    -0.02   0.03  -0.05
     5   6    -0.02  -0.02  -0.07     0.02   0.07  -0.09    -0.02   0.02   0.00
     6   6    -0.02  -0.01  -0.04     0.01   0.08  -0.18    -0.01   0.01   0.06
     7   6     0.01   0.01   0.03    -0.00   0.01   0.03    -0.02   0.01   0.01
     8   7    -0.02  -0.03   0.02    -0.07  -0.02   0.04    -0.05  -0.02  -0.00
     9   6     0.04   0.04   0.04    -0.07  -0.04   0.08    -0.10  -0.08  -0.02
    10   6     0.15   0.11  -0.03    -0.04  -0.02   0.06    -0.17  -0.08   0.01
    11   6     0.06   0.04   0.01     0.01   0.01   0.03    -0.03   0.05  -0.03
    12   8    -0.02   0.02  -0.05     0.04  -0.01   0.29     0.03  -0.06  -0.15
    13   8     0.01   0.12   0.25     0.13  -0.08  -0.03     0.26   0.09   0.17
    14   8    -0.12   0.02  -0.00     0.05   0.01  -0.18     0.11   0.02  -0.08
    15   1     0.03   0.01   0.00    -0.12  -0.05   0.08    -0.12  -0.09  -0.02
    16   1     0.19   0.27  -0.00    -0.01  -0.03   0.09    -0.19  -0.23   0.01
    17   1     0.25   0.05  -0.14    -0.06  -0.01   0.03    -0.31  -0.00   0.06
    18   1    -0.01   0.07   0.01     0.05   0.01   0.04     0.11   0.06   0.02
    19   1     0.09  -0.03   0.04    -0.00   0.04  -0.00    -0.06   0.15  -0.15
    20   1     0.02   0.09   0.14    -0.05  -0.06   0.12    -0.07  -0.13  -0.06
    21   1     0.01   0.02   0.08     0.03  -0.01   0.07    -0.01   0.01   0.04
    22   1     0.01  -0.02  -0.02     0.01   0.02   0.14    -0.02   0.04  -0.08
    23   1    -0.02  -0.02  -0.10     0.02   0.09  -0.10    -0.02   0.03  -0.01
    24   1    -0.03  -0.01  -0.05     0.02   0.09  -0.28    -0.01   0.01   0.10
    25   1    -0.02  -0.00   0.02     0.01   0.06  -0.21    -0.01   0.00   0.11
    26   6    -0.11  -0.07   0.08    -0.10  -0.03   0.06     0.00  -0.05   0.00
    27   1    -0.00  -0.02  -0.07     0.01   0.04   0.12    -0.02   0.03  -0.09
    28   1    -0.04  -0.04  -0.07     0.04  -0.04  -0.17     0.09   0.02  -0.05
    29   1    -0.22   0.04  -0.06     0.06   0.05  -0.22     0.10  -0.01  -0.05
    30   1    -0.03   0.05   0.06     0.10  -0.03   0.19     0.10  -0.03  -0.05
    31   1     0.01  -0.07  -0.08    -0.08   0.05   0.39     0.08  -0.19  -0.20
    32   1     0.02   0.14   0.33     0.13  -0.09  -0.07     0.28   0.10   0.27
    33   1    -0.04   0.08   0.18     0.09  -0.05  -0.12     0.19   0.06   0.07
    34   1     0.03  -0.13  -0.11    -0.08  -0.05  -0.02    -0.07   0.01   0.04
    35   8     0.09  -0.17  -0.16    -0.04  -0.08  -0.08    -0.04  -0.01   0.05
    36   1     0.11  -0.24  -0.17    -0.15  -0.08  -0.10    -0.24   0.13   0.04
    37   1    -0.13  -0.10   0.06    -0.16  -0.05   0.08    -0.03  -0.08  -0.01
    38   1    -0.15  -0.13   0.06    -0.10  -0.01   0.02     0.03  -0.00   0.01
    39   1    -0.13  -0.03   0.15    -0.06  -0.06   0.10     0.04  -0.09   0.00
                      4                      5                      6
                      A                      A                      A
 Frequencies --     49.0405                52.3553                69.6562
 Red. masses --      6.9582                 3.5287                 4.6452
 Frc consts  --      0.0099                 0.0057                 0.0133
 IR Inten    --      1.0467                 1.5280                 1.0515
  Atom  AN      X      Y      Z        X      Y      Z        X      Y      Z
     1   6    -0.03   0.02  -0.03    -0.00   0.07  -0.04    -0.04  -0.05   0.01
     2   6    -0.05   0.01   0.03     0.04   0.06   0.02    -0.00  -0.04  -0.02
     3   6    -0.06   0.02   0.06     0.07   0.02   0.03     0.01  -0.07  -0.05
     4   7    -0.05   0.06   0.02     0.04  -0.02  -0.00    -0.00  -0.10  -0.05
     5   6    -0.03   0.07  -0.04    -0.00  -0.01  -0.06    -0.03  -0.10  -0.02
     6   6    -0.02   0.05  -0.07    -0.03   0.03  -0.08    -0.05  -0.08   0.01
     7   6    -0.06  -0.02   0.02     0.06   0.08   0.03     0.02   0.00  -0.01
     8   7    -0.05  -0.03  -0.00    -0.01  -0.04  -0.02    -0.01  -0.05  -0.03
     9   6    -0.05  -0.02  -0.04    -0.05  -0.07  -0.05     0.03  -0.01  -0.02
    10   6    -0.08  -0.00  -0.03    -0.06   0.05  -0.09     0.11   0.08  -0.09
    11   6    -0.10  -0.00   0.00     0.09   0.20  -0.08     0.08   0.06  -0.06
    12   8    -0.08   0.10  -0.04     0.07  -0.07  -0.02    -0.14   0.16   0.14
    13   8     0.02   0.09  -0.18    -0.11  -0.10   0.03     0.10   0.17  -0.07
    14   8     0.19   0.03   0.18    -0.04   0.02   0.12     0.11  -0.08  -0.00
    15   1    -0.02  -0.02  -0.06    -0.10  -0.13  -0.10    -0.00  -0.05  -0.06
    16   1    -0.10   0.00  -0.06    -0.05  -0.04  -0.06     0.15   0.17  -0.05
    17   1    -0.08  -0.01  -0.03    -0.19   0.11  -0.14     0.15   0.04  -0.19
    18   1    -0.12   0.01   0.00     0.25   0.28   0.01     0.08   0.12  -0.03
    19   1    -0.10  -0.00   0.03     0.07   0.31  -0.26     0.10   0.03  -0.10
    20   1    -0.06  -0.00  -0.06    -0.01  -0.11  -0.00     0.02   0.01   0.07
    21   1    -0.06  -0.03   0.01     0.07   0.09   0.15     0.01   0.03   0.06
    22   1    -0.07   0.01   0.11     0.11   0.01   0.07     0.04  -0.07  -0.08
    23   1    -0.02   0.09  -0.08    -0.02  -0.04  -0.09    -0.05  -0.13  -0.02
    24   1     0.00   0.06  -0.12    -0.07   0.04  -0.13    -0.08  -0.08   0.04
    25   1    -0.02   0.00  -0.06    -0.02   0.10  -0.05    -0.05  -0.03   0.04
    26   6    -0.03  -0.05   0.00    -0.01  -0.15   0.05    -0.07  -0.10   0.02
    27   1    -0.06   0.08   0.02     0.06  -0.05   0.00    -0.01  -0.07  -0.04
    28   1     0.20  -0.06   0.18    -0.06   0.01   0.13     0.04  -0.04   0.06
    29   1     0.17   0.07   0.12    -0.02   0.04   0.10     0.11  -0.17   0.10
    30   1    -0.05   0.08  -0.11     0.02  -0.06   0.00    -0.09   0.14   0.06
    31   1    -0.07   0.14  -0.04     0.09  -0.05  -0.03    -0.21   0.19   0.20
    32   1     0.08   0.07  -0.11    -0.15  -0.11  -0.09     0.18   0.16   0.13
    33   1     0.11   0.10  -0.04    -0.08  -0.08   0.06     0.09   0.13  -0.07
    34   1     0.13  -0.18   0.08    -0.03  -0.01   0.02    -0.04   0.03   0.03
    35   8     0.33  -0.30   0.11    -0.02  -0.00   0.10    -0.10   0.09   0.14
    36   1     0.31  -0.26   0.11    -0.02   0.08   0.11    -0.15   0.25   0.15
    37   1    -0.01  -0.06  -0.01    -0.08  -0.23   0.02    -0.09  -0.14   0.01
    38   1    -0.02  -0.05   0.02     0.01  -0.11   0.05    -0.09  -0.14   0.02
    39   1    -0.03  -0.04  -0.00     0.05  -0.18   0.13    -0.07  -0.08   0.10
                      7                      8                      9
                      A                      A                      A
 Frequencies --     75.1284                84.8150               100.3259
 Red. masses --      2.8776                 4.3114                 4.5650
 Frc consts  --      0.0096                 0.0183                 0.0271
 IR Inten    --      1.8303                 3.8374                 3.6853
  Atom  AN      X      Y      Z        X      Y      Z        X      Y      Z
     1   6    -0.03  -0.01   0.02     0.04  -0.03   0.05    -0.03  -0.04  -0.01
     2   6     0.02  -0.00  -0.02    -0.00  -0.01  -0.11    -0.02  -0.06   0.10
     3   6     0.04  -0.05  -0.06    -0.02   0.03  -0.20    -0.02  -0.06   0.12
     4   7     0.02  -0.09  -0.06    -0.00   0.05  -0.11    -0.03  -0.05   0.02
     5   6    -0.03  -0.10  -0.01     0.04   0.02   0.05    -0.05  -0.03  -0.11
     6   6    -0.06  -0.06   0.02     0.06  -0.02   0.12    -0.05  -0.03  -0.12
     7   6     0.04   0.04   0.00    -0.01  -0.03  -0.08    -0.01  -0.05   0.07
     8   7     0.03   0.05   0.02    -0.08  -0.02  -0.04     0.08  -0.06   0.04
     9   6    -0.01  -0.01   0.03    -0.03  -0.00   0.04     0.07  -0.02  -0.05
    10   6    -0.11  -0.10   0.11     0.08   0.00  -0.01     0.04   0.02  -0.06
    11   6     0.11   0.05  -0.02     0.03  -0.06  -0.04    -0.07  -0.04   0.06
    12   8    -0.07   0.05   0.07     0.04  -0.06   0.07    -0.07  -0.03  -0.03
    13   8    -0.04   0.03   0.00    -0.02  -0.11   0.03     0.02  -0.01   0.02
    14   8    -0.02   0.11  -0.02     0.04   0.25   0.05     0.04   0.33  -0.06
    15   1     0.01   0.04   0.08    -0.08  -0.00   0.05     0.12  -0.04  -0.09
    16   1    -0.14  -0.39   0.12     0.13   0.09   0.04     0.01   0.14  -0.11
    17   1    -0.33   0.02   0.28     0.16  -0.04  -0.07     0.13  -0.03  -0.10
    18   1     0.35   0.06   0.05    -0.01  -0.09  -0.06    -0.21  -0.02   0.03
    19   1     0.08   0.19  -0.24     0.05  -0.12  -0.01    -0.07  -0.10   0.18
    20   1    -0.00  -0.04  -0.07    -0.03   0.01   0.11     0.05   0.00  -0.06
    21   1     0.03   0.06   0.04     0.01  -0.05  -0.06    -0.04  -0.04   0.03
    22   1     0.08  -0.04  -0.10    -0.06   0.05  -0.30    -0.02  -0.07   0.17
    23   1    -0.05  -0.15  -0.00     0.05   0.03   0.11    -0.05  -0.02  -0.19
    24   1    -0.10  -0.07   0.06     0.10  -0.04   0.25    -0.06  -0.01  -0.22
    25   1    -0.05   0.02   0.05     0.06  -0.06   0.13    -0.04  -0.03  -0.03
    26   6     0.06   0.07  -0.01    -0.16  -0.01  -0.02     0.15  -0.06   0.02
    27   1     0.02  -0.10  -0.05    -0.00   0.05  -0.10    -0.02  -0.05   0.01
    28   1     0.01   0.06  -0.04     0.00   0.18   0.09     0.00   0.20  -0.03
    29   1    -0.05   0.14  -0.07     0.08   0.29   0.02     0.05   0.43  -0.16
    30   1    -0.09   0.05   0.05     0.04  -0.06   0.07    -0.07  -0.02  -0.01
    31   1    -0.12   0.09   0.12    -0.10  -0.03   0.20    -0.05  -0.05  -0.05
    32   1    -0.01   0.01   0.00    -0.04  -0.15  -0.18     0.06  -0.06  -0.06
    33   1    -0.04   0.07  -0.00     0.01  -0.01   0.02     0.02   0.09  -0.02
    34   1     0.03   0.00  -0.02    -0.04  -0.02   0.03     0.05   0.00   0.06
    35   8     0.08  -0.04  -0.07     0.02  -0.04   0.11    -0.05   0.06   0.03
    36   1     0.08  -0.10  -0.08    -0.13   0.12   0.10    -0.03   0.02   0.03
    37   1     0.03   0.08   0.01    -0.18   0.00  -0.01     0.21  -0.06  -0.01
    38   1     0.08   0.12  -0.03    -0.20  -0.04  -0.06     0.17  -0.07   0.08
    39   1     0.08   0.04  -0.03    -0.17   0.02   0.02     0.13  -0.05  -0.03
                     10                     11                     12
                      A                      A                      A
 Frequencies --    116.1143               167.1097               178.6422
 Red. masses --      4.0654                 2.1464                 3.0390
 Frc consts  --      0.0323                 0.0353                 0.0571
 IR Inten    --      2.1225                10.3115                20.4657
  Atom  AN      X      Y      Z        X      Y      Z        X      Y      Z
     1   6    -0.01   0.02  -0.19    -0.01   0.03   0.00    -0.01   0.01   0.00
     2   6     0.02   0.00  -0.08     0.02   0.04  -0.01     0.01   0.01  -0.01
     3   6     0.05  -0.05   0.11     0.04   0.01  -0.02     0.01  -0.00  -0.02
     4   7     0.05  -0.09   0.25     0.02  -0.03  -0.01     0.01  -0.02  -0.01
     5   6     0.03  -0.08   0.21    -0.01  -0.04   0.01    -0.01  -0.03   0.00
     6   6    -0.00  -0.03  -0.03    -0.03  -0.01   0.02    -0.02  -0.01   0.01
     7   6     0.01   0.00  -0.07     0.02   0.03  -0.00     0.01   0.00  -0.00
     8   7    -0.06   0.02  -0.04    -0.03   0.04   0.02    -0.04  -0.00   0.01
     9   6    -0.04  -0.00   0.04    -0.10  -0.11   0.08    -0.11  -0.14   0.07
    10   6     0.03  -0.01   0.02     0.04   0.06  -0.04    -0.01  -0.01  -0.02
    11   6     0.05  -0.02  -0.05    -0.03   0.01   0.02    -0.05  -0.03   0.03
    12   8    -0.01   0.01  -0.11    -0.01   0.01  -0.00     0.02  -0.01   0.01
    13   8     0.01   0.06  -0.01    -0.02   0.00   0.01     0.03   0.02  -0.04
    14   8     0.02   0.10  -0.02    -0.01  -0.01  -0.04     0.02   0.02   0.10
    15   1    -0.09   0.01   0.06    -0.31  -0.20   0.05    -0.31  -0.22   0.05
    16   1     0.07  -0.02   0.06     0.12   0.28   0.01     0.04   0.14   0.02
    17   1     0.03  -0.01   0.00     0.16  -0.02  -0.27     0.06  -0.06  -0.18
    18   1     0.09  -0.05  -0.05    -0.14  -0.00  -0.02    -0.14  -0.06  -0.01
    19   1     0.05  -0.01  -0.07    -0.02  -0.03   0.13    -0.06  -0.05   0.13
    20   1    -0.02  -0.01   0.08     0.02  -0.24   0.25     0.00  -0.27   0.22
    21   1     0.03  -0.01  -0.05     0.04   0.01  -0.02     0.03  -0.02  -0.02
    22   1     0.07  -0.06   0.15     0.07   0.01  -0.03     0.02  -0.00  -0.02
    23   1     0.03  -0.12   0.34    -0.03  -0.07   0.02    -0.02  -0.04   0.01
    24   1    -0.02  -0.02  -0.09    -0.06  -0.01   0.03    -0.04  -0.01   0.02
[...]
 0.00016003,-0.00056745,-0.00018649,0.00053691,0.00012803,-0.00007038,-
 0.00395375,0.00066154,-0.00368141,-0.01396811,-0.01605997,0.01028642,0
 .00297564,-0.00425875,-0.00104727,-0.00041481,-0.00053548,0.00006270,0
 .00000239,-0.00024328,-0.00025856,0.00057224,0.00105903,-0.00011063,-0
 .00097257,0.00094381,-0.00014755,-0.00465494,0.00501442,-0.00790402,-0
 .00070602,0.00036539,-0.00029289,0.00002623,0.00019646,0.00021109,0.00
 008668,0.00024991,0.00034424,-0.00005369,0.00015665,0.00018902,0.00007
 640,-0.00003383,0.00006334,-0.00167508,0.00053657,0.00054912,-0.000022
 75,-0.00155858,0.00161661,-0.00032596,-0.00138080,-0.00045543,-0.00004
 706,-0.00000706,-0.00001041,0.00003604,0.00000690,-0.00000928,-0.00007
 150,0.00016913,0.00001033,0.00050824,0.00176052,0.00408602,-0.00136532
 ,-0.00088068,-0.00008865,0.00052313,-0.00763647,0.00887017,-0.00000843
 ,0.00026411,0.00063118,0.00024361,-0.00112370,0.00027015,0.00002301,-0
 .00005617,-0.00001787,0.00027342,-0.00000938,0.00014043,0.00121744,-0.
 00046807,-0.00019843,-0.17163381,-0.28586940,0.00581803,0.22595887,0.3
 4569498,0.00012146,-0.00018578,-0.00002927,0.00026414,0.00035229,0.000
 11799,-0.00037211,-0.00056345,-0.00042126,-0.00000666,0.00021080,0.000
 07321,0.00001012,0.00024967,0.00001132,-0.00026284,0.00004554,0.000037
 42,-0.00037071,-0.00090689,0.00073922,0.00547165,0.00740438,0.00460984
 ,-0.00128566,0.00037345,-0.00009662,0.00013544,-0.00059261,-0.00047294
 ,-0.00022328,-0.00030700,-0.00010729,-0.00026630,0.00018491,0.00020730
 ,-0.00115172,0.00016440,0.00153665,-0.01639787,-0.00550690,-0.01357507
 ,0.00029211,-0.00024916,-0.00014835,0.00017884,0.00033012,-0.00004161,
 -0.00013760,0.00062599,0.00019926,0.00015859,0.00010782,0.00002115,0.0
 0017227,-0.00018527,0.00038456,0.00025099,0.00004684,0.00002455,0.0001
 4810,0.00023508,-0.00001407,0.00015200,-0.00079467,-0.00006107,0.00000
 660,0.00003203,-0.00001667,-0.00001291,0.00000940,-0.00001732,0.000023
 16,0.00000953,-0.00002576,0.00113565,0.00085393,-0.00200467,0.00016343
 ,-0.00003555,-0.00015931,0.00436000,0.00611248,-0.00333667,-0.00177198
 ,0.00079498,-0.00062217,0.00016382,-0.00022550,-0.00016982,0.00010913,
 -0.00005528,-0.00002840,-0.00007282,0.00013426,-0.00022327,0.00232183,
 -0.00006695,-0.00215221,0.03051278,0.04814203,-0.06110009,-0.09167600,
 -0.08928355,0.60432937,0.00001485,0.00001662,-0.00001425,0.00010119,-0
 .00005263,0.00001183,0.00005416,-0.00008275,-0.00013561,-0.00019262,-0
 .00000199,0.00005768,-0.00002900,0.00013515,0.00001725,-0.00005757,-0.
 00001733,-0.00000053,0.00008316,-0.00002373,-0.00009801,-0.00096121,-0
 .00160565,-0.00037993,0.00049044,-0.00034623,0.00017157,-0.00005291,0.
 00013801,0.00010120,-0.00006907,0.00005426,-0.00011058,-0.00004062,-0.
 00029099,0.00018534,0.00026031,-0.00009029,0.00084737,-0.00394969,-0.0
 0103660,-0.00241169,-0.00021882,0.00014142,0.00002505,-0.00003291,-0.0
 0005065,-0.00000598,-0.00000831,-0.00009074,-0.00003680,0.00001718,0.0
 0001441,-0.00002015,-0.00000472,0.00000072,0.00002602,-0.00005010,0.00
 011444,-0.00007718,-0.00001424,-0.00001596,0.00002521,0.00016334,-0.00
 014116,-0.00000859,0.00000256,0.00001775,-0.00000905,-0.00000438,0.000
 00372,-0.00000150,0.00000033,-0.00001760,0.00000671,0.00003137,-0.0003
 6945,0.00050983,0.00021436,0.00018186,-0.00009829,0.00562639,0.0024988
 3,0.00109879,-0.00027452,-0.00005681,-0.00011221,-0.00013392,0.0003391
 1,-0.00021667,-0.00001166,0.00001499,-0.00003363,-0.00016946,-0.000044
 29,-0.00012608,0.00034952,-0.00006688,-0.00092630,-0.00185666,0.002989
 61,0.02297873,-0.02881757,-0.03260525,0.06692606,0.02991025,0.00002220
 ,-0.00011322,-0.00001872,-0.00002868,0.00012056,-0.00000154,-0.0000221
 0,0.00005051,0.00005953,0.00002379,-0.00013046,-0.00006252,0.00008637,
 0.00002321,0.00003161,-0.00007698,-0.00001341,-0.00000244,0.00000852,0
 .00014032,-0.00024226,-0.00166610,-0.00239245,-0.00076839,0.00009566,0
 .00007592,-0.00024196,0.00012621,-0.00009392,-0.00011708,0.00002370,0.
 00000323,0.00001438,-0.00015080,-0.00010301,-0.00002029,-0.00014906,-0
 .00028822,0.00021188,-0.00209035,-0.00020838,-0.00103829,-0.00003380,0
 .00003762,0.00004888,0.00005403,0.00007499,-0.00002664,-0.00009500,0.0
 0008601,0.00010980,0.00001155,0.00001480,-0.00002315,-0.00000405,-0.00
 002101,0.00004052,-0.00000923,-0.00001181,0.00003704,-0.00001509,-0.00
 004419,0.00003507,-0.00001897,-0.00003486,0.00008759,0.00001213,-0.000
 00508,0.00000882,0.00000081,-0.00000856,0.00000547,0.00000052,-0.00000
 526,0.00001494,-0.00036873,-0.00012138,0.00057635,0.00021344,0.0000681
 8,0.00006764,0.00357681,0.00035990,0.00126520,0.00015463,0.00021657,-0
 .00001529,0.00003801,0.00014184,-0.00000914,0.00002217,-0.00000492,0.0
 0000952,-0.00008702,0.00007927,-0.00010151,0.00025909,0.00018457,-0.00
 023156,-0.00105631,0.00136352,0.03587590,-0.02899457,-0.03673982,0.031
 31338,0.03042471,0.03775908,-0.00004805,0.00013268,0.00002669,-0.00006
 562,-0.00010767,-0.00004066,0.00009199,0.00013559,0.00003266,-0.000008
 15,0.00008378,0.00004974,-0.00006035,-0.00011074,-0.00003374,0.0001347
 8,-0.00000207,-0.00001612,-0.00011099,0.00011737,-0.00027021,-0.000956
 20,-0.00089243,0.00070081,0.00018307,-0.00004630,-0.00017218,-0.000073
 34,-0.00010392,-0.00005745,-0.00000785,-0.00002667,-0.00002366,0.00012
 486,-0.00002140,-0.00000372,0.00024835,0.00001713,0.00001990,-0.000441
 78,-0.00014855,0.00044924,0.00010585,-0.00002508,0.00005124,-0.0000162
 4,0.00001029,0.00003457,0.00001673,0.00006440,-0.00009282,-0.00000424,
 -0.00001340,0.00002225,0.00002212,-0.00003019,-0.00002691,-0.00008655,
 -0.00008604,0.00009310,-0.00002989,-0.00012939,0.00009524,-0.00004264,
 -0.00001587,-0.00014809,-0.00000585,-0.00000257,0.00000480,0.00000430,
 -0.00000114,0.00000516,-0.00000905,0.00000712,0.00000474,0.00024312,0.
 00026541,0.00030729,-0.00014647,-0.00003967,-0.00000698,0.00135549,0.0
 0027786,-0.00224801,-0.00010179,0.00006826,0.00001908,-0.00006648,0.00
 005575,-0.00000469,-0.00002181,0.00000926,-0.00000550,-0.00004427,-0.0
 0002145,0.00006227,-0.00022710,-0.00004781,-0.00019368,-0.00156005,-0.
 00416406,-0.00510584,0.08947107,0.07137035,-0.52853185,-0.08774779,-0.
 06650364,0.53496513,-0.00010970,-0.00021169,0.00006161,0.00030688,-0.0
 0018794,-0.00012759,0.00026676,0.00009727,-0.00004811,-0.00016399,-0.0
 0001735,0.00005573,0.00001863,0.00001137,-0.00002862,0.00005048,-0.000
 00759,-0.00002265,0.00014868,-0.00115835,-0.00020299,-0.00473768,0.004
 59259,-0.00633142,0.00060855,-0.00015290,0.00102020,-0.00017262,-0.000
 04908,0.00006239,0.00029652,0.00048335,-0.00030334,-0.00006312,-0.0000
 7520,0.00002482,0.00003112,-0.00003444,0.00004132,0.00007625,-0.000043
 86,0.00015390,0.00032940,-0.00000425,-0.00010542,0.00002234,-0.0000175
 0,0.00003846,-0.00000697,-0.00002609,-0.00003510,0.00000051,-0.0001642
 0,-0.00012065,-0.00000852,0.00005421,0.00006166,-0.00003684,-0.0002855
 7,-0.00001165,0.00008052,0.00029033,-0.00034297,0.00000652,0.00005781,
 0.00000117,0.00000512,-0.00000175,-0.00000005,-0.00001337,0.00000004,0
 .00000366,-0.00006555,0.00001316,0.00001216,-0.07691113,0.05296819,-0.
 06631709,0.00013555,0.00009119,-0.00000636,-0.00016281,-0.00002599,-0.
 00024404,0.00001493,0.00000138,-0.00001232,-0.00001729,0.00006457,-0.0
 0003167,0.00000333,0.00000201,-0.00000122,-0.00000734,-0.00000195,-0.0
 0001349,-0.00001758,0.00000810,-0.00001805,0.00009923,0.00040137,-0.00
 074843,0.00009573,-0.00005381,0.00054750,-0.00023672,-0.00028162,-0.00
 007458,0.07955790,-0.00014489,-0.00012990,0.00006618,0.00040440,-0.000
 05386,-0.00005873,-0.00031327,-0.00006572,0.00005840,0.00020089,-0.000
 00426,-0.00004286,-0.00003952,0.00001963,0.00000874,-0.00002446,0.0001
 0904,0.00005649,-0.00028382,-0.00235772,-0.00273523,-0.00920333,0.0131
 6658,-0.01948121,-0.00038898,0.00149681,-0.00087375,-0.00028228,0.0002
 6085,0.00018532,-0.00008655,0.00051826,-0.00114766,0.00006559,0.000038
 42,-0.00000639,0.00002079,0.00001617,-0.00001627,0.00004571,0.00003232
 ,0.00005715,-0.00001080,-0.00010592,0.00029584,0.00001600,-0.00000057,
 0.00004723,0.00003110,-0.00002189,0.00001108,-0.00007264,-0.00022460,-
 0.00027842,-0.00004690,0.00001409,-0.00004580,0.00007180,-0.00041062,0
 .00015864,0.00017215,0.00022890,-0.00037262,0.00002027,-0.00001582,-0.
 00001416,0.00000638,0.00001193,-0.00000115,-0.00001058,0.00000769,0.00
 000610,0.00001026,0.00016117,-0.00011469,0.05667228,-0.14952914,0.1251
 8850,-0.00011726,-0.00006981,-0.00000170,-0.00006045,-0.00002733,-0.00
 008279,0.00000283,-0.00000287,-0.00001083,-0.00000137,-0.00002325,0.00
 001249,-0.00000728,0.00000234,-0.00000342,-0.00000613,-0.00000279,0.00
 000547,-0.00002730,-0.00000653,0.00000828,-0.00010618,0.00028004,-0.00
 015602,0.00022896,0.00000277,0.00014277,-0.00008238,0.00001708,0.00003
 570,-0.05729556,0.15586503,-0.00006697,-0.00001522,0.00012751,0.000756
 32,-0.00026896,0.00006905,-0.00024538,-0.00001011,0.00009595,0.0000012
 6,-0.00007422,-0.00000876,-0.00003146,0.00007654,-0.00001860,-0.000055
 75,0.00004178,0.00006270,0.00007994,-0.00467244,-0.00247543,-0.0114751
 6,0.01448106,-0.02426072,-0.00067180,0.00168360,0.00057443,-0.00021539
 ,-0.00000804,0.00011307,-0.00053358,0.00088013,-0.00101189,-0.00002931
 ,-0.00002798,0.00001051,0.00000450,-0.00001556,0.00001559,0.00001511,-
 0.00004334,0.00008664,0.00028991,-0.00075596,-0.00013109,0.00004518,-0
 .00001910,0.00007947,0.00005396,-0.00002743,0.00001778,-0.00001135,-0.
 00033795,-0.00029598,0.00002705,-0.00014525,-0.00015629,0.00024199,0.0
 0007081,-0.00012301,0.00008179,-0.00014765,0.00033404,0.00002307,0.000
 03395,-0.00002484,0.00000597,0.00000069,-0.00000585,-0.00001540,0.0000
 0769,-0.00000427,0.00006096,-0.00000681,-0.00006141,-0.06459843,0.1161
 3606,-0.18994335,0.00004341,0.00003904,-0.00000636,-0.00008378,-0.0000
 0622,-0.00011581,0.00000670,0.00001634,-0.00001080,-0.00000396,0.00002
 399,-0.00001147,0.00000393,0.00000038,-0.00000045,-0.00000160,0.000001
 64,-0.00000420,0.00000216,0.00000454,-0.00000959,0.00006923,0.00062330
 ,-0.00052025,0.00001952,-0.00041799,0.00028888,-0.00019056,-0.00008848
 ,0.00004433,0.07519847,-0.12481318,0.21270460,-0.00040740,0.00053394,-
 0.00047398,-0.00069105,-0.00038007,-0.00088355,0.00077981,0.00001948,-
 0.00017247,-0.00042317,0.00024719,0.00015142,-0.00004632,-0.00026243,0
 .00000664,0.00028040,-0.00002346,-0.00019991,0.00013869,0.00059897,-0.
 00018675,0.01049541,-0.00607927,-0.00308764,0.00023098,-0.00076401,-0.
 00114038,0.00049001,-0.00013443,-0.00048273,-0.00003296,-0.00008686,0.
 00026033,-0.00002995,-0.00004576,-0.00000204,0.00002842,-0.00002759,-0
 .00000738,0.00006550,-0.00001556,0.00001143,-0.00005384,-0.00010574,-0
 .00000623,-0.00004183,-0.00007227,-0.00010246,0.00005902,0.00001114,0.
 00008725,-0.00000049,0.00000625,0.00004941,0.00002023,0.00001716,0.000
 00706,0.00047049,-0.00005361,-0.00035846,-0.00022957,-0.00003799,-0.00
 013049,-0.00003048,0.00004076,-0.00001047,-0.00000526,-0.00000675,0.00
 000440,0.00002612,-0.00002090,0.00003739,-0.00007507,-0.00014730,0.000
 19598,-0.23409737,0.10673988,0.07153508,0.00008239,0.00006359,-0.00001
 034,-0.00006015,-0.00000760,-0.00005134,-0.00001574,-0.00001092,0.0000
 0390,-0.00001225,0.00003787,-0.00000976,-0.00000036,0.00000221,0.00000
 484,-0.00000388,0.00000012,0.,-0.00003449,0.00001101,0.00001654,-0.000
 06092,-0.00008728,0.00011670,0.00015898,0.00019168,-0.00001713,-0.0000
 2047,0.00004189,0.00003014,-0.00747638,0.00269533,0.00367211,0.2467022
 1,0.00024256,0.00013162,0.00035719,0.00016748,0.00031378,0.00025450,-0
 .00017455,-0.00001341,0.00004576,-0.00010863,-0.00004658,0.00000727,-0
 .00000504,0.00005935,-0.00002881,-0.00001113,-0.00005470,0.00002473,0.
 00036417,0.00007277,0.00076278,0.01640867,-0.01389196,-0.00734939,-0.0
 0277116,-0.00018569,-0.00317811,0.00126154,-0.00022093,-0.00043725,0.0
 0007246,-0.00015939,0.00010269,-0.00000280,-0.00001625,0.00003004,0.00
 000658,0.00001249,0.00004674,-0.00003720,-0.00000156,0.00009127,-0.000
 17898,0.00030834,0.00013372,-0.00019586,-0.00017968,-0.00039591,0.0000
 0336,-0.00003630,-0.00000130,-0.00002393,0.00004454,-0.00002060,-0.000
 03417,0.00002426,-0.00002363,0.00037403,0.00007207,-0.00014826,-0.0002
 1890,0.00002738,-0.00020292,-0.00000557,-0.00002447,-0.00003260,-0.000
 00917,-0.00000480,-0.00000406,0.00000685,0.00000669,-0.00000658,-0.000
 08819,-0.00006497,0.00009897,0.10111337,-0.10627693,-0.03955337,0.0000
 1637,0.00001608,-0.00002165,-0.00002235,-0.00002364,-0.00010907,0.0000
 2999,0.00001371,-0.00001282,-0.00001122,0.00000875,-0.00002174,-0.0000
 0033,0.00000318,-0.00000648,-0.00000520,-0.00000320,-0.00000888,0.0000
 2730,-0.00001098,-0.00003614,0.00088633,0.00033628,-0.00051750,-0.0005
 0089,-0.00006535,0.00039663,0.00002570,-0.00031136,-0.00003023,0.01482
 860,-0.00804417,-0.00671665,-0.11407539,0.11723780,-0.00051749,0.00037
 172,-0.00041518,-0.00017325,0.00018973,-0.00082849,-0.00047762,-0.0001
 9985,0.00005500,0.00030971,0.00006458,-0.00005199,-0.00004057,-0.00002
 677,-0.00000977,0.00000407,0.00016391,0.00006273,0.00146721,-0.0004783
 2,0.00097203,0.02337102,-0.01702183,-0.01132844,-0.00327581,-0.0008547
 5,-0.00391312,0.00118611,-0.00099963,-0.00036884,0.00009401,-0.0002390
 6,0.00020259,0.00015103,0.00013133,-0.00001845,-0.00002218,0.00006598,
 -0.00002825,-0.00008326,0.00008429,-0.00002507,0.00008142,-0.00031984,
 0.00016388,-0.00019248,-0.00018165,-0.00036018,-0.00004339,-0.00006236
 ,-0.00018407,-0.00001137,0.00005198,0.00002969,-0.00005886,0.00001845,
 -0.00003094,-0.00018150,0.00020095,0.00000675,0.00000377,0.00019077,-0
 .00015969,0.00006521,-0.00008033,-0.00001723,0.00000178,0.00001176,0.0
 0000539,-0.00000125,0.00000336,0.00001610,0.00008478,0.00010660,-0.000
 09183,0.06506146,-0.03742255,-0.07320065,-0.00029433,-0.00017813,-0.00
 000795,0.00009540,-0.00001889,0.00008726,0.00002300,0.00001198,-0.0000
 1042,0.00001676,-0.00010119,0.00004107,-0.00001102,0.00000146,-0.00000
 843,-0.00000153,-0.00000108,0.00001029,0.00002566,-0.00002312,-0.00000
 234,0.00038962,0.00040389,-0.00013899,-0.00029455,-0.00027341,0.000034
 14,-0.00000348,0.00000767,0.00003485,-0.01933375,0.01032401,0.00905482
 ,-0.07410193,0.04947208,0.08265389,-0.00039666,-0.00049327,0.00008215,
 0.00005763,0.00015829,-0.00002044,-0.00010734,-0.00010025,0.00000575,0
 .00020044,0.00004583,-0.00000334,-0.00000510,-0.00000480,-0.00000551,0
 .00007101,0.00010524,0.00004480,0.00050664,-0.00094220,0.00182631,-0.0
 0729246,-0.00993803,-0.00571060,0.00198013,0.00219955,-0.00004300,0.00
 012966,0.00020569,0.00014628,0.00033761,0.00023420,-0.00007891,-0.0000
 0588,0.00004969,-0.00001703,-0.00007293,0.00001952,-0.00000858,-0.0001
 4710,-0.00001546,-0.00013168,-0.00003488,-0.00010286,0.00003035,-0.000
 01884,-0.00003097,-0.00005919,-0.00004155,0.00005498,0.00010767,0.0000
 0924,-0.00002621,-0.00010087,-0.00002862,0.00017709,0.00011422,0.00059
 216,-0.00103403,-0.00052123,-0.00022668,0.00068285,-0.00117177,0.00006
 545,-0.00001194,0.00002751,0.00002011,0.00001380,0.00000100,-0.0000285
 5,-0.00000243,0.00000872,-0.00003183,0.00022587,-0.00019398,-0.1730644
 5,-0.11315521,0.04531959,-0.00002912,-0.00003372,0.00001159,0.00019464
 ,0.00007530,0.00021268,0.00000772,0.00001659,0.00002042,0.00002640,-0.
 00004817,0.00002054,0.00000772,-0.00000752,0.00000344,0.00001373,0.000
 00648,0.00000147,0.00007487,0.00000004,-0.00000739,0.00098088,0.001490
 20,-0.00080133,-0.00058898,-0.00090402,0.00039993,-0.00011226,-0.00004
 779,-0.00007475,0.00805266,0.00794717,-0.00247265,-0.01617925,-0.01735
 471,0.00668762,0.18508378,-0.00005270,-0.00006459,-0.00001967,0.000215
 47,-0.00010410,-0.00009236,-0.00000971,-0.00009681,0.00001044,-0.00002
 652,0.00000009,-0.00002402,-0.00000739,0.00005141,0.00001242,-0.000066
 10,0.00003912,0.00001817,0.00195481,0.00073273,0.00166808,-0.01720766,
 -0.02068512,-0.00631924,-0.00355065,0.00097513,0.00161727,0.00041606,0
 .00036715,-0.00006329,0.00037474,0.00026670,0.00018033,-0.00004239,0.0
 0002014,0.00000139,-0.00008074,0.00001629,0.00001459,-0.00018864,-0.00
 004550,-0.00014988,0.00015680,-0.00005917,0.00007050,0.00000529,0.0000
 0417,-0.00016375,0.00014457,0.00010485,0.00020453,0.00002059,-0.000036
 75,-0.00009024,0.00002266,0.00008128,0.00014954,0.00140700,-0.00002538
 ,-0.00054356,-0.00025687,0.00089625,-0.00137895,0.00006040,-0.00001174
 ,0.00002329,0.00000440,0.00000347,0.00000070,-0.00001003,0.00000584,-0
 .00000070,-0.00000824,0.00001867,-0.00001636,-0.11202615,-0.15320012,0
 .04159915,0.00004235,0.00001439,-0.00001166,0.00023969,0.00009909,0.00
 024733,0.00000331,0.00002156,0.00002294,0.00002160,-0.00003313,0.00000
 368,0.00001096,-0.00000632,0.00000332,0.00001527,0.00000677,-0.0000025
 5,0.00009869,-0.00000096,-0.00002389,0.00138178,0.00180165,-0.00132730
 ,-0.00090375,-0.00115987,0.00068587,-0.00002200,-0.00016584,-0.0000806
 6,-0.01386883,-0.01115237,0.00449698,0.01118674,0.01094723,-0.00339372
 ,0.13054520,0.17037378,0.00001936,0.00003055,0.00002791,0.00015225,0.0
 0043293,-0.00027562,-0.00004531,-0.00008929,-0.00002466,0.00008875,-0.
 00001001,0.00000634,-0.00001693,0.00007244,-0.00001248,-0.00005837,0.0
 0000518,-0.00000129,-0.00175040,-0.00458973,0.00400029,-0.02273969,-0.
 02511488,-0.00158793,-0.00394580,0.00037473,0.00158375,0.00014459,0.00
 027799,0.00010406,0.00034088,0.00019846,0.00003024,0.00003011,0.000011
 13,0.00001250,0.00000480,0.00001238,0.00002013,-0.00001755,0.00000258,
 0.00002637,0.00039499,0.00000984,-0.00025187,0.00002956,0.00006544,-0.
 00004694,0.00002505,0.00008792,0.00004049,0.00008766,0.00003380,-0.000
 07132,0.00006436,0.00010375,0.00008493,0.00092336,0.00118044,0.0002012
 8,0.00140110,0.00124437,0.00034633,0.00003036,-0.00002004,-0.00000900,
 -0.00000207,0.00000315,0.00000217,0.00000500,0.00000621,0.00000413,-0.
 00003516,0.00002181,0.00002724,0.04615490,0.04270572,-0.06583347,-0.00
 003796,-0.00003385,-0.00000715,0.00000530,0.00000324,-0.00003329,0.000
 00453,0.00000300,-0.00000488,-0.00000426,-0.00000703,-0.00000718,-0.00
 000434,0.00000351,-0.00000495,-0.00000535,-0.00000295,-0.00000510,0.00
 001144,-0.00000583,-0.00001606,0.00070086,0.00067962,-0.00137535,-0.00
 052573,-0.00068759,0.00074090,-0.00022381,-0.00030832,-0.00004100,0.01
 719850,0.01358846,-0.00447891,0.00524481,0.00703958,-0.00223016,-0.043
 64980,-0.03732872,0.06905955\\0.00000042,-0.00000053,0.00000107,-0.000
 00314,-0.00000549,0.00000497,0.00000483,-0.00000621,-0.00000107,-0.000
 00538,0.00000239,0.00000291,0.00000146,-0.00000067,-0.00000162,-0.0000
 0256,-0.00000177,-0.00000110,0.00002738,0.00000755,0.00000449,-0.00005
 506,-0.00004863,0.00000211,-0.00000140,0.00002082,0.00000362,0.0000015
 6,-0.00000262,-0.00000554,0.00000504,-0.00000140,0.00000546,-0.0000015
 7,-0.00000483,0.00000038,0.00000556,0.00000045,-0.00000121,-0.00000062
 ,-0.00000137,-0.00000198,-0.00000184,0.00000043,0.00000106,-0.00000229
 ,0.00000067,-0.00000294,0.00000307,0.00000097,0.00000596,-0.00000172,0
 .00000341,0.00000176,0.00000267,-0.00000161,-0.00000361,0.00000092,0.0
 0000890,0.00000384,0.00000353,0.00000209,0.00000089,-0.00000244,0.0000
 0175,0.00000250,-0.00000067,-0.00000043,-0.00000034,-0.00000088,0.0000
 0015,-0.00000008,-0.00000055,-0.00000077,0.00000027,0.00000937,0.00002
 316,-0.00002572,-0.00000163,0.00000204,-0.00000089,0.00000079,0.000003
 89,0.00000150,0.00000082,-0.00000009,0.00000049,0.00000203,0.00000108,
 -0.00000094,0.00000059,0.00000052,-0.00000034,0.00000071,-0.00000180,-
 0.00000092,-0.00000412,-0.00000057,0.00000267,0.00000551,0.00000558,-0
 .00001619,0.00000370,0.00000636,0.00000749,-0.00000038,-0.00000319,0.0
 0000398,0.00000859,-0.00001632,0.00001548,-0.00000804,0.00000717,-0.00
 000355,0.00000572,-0.00000107,-0.00000484\\\@


 ERWIN WITH HIS PSI CAN DO
 CALCULATIONS QUITE A FEW.
 BUT ONE THING HAS NOT BEEN SEEN
 JUST WHAT DOES PSI REALLY MEAN.
 -- WALTER HUCKEL, TRANS. BY FELIX BLOCH
 Job cpu time:       1 days 11 hours 37 minutes 45.8 seconds.
 Elapsed time:       0 days  1 hours 16 minutes 29.1 seconds.
 File lengths (MBytes):  RWF=   1232 Int=      0 D2E=      0 Chk=     28 Scr=      8
 Normal termination of Gaussian 16 at Thu Aug 27 14:26:09 2020.
