 Entering Gaussian System, Link 0=g16
 Input=NicPySs4hYai_2.gjf
 Output=NicPySs4hYai_2.log
 Initial command:
 /sw/contrib/gaussian/g16/A03/g16/l1.exe "/gscratch/scrubbed/gds001/Gau-10624.inp" -scrdir="/gscratch/scrubbed/gds001/"
 Entering Link 1 = /sw/contrib/gaussian/g16/A03/g16/l1.exe PID=     10625.
  
 Copyright (c) 1988,1990,1992,1993,1995,1998,2003,2009,2016,
            Gaussian, Inc.  All Rights Reserved.
  
 This is part of the Gaussian(R) 16 program.  It is based on
 the Gaussian(R) 09 system (copyright 2009, Gaussian, Inc.),
 the Gaussian(R) 03 system (copyright 2003, Gaussian, Inc.),
 the Gaussian(R) 98 system (copyright 1998, Gaussian, Inc.),
 the Gaussian(R) 94 system (copyright 1995, Gaussian, Inc.),
 the Gaussian 92(TM) system (copyright 1992, Gaussian, Inc.),
 the Gaussian 90(TM) system (copyright 1990, Gaussian, Inc.),
 the Gaussian 88(TM) system (copyright 1988, Gaussian, Inc.),
 the Gaussian 86(TM) system (copyright 1986, Carnegie Mellon
 University), and the Gaussian 82(TM) system (copyright 1983,
 Carnegie Mellon University). Gaussian is a federally registered
 trademark of Gaussian, Inc.
  
 This software contains proprietary and confidential information,
 including trade secrets, belonging to Gaussian, Inc.
  
 This software is provided under written license and may be
 used, copied, transmitted, or stored only in accord with that
 written license.
  
 The following legend is applicable only to US Government
 contracts under FAR:
  
                    RESTRICTED RIGHTS LEGEND
  
 Use, reproduction and disclosure by the US Government is
 subject to restrictions as set forth in subparagraphs (a)
 and (c) of the Commercial Computer Software - Restricted
 Rights clause in FAR 52.227-19.
  
 Gaussian, Inc.
 340 Quinnipiac St., Bldg. 40, Wallingford CT 06492
  
  
 ---------------------------------------------------------------
 Warning -- This program may not be used in any manner that
 competes with the business of Gaussian, Inc. or will provide
 assistance to any competitor of Gaussian, Inc.  The licensee
 of this program is prohibited from giving any competitor of
 Gaussian, Inc. access to this program.  By using this program,
 the user acknowledges that Gaussian, Inc. is engaged in the
 business of creating and licensing software in the field of
 computational chemistry and represents and warrants to the
 licensee that it is not a competitor of Gaussian, Inc. and that
 it will not use this program in any manner prohibited above.
 ---------------------------------------------------------------
  

 Cite this work as:
 Gaussian 16, Revision A.03,
 M. J. Frisch, G. W. Trucks, H. B. Schlegel, G. E. Scuseria, 
 M. A. Robb, J. R. Cheeseman, G. Scalmani, V. Barone, 
 G. A. Petersson, H. Nakatsuji, X. Li, M. Caricato, A. V. Marenich, 
 J. Bloino, B. G. Janesko, R. Gomperts, B. Mennucci, H. P. Hratchian, 
 J. V. Ortiz, A. F. Izmaylov, J. L. Sonnenberg, D. Williams-Young, 
 F. Ding, F. Lipparini, F. Egidi, J. Goings, B. Peng, A. Petrone, 
 T. Henderson, D. Ranasinghe, V. G. Zakrzewski, J. Gao, N. Rega, 
 G. Zheng, W. Liang, M. Hada, M. Ehara, K. Toyota, R. Fukuda, 
 J. Hasegawa, M. Ishida, T. Nakajima, Y. Honda, O. Kitao, H. Nakai, 
 T. Vreven, K. Throssell, J. A. Montgomery, Jr., J. E. Peralta, 
 F. Ogliaro, M. J. Bearpark, J. J. Heyd, E. N. Brothers, K. N. Kudin, 
 V. N. Staroverov, T. A. Keith, R. Kobayashi, J. Normand, 
 K. Raghavachari, A. P. Rendell, J. C. Burant, S. S. Iyengar, 
 J. Tomasi, M. Cossi, J. M. Millam, M. Klene, C. Adamo, R. Cammi, 
 J. W. Ochterski, R. L. Martin, K. Morokuma, O. Farkas, 
 J. B. Foresman, and D. J. Fox, Gaussian, Inc., Wallingford CT, 2016.
 
 ******************************************
 Gaussian 16:  ES64L-G16RevA.03 25-Dec-2016
                30-Jan-2023 
 ******************************************
 %nprocshared=28
 Will use up to   28 processors via shared memory.
 %mem=41GB
 -----------------------------
 # wB97XD/aug-cc-pVDZ opt freq
 -----------------------------
 1/18=20,19=15,26=3,38=1/1,3;
 2/9=110,12=2,17=6,18=5,40=1/2;
 3/5=16,7=10,11=2,25=1,30=1,71=1,74=-58/1,2,3;
 4//1;
 5/5=2,38=5/2;
 6/7=2,8=2,9=2,10=2,28=1/1;
 7//1,2,3,16;
 1/18=20,19=15,26=3/3(2);
 2/9=110/2;
 99//99;
 2/9=110/2;
 3/5=16,7=10,11=2,25=1,30=1,71=1,74=-58/1,2,3;
 4/5=5,16=3,69=1/1;
 5/5=2,38=5/2;
 7//1,2,3,16;
 1/18=20,19=15,26=3/3(-5);
 2/9=110/2;
 6/7=2,8=2,9=2,10=2,19=2,28=1/1;
 99/9=1/99;
 ----
 blah
 ----
 Symbolic Z-matrix:
 Charge =  1 Multiplicity = 1
 C                    -1.99835  -2.33478  -0.60644 
 C                    -1.93859  -1.01505  -0.14789 
 C                    -0.738    -0.58399   0.39922 
 N                     0.31719  -1.40873   0.47253 
 C                     0.28075  -2.67367   0.02978 
 C                    -0.88612  -3.17038  -0.52349 
 C                    -3.11465  -0.06981  -0.27449 
 N                    -3.0155    1.03561   0.67015 
 C                    -3.63433   2.19874   0.0412 
 C                    -3.13958   2.10685  -1.39571 
 C                    -3.20144   0.59605  -1.68073 
 O                     2.60852  -0.60656   1.47135 
 O                     4.35771   0.53907  -0.07485 
 H                    -3.32539   3.11661   0.55609 
 H                    -3.74912   2.68874  -2.09481 
 H                    -2.1066    2.47177  -1.45648 
 H                    -4.15362   0.32692  -2.15195 
 H                    -2.3996    0.2613   -2.34858 
 H                    -4.74101   2.14128   0.07823 
 H                    -4.03247  -0.66482  -0.09886 
 H                    -0.61675   0.4239    0.78899 
 H                     1.19556  -3.25097   0.1389 
 H                    -0.92176  -4.19774  -0.87819 
 H                    -2.92805  -2.71384  -1.0326 
 C                    -3.52087   0.72721   1.99457 
 H                     1.22033  -1.05201   0.89833 
 H                     2.87267  -0.53288   2.38982 
 H                     3.30407  -0.15533   0.91823 
 H                     5.19659   0.10683  -0.30502 
 H                     4.52188   1.49675  -0.06726 
 O                     4.71728   3.31406  -0.0519 
 H                     4.74698   3.82839  -0.8629 
 H                     5.26182   3.79195   0.57912 
 H                    -2.97018  -0.12048   2.42485 
 H                    -4.59789   0.46888   1.98398 
 H                    -3.37843   1.59141   2.65419 
 O                     6.72941  -0.78016  -0.75453 
 H                     7.0346   -0.91821  -1.65478 
 H                     7.49822  -0.91489  -0.19475 
 
 Add virtual bond connecting atoms H26        and O12        Dist= 2.96D+00.
 Add virtual bond connecting atoms H28        and O13        Dist= 3.03D+00.
 Add virtual bond connecting atoms O37        and H29        Dist= 3.45D+00.
 Add virtual bond connecting atoms O31        and H30        Dist= 3.45D+00.

 GradGradGradGradGradGradGradGradGradGradGradGradGradGradGradGradGradGrad
 Berny optimization.
 Initialization pass.
                           ----------------------------
                           !    Initial Parameters    !
                           ! (Angstroms and Degrees)  !
 --------------------------                            --------------------------
 ! Name  Definition              Value          Derivative Info.                !
 --------------------------------------------------------------------------------
 ! R1    R(1,2)                  1.3984         estimate D2E/DX2                !
 ! R2    R(1,6)                  1.3936         estimate D2E/DX2                !
 ! R3    R(1,24)                 1.0907         estimate D2E/DX2                !
 ! R4    R(2,3)                  1.388          estimate D2E/DX2                !
 ! R5    R(2,7)                  1.5141         estimate D2E/DX2                !
 ! R6    R(3,4)                  1.3413         estimate D2E/DX2                !
 ! R7    R(3,21)                 1.0874         estimate D2E/DX2                !
 ! R8    R(4,5)                  1.3407         estimate D2E/DX2                !
 ! R9    R(4,26)                 1.0603         estimate D2E/DX2                !
 ! R10   R(5,6)                  1.3836         estimate D2E/DX2                !
 ! R11   R(5,22)                 1.0872         estimate D2E/DX2                !
 ! R12   R(6,23)                 1.0874         estimate D2E/DX2                !
 ! R13   R(7,8)                  1.4574         estimate D2E/DX2                !
 ! R14   R(7,11)                 1.5583         estimate D2E/DX2                !
 ! R15   R(7,20)                 1.1078         estimate D2E/DX2                !
 ! R16   R(8,9)                  1.4599         estimate D2E/DX2                !
 ! R17   R(8,25)                 1.4507         estimate D2E/DX2                !
 ! R18   R(9,10)                 1.5225         estimate D2E/DX2                !
 ! R19   R(9,14)                 1.0968         estimate D2E/DX2                !
 ! R20   R(9,19)                 1.1088         estimate D2E/DX2                !
 ! R21   R(10,11)                1.5387         estimate D2E/DX2                !
 ! R22   R(10,15)                1.0949         estimate D2E/DX2                !
 ! R23   R(10,16)                1.0972         estimate D2E/DX2                !
 ! R24   R(11,17)                1.096          estimate D2E/DX2                !
 ! R25   R(11,18)                1.0959         estimate D2E/DX2                !
 ! R26   R(12,26)                1.5665         estimate D2E/DX2                !
 ! R27   R(12,27)                0.9585         estimate D2E/DX2                !
 ! R28   R(12,28)                0.9967         estimate D2E/DX2                !
 ! R29   R(13,28)                1.6058         estimate D2E/DX2                !
 ! R30   R(13,29)                0.9714         estimate D2E/DX2                !
 ! R31   R(13,30)                0.9717         estimate D2E/DX2                !
 ! R32   R(25,34)                1.0986         estimate D2E/DX2                !
 ! R33   R(25,35)                1.1076         estimate D2E/DX2                !
 ! R34   R(25,36)                1.0965         estimate D2E/DX2                !
 ! R35   R(29,37)                1.8271         estimate D2E/DX2                !
 ! R36   R(30,31)                1.8279         estimate D2E/DX2                !
 ! R37   R(31,32)                0.9608         estimate D2E/DX2                !
 ! R38   R(31,33)                0.9608         estimate D2E/DX2                !
 ! R39   R(37,38)                0.9605         estimate D2E/DX2                !
 ! R40   R(37,39)                0.9605         estimate D2E/DX2                !
 ! A1    A(2,1,6)              120.8134         estimate D2E/DX2                !
 ! A2    A(2,1,24)             119.5069         estimate D2E/DX2                !
 ! A3    A(6,1,24)             119.6797         estimate D2E/DX2                !
 ! A4    A(1,2,3)              117.3424         estimate D2E/DX2                !
 ! A5    A(1,2,7)              121.9073         estimate D2E/DX2                !
 ! A6    A(3,2,7)              120.7252         estimate D2E/DX2                !
 ! A7    A(2,3,4)              120.7349         estimate D2E/DX2                !
 ! A8    A(2,3,21)             121.7074         estimate D2E/DX2                !
 ! A9    A(4,3,21)             117.5562         estimate D2E/DX2                !
 ! A10   A(3,4,5)              122.733          estimate D2E/DX2                !
 ! A11   A(3,4,26)             119.025          estimate D2E/DX2                !
 ! A12   A(5,4,26)             118.242          estimate D2E/DX2                !
 ! A13   A(4,5,6)              119.5833         estimate D2E/DX2                !
 ! A14   A(4,5,22)             116.4218         estimate D2E/DX2                !
 ! A15   A(6,5,22)             123.9944         estimate D2E/DX2                !
 ! A16   A(1,6,5)              118.7903         estimate D2E/DX2                !
 ! A17   A(1,6,23)             121.3926         estimate D2E/DX2                !
 ! A18   A(5,6,23)             119.8163         estimate D2E/DX2                !
 ! A19   A(2,7,8)              111.4974         estimate D2E/DX2                !
 ! A20   A(2,7,11)             112.6721         estimate D2E/DX2                !
 ! A21   A(2,7,20)             107.1547         estimate D2E/DX2                !
 ! A22   A(8,7,11)             105.3429         estimate D2E/DX2                !
 ! A23   A(8,7,20)             111.16           estimate D2E/DX2                !
 ! A24   A(11,7,20)            109.0514         estimate D2E/DX2                !
 ! A25   A(7,8,9)              107.2301         estimate D2E/DX2                !
 ! A26   A(7,8,25)             114.0032         estimate D2E/DX2                !
 ! A27   A(9,8,25)             114.5196         estimate D2E/DX2                !
 ! A28   A(8,9,10)             102.7537         estimate D2E/DX2                !
 ! A29   A(8,9,14)             110.1868         estimate D2E/DX2                !
 ! A30   A(8,9,19)             111.5546         estimate D2E/DX2                !
 ! A31   A(10,9,14)            113.7051         estimate D2E/DX2                !
 ! A32   A(10,9,19)            110.655          estimate D2E/DX2                !
 ! A33   A(14,9,19)            107.9887         estimate D2E/DX2                !
 ! A34   A(9,10,11)            102.7693         estimate D2E/DX2                !
 ! A35   A(9,10,15)            112.931          estimate D2E/DX2                !
 ! A36   A(9,10,16)            109.7635         estimate D2E/DX2                !
 ! A37   A(11,10,15)           112.405          estimate D2E/DX2                !
 ! A38   A(11,10,16)           110.7408         estimate D2E/DX2                !
 ! A39   A(15,10,16)           108.1789         estimate D2E/DX2                !
 ! A40   A(7,11,10)            104.4863         estimate D2E/DX2                !
 ! A41   A(7,11,17)            109.3574         estimate D2E/DX2                !
 ! A42   A(7,11,18)            112.2506         estimate D2E/DX2                !
 ! A43   A(10,11,17)           110.8352         estimate D2E/DX2                !
 ! A44   A(10,11,18)           112.5435         estimate D2E/DX2                !
 ! A45   A(17,11,18)           107.3762         estimate D2E/DX2                !
 ! A46   A(26,12,27)           128.067          estimate D2E/DX2                !
 ! A47   A(26,12,28)           122.969          estimate D2E/DX2                !
 ! A48   A(27,12,28)           107.7373         estimate D2E/DX2                !
 ! A49   A(28,13,29)           121.3849         estimate D2E/DX2                !
 ! A50   A(28,13,30)           122.1565         estimate D2E/DX2                !
 ! A51   A(29,13,30)           107.128          estimate D2E/DX2                !
 ! A52   A(8,25,34)            110.3021         estimate D2E/DX2                !
 ! A53   A(8,25,35)            112.3081         estimate D2E/DX2                !
 ! A54   A(8,25,36)            109.6581         estimate D2E/DX2                !
 ! A55   A(34,25,35)           108.131          estimate D2E/DX2                !
 ! A56   A(34,25,36)           107.9034         estimate D2E/DX2                !
 ! A57   A(35,25,36)           108.415          estimate D2E/DX2                !
 ! A58   A(30,31,32)           121.9005         estimate D2E/DX2                !
 ! A59   A(30,31,33)           124.1002         estimate D2E/DX2                !
 ! A60   A(32,31,33)           105.6992         estimate D2E/DX2                !
 ! A61   A(29,37,38)           124.5345         estimate D2E/DX2                !
 ! A62   A(29,37,39)           126.5987         estimate D2E/DX2                !
 ! A63   A(38,37,39)           105.7676         estimate D2E/DX2                !
 ! A64   L(4,26,12,22,-1)      176.162          estimate D2E/DX2                !
 ! A65   L(12,28,13,10,-1)     176.9405         estimate D2E/DX2                !
 ! A66   L(13,29,37,22,-1)     177.2831         estimate D2E/DX2                !
 ! A67   L(13,30,31,7,-1)      176.4115         estimate D2E/DX2                !
 ! A68   L(4,26,12,22,-2)      178.3345         estimate D2E/DX2                !
 ! A69   L(12,28,13,10,-2)     183.4442         estimate D2E/DX2                !
 ! A70   L(13,29,37,22,-2)     179.4399         estimate D2E/DX2                !
 ! A71   L(13,30,31,7,-2)      179.8677         estimate D2E/DX2                !
 ! D1    D(6,1,2,3)             -0.5899         estimate D2E/DX2                !
 ! D2    D(6,1,2,7)            177.5974         estimate D2E/DX2                !
 ! D3    D(24,1,2,3)           179.3155         estimate D2E/DX2                !
 ! D4    D(24,1,2,7)            -2.4973         estimate D2E/DX2                !
 ! D5    D(2,1,6,5)              0.3968         estimate D2E/DX2                !
 ! D6    D(2,1,6,23)          -179.9289         estimate D2E/DX2                !
 ! D7    D(24,1,6,5)          -179.5084         estimate D2E/DX2                !
 ! D8    D(24,1,6,23)            0.1659         estimate D2E/DX2                !
 ! D9    D(1,2,3,4)              0.345          estimate D2E/DX2                !
 ! D10   D(1,2,3,21)          -179.2081         estimate D2E/DX2                !
 ! D11   D(7,2,3,4)           -177.8649         estimate D2E/DX2                !
 ! D12   D(7,2,3,21)             2.582          estimate D2E/DX2                !
 ! D13   D(1,2,7,8)            159.0322         estimate D2E/DX2                !
 ! D14   D(1,2,7,11)           -82.7567         estimate D2E/DX2                !
 ! D15   D(1,2,7,20)            37.1885         estimate D2E/DX2                !
 ! D16   D(3,2,7,8)            -22.8411         estimate D2E/DX2                !
 ! D17   D(3,2,7,11)            95.3701         estimate D2E/DX2                !
 ! D18   D(3,2,7,20)          -144.6847         estimate D2E/DX2                !
 ! D19   D(2,3,4,5)              0.1041         estimate D2E/DX2                !
 ! D20   D(2,3,4,26)          -179.8189         estimate D2E/DX2                !
 ! D21   D(21,3,4,5)           179.6752         estimate D2E/DX2                !
 ! D22   D(21,3,4,26)           -0.2477         estimate D2E/DX2                !
 ! D23   D(3,4,5,6)             -0.3123         estimate D2E/DX2                !
 ! D24   D(3,4,5,22)           179.9298         estimate D2E/DX2                !
 ! D25   D(26,4,5,6)           179.6112         estimate D2E/DX2                !
 ! D26   D(26,4,5,22)           -0.1466         estimate D2E/DX2                !
 ! D27   D(3,4,12,27)           80.9353         estimate D2E/DX2                !
 ! D28   D(3,4,12,28)          -86.9512         estimate D2E/DX2                !
 ! D29   D(5,4,12,27)          -99.9909         estimate D2E/DX2                !
 ! D30   D(5,4,12,28)           92.1227         estimate D2E/DX2                !
 ! D31   D(4,5,6,1)              0.0575         estimate D2E/DX2                !
 ! D32   D(4,5,6,23)          -179.6221         estimate D2E/DX2                !
 ! D33   D(22,5,6,1)           179.7959         estimate D2E/DX2                !
 ! D34   D(22,5,6,23)            0.1164         estimate D2E/DX2                !
 ! D35   D(2,7,8,9)            148.0515         estimate D2E/DX2                !
 ! D36   D(2,7,8,25)           -84.0885         estimate D2E/DX2                !
 ! D37   D(11,7,8,9)            25.5276         estimate D2E/DX2                !
 ! D38   D(11,7,8,25)          153.3876         estimate D2E/DX2                !
 ! D39   D(20,7,8,9)           -92.4517         estimate D2E/DX2                !
 ! D40   D(20,7,8,25)           35.4083         estimate D2E/DX2                !
 ! D41   D(2,7,11,10)         -121.7281         estimate D2E/DX2                !
 ! D42   D(2,7,11,17)          119.5774         estimate D2E/DX2                !
 ! D43   D(2,7,11,18)            0.5164         estimate D2E/DX2                !
 ! D44   D(8,7,11,10)            0.0373         estimate D2E/DX2                !
 ! D45   D(8,7,11,17)         -118.6573         estimate D2E/DX2                !
 ! D46   D(8,7,11,18)          122.2818         estimate D2E/DX2                !
 ! D47   D(20,7,11,10)         119.4275         estimate D2E/DX2                !
 ! D48   D(20,7,11,17)           0.7329         estimate D2E/DX2                !
 ! D49   D(20,7,11,18)        -118.328          estimate D2E/DX2                !
 ! D50   D(7,8,9,10)           -41.212          estimate D2E/DX2                !
 ! D51   D(7,8,9,14)          -162.7051         estimate D2E/DX2                !
 ! D52   D(7,8,9,19)            77.3601         estimate D2E/DX2                !
 ! D53   D(25,8,9,10)         -168.771          estimate D2E/DX2                !
 ! D54   D(25,8,9,14)           69.7359         estimate D2E/DX2                !
 ! D55   D(25,8,9,19)          -50.1989         estimate D2E/DX2                !
 ! D56   D(7,8,25,34)           59.2224         estimate D2E/DX2                !
 ! D57   D(7,8,25,35)          -61.4705         estimate D2E/DX2                !
 ! D58   D(7,8,25,36)          177.922          estimate D2E/DX2                !
 ! D59   D(9,8,25,34)         -176.756          estimate D2E/DX2                !
 ! D60   D(9,8,25,35)           62.5511         estimate D2E/DX2                !
 ! D61   D(9,8,25,36)          -58.0563         estimate D2E/DX2                !
 ! D62   D(8,9,10,11)           39.4773         estimate D2E/DX2                !
 ! D63   D(8,9,10,15)          160.8249         estimate D2E/DX2                !
 ! D64   D(8,9,10,16)          -78.3804         estimate D2E/DX2                !
 ! D65   D(14,9,10,11)         158.542          estimate D2E/DX2                !
 ! D66   D(14,9,10,15)         -80.1104         estimate D2E/DX2                !
 ! D67   D(14,9,10,16)          40.6842         estimate D2E/DX2                !
 ! D68   D(19,9,10,11)         -79.7241         estimate D2E/DX2                !
 ! D69   D(19,9,10,15)          41.6235         estimate D2E/DX2                !
 ! D70   D(19,9,10,16)         162.4181         estimate D2E/DX2                !
 ! D71   D(9,10,11,7)          -23.9321         estimate D2E/DX2                !
 ! D72   D(9,10,11,17)          93.7537         estimate D2E/DX2                !
 ! D73   D(9,10,11,18)        -145.9845         estimate D2E/DX2                !
 ! D74   D(15,10,11,7)        -145.6377         estimate D2E/DX2                !
 ! D75   D(15,10,11,17)        -27.952          estimate D2E/DX2                !
 ! D76   D(15,10,11,18)         92.3098         estimate D2E/DX2                !
 ! D77   D(16,10,11,7)          93.2334         estimate D2E/DX2                !
 ! D78   D(16,10,11,17)       -149.0808         estimate D2E/DX2                !
 ! D79   D(16,10,11,18)        -28.8191         estimate D2E/DX2                !
 ! D80   D(26,12,13,29)       -113.0095         estimate D2E/DX2                !
 ! D81   D(26,12,13,30)        102.678          estimate D2E/DX2                !
 ! D82   D(27,12,13,29)         78.3399         estimate D2E/DX2                !
 ! D83   D(27,12,13,30)        -65.9725         estimate D2E/DX2                !
 ! D84   D(28,13,31,32)       -133.7194         estimate D2E/DX2                !
 ! D85   D(28,13,31,33)         81.0838         estimate D2E/DX2                !
 ! D86   D(29,13,31,32)         78.1934         estimate D2E/DX2                !
 ! D87   D(29,13,31,33)        -67.0033         estimate D2E/DX2                !
 ! D88   D(28,13,37,38)        128.2915         estimate D2E/DX2                !
 ! D89   D(28,13,37,39)        -73.23           estimate D2E/DX2                !
 ! D90   D(30,13,37,38)        -83.5755         estimate D2E/DX2                !
 ! D91   D(30,13,37,39)         74.9031         estimate D2E/DX2                !
 --------------------------------------------------------------------------------
 Trust Radius=3.00D-01 FncErr=1.00D-07 GrdErr=1.00D-06 EigMax=2.50D+02 EigMin=1.00D-04
 Number of steps in this run=    212 maximum allowed number of steps=    234.
 GradGradGradGradGradGradGradGradGradGradGradGradGradGradGradGradGradGrad

                          Input orientation:                          
 ---------------------------------------------------------------------
 Center     Atomic      Atomic             Coordinates (Angstroms)
 Number     Number       Type             X           Y           Z
 ---------------------------------------------------------------------
      1          6           0       -1.998346   -2.334781   -0.606436
      2          6           0       -1.938587   -1.015053   -0.147893
      3          6           0       -0.737999   -0.583990    0.399218
      4          7           0        0.317186   -1.408727    0.472534
      5          6           0        0.280749   -2.673667    0.029784
      6          6           0       -0.886124   -3.170384   -0.523494
      7          6           0       -3.114648   -0.069811   -0.274494
      8          7           0       -3.015500    1.035608    0.670149
      9          6           0       -3.634331    2.198744    0.041201
     10          6           0       -3.139580    2.106848   -1.395708
     11          6           0       -3.201438    0.596047   -1.680728
     12          8           0        2.608519   -0.606555    1.471352
     13          8           0        4.357711    0.539066   -0.074846
     14          1           0       -3.325387    3.116610    0.556090
     15          1           0       -3.749122    2.688735   -2.094812
     16          1           0       -2.106598    2.471767   -1.456483
     17          1           0       -4.153624    0.326920   -2.151953
     18          1           0       -2.399602    0.261297   -2.348582
     19          1           0       -4.741012    2.141275    0.078233
     20          1           0       -4.032466   -0.664815   -0.098864
     21          1           0       -0.616753    0.423904    0.788992
     22          1           0        1.195555   -3.250965    0.138897
     23          1           0       -0.921758   -4.197738   -0.878188
     24          1           0       -2.928052   -2.713841   -1.032596
     25          6           0       -3.520867    0.727210    1.994567
     26          1           0        1.220332   -1.052009    0.898333
     27          1           0        2.872672   -0.532879    2.389822
     28          1           0        3.304071   -0.155330    0.918232
     29          1           0        5.196592    0.106831   -0.305015
     30          1           0        4.521883    1.496745   -0.067255
     31          8           0        4.717280    3.314058   -0.051901
     32          1           0        4.746982    3.828391   -0.862898
     33          1           0        5.261820    3.791953    0.579116
     34          1           0       -2.970181   -0.120475    2.424848
     35          1           0       -4.597889    0.468880    1.983979
     36          1           0       -3.378425    1.591412    2.654187
     37          8           0        6.729410   -0.780160   -0.754534
     38          1           0        7.034599   -0.918208   -1.654777
     39          1           0        7.498223   -0.914886   -0.194754
 ---------------------------------------------------------------------
                    Distance matrix (angstroms):
                    1          2          3          4          5
     1  C    0.000000
     2  C    1.398397   0.000000
     3  C    2.380144   1.388005   0.000000
     4  N    2.717249   2.372429   1.341261   0.000000
     5  C    2.390375   2.776332   2.353950   1.340682   0.000000
     6  C    1.393610   2.427799   2.750050   2.354456   1.383632
     7  C    2.546842   1.514143   2.523238   3.758754   4.289682
     8  N    3.744836   2.456450   2.807759   4.137707   5.003403
     9  C    4.862996   3.638653   4.032434   5.367903   6.250470
    10  C    4.653325   3.570111   4.028642   5.272459   6.048471
    11  C    3.345338   2.557346   3.433248   4.586542   5.073707
    12  O    5.341084   4.844068   3.514138   2.625133   3.430683
    13  O    6.995788   6.485676   5.239490   4.518779   5.191745
    14  H    5.729762   4.414685   4.518144   5.809819   6.841675
    15  H    5.524146   4.559230   5.098801   6.317857   7.036272
    16  H    4.882336   3.728076   3.828099   4.965286   5.863779
    17  H    3.757459   3.274681   4.359441   5.467042   5.781623
    18  H    3.152095   2.585466   3.320518   4.257771   4.631946
    19  H    5.293965   4.226952   4.853268   6.192201   6.957305
    20  H    2.680310   2.123535   3.332886   4.449649   4.759817
    21  H    3.386202   2.166932   1.087417   2.081087   3.313133
    22  H    3.405278   3.860621   3.304414   2.068015   1.087221
    23  H    2.168755   3.420052   3.837279   3.337366   2.143182
    24  H    1.090712   2.155834   3.373824   3.807927   3.380336
    25  C    4.296403   3.182644   3.465363   4.648598   5.466134
    26  H    3.777529   3.327871   2.074420   1.060295   2.065664
    27  H    5.995934   5.460833   4.123356   3.312644   4.107410
    28  H    5.932137   5.418598   4.097738   3.269730   4.033837
    29  H    7.603911   7.224548   6.016024   5.168182   5.657630
    30  H    7.581866   6.932049   5.675686   5.139321   5.948863
    31  O    8.792982   7.940465   6.719997   6.476153   7.452673
    32  H    9.140564   8.286556   7.151717   6.988124   7.938569
    33  H    9.573527   8.688021   7.428261   7.176896   8.180286
    34  H    3.877666   2.912637   3.049698   4.034589   4.777412
    35  H    4.618267   3.717368   4.303342   5.474289   6.123364
    36  H    5.286896   4.088820   4.097451   5.236219   6.202253
    37  O    8.866369   8.692374   7.558560   6.558766   6.766517
    38  H    9.203249   9.099349   8.046358   7.063264   7.178710
    39  H    9.610952   9.437458   8.264239   7.228862   7.432070
                    6          7          8          9         10
     6  C    0.000000
     7  C    3.826470   0.000000
     8  N    4.863064   1.457440   0.000000
     9  C    6.057975   2.348633   1.459936   0.000000
    10  C    5.804136   2.448589   2.330390   1.522475   0.000000
    11  C    4.570106   1.558330   2.398835   2.391877   1.538695
    12  O    4.771285   6.007555   5.913393   6.992010   6.973036
    13  O    6.438875   7.499783   7.427369   8.163378   7.772515
    14  H    6.829480   3.299630   2.107038   1.096830   2.205370
    15  H    6.707837   3.365366   3.303943   2.194498   1.094934
    16  H    5.847554   2.978738   2.722355   2.156749   1.097229
    17  H    5.055647   2.182136   3.124392   2.929729   2.183652
    18  H    4.171091   2.218730   3.176732   3.315014   2.204902
    19  H    6.590596   2.767377   2.133133   1.108791   2.176757
    20  H    4.044460   1.107820   2.125333   2.894495   3.187658
    21  H    3.835894   2.759391   2.478365   3.579808   3.737629
    22  H    2.186011   5.372940   6.032406   7.282628   7.060777
    23  H    1.087444   4.713066   5.845427   7.008446   6.703310
    24  H    2.153389   2.756888   4.118902   5.077929   4.838971
    25  C    5.336079   2.439036   1.450720   2.448249   3.680047
    26  H    3.308513   4.596987   4.727842   5.905068   5.852336
    27  H    5.438050   6.569704   6.331508   7.437666   7.579286
    28  H    5.359744   6.529155   6.435593   7.379178   7.210576
    29  H    6.912836   8.313173   8.321780   9.081914   8.641843
    30  H    7.157988   7.798311   7.587394   8.187087   7.799681
    31  O    8.583037   8.534589   8.093737   8.426268   8.061850
    32  H    8.990547   8.794738   8.390828   8.586009   8.089837
    33  H    9.353454   9.263212   8.724663   9.053683   8.793352
    34  H    4.726305   2.703680   2.101797   3.391408   4.425643
    35  H    5.771383   2.755157   2.133374   2.774033   4.028882
    36  H    6.243711   3.377338   2.092138   2.694816   4.089544
    37  O    7.985168   9.881321  10.014490  10.812687  10.302567
    38  H    8.312037  10.277751  10.498913  11.243567  10.617533
    39  H    8.688649  10.646762  10.728041  11.562185  11.123669
                   11         12         13         14         15
    11  C    0.000000
    12  O    6.718442   0.000000
    13  O    7.728055   2.600548   0.000000
    14  H    3.372233   7.064765   8.128457   0.000000
    15  H    2.202446   7.999754   8.626823   2.718439   0.000000
    16  H    2.183412   6.346701   6.887056   2.439615   1.775507
    17  H    1.095966   7.728279   8.763687   3.975153   2.396885
    18  H    1.095914   6.358171   7.135006   4.176962   2.788917
    19  H    2.802135   7.969125   9.239982   1.784270   2.450649
    20  H    2.186933   6.824343   8.476142   3.902320   3.912849
    21  H    3.579071   3.453960   5.050225   3.826435   4.822605
    22  H    6.119157   3.280977   4.940572   7.820421   8.044832
    23  H    5.368555   5.556959   7.138310   7.831620   7.543055
    24  H    3.383811   6.431487   8.036232   6.056068   5.566892
    25  C    3.691481   6.294605   8.147997   2.795829   4.541222
    26  H    5.377703   1.566475   3.649896   6.177222   6.902721
    27  H    7.398558   0.958536   3.070667   7.422754   8.622001
    28  H    7.045623   0.996664   1.605785   7.401787   8.180139
    29  H    8.524015   3.219087   0.971353   9.078788   9.481319
    30  H    7.941300   3.232978   0.971679   8.036925   8.598916
    31  O    8.529171   4.705144   2.798285   8.068031   8.731808
    32  H    8.619413   5.448898   3.404734   8.226986   8.660266
    33  H    9.324561   5.213728   3.438947   8.613753   9.463829
    34  H    4.174043   5.680433   7.770551   3.754617   5.378265
    35  H    3.923815   7.304222   9.189475   3.266283   4.720667
    36  H    4.451243   6.486421   8.270602   2.594427   4.888203
    37  O   10.068442   4.686838   2.797729  10.862849  11.118867
    38  H   10.347468   5.427706   3.433010  11.335652  11.379469
    39  H   10.907510   5.174957   3.462827  11.574423  11.962403
                   16         17         18         19         20
    16  H    0.000000
    17  H    3.045384   0.000000
    18  H    2.401639   1.766228   0.000000
    19  H    3.066711   2.934389   3.860822   0.000000
    20  H    3.923040   2.283285   2.930044   2.899576   0.000000
    21  H    3.384603   4.600872   3.612390   4.523721   3.693331
    22  H    6.796993   6.831030   5.607913   8.020147   5.837543
    23  H    6.798571   5.704381   4.922304   7.462207   4.771310
    24  H    5.267352   3.464277   3.295834   5.300275   2.508006
    25  C    4.117448   4.213578   4.509684   2.675943   2.565525
    26  H    5.388007   6.331279   5.036978   6.812287   5.360616
    27  H    6.972452   8.410458   7.133026   8.394208   7.341110
    28  H    6.466548   8.079345   6.586163   8.408529   7.424206
    29  H    7.762434   9.533423   7.867794  10.150951   9.263555
    30  H    6.842323   8.998826   7.391735   9.286431   8.823278
    31  O    7.017665   9.593026   8.077382   9.531613   9.612060
    32  H    7.011728   9.651049   8.124351   9.682671   9.891984
    33  H    7.757586  10.397874   8.929408  10.150481  10.329869
    34  H    4.746601   4.748453   4.822545   3.709172   2.791752
    35  H    4.696261   4.162146   4.862781   2.539539   2.437868
    36  H    4.392058   5.029797   5.268301   2.965558   3.619063
    37  O    9.441546  11.028093   9.325475  11.865870  10.782448
    38  H    9.751550  11.268268   9.532930  12.289376  11.178775
    39  H   10.262259  11.880162  10.197515  12.617984  11.533799
                   21         22         23         24         25
    21  H    0.000000
    22  H    4.148704   0.000000
    23  H    4.922610   2.532559   0.000000
    24  H    4.301829   4.320305   2.500202   0.000000
    25  C    3.159000   6.443138   6.266036   4.621253   0.000000
    26  H    2.359058   2.326535   4.200022   4.868189   5.181343
    27  H    3.956536   3.907349   6.205544   7.079402   6.528506
    28  H    3.965486   3.825723   6.117664   7.013634   6.965426
    29  H    5.923881   5.242151   7.502803   8.631072   9.036982
    30  H    5.318809   5.800664   7.919468   8.611762   8.338412
    31  O    6.124704   7.452414   9.429135   9.785113   8.873944
    32  H    6.564216   7.983327   9.826169  10.086414   9.281151
    33  H    6.778305   8.144384  10.207621  10.582862   9.409131
    34  H    2.917361   5.690246   5.632953   4.322180   1.098620
    35  H    4.156857   7.127802   6.594184   4.692312   1.107620
    36  H    3.531127   7.120154   7.212984   5.685983   1.096464
    37  O    7.602523   6.125900   8.380662   9.853071  10.719044
    38  H    8.143492   6.538613   8.640719  10.142279  11.289064
    39  H    8.283293   6.729949   9.063127  10.613455  11.353852
                   26         27         28         29         30
    26  H    0.000000
    27  H    2.285665   0.000000
    28  H    2.268567   1.579312   0.000000
    29  H    4.312957   3.615519   2.268633   0.000000
    30  H    4.281208   3.588384   2.276753   1.563209   0.000000
    31  O    5.673987   4.915640   3.869751   3.252708   1.827852
    32  H    6.273556   5.754468   4.596134   3.789907   2.473922
    33  H    6.316605   5.262210   4.419143   3.790259   2.496654
    34  H    4.556139   5.857494   6.452701   8.613942   8.059591
    35  H    6.110927   7.548345   7.997901  10.064911   9.403952
    36  H    5.587420   6.607474   7.121826   9.191941   8.356439
    37  O    5.758108   4.982223   3.862837   1.827116   3.244969
    38  H    6.351533   5.816261   4.595563   2.500166   3.829617
    39  H    6.373818   5.312409   4.405289   2.520629   3.832861
                   31         32         33         34         35
    31  O    0.000000
    32  H    0.960800   0.000000
    33  H    0.960776   1.531597   0.000000
    34  H    8.776523   9.271323   9.299444   0.000000
    35  H    9.950488  10.330423  10.499063   1.786376   0.000000
    36  H    8.708092   9.132152   9.154351   1.774772   1.787834
    37  O    4.615732   5.018018   4.983639  10.228671  11.720378
    38  H    5.084413   5.328270   5.506236  10.833990  12.267002
    39  H    5.063400   5.523986   5.268274  10.820392  12.368412
                   36         37         38         39
    36  H    0.000000
    37  O   10.927583   0.000000
    38  H   11.545407   0.960539   0.000000
    39  H   11.519525   0.960509   1.531870   0.000000
 Stoichiometry    C10H23N2O4(1+)
 Framework group  C1[X(C10H23N2O4)]
 Deg. of freedom   111
 Full point group                 C1      NOp   1
 Largest Abelian subgroup         C1      NOp   1
 Largest concise Abelian subgroup C1      NOp   1
                         Standard orientation:                         
 ---------------------------------------------------------------------
 Center     Atomic      Atomic             Coordinates (Angstroms)
 Number     Number       Type             X           Y           Z
 ---------------------------------------------------------------------
      1          6           0       -1.998346   -2.334781   -0.606436
      2          6           0       -1.938587   -1.015053   -0.147893
      3          6           0       -0.737999   -0.583990    0.399218
      4          7           0        0.317186   -1.408727    0.472534
      5          6           0        0.280749   -2.673667    0.029784
      6          6           0       -0.886124   -3.170384   -0.523494
      7          6           0       -3.114648   -0.069811   -0.274494
      8          7           0       -3.015500    1.035608    0.670149
      9          6           0       -3.634331    2.198744    0.041201
     10          6           0       -3.139580    2.106848   -1.395708
     11          6           0       -3.201438    0.596047   -1.680728
     12          8           0        2.608519   -0.606555    1.471352
     13          8           0        4.357711    0.539066   -0.074846
     14          1           0       -3.325387    3.116610    0.556090
     15          1           0       -3.749122    2.688735   -2.094812
     16          1           0       -2.106598    2.471767   -1.456483
     17          1           0       -4.153624    0.326920   -2.151953
     18          1           0       -2.399602    0.261297   -2.348582
     19          1           0       -4.741012    2.141275    0.078233
     20          1           0       -4.032466   -0.664815   -0.098864
     21          1           0       -0.616753    0.423904    0.788992
     22          1           0        1.195555   -3.250965    0.138897
     23          1           0       -0.921758   -4.197738   -0.878188
     24          1           0       -2.928052   -2.713841   -1.032596
     25          6           0       -3.520867    0.727210    1.994567
     26          1           0        1.220332   -1.052009    0.898333
     27          1           0        2.872672   -0.532879    2.389822
     28          1           0        3.304071   -0.155330    0.918232
     29          1           0        5.196592    0.106831   -0.305015
     30          1           0        4.521883    1.496745   -0.067255
     31          8           0        4.717280    3.314058   -0.051901
     32          1           0        4.746982    3.828391   -0.862898
     33          1           0        5.261820    3.791953    0.579116
     34          1           0       -2.970181   -0.120475    2.424848
     35          1           0       -4.597889    0.468880    1.983979
     36          1           0       -3.378425    1.591412    2.654187
     37          8           0        6.729410   -0.780160   -0.754534
     38          1           0        7.034599   -0.918208   -1.654777
     39          1           0        7.498223   -0.914886   -0.194754
 ---------------------------------------------------------------------
 Rotational constants (GHZ):           0.5222437           0.1693424           0.1436614
 Standard basis: Aug-CC-pVDZ (5D, 7F)
 There are   607 symmetry adapted cartesian basis functions of A   symmetry.
 There are   575 symmetry adapted basis functions of A   symmetry.
   575 basis functions,   941 primitive gaussians,   607 cartesian basis functions
    64 alpha electrons       64 beta electrons
       nuclear repulsion energy      1118.5190212228 Hartrees.
 NAtoms=   39 NActive=   39 NUniq=   39 SFac= 1.00D+00 NAtFMM=   60 NAOKFM=F Big=F
 Integral buffers will be    131072 words long.
 Raffenetti 2 integral format.
 Two-electron integral symmetry is turned on.
 Nuclear repulsion after empirical dispersion term =     1118.4953411568 Hartrees.
 One-electron integrals computed using PRISM.
 NBasis=   575 RedAO= T EigKep=  2.50D-06  NBF=   575
 NBsUse=   575 1.00D-06 EigRej= -1.00D+00 NBFU=   575
 ExpMin= 2.97D-02 ExpMax= 1.17D+04 ExpMxC= 4.01D+02 IAcc=3 IRadAn=         5 AccDes= 0.00D+00
 Harris functional with IExCor= 4639 and IRadAn=       5 diagonalized for initial guess.
 HarFok:  IExCor= 4639 AccDes= 0.00D+00 IRadAn=         5 IDoV= 1 UseB2=F ITyADJ=14
 ICtDFT=  3500011 ScaDFX=  1.000000  1.000000  1.000000  1.000000
 FoFCou: FMM=F IPFlag=           0 FMFlag=      100000 FMFlg1=           0
         NFxFlg=           0 DoJE=T BraDBF=F KetDBF=T FulRan=T
         wScrn=  0.000000 ICntrl=       500 IOpCl=  0 I1Cent=   200000004 NGrid=           0
         NMat0=    1 NMatS0=      1 NMatT0=    0 NMatD0=    1 NMtDS0=    0 NMtDT0=    0
 Petite list used in FoFCou.
 Requested convergence on RMS density matrix=1.00D-08 within 128 cycles.
 Requested convergence on MAX density matrix=1.00D-06.
 Requested convergence on             energy=1.00D-06.
 No special actions if energy rises.
 SCF Done:  E(RwB97XD) =  -805.021288176     A.U. after   14 cycles
            NFock= 14  Conv=0.60D-08     -V/T= 2.0063

 **********************************************************************

            Population analysis using the SCF density.

 **********************************************************************

 Orbital symmetries:
       Occupied  (A) (A) (A) (A) (A) (A) (A) (A) (A) (A) (A) (A)
                 (A) (A) (A) (A) (A) (A) (A) (A) (A) (A) (A) (A)
                 (A) (A) (A) (A) (A) (A) (A) (A) (A) (A) (A) (A)
                 (A) (A) (A) (A) (A) (A) (A) (A) (A) (A) (A) (A)
                 (A) (A) (A) (A) (A) (A) (A) (A) (A) (A) (A) (A)
                 (A) (A) (A) (A)
       Virtual   (A) (A) (A) (A) (A) (A) (A) (A) (A) (A) (A) (A)
                 (A) (A) (A) (A) (A) (A) (A) (A) (A) (A) (A) (A)
                 (A) (A) (A) (A) (A) (A) (A) (A) (A) (A) (A) (A)
                 (A) (A) (A) (A) (A) (A) (A) (A) (A) (A) (A) (A)
                 (A) (A) (A) (A) (A) (A) (A) (A) (A) (A) (A) (A)
                 (A) (A) (A) (A) (A) (A) (A) (A) (A) (A) (A) (A)
                 (A) (A) (A) (A) (A) (A) (A) (A) (A) (A) (A) (A)
                 (A) (A) (A) (A) (A) (A) (A) (A) (A) (A) (A) (A)
                 (A) (A) (A) (A) (A) (A) (A) (A) (A) (A) (A) (A)
                 (A) (A) (A) (A) (A) (A) (A) (A) (A) (A) (A) (A)
                 (A) (A) (A) (A) (A) (A) (A) (A) (A) (A) (A) (A)
                 (A) (A) (A) (A) (A) (A) (A) (A) (A) (A) (A) (A)
                 (A) (A) (A) (A) (A) (A) (A) (A) (A) (A) (A) (A)
                 (A) (A) (A) (A) (A) (A) (A) (A) (A) (A) (A) (A)
                 (A) (A) (A) (A) (A) (A) (A) (A) (A) (A) (A) (A)
                 (A) (A) (A) (A) (A) (A) (A) (A) (A) (A) (A) (A)
                 (A) (A) (A) (A) (A) (A) (A) (A) (A) (A) (A) (A)
                 (A) (A) (A) (A) (A) (A) (A) (A) (A) (A) (A) (A)
                 (A) (A) (A) (A) (A) (A) (A) (A) (A) (A) (A) (A)
                 (A) (A) (A) (A) (A) (A) (A) (A) (A) (A) (A) (A)
                 (A) (A) (A) (A) (A) (A) (A) (A) (A) (A) (A) (A)
                 (A) (A) (A) (A) (A) (A) (A) (A) (A) (A) (A) (A)
                 (A) (A) (A) (A) (A) (A) (A) (A) (A) (A) (A) (A)
                 (A) (A) (A) (A) (A) (A) (A) (A) (A) (A) (A) (A)
                 (A) (A) (A) (A) (A) (A) (A) (A) (A) (A) (A) (A)
                 (A) (A) (A) (A) (A) (A) (A) (A) (A) (A) (A) (A)
                 (A) (A) (A) (A) (A) (A) (A) (A) (A) (A) (A) (A)
                 (A) (A) (A) (A) (A) (A) (A) (A) (A) (A) (A) (A)
                 (A) (A) (A) (A) (A) (A) (A) (A) (A) (A) (A) (A)
                 (A) (A) (A) (A) (A) (A) (A) (A) (A) (A) (A) (A)
                 (A) (A) (A) (A) (A) (A) (A) (A) (A) (A) (A) (A)
                 (A) (A) (A) (A) (A) (A) (A) (A) (A) (A) (A) (A)
                 (A) (A) (A) (A) (A) (A) (A) (A) (A) (A) (A) (A)
                 (A) (A) (A) (A) (A) (A) (A) (A) (A) (A) (A) (A)
                 (A) (A) (A) (A) (A) (A) (A) (A) (A) (A) (A) (A)
                 (A) (A) (A) (A) (A) (A) (A) (A) (A) (A) (A) (A)
                 (A) (A) (A) (A) (A) (A) (A) (A) (A) (A) (A) (A)
                 (A) (A) (A) (A) (A) (A) (A) (A) (A) (A) (A) (A)
                 (A) (A) (A) (A) (A) (A) (A) (A) (A) (A) (A) (A)
                 (A) (A) (A) (A) (A) (A) (A) (A) (A) (A) (A) (A)
                 (A) (A) (A) (A) (A) (A) (A) (A) (A) (A) (A) (A)
                 (A) (A) (A) (A) (A) (A) (A) (A) (A) (A) (A) (A)
                 (A) (A) (A) (A) (A) (A) (A)
 The electronic state is 1-A.
 Alpha  occ. eigenvalues --  -19.38882 -19.38774 -19.37626 -19.35147 -14.66048
 Alpha  occ. eigenvalues --  -14.54475 -10.49671 -10.48971 -10.46422 -10.45667
 Alpha  occ. eigenvalues --  -10.45618 -10.44439 -10.40948 -10.40924 -10.39937
 Alpha  occ. eigenvalues --  -10.38736  -1.24416  -1.23236  -1.23063  -1.22023
 Alpha  occ. eigenvalues --   -1.19129  -1.14902  -1.06808  -1.03093  -0.98610
 Alpha  occ. eigenvalues --   -0.94196  -0.89185  -0.87892  -0.86687  -0.81048
 Alpha  occ. eigenvalues --   -0.77934  -0.76988  -0.73596  -0.73542  -0.73508
 Alpha  occ. eigenvalues --   -0.73044  -0.72301  -0.71515  -0.69450  -0.68215
 Alpha  occ. eigenvalues --   -0.67638  -0.66252  -0.63188  -0.62957  -0.62460
 Alpha  occ. eigenvalues --   -0.61525  -0.60951  -0.59884  -0.58733  -0.57901
 Alpha  occ. eigenvalues --   -0.56463  -0.55546  -0.54804  -0.54521  -0.53723
 Alpha  occ. eigenvalues --   -0.51833  -0.51785  -0.51610  -0.51552  -0.51512
 Alpha  occ. eigenvalues --   -0.50533  -0.49054  -0.47646  -0.40448
 Alpha virt. eigenvalues --   -0.12725  -0.09269  -0.05856  -0.04886  -0.04076
 Alpha virt. eigenvalues --   -0.03961  -0.03371  -0.03148  -0.02470  -0.02051
 Alpha virt. eigenvalues --   -0.01859  -0.01218  -0.00938  -0.00646  -0.00192
 Alpha virt. eigenvalues --   -0.00044   0.00307   0.00578   0.01282   0.01780
 Alpha virt. eigenvalues --    0.02234   0.02442   0.02909   0.03096   0.03256
 Alpha virt. eigenvalues --    0.03613   0.04022   0.04244   0.04662   0.04853
 Alpha virt. eigenvalues --    0.05330   0.05602   0.05964   0.06205   0.06461
 Alpha virt. eigenvalues --    0.06733   0.06983   0.07241   0.07493   0.07561
 Alpha virt. eigenvalues --    0.08048   0.08492   0.08688   0.09147   0.09298
 Alpha virt. eigenvalues --    0.09536   0.09789   0.10219   0.10535   0.10909
 Alpha virt. eigenvalues --    0.11008   0.11061   0.11313   0.12067   0.12395
 Alpha virt. eigenvalues --    0.12547   0.12744   0.13109   0.13136   0.13589
 Alpha virt. eigenvalues --    0.13655   0.13731   0.13960   0.14426   0.14597
 Alpha virt. eigenvalues --    0.14993   0.15500   0.15855   0.16072   0.16235
 Alpha virt. eigenvalues --    0.16570   0.16850   0.17098   0.17237   0.17545
 Alpha virt. eigenvalues --    0.17629   0.18016   0.18520   0.18814   0.19157
 Alpha virt. eigenvalues --    0.19497   0.19790   0.20274   0.20670   0.20773
 Alpha virt. eigenvalues --    0.21165   0.21269   0.21582   0.21689   0.22199
 Alpha virt. eigenvalues --    0.22387   0.22716   0.23169   0.23500   0.23822
 Alpha virt. eigenvalues --    0.23958   0.24389   0.24794   0.25047   0.25353
 Alpha virt. eigenvalues --    0.25600   0.25819   0.26017   0.26796   0.27094
 Alpha virt. eigenvalues --    0.27708   0.27835   0.27882   0.28000   0.28903
 Alpha virt. eigenvalues --    0.29167   0.29465   0.29610   0.29901   0.30128
 Alpha virt. eigenvalues --    0.30615   0.30795   0.31438   0.31685   0.32188
 Alpha virt. eigenvalues --    0.32334   0.32795   0.33607   0.33892   0.34690
 Alpha virt. eigenvalues --    0.34826   0.35224   0.35438   0.35554   0.35731
 Alpha virt. eigenvalues --    0.36532   0.36742   0.37018   0.37635   0.37706
 Alpha virt. eigenvalues --    0.38476   0.38684   0.39398   0.39646   0.40256
 Alpha virt. eigenvalues --    0.40603   0.40754   0.41335   0.41718   0.42205
 Alpha virt. eigenvalues --    0.43104   0.43457   0.43923   0.44131   0.44416
 Alpha virt. eigenvalues --    0.44661   0.44789   0.45265   0.45812   0.45930
 Alpha virt. eigenvalues --    0.46020   0.46552   0.46664   0.47279   0.47461
 Alpha virt. eigenvalues --    0.47758   0.48367   0.48951   0.49013   0.49467
 Alpha virt. eigenvalues --    0.50019   0.50336   0.50503   0.50622   0.50857
 Alpha virt. eigenvalues --    0.51414   0.51416   0.51728   0.52044   0.52387
 Alpha virt. eigenvalues --    0.52786   0.53281   0.53896   0.54036   0.54303
 Alpha virt. eigenvalues --    0.54854   0.55123   0.55593   0.56210   0.56756
 Alpha virt. eigenvalues --    0.57038   0.57551   0.57842   0.57969   0.58084
 Alpha virt. eigenvalues --    0.58787   0.58960   0.59449   0.59926   0.60114
 Alpha virt. eigenvalues --    0.60635   0.61185   0.61465   0.62778   0.63051
 Alpha virt. eigenvalues --    0.63228   0.63987   0.64661   0.64920   0.65167
 Alpha virt. eigenvalues --    0.65816   0.66394   0.66495   0.66944   0.67407
 Alpha virt. eigenvalues --    0.67671   0.68316   0.68942   0.69175   0.69447
 Alpha virt. eigenvalues --    0.70274   0.70602   0.70866   0.71468   0.71620
 Alpha virt. eigenvalues --    0.72174   0.72709   0.73033   0.73393   0.73803
 Alpha virt. eigenvalues --    0.74672   0.75230   0.75555   0.76156   0.76340
 Alpha virt. eigenvalues --    0.76656   0.77560   0.77803   0.78973   0.79266
 Alpha virt. eigenvalues --    0.80032   0.80126   0.80648   0.80882   0.81510
 Alpha virt. eigenvalues --    0.82013   0.82513   0.83227   0.83498   0.83822
 Alpha virt. eigenvalues --    0.85213   0.85828   0.86269   0.86461   0.87084
 Alpha virt. eigenvalues --    0.88108   0.88637   0.89598   0.89998   0.90310
 Alpha virt. eigenvalues --    0.91544   0.93207   0.93430   0.93746   0.94211
 Alpha virt. eigenvalues --    0.95673   0.96078   0.96813   0.98043   0.98306
 Alpha virt. eigenvalues --    0.98970   0.99309   1.00349   1.00776   1.02209
 Alpha virt. eigenvalues --    1.02440   1.03553   1.03834   1.04197   1.04663
 Alpha virt. eigenvalues --    1.04805   1.06367   1.06954   1.08004   1.08548
 Alpha virt. eigenvalues --    1.09341   1.09531   1.10894   1.11840   1.12179
 Alpha virt. eigenvalues --    1.12758   1.13482   1.14255   1.15760   1.16452
 Alpha virt. eigenvalues --    1.18049   1.19112   1.19242   1.20365   1.20754
 Alpha virt. eigenvalues --    1.21823   1.23405   1.23784   1.24697   1.25195
 Alpha virt. eigenvalues --    1.27317   1.27956   1.28493   1.30046   1.30980
 Alpha virt. eigenvalues --    1.31543   1.31954   1.32156   1.34083   1.34259
 Alpha virt. eigenvalues --    1.35291   1.35457   1.35994   1.36313   1.37977
 Alpha virt. eigenvalues --    1.38147   1.38609   1.39671   1.40735   1.41626
 Alpha virt. eigenvalues --    1.42440   1.43557   1.44649   1.45834   1.46542
 Alpha virt. eigenvalues --    1.47075   1.48603   1.49995   1.50716   1.51718
 Alpha virt. eigenvalues --    1.52594   1.53444   1.54220   1.55243   1.57426
 Alpha virt. eigenvalues --    1.58373   1.58864   1.59569   1.61307   1.62345
 Alpha virt. eigenvalues --    1.63163   1.63406   1.64458   1.65060   1.65599
 Alpha virt. eigenvalues --    1.66664   1.67852   1.69054   1.69487   1.70218
 Alpha virt. eigenvalues --    1.71387   1.71881   1.72114   1.72478   1.73322
 Alpha virt. eigenvalues --    1.74108   1.74973   1.75732   1.76019   1.76319
 Alpha virt. eigenvalues --    1.76687   1.77385   1.78360   1.79598   1.80662
 Alpha virt. eigenvalues --    1.81258   1.82929   1.83724   1.84220   1.84805
 Alpha virt. eigenvalues --    1.85527   1.86862   1.87189   1.88529   1.88585
 Alpha virt. eigenvalues --    1.88602   1.88992   1.89843   1.91076   1.91394
 Alpha virt. eigenvalues --    1.91432   1.92419   1.93936   1.94541   1.95704
 Alpha virt. eigenvalues --    1.96021   1.97701   1.97834   1.98008   1.98679
 Alpha virt. eigenvalues --    1.99079   2.01088   2.03028   2.03512   2.06225
 Alpha virt. eigenvalues --    2.06683   2.08546   2.08831   2.09202   2.09916
 Alpha virt. eigenvalues --    2.10282   2.11368   2.12002   2.12350   2.12611
 Alpha virt. eigenvalues --    2.14428   2.15493   2.15645   2.16064   2.16573
 Alpha virt. eigenvalues --    2.17984   2.19683   2.20271   2.20586   2.21185
 Alpha virt. eigenvalues --    2.22777   2.24156   2.24772   2.25810   2.27392
 Alpha virt. eigenvalues --    2.28732   2.29251   2.29963   2.30969   2.31352
 Alpha virt. eigenvalues --    2.32440   2.33210   2.34675   2.35692   2.37383
 Alpha virt. eigenvalues --    2.37681   2.40312   2.41755   2.42581   2.44179
 Alpha virt. eigenvalues --    2.45374   2.45586   2.48158   2.49220   2.49381
 Alpha virt. eigenvalues --    2.49545   2.51574   2.52706   2.54036   2.54910
 Alpha virt. eigenvalues --    2.56156   2.57424   2.57794   2.58248   2.59057
 Alpha virt. eigenvalues --    2.61454   2.63541   2.64240   2.64863   2.65435
 Alpha virt. eigenvalues --    2.66364   2.66822   2.68663   2.69095   2.71521
 Alpha virt. eigenvalues --    2.72060   2.74321   2.75144   2.75758   2.76012
 Alpha virt. eigenvalues --    2.77694   2.78856   2.80393   2.81335   2.82635
 Alpha virt. eigenvalues --    2.84796   2.85173   2.85855   2.87812   2.88534
 Alpha virt. eigenvalues --    2.90479   2.91397   2.97905   3.03233   3.04845
 Alpha virt. eigenvalues --    3.11210   3.15704   3.17729   3.20752   3.25171
 Alpha virt. eigenvalues --    3.29706   3.30272   3.33101   3.35202   3.38569
 Alpha virt. eigenvalues --    3.42061   3.42853   3.44936   3.45777   3.46571
 Alpha virt. eigenvalues --    3.48805   3.49861   3.52344   3.56934   3.64758
 Alpha virt. eigenvalues --    3.67793   3.68328   3.75082   3.82838   3.90443
 Alpha virt. eigenvalues --    3.91421   3.96684   4.08501   4.09764   4.20932
 Alpha virt. eigenvalues --    4.58759
          Condensed to atoms (all electrons):
               1          2          3          4          5          6
     1  C   21.979281 -10.105339  -2.029124   0.216942   1.801305  -4.296184
     2  C  -10.105339  20.477866  -2.548001  -0.113150  -2.073170   2.032738
     3  C   -2.029124  -2.548001  15.624626  -1.565963  -0.592120  -0.979815
     4  N    0.216942  -0.113150  -1.565963   7.803015   0.398229   0.037072
     5  C    1.801305  -2.073170  -0.592120   0.398229  10.103944  -2.925911
     6  C   -4.296184   2.032738  -0.979815   0.037072  -2.925911  12.039186
     7  C   -0.102299  -4.571306  -2.933621   0.733670  -0.194147  -0.433513
     8  N   -0.340184   0.882063   0.912187  -0.166590  -0.040275   0.034163
     9  C    0.089039  -0.199144  -0.332310   0.061237  -0.006983  -0.010911
    10  C   -0.241995   0.458817   0.084805  -0.071387  -0.025958   0.065709
    11  C   -0.464822   0.360535  -0.422350   0.064118  -0.240287   0.364679
    12  O    0.059202  -0.107751   0.026619  -0.178212   0.082963  -0.067394
    13  O   -0.000821   0.004099  -0.016281   0.004055   0.010328   0.001951
    14  H    0.012318  -0.201304  -0.060408   0.011079  -0.001262  -0.000384
    15  H    0.001378  -0.060642  -0.003860  -0.003481  -0.004999   0.007546
    16  H   -0.022830   0.160507   0.088432  -0.011158   0.010066  -0.004515
    17  H   -0.075706   0.250976   0.105926  -0.011877   0.013427  -0.013264
    18  H    0.168857  -0.533313  -0.142494   0.036028  -0.025108   0.034193
    19  H   -0.009233   0.212435   0.020176  -0.001192   0.001877   0.002082
    20  H   -0.042518   0.536883  -0.060924   0.006316  -0.036689   0.058213
    21  H   -0.112144  -0.261235  -0.946642   0.009812  -0.106596   0.074281
    22  H    0.027527   0.109419   0.230609  -0.064035  -0.922909   0.327502
    23  H    0.709607  -0.268917   0.022162  -0.035623   0.487582  -1.165079
    24  H   -2.329487   1.180241   0.233249  -0.094712  -0.221303   0.813101
    25  C   -0.075495  -0.055744   0.171361  -0.016152  -0.014370  -0.028621
    26  H    0.091848  -0.457538   0.414123  -0.040087  -0.223036  -0.238535
    27  H   -0.007847   0.012419   0.001067   0.001369  -0.013451   0.016566
    28  H    0.018139  -0.021020   0.005993  -0.001624   0.003045  -0.017630
    29  H   -0.001964   0.002687   0.001419   0.000933  -0.003064   0.001922
    30  H   -0.000617   0.000118  -0.002268   0.001171   0.001690   0.000437
    31  O   -0.000041   0.000120   0.000996  -0.000093   0.000008   0.000149
    32  H    0.000017  -0.000011  -0.000067  -0.000068  -0.000061   0.000016
    33  H    0.000004  -0.000007   0.000041  -0.000016  -0.000051   0.000009
    34  H   -0.174412   0.160984  -0.079169   0.001389  -0.047491   0.050710
    35  H    0.046840   0.043772   0.070404  -0.008409   0.005491  -0.002862
    36  H    0.032243  -0.025116  -0.026876   0.010760   0.008503  -0.010661
    37  O    0.000018   0.000096  -0.000127   0.000150   0.000520   0.000097
    38  H    0.000038  -0.000053   0.000046  -0.000076  -0.000043   0.000011
    39  H    0.000020  -0.000001  -0.000001   0.000017   0.000037  -0.000069
               7          8          9         10         11         12
     1  C   -0.102299  -0.340184   0.089039  -0.241995  -0.464822   0.059202
     2  C   -4.571306   0.882063  -0.199144   0.458817   0.360535  -0.107751
     3  C   -2.933621   0.912187  -0.332310   0.084805  -0.422350   0.026619
     4  N    0.733670  -0.166590   0.061237  -0.071387   0.064118  -0.178212
     5  C   -0.194147  -0.040275  -0.006983  -0.025958  -0.240287   0.082963
     6  C   -0.433513   0.034163  -0.010911   0.065709   0.364679  -0.067394
     7  C   17.795908  -2.605862   0.024491  -0.957442  -0.153164   0.004376
     8  N   -2.605862   9.400005   0.004412   0.107065  -0.453994   0.002335
     9  C    0.024491   0.004412   5.564363   0.206754   0.041360   0.000412
    10  C   -0.957442   0.107065   0.206754   5.661984  -0.029450  -0.000575
    11  C   -0.153164  -0.453994   0.041360  -0.029450   6.139282  -0.001501
    12  O    0.004376   0.002335   0.000412  -0.000575  -0.001501   8.063057
    13  O    0.000823  -0.000229  -0.000054  -0.000008  -0.000031  -0.056737
    14  H    0.508675  -0.659431   0.010197  -0.056810   0.078322   0.000065
    15  H    0.057269  -0.010287   0.087745  -0.238619   0.269192  -0.000004
    16  H   -0.131810   0.088342  -0.099151  -0.078165  -0.057180  -0.000170
    17  H    0.306327   0.143698  -0.213828   0.133919  -0.730192  -0.000070
    18  H   -0.101870   0.023074   0.169212   0.172657  -0.079580   0.000327
    19  H   -0.367909   0.397097  -0.331197   0.038057  -0.075495  -0.000034
    20  H   -1.554213  -0.196689  -0.048927   0.101858   0.373864   0.000279
    21  H    0.646589  -0.375699   0.025854   0.044047   0.036205  -0.009690
    22  H    0.011444   0.002599  -0.000590  -0.000266   0.005255   0.003930
    23  H   -0.009837  -0.002368  -0.000908   0.000154  -0.015661  -0.001467
    24  H   -0.456945   0.053370  -0.018289   0.024028   0.064639   0.000996
    25  C   -0.331308   0.457965  -0.220592  -0.012440  -0.009138  -0.000734
    26  H   -0.106487   0.027090   0.000318   0.007008  -0.040548   0.012903
    27  H    0.002417  -0.000288   0.000038  -0.000103   0.001076   0.367546
    28  H   -0.001835   0.000211  -0.000101   0.000259  -0.001485   0.302907
    29  H    0.000033   0.000026  -0.000043   0.000073   0.000015   0.004815
    30  H    0.000372  -0.000231   0.000115  -0.000260   0.000246   0.000176
    31  O    0.000012   0.000016   0.000018   0.000043   0.000013   0.000554
    32  H    0.000008  -0.000010   0.000014   0.000005   0.000010  -0.000130
    33  H   -0.000024   0.000014  -0.000006   0.000012  -0.000008   0.000271
    34  H    0.136783  -0.092374  -0.118722  -0.034495   0.070447   0.000433
    35  H   -0.136723   0.157713   0.038539   0.054553  -0.059289   0.000017
    36  H   -0.018442  -0.335832   0.081710   0.003901  -0.001583  -0.000230
    37  O    0.000005  -0.000000  -0.000000   0.000001  -0.000000   0.000310
    38  H    0.000004   0.000000   0.000000  -0.000000  -0.000000  -0.000109
    39  H   -0.000003  -0.000000   0.000000  -0.000000   0.000000   0.000166
              13         14         15         16         17         18
     1  C   -0.000821   0.012318   0.001378  -0.022830  -0.075706   0.168857
     2  C    0.004099  -0.201304  -0.060642   0.160507   0.250976  -0.533313
     3  C   -0.016281  -0.060408  -0.003860   0.088432   0.105926  -0.142494
     4  N    0.004055   0.011079  -0.003481  -0.011158  -0.011877   0.036028
     5  C    0.010328  -0.001262  -0.004999   0.010066   0.013427  -0.025108
     6  C    0.001951  -0.000384   0.007546  -0.004515  -0.013264   0.034193
     7  C    0.000823   0.508675   0.057269  -0.131810   0.306327  -0.101870
     8  N   -0.000229  -0.659431  -0.010287   0.088342   0.143698   0.023074
     9  C   -0.000054   0.010197   0.087745  -0.099151  -0.213828   0.169212
    10  C   -0.000008  -0.056810  -0.238619  -0.078165   0.133919   0.172657
    11  C   -0.000031   0.078322   0.269192  -0.057180  -0.730192  -0.079580
    12  O   -0.056737   0.000065  -0.000004  -0.000170  -0.000070   0.000327
    13  O    7.846995   0.000011  -0.000006  -0.000060  -0.000002   0.000126
    14  H    0.000011   2.407558   0.019588  -0.212627  -0.021386   0.014615
    15  H   -0.000006   0.019588   1.821075  -0.397816  -0.228591   0.056399
    16  H   -0.000060  -0.212627  -0.397816   2.048591   0.165879  -0.259806
    17  H   -0.000002  -0.021386  -0.228591   0.165879   2.187219  -0.447972
    18  H    0.000126   0.014615   0.056399  -0.259806  -0.447972   2.262356
    19  H   -0.000001  -0.389175  -0.150929   0.152505   0.065464  -0.021063
    20  H    0.000044   0.037361   0.028013  -0.038642  -0.253413   0.099992
    21  H    0.003990   0.015906   0.009030  -0.017439  -0.008599   0.016002
    22  H    0.003251  -0.000096  -0.000087   0.000039   0.000943   0.000064
    23  H    0.000016  -0.000046   0.000034   0.000189  -0.001204  -0.002406
    24  H   -0.000056  -0.002316   0.001764   0.002601  -0.000876  -0.007820
    25  C   -0.000074  -0.025369   0.008040  -0.010086  -0.001167   0.007095
    26  H   -0.018372  -0.002636   0.000089   0.004946   0.001365  -0.000986
    27  H    0.004702   0.000126  -0.000004  -0.000114   0.000004   0.000032
    28  H   -0.006499  -0.000127   0.000074  -0.000163  -0.000057   0.000160
    29  H    0.337881   0.000003   0.000002   0.000036  -0.000003  -0.000025
    30  H    0.335809   0.000004  -0.000030  -0.000016   0.000024  -0.000054
    31  O   -0.034174   0.000022   0.000009  -0.000159  -0.000002   0.000043
    32  H    0.001107   0.000009   0.000002  -0.000054  -0.000002   0.000011
    33  H    0.001768  -0.000004   0.000002   0.000020  -0.000001   0.000000
    34  H   -0.000009  -0.006235  -0.001186  -0.002823  -0.001401   0.001013
    35  H   -0.000007   0.015521   0.007245  -0.003399   0.000740   0.000029
    36  H   -0.000005   0.020908  -0.004299   0.006705   0.000708   0.001021
    37  O   -0.036638   0.000000   0.000000  -0.000005   0.000000   0.000006
    38  H    0.001603   0.000000   0.000000  -0.000001   0.000000   0.000001
    39  H    0.002107  -0.000000   0.000000  -0.000000  -0.000000   0.000000
              19         20         21         22         23         24
     1  C   -0.009233  -0.042518  -0.112144   0.027527   0.709607  -2.329487
     2  C    0.212435   0.536883  -0.261235   0.109419  -0.268917   1.180241
     3  C    0.020176  -0.060924  -0.946642   0.230609   0.022162   0.233249
     4  N   -0.001192   0.006316   0.009812  -0.064035  -0.035623  -0.094712
     5  C    0.001877  -0.036689  -0.106596  -0.922909   0.487582  -0.221303
     6  C    0.002082   0.058213   0.074281   0.327502  -1.165079   0.813101
     7  C   -0.367909  -1.554213   0.646589   0.011444  -0.009837  -0.456945
     8  N    0.397097  -0.196689  -0.375699   0.002599  -0.002368   0.053370
     9  C   -0.331197  -0.048927   0.025854  -0.000590  -0.000908  -0.018289
    10  C    0.038057   0.101858   0.044047  -0.000266   0.000154   0.024028
    11  C   -0.075495   0.373864   0.036205   0.005255  -0.015661   0.064639
    12  O   -0.000034   0.000279  -0.009690   0.003930  -0.001467   0.000996
    13  O   -0.000001   0.000044   0.003990   0.003251   0.000016  -0.000056
    14  H   -0.389175   0.037361   0.015906  -0.000096  -0.000046  -0.002316
    15  H   -0.150929   0.028013   0.009030  -0.000087   0.000034   0.001764
    16  H    0.152505  -0.038642  -0.017439   0.000039   0.000189   0.002601
    17  H    0.065464  -0.253413  -0.008599   0.000943  -0.001204  -0.000876
    18  H   -0.021063   0.099992   0.016002   0.000064  -0.002406  -0.007820
    19  H    1.953332  -0.055305   0.003374   0.000077  -0.000001   0.000567
    20  H   -0.055305   2.500245   0.041547   0.000136  -0.000075  -0.047656
    21  H    0.003374   0.041547   3.060732   0.011280  -0.000150  -0.022003
    22  H    0.000077   0.000136   0.011280   2.211253  -0.121062  -0.013810
    23  H   -0.000001  -0.000075  -0.000150  -0.121062   2.081156  -0.132070
    24  H    0.000567  -0.047656  -0.022003  -0.013810  -0.132070   2.825870
    25  C    0.001789   0.092000  -0.075793  -0.000162   0.002233   0.007115
    26  H    0.000194  -0.008639  -0.081155  -0.159293   0.013334   0.013656
    27  H   -0.000010   0.000044   0.003607   0.008149  -0.000309  -0.000093
    28  H   -0.000007   0.000087   0.001315  -0.001819  -0.000037  -0.000082
    29  H    0.000001   0.000002   0.000726  -0.000905   0.000046  -0.000031
    30  H   -0.000001   0.000010  -0.001708   0.000682  -0.000001  -0.000017
    31  O   -0.000000  -0.000000   0.000072  -0.000098   0.000005  -0.000001
    32  H   -0.000000   0.000000   0.000030  -0.000011  -0.000000   0.000001
    33  H   -0.000000  -0.000001   0.000017  -0.000017   0.000001   0.000000
    34  H   -0.002666   0.021817   0.007398   0.000553   0.000304  -0.004637
    35  H    0.012195   0.001248   0.001431   0.000024  -0.000071   0.003123
    36  H   -0.004280   0.014352  -0.003736   0.000005   0.000024   0.001700
    37  O   -0.000000   0.000000  -0.000078   0.000201   0.000002  -0.000001
    38  H   -0.000000   0.000000  -0.000019   0.000027  -0.000004   0.000001
    39  H   -0.000000  -0.000000  -0.000005  -0.000006  -0.000001   0.000000
              25         26         27         28         29         30
     1  C   -0.075495   0.091848  -0.007847   0.018139  -0.001964  -0.000617
     2  C   -0.055744  -0.457538   0.012419  -0.021020   0.002687   0.000118
     3  C    0.171361   0.414123   0.001067   0.005993   0.001419  -0.002268
     4  N   -0.016152  -0.040087   0.001369  -0.001624   0.000933   0.001171
     5  C   -0.014370  -0.223036  -0.013451   0.003045  -0.003064   0.001690
     6  C   -0.028621  -0.238535   0.016566  -0.017630   0.001922   0.000437
     7  C   -0.331308  -0.106487   0.002417  -0.001835   0.000033   0.000372
     8  N    0.457965   0.027090  -0.000288   0.000211   0.000026  -0.000231
     9  C   -0.220592   0.000318   0.000038  -0.000101  -0.000043   0.000115
    10  C   -0.012440   0.007008  -0.000103   0.000259   0.000073  -0.000260
    11  C   -0.009138  -0.040548   0.001076  -0.001485   0.000015   0.000246
    12  O   -0.000734   0.012903   0.367546   0.302907   0.004815   0.000176
    13  O   -0.000074  -0.018372   0.004702  -0.006499   0.337881   0.335809
    14  H   -0.025369  -0.002636   0.000126  -0.000127   0.000003   0.000004
    15  H    0.008040   0.000089  -0.000004   0.000074   0.000002  -0.000030
    16  H   -0.010086   0.004946  -0.000114  -0.000163   0.000036  -0.000016
    17  H   -0.001167   0.001365   0.000004  -0.000057  -0.000003   0.000024
    18  H    0.007095  -0.000986   0.000032   0.000160  -0.000025  -0.000054
    19  H    0.001789   0.000194  -0.000010  -0.000007   0.000001  -0.000001
    20  H    0.092000  -0.008639   0.000044   0.000087   0.000002   0.000010
    21  H   -0.075793  -0.081155   0.003607   0.001315   0.000726  -0.001708
    22  H   -0.000162  -0.159293   0.008149  -0.001819  -0.000905   0.000682
    23  H    0.002233   0.013334  -0.000309  -0.000037   0.000046  -0.000001
    24  H    0.007115   0.013656  -0.000093  -0.000082  -0.000031  -0.000017
    25  C    4.561367  -0.003831   0.000190   0.000303  -0.000028   0.000021
    26  H   -0.003831   1.688935  -0.025944   0.012401   0.000440   0.000830
    27  H    0.000190  -0.025944   0.622386  -0.120548   0.001187  -0.000212
    28  H    0.000303   0.012401  -0.120548   0.500373  -0.009087  -0.006451
    29  H   -0.000028   0.000440   0.001187  -0.009087   0.619056  -0.154352
    30  H    0.000021   0.000830  -0.000212  -0.006451  -0.154352   0.614538
    31  O    0.000010  -0.001369   0.000924  -0.002603  -0.001466   0.007379
    32  H   -0.000003   0.000119  -0.000159   0.001678  -0.002461  -0.001973
    33  H   -0.000000   0.000205  -0.000043   0.000056  -0.000805  -0.000775
    34  H    0.331001  -0.016914   0.000839  -0.000351   0.000007  -0.000007
    35  H    0.066090   0.004689  -0.000124   0.000095  -0.000002  -0.000007
    36  H    0.370316   0.000588  -0.000135   0.000108  -0.000011   0.000028
    37  O    0.000000  -0.000876   0.000332  -0.000373   0.004494   0.000521
    38  H    0.000001  -0.000068  -0.000111   0.001241  -0.003132  -0.001746
    39  H   -0.000000   0.000147  -0.000043  -0.000288   0.000358  -0.000895
              31         32         33         34         35         36
     1  C   -0.000041   0.000017   0.000004  -0.174412   0.046840   0.032243
     2  C    0.000120  -0.000011  -0.000007   0.160984   0.043772  -0.025116
     3  C    0.000996  -0.000067   0.000041  -0.079169   0.070404  -0.026876
     4  N   -0.000093  -0.000068  -0.000016   0.001389  -0.008409   0.010760
     5  C    0.000008  -0.000061  -0.000051  -0.047491   0.005491   0.008503
     6  C    0.000149   0.000016   0.000009   0.050710  -0.002862  -0.010661
     7  C    0.000012   0.000008  -0.000024   0.136783  -0.136723  -0.018442
     8  N    0.000016  -0.000010   0.000014  -0.092374   0.157713  -0.335832
     9  C    0.000018   0.000014  -0.000006  -0.118722   0.038539   0.081710
    10  C    0.000043   0.000005   0.000012  -0.034495   0.054553   0.003901
    11  C    0.000013   0.000010  -0.000008   0.070447  -0.059289  -0.001583
    12  O    0.000554  -0.000130   0.000271   0.000433   0.000017  -0.000230
    13  O   -0.034174   0.001107   0.001768  -0.000009  -0.000007  -0.000005
    14  H    0.000022   0.000009  -0.000004  -0.006235   0.015521   0.020908
    15  H    0.000009   0.000002   0.000002  -0.001186   0.007245  -0.004299
    16  H   -0.000159  -0.000054   0.000020  -0.002823  -0.003399   0.006705
    17  H   -0.000002  -0.000002  -0.000001  -0.001401   0.000740   0.000708
    18  H    0.000043   0.000011   0.000000   0.001013   0.000029   0.001021
    19  H   -0.000000  -0.000000  -0.000000  -0.002666   0.012195  -0.004280
    20  H   -0.000000   0.000000  -0.000001   0.021817   0.001248   0.014352
    21  H    0.000072   0.000030   0.000017   0.007398   0.001431  -0.003736
    22  H   -0.000098  -0.000011  -0.000017   0.000553   0.000024   0.000005
    23  H    0.000005  -0.000000   0.000001   0.000304  -0.000071   0.000024
    24  H   -0.000001   0.000001   0.000000  -0.004637   0.003123   0.001700
    25  C    0.000010  -0.000003  -0.000000   0.331001   0.066090   0.370316
    26  H   -0.001369   0.000119   0.000205  -0.016914   0.004689   0.000588
    27  H    0.000924  -0.000159  -0.000043   0.000839  -0.000124  -0.000135
    28  H   -0.002603   0.001678   0.000056  -0.000351   0.000095   0.000108
    29  H   -0.001466  -0.002461  -0.000805   0.000007  -0.000002  -0.000011
    30  H    0.007379  -0.001973  -0.000775  -0.000007  -0.000007   0.000028
    31  O    7.640141   0.354610   0.353856   0.000006   0.000000   0.000001
    32  H    0.354610   0.578129  -0.077928   0.000001   0.000000  -0.000003
    33  H    0.353856  -0.077928   0.576125  -0.000001   0.000001  -0.000001
    34  H    0.000006   0.000001  -0.000001   2.007087  -0.421767  -0.498390
    35  H    0.000000   0.000000   0.000001  -0.421767   1.583936  -0.307685
    36  H    0.000001  -0.000003  -0.000001  -0.498390  -0.307685   1.900532
    37  O   -0.001070   0.000162  -0.000179  -0.000000   0.000000   0.000000
    38  H    0.000162   0.000114  -0.000043   0.000000   0.000000   0.000000
    39  H   -0.000110  -0.000046   0.000086  -0.000000   0.000000   0.000000
              37         38         39
     1  C    0.000018   0.000038   0.000020
     2  C    0.000096  -0.000053  -0.000001
     3  C   -0.000127   0.000046  -0.000001
     4  N    0.000150  -0.000076   0.000017
     5  C    0.000520  -0.000043   0.000037
     6  C    0.000097   0.000011  -0.000069
     7  C    0.000005   0.000004  -0.000003
     8  N   -0.000000   0.000000  -0.000000
     9  C   -0.000000   0.000000   0.000000
    10  C    0.000001  -0.000000  -0.000000
    11  C   -0.000000  -0.000000   0.000000
    12  O    0.000310  -0.000109   0.000166
    13  O   -0.036638   0.001603   0.002107
    14  H    0.000000   0.000000  -0.000000
    15  H    0.000000   0.000000   0.000000
    16  H   -0.000005  -0.000001  -0.000000
    17  H    0.000000   0.000000  -0.000000
    18  H    0.000006   0.000001   0.000000
    19  H   -0.000000  -0.000000  -0.000000
    20  H    0.000000   0.000000  -0.000000
    21  H   -0.000078  -0.000019  -0.000005
    22  H    0.000201   0.000027  -0.000006
    23  H    0.000002  -0.000004  -0.000001
    24  H   -0.000001   0.000001   0.000000
    25  C    0.000000   0.000001  -0.000000
    26  H   -0.000876  -0.000068   0.000147
    27  H    0.000332  -0.000111  -0.000043
    28  H   -0.000373   0.001241  -0.000288
    29  H    0.004494  -0.003132   0.000358
    30  H    0.000521  -0.001746  -0.000895
    31  O   -0.001070   0.000162  -0.000110
    32  H    0.000162   0.000114  -0.000046
    33  H   -0.000179  -0.000043   0.000086
    34  H   -0.000000   0.000000  -0.000000
    35  H    0.000000   0.000000   0.000000
    36  H    0.000000   0.000000   0.000000
    37  O    7.640815   0.356441   0.353317
    38  H    0.356441   0.575033  -0.074612
    39  H    0.353317  -0.074612   0.572929
 Mulliken charges:
               1
     1  C    1.178438
     2  C    0.715988
     3  C    0.728179
     4  N   -0.013452
     5  C    0.790269
     6  C    0.233013
     7  C    0.939550
     8  N   -0.413099
     9  C    1.195929
    10  C    0.582266
    11  C    0.966502
    12  O   -0.509848
    13  O   -0.390600
    14  H   -0.512672
    15  H   -0.269659
    16  H   -0.380671
    17  H   -0.367005
    18  H   -0.440817
    19  H   -0.452724
    20  H   -0.570621
    21  H   -0.990554
    22  H   -0.669800
    23  H   -0.559552
    24  H   -0.873818
    25  C    0.804209
    26  H    0.131086
    27  H    0.124518
    28  H    0.343742
    29  H    0.201218
    30  H    0.207452
    31  O   -0.317983
    32  H    0.146943
    33  H    0.147421
    34  H   -0.287723
    35  H   -0.173349
    36  H   -0.216825
    37  O   -0.318141
    38  H    0.145294
    39  H    0.146894
 Sum of Mulliken charges =   1.00000
 Mulliken charges with hydrogens summed into heavy atoms:
               1
     1  C    0.304620
     2  C    0.715988
     3  C   -0.262376
     4  N    0.117633
     5  C    0.120469
     6  C   -0.326539
     7  C    0.368929
     8  N   -0.413099
     9  C    0.230533
    10  C   -0.068064
    11  C    0.158680
    12  O   -0.041587
    13  O    0.018070
    25  C    0.126312
    31  O   -0.023619
    37  O   -0.025953
 Electronic spatial extent (au):  <R**2>=           7687.3032
 Charge=              1.0000 electrons
 Dipole moment (field-independent basis, Debye):
    X=              5.9656    Y=             -1.4838    Z=             -0.4323  Tot=              6.1626
 Quadrupole moment (field-independent basis, Debye-Ang):
   XX=              5.7360   YY=            -57.9079   ZZ=            -84.3761
   XY=             12.9076   XZ=             -0.4879   YZ=              2.1407
 Traceless Quadrupole moment (field-independent basis, Debye-Ang):
   XX=             51.2520   YY=            -12.3919   ZZ=            -38.8601
   XY=             12.9076   XZ=             -0.4879   YZ=              2.1407
 Octapole moment (field-independent basis, Debye-Ang**2):
  XXX=            620.2300  YYY=             34.4245  ZZZ=             15.2296  XYY=            107.7762
  XXY=             67.6519  XXZ=            -49.3010  XZZ=             63.0728  YZZ=             11.3488
  YYZ=            -20.2337  XYZ=             -2.7482
 Hexadecapole moment (field-independent basis, Debye-Ang**3):
 XXXX=          -1955.8817 YYYY=          -1394.0679 ZZZZ=           -618.5798 XXXY=            167.8288
 XXXZ=           -331.3962 YYYX=            484.6730 YYYZ=             26.9589 ZZZX=            -23.0447
 ZZZY=             -3.9709 XXYY=           -801.0876 XXZZ=           -930.8200 YYZZ=           -404.3334
 XXYZ=             72.0502 YYXZ=             -1.8741 ZZXY=             10.0552
 N-N= 1.118495341157D+03 E-N=-4.102137881848D+03  KE= 8.000007351937D+02
 Calling FoFJK, ICntrl=      2127 FMM=F ISym2X=0 I1Cent= 0 IOpClX= 0 NMat=1 NMatS=1 NMatT=0.
 ***** Axes restored to original set *****
 -------------------------------------------------------------------
 Center     Atomic                   Forces (Hartrees/Bohr)
 Number     Number              X              Y              Z
 -------------------------------------------------------------------
      1        6          -0.000010274    0.000100465    0.000037732
[...]
 .00013102,-0.00004498,0.00015146,-0.00000699,0.00001889,0.00261757,0.0
 0092927,-0.00051795,-0.00905347,-0.00252832,0.00552358,-0.00314750,0.0
 0156104,-0.00111374,0.00024662,0.00000033,0.00018493,0.00001728,-0.000
 04356,-0.00014004,-0.00001599,0.00000758,-0.00002660,-0.00000965,0.000
 00557,-0.00000145,0.00004786,-0.00011507,-0.00010367,0.00002862,0.0000
 1446,0.00011201,0.00016480,-0.00009234,-0.00011759,-0.00002475,0.00000
 033,0.00002203,0.00000795,-0.00003563,0.00002967,0.00089639,-0.0000553
 3,-0.00008445,-0.00044088,0.00033155,0.00061145,0.00002656,-0.00008229
 ,0.00010651,-0.00000281,0.00000604,-0.00000908,-0.00000170,0.00000795,
 -0.00000466,0.00000439,-0.00002712,-0.00000760,-0.05297225,-0.06287143
 ,-0.00432513,0.00002352,0.00001793,0.00004396,-0.00000937,-0.00000656,
 0.00000738,0.00000387,-0.00000639,0.00000107,0.00000687,-0.00000434,-0
 .00000111,0.00000593,-0.00000099,0.00000073,-0.00000927,0.00000059,0.0
 0000076,0.00000483,0.00000065,-0.00000094,0.00000379,-0.00000003,0.000
 00020,0.02373815,0.00622074,0.00104131,0.06284038,0.06139514,0.0001167
 3,-0.00011384,0.00002779,-0.00047545,-0.00047466,-0.00003004,0.0000305
 1,-0.00002695,0.00001383,0.00004744,-0.00018247,0.00001183,0.00004595,
 -0.00000632,-0.00002058,-0.00001787,-0.00003364,-0.00002752,0.00351400
 ,0.00554080,0.00329322,0.03690972,0.01048560,-0.01350068,0.00392860,-0
 .00305803,0.00219389,-0.00031771,-0.00002075,0.00005048,-0.00028139,0.
 00010332,0.00046116,-0.00003164,0.00000836,0.00005885,-0.00001692,-0.0
 0000693,0.00002626,-0.00041530,0.00021071,-0.00024428,-0.00016407,-0.0
 0005623,-0.00011609,-0.00018479,-0.00003209,0.00010785,-0.00004827,-0.
 00002165,-0.00006356,-0.00000682,-0.00002972,0.00007396,-0.00188234,-0
 .00032763,0.00041348,-0.00192383,-0.00109250,0.00069448,-0.00015846,0.
 00011247,-0.00023166,0.00000650,-0.00000659,-0.00001420,0.00001277,-0.
 00000432,-0.00000580,-0.00001109,-0.00000286,0.00000057,-0.01501063,-0
 .00415096,-0.04959729,-0.00003272,-0.00001393,-0.00004345,0.00003455,-
 0.00001257,-0.00001307,0.00003088,0.00001873,-0.00003403,0.00000773,-0
 .00000565,-0.00000514,0.00000045,0.00000367,-0.00000690,-0.00000408,-0
 .00000170,0.00001193,-0.00000141,-0.00000042,-0.00000511,0.00000508,0.
 00000081,-0.00000580,-0.01056221,-0.00371731,-0.00015786,0.00456998,-0
 .00028185,0.05677562,-0.00007010,-0.00008076,-0.00006758,0.00031795,-0
 .00010730,-0.00001609,0.00011860,0.00005846,-0.00000940,-0.00005467,-0
 .00007976,-0.00002092,0.00001601,0.00004396,0.00002161,-0.00003190,0.0
 0001845,-0.00001413,0.00000119,-0.00136743,0.00205931,0.00024938,0.012
 13037,0.00936764,0.00041330,-0.00002401,-0.00041983,-0.00014581,0.0002
 0641,-0.00019907,0.00019890,0.00059035,0.00039072,0.00000582,-0.000041
 49,-0.00005059,0.00001605,-0.00000706,-0.00001923,0.00019544,-0.000118
 22,-0.00008392,-0.00000081,-0.00002300,-0.00004321,-0.00003491,-0.0000
 0349,0.00003783,0.00000104,-0.00004780,0.00019159,0.00005040,-0.000014
 27,0.00010029,-0.00022359,-0.00034814,0.00003562,0.00022367,0.00042152
 ,0.00024373,-0.00000190,0.00008289,0.00007629,0.00000464,0.00000008,-0
 .00000521,-0.00001180,0.00000289,0.00000486,-0.00000557,-0.00000403,0.
 00000509,-0.05249157,-0.03207368,-0.02318679,0.00006726,0.00005061,0.0
 0005741,-0.00002891,0.00001821,0.00000993,-0.00002261,-0.00000316,0.00
 001883,-0.00000877,0.00000824,0.00000616,-0.00000576,0.00000343,0.0000
 0697,0.00001149,-0.00000146,-0.00001211,-0.00000260,0.,0.00000543,-0.0
 0000732,-0.00000076,0.00000531,0.00203615,0.01332685,0.01055514,-0.003
 21572,-0.02469032,-0.01771014,0.05243259,-0.00003033,0.00013221,0.0000
 5628,-0.00018975,0.00013939,0.00005365,-0.00009461,-0.00010236,0.00000
 273,0.00010409,0.00007656,0.00004143,-0.00003389,-0.00008105,-0.000016
 86,0.00006401,0.00002710,0.00000841,-0.00039460,0.00050457,0.00160115,
 0.00151574,0.00813124,0.00667109,0.00043328,0.00127081,0.00092492,-0.0
 0001942,0.00031386,-0.00016726,0.00002749,0.00015788,0.00055042,0.0000
 6117,0.00005859,0.00007214,0.00001145,0.00001609,0.00001093,-0.0002247
 5,0.00011372,-0.00043795,-0.00001047,0.00000476,-0.00001322,0.00000950
 ,-0.00001412,-0.00001085,0.00000122,0.00002098,0.00005152,0.00001453,0
 .00007820,0.00010430,-0.00016923,-0.00023741,-0.00006299,0.00026501,0.
 00012689,0.00038090,0.00001831,-0.00007546,-0.00011775,-0.00000668,0.0
 0000082,0.00000247,0.00000408,-0.00000072,0.00000331,-0.00000124,0.000
 01329,0.00003202,-0.02913127,-0.22511443,-0.13135451,-0.00016407,-0.00
 008269,-0.00010055,0.00002984,-0.00001548,-0.00002334,-0.00000611,-0.0
 0000941,0.00000175,-0.00000472,-0.00000188,-0.00000380,-0.00000132,-0.
 00001384,-0.00000863,0.,0.00000891,0.00001340,-0.00000272,-0.00000225,
 -0.00000490,0.00000337,-0.00000064,-0.00000758,-0.00448382,-0.01684506
 ,-0.01370110,0.00032853,-0.00463564,-0.00280509,0.03207643,0.23603640,
 0.00018102,-0.00020168,0.00002597,-0.00045519,0.00035253,-0.00011459,0
 .00004735,-0.00006861,0.00001489,0.00014052,-0.00004449,0.00004672,0.0
 0006325,0.00001332,0.00001215,-0.00006042,-0.00002305,-0.00000611,0.00
 094185,0.00354879,-0.00460465,-0.00029962,-0.02656576,-0.02374845,-0.0
 0033329,-0.00195815,0.00088054,0.00022673,-0.00018841,0.00015278,0.000
 22667,-0.00124337,-0.00084466,0.00004366,0.00003725,0.00002717,0.00000
 941,0.00001927,-0.00000039,0.00006408,0.00076501,-0.00017540,-0.000007
 70,0.00007149,0.00007343,-0.00000043,0.00003156,0.00002934,0.00001160,
 0.00008178,-0.00026778,-0.00008420,0.00021101,-0.00041873,-0.00022104,
 0.00019821,-0.00011921,-0.00005994,0.00016164,0.00011262,-0.00005344,-
 0.00001432,-0.00006582,0.00000158,0.00000300,-0.00000598,0.00001664,-0
 .00000765,-0.00000532,-0.00000655,0.00003065,-0.00000528,-0.02061103,-
 0.12235981,-0.13800234,-0.00008763,-0.00005443,-0.00005619,0.00001098,
 -0.00000556,-0.00000491,-0.00001229,-0.00001519,0.00001079,-0.00000200
 ,-0.00000176,-0.00000131,0.00000107,-0.00001707,-0.00000351,-0.0000076
 8,0.00001352,0.00000556,0.00000364,-0.00000372,-0.00000315,0.00000471,
 -0.00000267,-0.00000204,0.00222371,0.01010102,0.00833861,-0.00057661,-
 0.00111811,-0.00009349,0.01866012,0.13825359,0.15881869,0.00000872,0.0
 0001719,0.00000774,0.00001804,-0.00006607,-0.00000119,0.00010564,-0.00
 009619,-0.00000638,-0.00038501,-0.00016089,-0.00016193,0.00003409,0.00
 015232,0.00006231,-0.00006806,0.00002076,-0.00001200,0.00006522,-0.000
 03908,-0.00004765,-0.00010227,0.00003896,0.00001850,0.00003931,-0.0000
 3840,0.00002749,0.00001652,-0.00000009,-0.00001121,0.00000437,0.000008
 08,0.00002225,-0.00146964,-0.00090992,0.00105614,-0.00864151,0.0071502
 9,0.00474472,0.00000666,0.00000741,0.00000404,-0.00001062,0.00000939,-
 0.00000304,-0.00000493,-0.00001335,0.00000533,-0.00001537,0.00000340,-
 0.00000422,0.00000318,0.00000456,0.00002147,-0.00002963,-0.00000171,-0
 .00000065,-0.00002524,0.00001136,0.00000456,0.00006473,-0.00002191,-0.
 00001431,0.00004382,0.00006614,-0.00001867,-0.00000244,0.00000720,-0.0
 0000585,-0.00000554,0.00000193,-0.00000382,0.00004527,0.00000971,-0.00
 004090,0.00081824,0.00029739,0.00027824,-0.00005634,0.00001030,-0.0001
 9661,0.00176450,0.00136546,-0.00184122,-0.00302666,0.00098465,-0.00218
 169,-0.00167438,-0.00185935,0.00034519,0.00043853,0.00085118,0.0000337
 0,-0.00008040,0.00000181,0.00005005,-0.00017988,0.00011737,-0.00005590
 ,0.00000334,0.00000855,-0.00001187,-0.00002639,-0.00000516,-0.00000504
 ,0.00000513,0.00000578,0.00000364,0.48526664,0.00003838,-0.00006665,-0
 .00001133,0.00007705,0.00008396,0.00005721,-0.00014291,0.00003064,-0.0
 0003818,0.00022326,0.00004837,0.00009422,0.00014736,-0.00011505,0.0000
 0945,-0.00008654,0.00003538,-0.00000684,-0.00000046,-0.00002823,-0.000
 02129,0.00002822,0.00004060,-0.00000022,-0.00001057,-0.00001712,0.0000
 0543,-0.00003116,-0.00001222,-0.00000420,-0.00000564,-0.00000150,0.000
 00952,0.00100143,0.00118131,-0.00077717,0.00642517,-0.00019217,-0.0024
 3184,-0.00000746,0.00000742,0.00000646,0.00000180,0.00000350,-0.000001
 12,0.00001219,0.00000579,-0.00000113,0.00000727,0.00000651,-0.00000298
 ,-0.00000689,-0.00000807,-0.00000060,0.00000769,0.00000683,-0.00000498
 ,0.00000885,0.00001055,-0.00000062,-0.00003962,-0.00000920,0.00000647,
 0.00004944,-0.00002900,-0.00002740,0.00002662,0.00000347,0.00000373,-0
 .00000052,-0.00000244,-0.00000038,-0.00001317,-0.00001068,0.00001222,-
 0.00046405,-0.00026199,-0.00021140,0.00008513,-0.00017109,0.00005747,-
 0.00149111,-0.00158649,0.00151904,0.00080388,-0.00478665,-0.00022379,-
 0.00037901,0.00094523,0.00017376,0.00052296,-0.00066607,-0.00021998,-0
 .00024722,0.00022179,-0.00004421,-0.00016648,0.00022076,0.00020999,-0.
 00000566,0.00000022,-0.00000476,0.00001052,0.00000246,0.00000298,-0.00
 000521,0.00000424,0.00000377,-0.09880152,0.02689791,0.00001258,-0.0000
 1798,-0.00000108,0.00001813,0.00003844,0.00001509,-0.00006262,0.000044
 05,-0.00001369,0.00023307,0.00007746,0.00012487,0.00000971,-0.00006097
 ,-0.00002691,0.00001356,0.00000079,0.00001824,-0.00001211,0.00000398,-
 0.00000087,0.00002652,-0.00001091,0.00003103,-0.00001290,0.00001518,-0
 .00001688,0.00000239,0.,0.00000798,0.00000988,-0.00000692,-0.00001881,
 0.00068022,0.00004955,0.00005377,0.00389105,-0.00206152,0.00379819,-0.
 00000097,0.00000159,0.00000091,0.00000548,-0.00000476,0.00000138,-0.00
 000253,-0.00000044,-0.00000783,0.00000430,-0.00000136,0.00000330,-0.00
 000580,0.00000579,-0.00000194,0.00000599,-0.00000176,0.00000327,0.0000
 0692,-0.00000217,0.00000159,-0.00002640,0.00000703,-0.00001355,-0.0000
 1500,-0.00000976,-0.00005558,0.00001134,0.00000618,-0.00001046,0.00000
 603,0.00000153,-0.00000463,-0.00000990,0.00000363,-0.00001344,-0.00052
 414,-0.00019494,-0.00027240,-0.00021193,0.00008299,0.00007515,-0.00052
 108,-0.00005407,0.00016092,-0.00158261,-0.00072073,-0.00938467,0.00031
 908,0.00058947,-0.00024561,-0.00001271,-0.00024725,0.00032818,0.000057
 95,-0.00013074,-0.00017450,-0.00006938,0.00012298,-0.00009062,-0.00000
 060,-0.00001026,0.00000164,0.00000469,-0.00000014,0.00000593,-0.000005
 23,0.00000515,0.00000142,0.07627463,0.02692884,0.69584799,-0.00001616,
 0.00001106,-0.00000218,-0.00002598,-0.00000600,-0.00001399,0.00001452,
 0.00000569,0.00001371,-0.00001198,0.00001212,-0.00001744,-0.00003621,-
 0.00000019,-0.00001700,0.00003001,-0.00001565,-0.00000052,-0.00001699,
 0.00001269,0.00001845,0.00002093,-0.00001344,-0.00001606,-0.00000800,0
 .00000881,-0.00000349,-0.00000307,0.00000193,0.00000043,-0.00000619,0.
 00000060,-0.00000035,-0.00009451,-0.00005976,-0.00003724,-0.00165601,0
 .00118644,-0.00070684,-0.00000101,-0.00000361,-0.00000263,0.00000123,-
 0.00000191,0.00000077,0.00000147,0.00000399,0.00000174,0.00000324,-0.0
 0000127,0.00000033,0.00000195,-0.00000284,-0.00000640,0.00000710,0.000
 00074,-0.00000072,0.00000459,-0.00000368,-0.00000256,-0.00000332,0.000
 00459,0.00000837,-0.00001365,-0.00001306,0.00003203,-0.00000833,-0.000
 00648,0.00000532,-0.00000044,-0.00000139,0.00000301,-0.00001041,-0.000
 00345,0.00001503,0.00004756,0.00003189,0.00006549,0.00002340,-0.000005
 77,0.00000123,0.00011116,0.00007746,-0.00002272,0.00290690,-0.00224488
 ,0.00221272,-0.00025936,0.00000367,0.00010869,-0.00004285,0.00000172,-
 0.00007828,0.00002230,0.00006218,0.00005014,0.00003796,-0.00000447,0.0
 0000444,0.00000002,0.00000025,0.00000351,0.00000599,0.00000151,-0.0000
 0028,0.00000046,-0.00000354,-0.00000214,-0.09864441,0.03151995,0.17783
 935,0.08888536,-0.00001574,0.00002355,0.00000308,-0.00003398,-0.000022
 84,-0.00002241,0.00004104,-0.00000085,0.00001686,-0.00002806,0.0000038
 8,-0.00001106,-0.00005352,0.00001805,-0.00001276,0.00004120,-0.0000093
 0,0.00000558,-0.00000824,0.00001752,0.00001426,0.00000202,-0.00002322,
 0.00000068,-0.00000115,0.00001298,-0.00000782,0.00001211,0.00000587,0.
 00000386,0.00000260,-0.00000084,-0.00000786,-0.00011980,-0.00014675,0.
 00003491,0.00105815,-0.00088000,0.00065526,0.00000228,-0.00000386,-0.0
 0000333,0.00000168,-0.00000296,0.00000089,-0.00000542,-0.00000103,-0.0
 0000177,-0.00000129,-0.00000323,0.00000206,0.00000238,0.00000421,-0.00
 000254,0.00000043,-0.00000304,0.00000283,-0.00000051,-0.00000611,0.000
 00025,0.00000444,0.00000656,-0.00000201,-0.00001793,0.00000734,0.00001
 953,-0.00001096,-0.00000189,0.00000089,-0.00000011,0.00000168,0.000000
 74,0.00000015,0.00000297,-0.00000104,0.00006030,0.00004940,0.00003547,
 0.00000045,0.00003108,-0.00000580,0.00019111,0.00013685,-0.00009499,-0
 .00159655,0.00085375,-0.00154025,0.00020708,0.00018866,-0.00034768,-0.
 00024747,0.00006892,0.00023157,0.00014259,-0.00016227,-0.00007586,0.00
 004665,-0.00004949,-0.00009616,0.00000190,-0.00000170,0.00000378,-0.00
 000124,-0.00000040,-0.00000035,0.00000113,-0.00000209,-0.00000194,0.02
 776639,-0.01028520,-0.06152727,-0.02639795,0.00953932,-0.00000278,0.00
 000395,-0.00000031,-0.00000204,-0.00001334,-0.00000309,0.00002055,-0.0
 0001671,0.00000394,-0.00008859,-0.00003099,-0.00004653,0.00001206,0.00
 002033,0.00001508,-0.00001412,0.00000545,-0.00000870,0.00000672,-0.000
 00347,-0.00000095,-0.00001243,0.00000664,-0.00001488,0.00000591,-0.000
 00720,0.00000895,-0.00000154,-0.00000025,-0.00000451,-0.00000587,0.000
 00367,0.00001031,-0.00027305,-0.00006753,0.00005914,-0.00156345,0.0006
 9011,0.00015662,0.00000021,-0.00000046,-0.00000064,-0.00000295,0.00000
 275,-0.00000045,0.00000156,0.00000040,0.00000415,-0.00000245,0.0000008
 4,-0.00000166,0.00000330,-0.00000330,0.00000163,-0.00000279,0.00000106
 ,-0.00000180,-0.00000326,0.00000152,-0.00000081,0.00001011,-0.00000294
 ,0.00000533,0.00001322,0.00000503,0.00001600,-0.00000285,-0.00000317,0
 .00000593,-0.00000351,-0.00000053,0.00000239,0.00000418,-0.00000168,0.
 00000593,0.00019666,0.00006366,0.00009343,0.00003574,-0.00001827,-0.00
 002308,0.00022817,0.00009612,-0.00016455,0.00229676,-0.00101787,-0.000
 45971,0.00008580,-0.00018132,0.00005631,-0.00009059,0.00014487,-0.0000
 7251,0.00002375,0.00000947,0.00007351,0.00004683,-0.00005754,0.0000013
 8,0.00000006,0.00000438,-0.00000124,-0.00000182,0.00000008,-0.00000243
 ,0.00000209,-0.00000191,-0.00000060,0.12171350,-0.05151130,-0.48354772
 ,-0.13913942,0.05624507,0.50766076,-0.00000630,0.00000395,-0.00000035,
 -0.00001137,0.00000601,-0.00000607,-0.00000612,0.00001916,0.00000455,0
 .00007443,0.00003500,0.00003450,-0.00002464,-0.00001723,-0.00001560,0.
 00002781,-0.00001016,0.00000443,-0.00001528,0.00001088,0.00001262,0.00
 002230,-0.00001325,-0.00000253,-0.00000938,0.00001098,-0.00000725,-0.0
 0000069,0.00000124,0.00000302,-0.00000002,-0.00000201,-0.00000713,0.00
 019351,-0.00011609,0.00006321,-0.00000552,0.00057743,0.00080084,-0.000
 00094,-0.00000227,-0.00000143,0.00000192,-0.00000274,0.00000101,0.0000
 0032,0.00000191,-0.00000106,0.00000293,-0.00000128,0.00000165,0.000000
 13,-0.00000009,-0.00000437,0.00000664,-0.00000007,0.00000069,0.0000050
 7,-0.00000335,-0.00000110,-0.00000993,0.00000547,0.00000040,-0.0000176
 8,-0.00000745,-0.00000232,-0.00000272,-0.00000120,0.00000037,0.0000016
 2,-0.00000036,0.00000070,-0.00001038,-0.00000073,0.00000680,-0.0001596
 3,-0.00004551,-0.00006345,-0.00009886,0.00005007,0.00004657,-0.0000771
 4,0.00016001,-0.00010197,-0.00008267,-0.00138990,-0.00207174,-0.000318
 32,0.00010317,0.00007172,0.00003147,-0.00007401,0.00000440,0.00000118,
 0.00002991,-0.00000068,0.00000901,0.00005202,0.00000004,-0.00000023,-0
 .00000275,0.00000304,0.00000562,0.00000093,0.00000159,-0.00000119,-0.0
 0000128,-0.00000105,-0.37430321,0.06090806,-0.25635695,0.00873274,-0.0
 0104613,0.01650634,0.36604552,-0.00000998,0.00001712,0.00000266,-0.000
 02422,-0.00001649,-0.00001666,0.00002855,0.00000522,0.00000988,-0.0000
 0911,0.00000423,-0.00000058,-0.00004213,0.00001243,-0.00000843,0.00003
 208,-0.00000996,0.00000683,-0.00000618,0.00001457,0.00001175,0.0000016
 6,-0.00001975,-0.00000008,-0.00000047,0.00001206,-0.00000506,0.0000087
 0,0.00000368,0.00000323,0.00000231,-0.00000072,-0.00000649,-0.00000953
 ,-0.00016226,0.00002495,0.00065531,-0.00083328,-0.00108104,0.00000180,
 -0.00000339,-0.00000270,0.00000094,-0.00000220,0.00000087,-0.00000402,
 -0.00000031,-0.00000044,-0.00000074,-0.00000256,0.00000151,0.00000152,
 0.00000228,-0.00000203,0.00000049,-0.00000255,0.00000186,-0.00000059,-
 0.00000502,-0.00000006,0.00000316,0.00000650,-0.00000078,-0.00001617,0
 .00000995,-0.00000381,-0.00000670,0.00000050,-0.00000271,0.00000045,0.
 00000126,-0.00000011,0.00000008,0.00000439,-0.00000101,0.00001572,0.00
 002989,0.00000517,-0.00000460,0.00009281,0.00000636,0.00011005,0.00010
 731,-0.00008048,-0.00073992,0.00080881,0.00209950,0.00039900,0.0001820
 5,0.00016336,-0.00034703,0.00006850,-0.00003641,0.00009168,-0.00004976
 ,0.00004362,0.00016640,-0.00018043,-0.00003666,0.00000202,-0.00000163,
 0.00000288,-0.00000133,-0.00000055,-0.00000046,0.00000107,-0.00000200,
 -0.00000168,0.06309609,-0.01150713,0.03707933,-0.00415798,0.00063449,-
 0.00436561,-0.05923833,0.01078192,-0.00000293,0.00000122,0.00000087,-0
 .00000442,-0.00000240,-0.00000299,0.00000246,-0.00000402,0.00000389,-0
 .00002423,-0.00000716,-0.00002146,-0.00000420,-0.00000217,0.00000542,0
 .00000133,0.00000089,-0.00000789,-0.00000304,0.00000342,0.00000524,0.0
 0000290,0.00000171,-0.00001612,0.00000066,-0.00000265,0.00000349,-0.00
 000444,-0.00000092,-0.00000143,-0.00000331,0.00000121,0.00000419,0.000
 04570,0.00020882,-0.00032575,0.00180549,-0.00130722,-0.00162672,-0.000
 00076,-0.00000129,-0.00000015,-0.00000072,0.00000099,-0.00000050,0.000
 00214,0.00000178,0.00000189,0.00000021,0.00000043,-0.00000077,0.000001
 54,-0.00000284,-0.00000181,0.00000118,0.00000102,-0.00000125,0.0000007
 7,-0.00000026,-0.00000088,-0.00000102,-0.00000063,0.00000833,-0.000000
 36,-0.00000507,0.00002300,-0.00000276,-0.00000231,0.00000520,-0.000001
 20,-0.00000052,0.00000244,-0.00000154,-0.00000325,0.00001280,0.0000569
 6,0.00001829,0.00005557,0.00013840,-0.00004625,0.00002649,-0.00025454,
 -0.00031194,0.00045805,-0.00264345,0.00231772,0.00264657,0.00018893,0.
 00016060,0.00007042,-0.00000021,-0.00012451,-0.00016431,-0.00004147,0.
 00004616,0.00004160,0.00003078,-0.00006021,0.00009606,-0.00000067,0.00
 000383,0.00000093,0.00000161,0.00000078,-0.00000217,0.00000150,-0.0000
 0330,-0.00000077,-0.20004935,0.02644516,-0.20657963,-0.04031452,0.0064
 8532,-0.02382461,0.24107657,-0.03381045,0.22910676\\0.00000165,-0.0000
 0336,0.00000099,0.00000338,0.00000532,0.00000351,-0.00000569,-0.000000
 34,-0.00000338,-0.00000173,-0.00000324,0.00000352,0.00000273,0.0000043
 9,0.00000037,-0.00000331,-0.00000047,-0.00000139,-0.00000011,-0.000003
 45,-0.00000734,-0.00000024,0.00000286,0.00000209,0.00000261,-0.0000052
 3,0.00000223,-0.00000148,0.00000097,-0.00000383,0.00000060,-0.00000018
 ,0.00000419,-0.00000103,-0.00000101,0.00000165,0.00001161,0.00000479,-
 0.00000978,-0.00000082,-0.00000026,-0.00000116,0.00000019,-0.00000109,
 -0.00000101,0.00000028,-0.00000098,0.00000035,-0.00000014,-0.00000003,
 0.00000067,-0.00000007,-0.00000075,-0.00000042,-0.00000077,-0.00000009
 ,-0.00000065,0.00000096,-0.00000148,-0.00000016,0.00000035,0.00000056,
 0.00000107,-0.00000021,-0.00000070,0.00000163,0.00000042,-0.00000023,0
 .00000040,0.00000075,-0.00000011,-0.00000099,0.00000056,-0.00000077,-0
 .00000098,0.00000495,0.00000287,-0.00000167,-0.00000178,-0.00000059,0.
 00000041,0.00000013,0.00000333,-0.00000036,-0.00000918,0.00000051,0.00
 000204,-0.00000774,-0.00000722,0.00000549,0.00000271,0.00000697,-0.000
 00076,-0.00000018,-0.00000061,0.00000443,-0.00000295,0.,-0.00000339,-0
 .00000010,-0.00000008,-0.00000016,-0.00000067,-0.00000061,-0.00000023,
 -0.00000022,-0.00000037,-0.00000059,0.00000087,0.00000012,0.00000517,-
 0.00000015,0.00000081,-0.00000221,0.00000385,-0.00000024,0.00000028\\\
 @


 A successful marriage requires falling in love
 many times, always with the same person.
                           -- Mignon McLaughlin
 Job cpu time:       0 days 23 hours 35 minutes 35.8 seconds.
 Elapsed time:       0 days  0 hours 50 minutes 36.0 seconds.
 File lengths (MBytes):  RWF=   1240 Int=      0 D2E=      0 Chk=     32 Scr=      8
 Normal termination of Gaussian 16 at Mon Jan 30 18:13:02 2023.
