 Entering Gaussian System, Link 0=g16
 Input=NicPySs4hYaab_2.gjf
 Output=NicPySs4hYaab_2.log
 Initial command:
 /sw/contrib/gaussian/g16/A03/g16/l1.exe "/gscratch/scrubbed/gds001/Gau-8440.inp" -scrdir="/gscratch/scrubbed/gds001/"
 Entering Link 1 = /sw/contrib/gaussian/g16/A03/g16/l1.exe PID=      8441.
  
 Copyright (c) 1988,1990,1992,1993,1995,1998,2003,2009,2016,
            Gaussian, Inc.  All Rights Reserved.
  
 This is part of the Gaussian(R) 16 program.  It is based on
 the Gaussian(R) 09 system (copyright 2009, Gaussian, Inc.),
 the Gaussian(R) 03 system (copyright 2003, Gaussian, Inc.),
 the Gaussian(R) 98 system (copyright 1998, Gaussian, Inc.),
 the Gaussian(R) 94 system (copyright 1995, Gaussian, Inc.),
 the Gaussian 92(TM) system (copyright 1992, Gaussian, Inc.),
 the Gaussian 90(TM) system (copyright 1990, Gaussian, Inc.),
 the Gaussian 88(TM) system (copyright 1988, Gaussian, Inc.),
 the Gaussian 86(TM) system (copyright 1986, Carnegie Mellon
 University), and the Gaussian 82(TM) system (copyright 1983,
 Carnegie Mellon University). Gaussian is a federally registered
 trademark of Gaussian, Inc.
  
 This software contains proprietary and confidential information,
 including trade secrets, belonging to Gaussian, Inc.
  
 This software is provided under written license and may be
 used, copied, transmitted, or stored only in accord with that
 written license.
  
 The following legend is applicable only to US Government
 contracts under FAR:
  
                    RESTRICTED RIGHTS LEGEND
  
 Use, reproduction and disclosure by the US Government is
 subject to restrictions as set forth in subparagraphs (a)
 and (c) of the Commercial Computer Software - Restricted
 Rights clause in FAR 52.227-19.
  
 Gaussian, Inc.
 340 Quinnipiac St., Bldg. 40, Wallingford CT 06492
  
  
 ---------------------------------------------------------------
 Warning -- This program may not be used in any manner that
 competes with the business of Gaussian, Inc. or will provide
 assistance to any competitor of Gaussian, Inc.  The licensee
 of this program is prohibited from giving any competitor of
 Gaussian, Inc. access to this program.  By using this program,
 the user acknowledges that Gaussian, Inc. is engaged in the
 business of creating and licensing software in the field of
 computational chemistry and represents and warrants to the
 licensee that it is not a competitor of Gaussian, Inc. and that
 it will not use this program in any manner prohibited above.
 ---------------------------------------------------------------
  

 Cite this work as:
 Gaussian 16, Revision A.03,
 M. J. Frisch, G. W. Trucks, H. B. Schlegel, G. E. Scuseria, 
 M. A. Robb, J. R. Cheeseman, G. Scalmani, V. Barone, 
 G. A. Petersson, H. Nakatsuji, X. Li, M. Caricato, A. V. Marenich, 
 J. Bloino, B. G. Janesko, R. Gomperts, B. Mennucci, H. P. Hratchian, 
 J. V. Ortiz, A. F. Izmaylov, J. L. Sonnenberg, D. Williams-Young, 
 F. Ding, F. Lipparini, F. Egidi, J. Goings, B. Peng, A. Petrone, 
 T. Henderson, D. Ranasinghe, V. G. Zakrzewski, J. Gao, N. Rega, 
 G. Zheng, W. Liang, M. Hada, M. Ehara, K. Toyota, R. Fukuda, 
 J. Hasegawa, M. Ishida, T. Nakajima, Y. Honda, O. Kitao, H. Nakai, 
 T. Vreven, K. Throssell, J. A. Montgomery, Jr., J. E. Peralta, 
 F. Ogliaro, M. J. Bearpark, J. J. Heyd, E. N. Brothers, K. N. Kudin, 
 V. N. Staroverov, T. A. Keith, R. Kobayashi, J. Normand, 
 K. Raghavachari, A. P. Rendell, J. C. Burant, S. S. Iyengar, 
 J. Tomasi, M. Cossi, J. M. Millam, M. Klene, C. Adamo, R. Cammi, 
 J. W. Ochterski, R. L. Martin, K. Morokuma, O. Farkas, 
 J. B. Foresman, and D. J. Fox, Gaussian, Inc., Wallingford CT, 2016.
 
 ******************************************
 Gaussian 16:  ES64L-G16RevA.03 25-Dec-2016
                30-Jan-2023 
 ******************************************
 %nprocshared=28
 Will use up to   28 processors via shared memory.
 %mem=41GB
 -----------------------------
 # wB97XD/aug-cc-pVDZ opt freq
 -----------------------------
 1/18=20,19=15,26=3,38=1/1,3;
 2/9=110,12=2,17=6,18=5,40=1/2;
 3/5=16,7=10,11=2,25=1,30=1,71=1,74=-58/1,2,3;
 4//1;
 5/5=2,38=5/2;
 6/7=2,8=2,9=2,10=2,28=1/1;
 7//1,2,3,16;
 1/18=20,19=15,26=3/3(2);
 2/9=110/2;
 99//99;
 2/9=110/2;
 3/5=16,7=10,11=2,25=1,30=1,71=1,74=-58/1,2,3;
 4/5=5,16=3,69=1/1;
 5/5=2,38=5/2;
 7//1,2,3,16;
 1/18=20,19=15,26=3/3(-5);
 2/9=110/2;
 6/7=2,8=2,9=2,10=2,19=2,28=1/1;
 99/9=1/99;
 ----
 blah
 ----
 Symbolic Z-matrix:
 Charge =  1 Multiplicity = 1
 C                     1.99105   2.3122   -0.21603 
 C                     2.1588    0.94561   0.02791 
 C                     1.03022   0.21704   0.37784 
 N                    -0.16878   0.81226   0.46751 
 C                    -0.34986   2.11925   0.22813 
 C                     0.73353   2.90558  -0.12092 
 C                     3.50342   0.26475  -0.1204 
 N                     3.55283  -0.98737   0.62359 
 C                     4.42371  -1.89734  -0.11539 
 C                     4.02383  -1.64417  -1.5623 
 C                     3.82156  -0.11947  -1.59675 
 O                    -2.27301  -0.66459   1.0687 
 O                    -4.03345  -1.03752  -0.84519 
 H                     4.25792  -2.9304    0.21359 
 H                     4.77984  -1.98116  -2.27906 
 H                     3.0848   -2.16627  -1.78486 
 H                     4.73958   0.38814  -1.91409 
 H                     3.02502   0.18369  -2.28573 
 H                     5.49403  -1.65509   0.04269 
 H                     4.27133   0.97622   0.24178 
 H                     1.08152  -0.84735   0.59488 
 H                    -1.36519   2.49484   0.32833 
 H                     0.59231   3.96705  -0.31022 
 H                     2.85635   2.92027  -0.48288 
 C                     3.89604  -0.829     2.02419 
 H                    -1.00753   0.22767   0.73661 
 H                    -2.64693  -0.87298   1.92665 
 H                    -2.97209  -0.83817   0.38744 
 H                    -4.92279  -0.6186   -0.83608 
 H                    -4.14559  -1.89516  -1.26029 
 O                    -6.43257   0.1763   -0.8076 
 H                    -7.23718  -0.14977  -0.36518 
 H                    -6.73531   0.69263  -1.55759 
 H                     3.16459  -0.17967   2.5247 
 H                     4.90184  -0.38654   2.16328 
 H                     3.8755   -1.8059    2.52161 
 O                    -8.71935  -0.75042   0.44981 
 H                    -9.29024  -1.46561   0.15743 
 H                    -9.21686  -0.26887   1.11574 
 
 Add virtual bond connecting atoms H26        and O12        Dist= 2.99D+00.
 Add virtual bond connecting atoms H28        and O13        Dist= 3.10D+00.
 Add virtual bond connecting atoms O31        and H29        Dist= 3.22D+00.
 Add virtual bond connecting atoms O37        and H32        Dist= 3.39D+00.

 GradGradGradGradGradGradGradGradGradGradGradGradGradGradGradGradGradGrad
 Berny optimization.
 Initialization pass.
                           ----------------------------
                           !    Initial Parameters    !
                           ! (Angstroms and Degrees)  !
 --------------------------                            --------------------------
 ! Name  Definition              Value          Derivative Info.                !
 --------------------------------------------------------------------------------
 ! R1    R(1,2)                  1.3983         estimate D2E/DX2                !
 ! R2    R(1,6)                  1.3937         estimate D2E/DX2                !
 ! R3    R(1,24)                 1.0907         estimate D2E/DX2                !
 ! R4    R(2,3)                  1.3881         estimate D2E/DX2                !
 ! R5    R(2,7)                  1.5145         estimate D2E/DX2                !
 ! R6    R(3,4)                  1.3416         estimate D2E/DX2                !
 ! R7    R(3,21)                 1.0875         estimate D2E/DX2                !
 ! R8    R(4,5)                  1.341          estimate D2E/DX2                !
 ! R9    R(4,26)                 1.0572         estimate D2E/DX2                !
 ! R10   R(5,6)                  1.3834         estimate D2E/DX2                !
 ! R11   R(5,22)                 1.0872         estimate D2E/DX2                !
 ! R12   R(6,23)                 1.0874         estimate D2E/DX2                !
 ! R13   R(7,8)                  1.4573         estimate D2E/DX2                !
 ! R14   R(7,11)                 1.5584         estimate D2E/DX2                !
 ! R15   R(7,20)                 1.1077         estimate D2E/DX2                !
 ! R16   R(8,9)                  1.4603         estimate D2E/DX2                !
 ! R17   R(8,25)                 1.4507         estimate D2E/DX2                !
 ! R18   R(9,10)                 1.5223         estimate D2E/DX2                !
 ! R19   R(9,14)                 1.0968         estimate D2E/DX2                !
 ! R20   R(9,19)                 1.1087         estimate D2E/DX2                !
 ! R21   R(10,11)                1.5384         estimate D2E/DX2                !
 ! R22   R(10,15)                1.0949         estimate D2E/DX2                !
 ! R23   R(10,16)                1.0972         estimate D2E/DX2                !
 ! R24   R(11,17)                1.096          estimate D2E/DX2                !
 ! R25   R(11,18)                1.0959         estimate D2E/DX2                !
 ! R26   R(12,26)                1.5836         estimate D2E/DX2                !
 ! R27   R(12,27)                0.9588         estimate D2E/DX2                !
 ! R28   R(12,28)                0.9914         estimate D2E/DX2                !
 ! R29   R(13,28)                1.6388         estimate D2E/DX2                !
 ! R30   R(13,29)                0.9831         estimate D2E/DX2                !
 ! R31   R(13,30)                0.9594         estimate D2E/DX2                !
 ! R32   R(25,34)                1.0987         estimate D2E/DX2                !
 ! R33   R(25,35)                1.1076         estimate D2E/DX2                !
 ! R34   R(25,36)                1.0964         estimate D2E/DX2                !
 ! R35   R(29,31)                1.7065         estimate D2E/DX2                !
 ! R36   R(31,32)                0.9744         estimate D2E/DX2                !
 ! R37   R(31,33)                0.9595         estimate D2E/DX2                !
 ! R38   R(32,37)                1.7949         estimate D2E/DX2                !
 ! R39   R(37,38)                0.9607         estimate D2E/DX2                !
 ! R40   R(37,39)                0.9607         estimate D2E/DX2                !
 ! A1    A(2,1,6)              120.8264         estimate D2E/DX2                !
 ! A2    A(2,1,24)             119.4955         estimate D2E/DX2                !
 ! A3    A(6,1,24)             119.678          estimate D2E/DX2                !
 ! A4    A(1,2,3)              117.3476         estimate D2E/DX2                !
 ! A5    A(1,2,7)              121.9254         estimate D2E/DX2                !
 ! A6    A(3,2,7)              120.7017         estimate D2E/DX2                !
 ! A7    A(2,3,4)              120.7026         estimate D2E/DX2                !
 ! A8    A(2,3,21)             121.7121         estimate D2E/DX2                !
 ! A9    A(4,3,21)             117.584          estimate D2E/DX2                !
 ! A10   A(3,4,5)              122.762          estimate D2E/DX2                !
 ! A11   A(3,4,26)             118.7326         estimate D2E/DX2                !
 ! A12   A(5,4,26)             118.5053         estimate D2E/DX2                !
 ! A13   A(4,5,6)              119.5553         estimate D2E/DX2                !
 ! A14   A(4,5,22)             116.5099         estimate D2E/DX2                !
 ! A15   A(6,5,22)             123.9345         estimate D2E/DX2                !
 ! A16   A(1,6,5)              118.8033         estimate D2E/DX2                !
 ! A17   A(1,6,23)             121.3916         estimate D2E/DX2                !
 ! A18   A(5,6,23)             119.8045         estimate D2E/DX2                !
 ! A19   A(2,7,8)              111.4926         estimate D2E/DX2                !
 ! A20   A(2,7,11)             112.6358         estimate D2E/DX2                !
 ! A21   A(2,7,20)             107.141          estimate D2E/DX2                !
 ! A22   A(8,7,11)             105.3608         estimate D2E/DX2                !
 ! A23   A(8,7,20)             111.1877         estimate D2E/DX2                !
 ! A24   A(11,7,20)            109.0619         estimate D2E/DX2                !
 ! A25   A(7,8,9)              107.2935         estimate D2E/DX2                !
 ! A26   A(7,8,25)             114.0232         estimate D2E/DX2                !
 ! A27   A(9,8,25)             114.5507         estimate D2E/DX2                !
 ! A28   A(8,9,10)             102.7493         estimate D2E/DX2                !
 ! A29   A(8,9,14)             110.1812         estimate D2E/DX2                !
 ! A30   A(8,9,19)             111.5554         estimate D2E/DX2                !
 ! A31   A(10,9,14)            113.7046         estimate D2E/DX2                !
 ! A32   A(10,9,19)            110.6558         estimate D2E/DX2                !
 ! A33   A(14,9,19)            107.9968         estimate D2E/DX2                !
 ! A34   A(9,10,11)            102.7465         estimate D2E/DX2                !
 ! A35   A(9,10,15)            112.9319         estimate D2E/DX2                !
 ! A36   A(9,10,16)            109.7831         estimate D2E/DX2                !
 ! A37   A(11,10,15)           112.4044         estimate D2E/DX2                !
 ! A38   A(11,10,16)           110.7637         estimate D2E/DX2                !
 ! A39   A(15,10,16)           108.161          estimate D2E/DX2                !
 ! A40   A(7,11,10)            104.4761         estimate D2E/DX2                !
 ! A41   A(7,11,17)            109.3368         estimate D2E/DX2                !
 ! A42   A(7,11,18)            112.2719         estimate D2E/DX2                !
 ! A43   A(10,11,17)           110.8166         estimate D2E/DX2                !
 ! A44   A(10,11,18)           112.569          estimate D2E/DX2                !
 ! A45   A(17,11,18)           107.377          estimate D2E/DX2                !
 ! A46   A(26,12,27)           128.4429         estimate D2E/DX2                !
 ! A47   A(26,12,28)           121.1993         estimate D2E/DX2                !
 ! A48   A(27,12,28)           107.5671         estimate D2E/DX2                !
 ! A49   A(28,13,29)           121.808          estimate D2E/DX2                !
 ! A50   A(28,13,30)           120.6565         estimate D2E/DX2                !
 ! A51   A(29,13,30)           106.2122         estimate D2E/DX2                !
 ! A52   A(8,25,34)            110.2934         estimate D2E/DX2                !
 ! A53   A(8,25,35)            112.3142         estimate D2E/DX2                !
 ! A54   A(8,25,36)            109.651          estimate D2E/DX2                !
 ! A55   A(34,25,35)           108.1359         estimate D2E/DX2                !
 ! A56   A(34,25,36)           107.904          estimate D2E/DX2                !
 ! A57   A(35,25,36)           108.4193         estimate D2E/DX2                !
 ! A58   A(29,31,32)           125.61           estimate D2E/DX2                !
 ! A59   A(29,31,33)           121.1134         estimate D2E/DX2                !
 ! A60   A(32,31,33)           105.9281         estimate D2E/DX2                !
 ! A61   A(32,37,38)           126.9874         estimate D2E/DX2                !
 ! A62   A(32,37,39)           125.0744         estimate D2E/DX2                !
 ! A63   A(38,37,39)           106.0456         estimate D2E/DX2                !
 ! A64   L(4,26,12,14,-1)      179.7312         estimate D2E/DX2                !
 ! A65   L(12,28,13,18,-1)     174.7359         estimate D2E/DX2                !
 ! A66   L(13,29,31,22,-1)     177.4335         estimate D2E/DX2                !
 ! A67   L(31,32,37,27,-1)     180.0            estimate D2E/DX2                !
 ! A68   L(4,26,12,14,-2)      182.9062         estimate D2E/DX2                !
 ! A69   L(12,28,13,18,-2)     182.6981         estimate D2E/DX2                !
 ! A70   L(13,29,31,22,-2)     179.7252         estimate D2E/DX2                !
 ! A71   L(31,32,37,27,-2)     180.0            estimate D2E/DX2                !
 ! D1    D(6,1,2,3)             -0.5934         estimate D2E/DX2                !
 ! D2    D(6,1,2,7)            177.5912         estimate D2E/DX2                !
 ! D3    D(24,1,2,3)           179.3369         estimate D2E/DX2                !
 ! D4    D(24,1,2,7)            -2.4785         estimate D2E/DX2                !
 ! D5    D(2,1,6,5)              0.3871         estimate D2E/DX2                !
 ! D6    D(2,1,6,23)          -179.8994         estimate D2E/DX2                !
 ! D7    D(24,1,6,5)          -179.5431         estimate D2E/DX2                !
 ! D8    D(24,1,6,23)            0.1704         estimate D2E/DX2                !
 ! D9    D(1,2,3,4)              0.3525         estimate D2E/DX2                !
 ! D10   D(1,2,3,21)          -179.2396         estimate D2E/DX2                !
 ! D11   D(7,2,3,4)           -177.8555         estimate D2E/DX2                !
 ! D12   D(7,2,3,21)             2.5524         estimate D2E/DX2                !
 ! D13   D(1,2,7,8)            159.3743         estimate D2E/DX2                !
 ! D14   D(1,2,7,11)           -82.4193         estimate D2E/DX2                !
 ! D15   D(1,2,7,20)            37.5082         estimate D2E/DX2                !
 ! D16   D(3,2,7,8)            -22.5011         estimate D2E/DX2                !
 ! D17   D(3,2,7,11)            95.7053         estimate D2E/DX2                !
 ! D18   D(3,2,7,20)          -144.3671         estimate D2E/DX2                !
 ! D19   D(2,3,4,5)              0.1061         estimate D2E/DX2                !
 ! D20   D(2,3,4,26)          -179.9914         estimate D2E/DX2                !
 ! D21   D(21,3,4,5)           179.7146         estimate D2E/DX2                !
 ! D22   D(21,3,4,26)           -0.3829         estimate D2E/DX2                !
 ! D23   D(3,4,5,6)             -0.3281         estimate D2E/DX2                !
 ! D24   D(3,4,5,22)           179.8622         estimate D2E/DX2                !
 ! D25   D(26,4,5,6)           179.7692         estimate D2E/DX2                !
 ! D26   D(26,4,5,22)           -0.0406         estimate D2E/DX2                !
 ! D27   D(3,4,12,27)           90.5895         estimate D2E/DX2                !
 ! D28   D(3,4,12,28)         -110.4734         estimate D2E/DX2                !
 ! D29   D(5,4,12,27)          -91.2415         estimate D2E/DX2                !
 ! D30   D(5,4,12,28)           67.6956         estimate D2E/DX2                !
 ! D31   D(4,5,6,1)              0.0767         estimate D2E/DX2                !
 ! D32   D(4,5,6,23)          -179.6415         estimate D2E/DX2                !
 ! D33   D(22,5,6,1)           179.8715         estimate D2E/DX2                !
 ! D34   D(22,5,6,23)            0.1533         estimate D2E/DX2                !
 ! D35   D(2,7,8,9)            147.6192         estimate D2E/DX2                !
 ! D36   D(2,7,8,25)           -84.4137         estimate D2E/DX2                !
 ! D37   D(11,7,8,9)            25.1308         estimate D2E/DX2                !
 ! D38   D(11,7,8,25)          153.0979         estimate D2E/DX2                !
 ! D39   D(20,7,8,9)           -92.8858         estimate D2E/DX2                !
 ! D40   D(20,7,8,25)           35.0812         estimate D2E/DX2                !
 ! D41   D(2,7,11,10)         -121.271          estimate D2E/DX2                !
 ! D42   D(2,7,11,17)          120.0717         estimate D2E/DX2                !
 ! D43   D(2,7,11,18)            1.01           estimate D2E/DX2                !
 ! D44   D(8,7,11,10)            0.4793         estimate D2E/DX2                !
 ! D45   D(8,7,11,17)         -118.1781         estimate D2E/DX2                !
 ! D46   D(8,7,11,18)          122.7603         estimate D2E/DX2                !
 ! D47   D(20,7,11,10)         119.9173         estimate D2E/DX2                !
 ! D48   D(20,7,11,17)           1.2599         estimate D2E/DX2                !
 ! D49   D(20,7,11,18)        -117.8017         estimate D2E/DX2                !
 ! D50   D(7,8,9,10)           -41.0198         estimate D2E/DX2                !
 ! D51   D(7,8,9,14)          -162.507          estimate D2E/DX2                !
 ! D52   D(7,8,9,19)            77.5512         estimate D2E/DX2                !
 ! D53   D(25,8,9,10)         -168.6801         estimate D2E/DX2                !
 ! D54   D(25,8,9,14)           69.8327         estimate D2E/DX2                !
 ! D55   D(25,8,9,19)          -50.1091         estimate D2E/DX2                !
 ! D56   D(7,8,25,34)           59.1751         estimate D2E/DX2                !
 ! D57   D(7,8,25,35)          -61.522          estimate D2E/DX2                !
 ! D58   D(7,8,25,36)          177.8659         estimate D2E/DX2                !
 ! D59   D(9,8,25,34)         -176.6718         estimate D2E/DX2                !
 ! D60   D(9,8,25,35)           62.631          estimate D2E/DX2                !
 ! D61   D(9,8,25,36)          -57.981          estimate D2E/DX2                !
 ! D62   D(8,9,10,11)           39.5687         estimate D2E/DX2                !
 ! D63   D(8,9,10,15)          160.9015         estimate D2E/DX2                !
 ! D64   D(8,9,10,16)          -78.3122         estimate D2E/DX2                !
 ! D65   D(14,9,10,11)         158.6235         estimate D2E/DX2                !
 ! D66   D(14,9,10,15)         -80.0436         estimate D2E/DX2                !
 ! D67   D(14,9,10,16)          40.7426         estimate D2E/DX2                !
 ! D68   D(19,9,10,11)         -79.6316         estimate D2E/DX2                !
 ! D69   D(19,9,10,15)          41.7012         estimate D2E/DX2                !
 ! D70   D(19,9,10,16)         162.4874         estimate D2E/DX2                !
 ! D71   D(9,10,11,7)          -24.2641         estimate D2E/DX2                !
 ! D72   D(9,10,11,17)          93.3824         estimate D2E/DX2                !
 ! D73   D(9,10,11,18)        -146.3504         estimate D2E/DX2                !
 ! D74   D(15,10,11,7)        -145.9564         estimate D2E/DX2                !
 ! D75   D(15,10,11,17)        -28.3098         estimate D2E/DX2                !
 ! D76   D(15,10,11,18)         91.9574         estimate D2E/DX2                !
 ! D77   D(16,10,11,7)          92.922          estimate D2E/DX2                !
 ! D78   D(16,10,11,17)       -149.4314         estimate D2E/DX2                !
 ! D79   D(16,10,11,18)        -29.1642         estimate D2E/DX2                !
 ! D80   D(26,12,13,29)       -108.3715         estimate D2E/DX2                !
 ! D81   D(26,12,13,30)        110.5341         estimate D2E/DX2                !
 ! D82   D(27,12,13,29)         53.9674         estimate D2E/DX2                !
 ! D83   D(27,12,13,30)        -87.127          estimate D2E/DX2                !
 ! D84   D(28,13,31,32)        -84.2469         estimate D2E/DX2                !
 ! D85   D(28,13,31,33)        128.9926         estimate D2E/DX2                !
 ! D86   D(30,13,31,32)         60.3243         estimate D2E/DX2                !
 ! D87   D(30,13,31,33)        -86.4362         estimate D2E/DX2                !
 ! D88   D(29,31,37,38)        -74.2369         estimate D2E/DX2                !
 ! D89   D(29,31,37,39)        123.6472         estimate D2E/DX2                !
 ! D90   D(33,31,37,38)         75.6867         estimate D2E/DX2                !
 ! D91   D(33,31,37,39)        -86.4292         estimate D2E/DX2                !
 --------------------------------------------------------------------------------
 Trust Radius=3.00D-01 FncErr=1.00D-07 GrdErr=1.00D-06 EigMax=2.50D+02 EigMin=1.00D-04
 Number of steps in this run=    212 maximum allowed number of steps=    234.
 GradGradGradGradGradGradGradGradGradGradGradGradGradGradGradGradGradGrad

                          Input orientation:                          
 ---------------------------------------------------------------------
 Center     Atomic      Atomic             Coordinates (Angstroms)
 Number     Number       Type             X           Y           Z
 ---------------------------------------------------------------------
      1          6           0        1.991046    2.312195   -0.216029
      2          6           0        2.158800    0.945605    0.027905
      3          6           0        1.030220    0.217040    0.377843
      4          7           0       -0.168778    0.812260    0.467512
      5          6           0       -0.349856    2.119250    0.228133
      6          6           0        0.733532    2.905578   -0.120915
      7          6           0        3.503421    0.264748   -0.120398
      8          7           0        3.552829   -0.987371    0.623587
      9          6           0        4.423709   -1.897343   -0.115393
     10          6           0        4.023832   -1.644173   -1.562299
     11          6           0        3.821557   -0.119470   -1.596753
     12          8           0       -2.273013   -0.664586    1.068697
     13          8           0       -4.033448   -1.037524   -0.845187
     14          1           0        4.257915   -2.930395    0.213585
     15          1           0        4.779841   -1.981156   -2.279064
     16          1           0        3.084801   -2.166266   -1.784863
     17          1           0        4.739577    0.388140   -1.914085
     18          1           0        3.025016    0.183694   -2.285726
     19          1           0        5.494027   -1.655092    0.042690
     20          1           0        4.271330    0.976216    0.241781
     21          1           0        1.081519   -0.847348    0.594879
     22          1           0       -1.365192    2.494840    0.328334
     23          1           0        0.592309    3.967047   -0.310216
     24          1           0        2.856346    2.920268   -0.482878
     25          6           0        3.896038   -0.828995    2.024193
     26          1           0       -1.007529    0.227671    0.736613
     27          1           0       -2.646930   -0.872982    1.926651
     28          1           0       -2.972088   -0.838170    0.387443
     29          1           0       -4.922792   -0.618598   -0.836081
     30          1           0       -4.145588   -1.895155   -1.260288
     31          8           0       -6.432571    0.176302   -0.807596
     32          1           0       -7.237176   -0.149766   -0.365175
     33          1           0       -6.735306    0.692627   -1.557585
     34          1           0        3.164587   -0.179674    2.524701
     35          1           0        4.901841   -0.386541    2.163276
     36          1           0        3.875497   -1.805902    2.521606
     37          8           0       -8.719349   -0.750420    0.449814
     38          1           0       -9.290237   -1.465607    0.157426
     39          1           0       -9.216857   -0.268868    1.115736
 ---------------------------------------------------------------------
                    Distance matrix (angstroms):
                    1          2          3          4          5
     1  C    0.000000
     2  C    1.398289   0.000000
     3  C    2.380241   1.388149   0.000000
     4  N    2.716960   2.372479   1.341612   0.000000
     5  C    2.390466   2.776849   2.354873   1.341012   0.000000
     6  C    1.393733   2.427968   2.750458   2.354228   1.383429
     7  C    2.547246   1.514452   2.523340   3.759049   4.290501
     8  N    3.745832   2.456532   2.806163   4.136833   5.003841
     9  C    4.862940   3.637678   4.028606   5.364016   6.248036
    10  C    4.647312   3.565676   4.023677   5.266135   6.041370
    11  C    3.342180   2.557080   3.435670   4.588255   5.073733
    12  O    5.356673   4.828761   3.487964   2.640133   3.486377
    13  O    6.921776   6.560414   5.358215   4.481133   4.968510
    14  H    5.727828   4.411818   4.511246   5.802375   6.835984
    15  H    5.519633   4.556083   5.094200   6.311552   7.029449
    16  H    4.869718   3.718514   3.818213   4.952836   5.849331
    17  H    3.760293   3.277576   4.363661   5.472096   5.786896
    18  H    3.143765   2.585290   3.327901   4.263301   4.632022
    19  H    5.298790   4.229371   4.852090   6.191580   6.959240
    20  H    2.682187   2.123550   3.331614   4.448864   4.760470
    21  H    3.386373   2.167181   1.087501   2.081769   3.314218
    22  H    3.405000   3.861205   3.305877   2.069264   1.087205
    23  H    2.168841   3.420136   3.837674   3.337184   2.142860
    24  H    1.090736   2.155635   3.373873   3.807665   3.380369
    25  C    4.302867   3.186278   3.466637   4.651849   5.472257
    26  H    3.774151   3.323151   2.069118   1.057196   2.066194
    27  H    6.020569   5.477913   4.136229   3.333221   4.137024
    28  H    5.909457   5.444000   4.139086   3.254055   3.955732
    29  H    7.534930   7.303571   6.132720   5.132968   5.435081
    30  H    7.513358   7.033823   5.825275   5.111791   5.721750
    31  O    8.710299   8.666115   7.556466   6.423819   6.468941
    32  H    9.552150   9.467772   8.308818   7.181999   7.275687
    33  H    8.976190   9.037859   8.017198   6.872745   6.782184
    34  H    3.885642   2.917508   3.053179   4.040703   4.786500
    35  H    4.627850   3.722727   4.305988   5.479408   6.132217
    36  H    5.291930   4.091013   4.096781   5.237388   6.206484
    37  O   11.159548  11.017651   9.797717   8.692212   8.850568
    38  H   11.902882  11.700905  10.459050   9.406692   9.632581
    39  H   11.578108  11.491906  10.285095   9.135467   9.225760
                    6          7          8          9         10
     6  C    0.000000
     7  C    3.827044   0.000000
     8  N    4.863925   1.457312   0.000000
     9  C    6.056855   2.349807   1.460333   0.000000
    10  C    5.796887   2.448241   2.330521   1.522345   0.000000
    11  C    4.567813   1.558351   2.399037   2.391202   1.538448
    12  O    4.816696   5.970326   5.851730   6.911429   6.894345
    13  O    6.228701   7.682814   7.727316   8.532022   8.111845
    14  H    6.825815   3.299961   2.107271   1.096773   2.205204
    15  H    6.701522   3.366478   3.304323   2.194385   1.094924
    16  H    5.832734   2.975822   2.722035   2.156878   1.097222
    17  H    5.059778   2.181885   3.120926   2.925491   2.183195
    18  H    4.164848   2.219028   3.180264   3.316233   2.205012
    19  H    6.594603   2.770360   2.133434   1.108718   2.176599
    20  H    4.045986   1.107720   2.125487   2.899678   3.190987
    21  H    3.836393   2.759346   2.475440   3.574522   3.734374
    22  H    2.185217   5.373831   6.033233   7.280078   7.053191
    23  H    1.087426   4.713557   5.846616   7.007757   6.695435
    24  H    2.153502   2.757151   4.120558   5.079473   4.833456
    25  C    5.343217   2.439199   1.450714   2.449006   3.680186
    26  H    3.307240   4.591788   4.720802   5.894060   5.839811
    27  H    5.467867   6.581159   6.336251   7.430558   7.567468
    28  H    5.292041   6.588365   6.530893   7.488158   7.307122
    29  H    6.702632   8.502562   8.608297   9.461060   9.034449
    30  H    6.939094   8.029438   7.977386   8.645440   8.178852
    31  O    7.698929   9.960121  10.154341  11.074203  10.640492
    32  H    8.539729  10.751380  10.867541  11.793755  11.422638
    33  H    7.921156  10.347952  10.650147  11.546059  11.009982
    34  H    4.735831   2.703492   2.101747   3.392031   4.425678
    35  H    5.781901   2.755889   2.133418   2.775512   4.028951
    36  H    6.249232   3.377309   2.092029   2.694933   4.089797
    37  O   10.151306  12.278103  12.275695  13.205108  12.931978
    38  H   10.938952  12.913133  12.860418  13.723452  13.425862
    39  H   10.517445  12.791335  12.799349  13.792485  13.578630
                   11         12         13         14         15
    11  C    0.000000
    12  O    6.674246   0.000000
    13  O    7.944103   2.627007   0.000000
    14  H    3.371799   6.965495   8.570336   0.000000
    15  H    2.202211   7.917298   8.978892   2.717860   0.000000
    16  H    2.183476   6.253321   7.268185   2.440058   1.775292
    17  H    1.095960   7.692960   8.952152   3.971354   2.397581
    18  H    1.095933   6.327783   7.306739   4.179013   2.786760
    19  H    2.800547   7.896879   9.588665   1.784258   2.450902
    20  H    2.187014   6.797385   8.614290   3.906736   3.919093
    21  H    3.583415   3.392756   5.317221   3.817586   4.818989
    22  H    6.119064   3.369607   4.579775   7.814453   8.037070
    23  H    5.364964   5.618140   6.835902   7.828521   7.536107
    24  H    3.378218   6.447394   7.953908   6.056378   5.563279
    25  C    3.690559   6.244773   8.435258   2.797345   4.541652
    26  H    5.374493   1.583620   3.641290   6.162129   6.889621
    27  H    7.404288   0.958816   3.103642   7.405702   8.606568
    28  H    7.113872   0.991435   1.638781   7.528650   8.277021
    29  H    8.791552   3.263682   0.983115   9.525313   9.903527
    30  H    8.169557   3.231874   0.959383   8.594352   8.983796
    31  O   10.288702   4.639988   2.688973  11.179484  11.512516
    32  H   11.127141   5.192682   3.358928  11.840776  12.305513
    33  H   10.588125   5.352704   3.286483  11.709579  11.843490
    34  H    4.173921   5.650007   7.993983   3.755408   5.378712
    35  H    3.921245   7.263191   9.450609   3.269117   4.721447
    36  H    4.450600   6.420103   8.630012   2.595706   4.888250
    37  O   12.722455   6.476545   4.870023  13.161211  13.827133
    38  H   13.296931   7.121340   5.368642  13.627222  14.288785
    39  H   13.318414   6.955270   5.594978  13.764704  14.503936
                   16         17         18         19         20
    16  H    0.000000
    17  H    3.046305   0.000000
    18  H    2.403487   1.766249   0.000000
    19  H    3.066858   2.927962   3.859880   0.000000
    20  H    3.923051   2.283166   2.927402   2.908334   0.000000
    21  H    3.378736   4.604641   3.624654   4.519689   3.691200
    22  H    6.781884   6.836288   5.607908   8.021996   5.838158
    23  H    6.782671   5.707960   4.912684   7.467250   4.773360
    24  H    5.255491   3.465052   3.281394   5.307306   2.511304
    25  C    4.117682   4.207494   4.512164   2.676258   2.564493
    26  H    5.369911   6.330970   5.039632   6.804157   5.354580
    27  H    6.949868   8.420342   7.143644   8.392627   7.356673
    28  H    6.570286   8.140678   6.644945   8.512421   7.468622
    29  H    8.210786   9.774302   8.118670  10.505079   9.393460
    30  H    7.254461   9.197121   7.535960   9.730239   9.019174
    31  O    9.850028  11.228806   9.572402  12.096311  10.784922
    32  H   10.612492  12.088469  10.445683  12.826375  11.579376
    33  H   10.230319  11.484457   9.800668  12.555049  11.156351
    34  H    4.746078   4.744031   4.826150   3.709923   2.787954
    35  H    4.696473   4.153472   4.862228   2.541022   2.438605
    36  H    4.393260   5.023526   5.271836   2.964356   3.618628
    37  O   12.096957  13.712295  12.094869  14.247956  13.106574
    38  H   12.546114  14.302560  12.663121  14.785923  13.779903
    39  H   12.780625  14.296626  12.713702  14.814964  13.573696
                   21         22         23         24         25
    21  H    0.000000
    22  H    4.150622   0.000000
    23  H    4.923101   2.531195   0.000000
    24  H    4.301918   4.319773   2.500284   0.000000
    25  C    3.156706   6.450144   6.274242   4.628535   0.000000
    26  H    2.353694   2.331238   4.199794   4.864850   5.178743
    27  H    3.959243   3.942042   6.238760   7.104972   6.543843
    28  H    4.058921   3.700617   6.023435   6.989561   7.060467
    29  H    6.176708   4.868868   7.191732   8.553556   9.273467
    30  H    5.644660   5.433818   7.597086   8.533449   8.751700
    31  O    7.712091   5.687204   7.997879   9.691170  10.756850
    32  H    8.402917   6.477275   8.846016  10.550742  11.406967
    33  H    8.252719   5.970158   8.122296   9.905411  11.321216
    34  H    2.917049   5.700522   5.643462   4.330148   1.098702
    35  H    4.155367   7.137582   6.606357   4.703314   1.107587
    36  H    3.526672   7.125422   7.219798   5.692300   1.096444
    37  O    9.802421   8.039284  10.466094  12.179515  12.713490
    38  H   10.399372   8.861190  11.287034  12.930018  13.332964
    39  H   10.327753   8.361024  10.779427  12.589217  13.156255
                   26         27         28         29         30
    26  H    0.000000
    27  H    2.305485   0.000000
    28  H    2.262173   1.573563   0.000000
    29  H    4.303350   3.588446   2.313108   0.000000
    30  H    4.282688   3.667069   2.282397   1.553575   0.000000
    31  O    5.640771   4.786249   3.798975   1.706491   3.118678
    32  H    6.337578   5.181300   4.385352   2.407889   3.661356
    33  H    6.187646   5.595163   4.504252   2.350550   3.673097
    34  H    4.557383   5.883202   6.531483   8.768877   8.408786
    35  H    6.110096   7.568128   8.084325  10.274892   9.790438
    36  H    5.582612   6.615615   7.237443   9.491767   8.868399
    37  O    7.778887   6.250627   5.748269   4.010580   5.015392
    38  H    8.473836   6.900354   6.353392   4.558405   5.353675
    39  H    8.233065   6.647291   6.312817   4.729788   5.831644
                   31         32         33         34         35
    31  O    0.000000
    32  H    0.974395   0.000000
    33  H    0.959543   1.543807   0.000000
    34  H   10.165450  10.795784  10.744015   0.000000
    35  H   11.730804  12.401809  12.265097   1.786470   0.000000
    36  H   11.012220  11.600336  11.639226   1.774830   1.787839
    37  O    2.769341   1.794945   3.169931  12.077203  13.733360
    38  H    3.434150   2.493914   3.758578  12.742851  14.373688
    39  H    3.413156   2.475161   3.772163  12.461673  14.157995
                   36         37         38         39
    36  H    0.000000
    37  O   12.807674   0.000000
    38  H   13.380646   0.960675   0.000000
    39  H   13.257024   0.960655   1.534903   0.000000
 Stoichiometry    C10H23N2O4(1+)
 Framework group  C1[X(C10H23N2O4)]
 Deg. of freedom   111
 Full point group                 C1      NOp   1
 Largest Abelian subgroup         C1      NOp   1
 Largest concise Abelian subgroup C1      NOp   1
                         Standard orientation:                         
 ---------------------------------------------------------------------
 Center     Atomic      Atomic             Coordinates (Angstroms)
 Number     Number       Type             X           Y           Z
 ---------------------------------------------------------------------
      1          6           0        1.991046    2.312195   -0.216029
      2          6           0        2.158800    0.945605    0.027905
      3          6           0        1.030220    0.217040    0.377843
      4          7           0       -0.168778    0.812260    0.467512
      5          6           0       -0.349856    2.119250    0.228133
      6          6           0        0.733532    2.905578   -0.120915
      7          6           0        3.503421    0.264748   -0.120398
      8          7           0        3.552829   -0.987371    0.623587
      9          6           0        4.423709   -1.897343   -0.115393
     10          6           0        4.023832   -1.644173   -1.562299
     11          6           0        3.821557   -0.119470   -1.596753
     12          8           0       -2.273013   -0.664586    1.068697
     13          8           0       -4.033448   -1.037524   -0.845187
     14          1           0        4.257915   -2.930395    0.213585
     15          1           0        4.779841   -1.981156   -2.279064
     16          1           0        3.084801   -2.166266   -1.784863
     17          1           0        4.739577    0.388140   -1.914085
     18          1           0        3.025016    0.183694   -2.285726
     19          1           0        5.494027   -1.655092    0.042690
     20          1           0        4.271330    0.976216    0.241781
     21          1           0        1.081519   -0.847348    0.594879
     22          1           0       -1.365192    2.494840    0.328334
     23          1           0        0.592309    3.967047   -0.310216
     24          1           0        2.856346    2.920268   -0.482878
     25          6           0        3.896038   -0.828995    2.024193
     26          1           0       -1.007529    0.227671    0.736613
     27          1           0       -2.646930   -0.872982    1.926651
     28          1           0       -2.972088   -0.838170    0.387443
     29          1           0       -4.922792   -0.618598   -0.836081
     30          1           0       -4.145588   -1.895155   -1.260288
     31          8           0       -6.432571    0.176302   -0.807596
     32          1           0       -7.237176   -0.149766   -0.365175
     33          1           0       -6.735306    0.692627   -1.557585
     34          1           0        3.164587   -0.179674    2.524701
     35          1           0        4.901841   -0.386541    2.163276
     36          1           0        3.875497   -1.805902    2.521606
     37          8           0       -8.719349   -0.750420    0.449814
     38          1           0       -9.290237   -1.465607    0.157426
     39          1           0       -9.216857   -0.268868    1.115736
 ---------------------------------------------------------------------
 Rotational constants (GHZ):           0.7807512           0.1206421           0.1144735
 Standard basis: Aug-CC-pVDZ (5D, 7F)
 There are   607 symmetry adapted cartesian basis functions of A   symmetry.
 There are   575 symmetry adapted basis functions of A   symmetry.
   575 basis functions,   941 primitive gaussians,   607 cartesian basis functions
    64 alpha electrons       64 beta electrons
       nuclear repulsion energy      1099.3196314202 Hartrees.
 NAtoms=   39 NActive=   39 NUniq=   39 SFac= 1.00D+00 NAtFMM=   60 NAOKFM=F Big=F
 Integral buffers will be    131072 words long.
 Raffenetti 2 integral format.
 Two-electron integral symmetry is turned on.
 Nuclear repulsion after empirical dispersion term =     1099.2959765118 Hartrees.
 One-electron integrals computed using PRISM.
 NBasis=   575 RedAO= T EigKep=  2.48D-06  NBF=   575
 NBsUse=   575 1.00D-06 EigRej= -1.00D+00 NBFU=   575
 ExpMin= 2.97D-02 ExpMax= 1.17D+04 ExpMxC= 4.01D+02 IAcc=3 IRadAn=         5 AccDes= 0.00D+00
 Harris functional with IExCor= 4639 and IRadAn=       5 diagonalized for initial guess.
 HarFok:  IExCor= 4639 AccDes= 0.00D+00 IRadAn=         5 IDoV= 1 UseB2=F ITyADJ=14
 ICtDFT=  3500011 ScaDFX=  1.000000  1.000000  1.000000  1.000000
 FoFCou: FMM=F IPFlag=           0 FMFlag=      100000 FMFlg1=           0
         NFxFlg=           0 DoJE=T BraDBF=F KetDBF=T FulRan=T
         wScrn=  0.000000 ICntrl=       500 IOpCl=  0 I1Cent=   200000004 NGrid=           0
         NMat0=    1 NMatS0=      1 NMatT0=    0 NMatD0=    1 NMtDS0=    0 NMtDT0=    0
 Petite list used in FoFCou.
 Requested convergence on RMS density matrix=1.00D-08 within 128 cycles.
 Requested convergence on MAX density matrix=1.00D-06.
 Requested convergence on             energy=1.00D-06.
 No special actions if energy rises.
 SCF Done:  E(RwB97XD) =  -805.022998092     A.U. after   14 cycles
            NFock= 14  Conv=0.64D-08     -V/T= 2.0063

 **********************************************************************

            Population analysis using the SCF density.

 **********************************************************************

 Orbital symmetries:
       Occupied  (A) (A) (A) (A) (A) (A) (A) (A) (A) (A) (A) (A)
                 (A) (A) (A) (A) (A) (A) (A) (A) (A) (A) (A) (A)
                 (A) (A) (A) (A) (A) (A) (A) (A) (A) (A) (A) (A)
                 (A) (A) (A) (A) (A) (A) (A) (A) (A) (A) (A) (A)
                 (A) (A) (A) (A) (A) (A) (A) (A) (A) (A) (A) (A)
                 (A) (A) (A) (A)
       Virtual   (A) (A) (A) (A) (A) (A) (A) (A) (A) (A) (A) (A)
                 (A) (A) (A) (A) (A) (A) (A) (A) (A) (A) (A) (A)
                 (A) (A) (A) (A) (A) (A) (A) (A) (A) (A) (A) (A)
                 (A) (A) (A) (A) (A) (A) (A) (A) (A) (A) (A) (A)
                 (A) (A) (A) (A) (A) (A) (A) (A) (A) (A) (A) (A)
                 (A) (A) (A) (A) (A) (A) (A) (A) (A) (A) (A) (A)
                 (A) (A) (A) (A) (A) (A) (A) (A) (A) (A) (A) (A)
                 (A) (A) (A) (A) (A) (A) (A) (A) (A) (A) (A) (A)
                 (A) (A) (A) (A) (A) (A) (A) (A) (A) (A) (A) (A)
                 (A) (A) (A) (A) (A) (A) (A) (A) (A) (A) (A) (A)
                 (A) (A) (A) (A) (A) (A) (A) (A) (A) (A) (A) (A)
                 (A) (A) (A) (A) (A) (A) (A) (A) (A) (A) (A) (A)
                 (A) (A) (A) (A) (A) (A) (A) (A) (A) (A) (A) (A)
                 (A) (A) (A) (A) (A) (A) (A) (A) (A) (A) (A) (A)
                 (A) (A) (A) (A) (A) (A) (A) (A) (A) (A) (A) (A)
                 (A) (A) (A) (A) (A) (A) (A) (A) (A) (A) (A) (A)
                 (A) (A) (A) (A) (A) (A) (A) (A) (A) (A) (A) (A)
                 (A) (A) (A) (A) (A) (A) (A) (A) (A) (A) (A) (A)
                 (A) (A) (A) (A) (A) (A) (A) (A) (A) (A) (A) (A)
                 (A) (A) (A) (A) (A) (A) (A) (A) (A) (A) (A) (A)
                 (A) (A) (A) (A) (A) (A) (A) (A) (A) (A) (A) (A)
                 (A) (A) (A) (A) (A) (A) (A) (A) (A) (A) (A) (A)
                 (A) (A) (A) (A) (A) (A) (A) (A) (A) (A) (A) (A)
                 (A) (A) (A) (A) (A) (A) (A) (A) (A) (A) (A) (A)
                 (A) (A) (A) (A) (A) (A) (A) (A) (A) (A) (A) (A)
                 (A) (A) (A) (A) (A) (A) (A) (A) (A) (A) (A) (A)
                 (A) (A) (A) (A) (A) (A) (A) (A) (A) (A) (A) (A)
                 (A) (A) (A) (A) (A) (A) (A) (A) (A) (A) (A) (A)
                 (A) (A) (A) (A) (A) (A) (A) (A) (A) (A) (A) (A)
                 (A) (A) (A) (A) (A) (A) (A) (A) (A) (A) (A) (A)
                 (A) (A) (A) (A) (A) (A) (A) (A) (A) (A) (A) (A)
                 (A) (A) (A) (A) (A) (A) (A) (A) (A) (A) (A) (A)
                 (A) (A) (A) (A) (A) (A) (A) (A) (A) (A) (A) (A)
                 (A) (A) (A) (A) (A) (A) (A) (A) (A) (A) (A) (A)
                 (A) (A) (A) (A) (A) (A) (A) (A) (A) (A) (A) (A)
                 (A) (A) (A) (A) (A) (A) (A) (A) (A) (A) (A) (A)
                 (A) (A) (A) (A) (A) (A) (A) (A) (A) (A) (A) (A)
                 (A) (A) (A) (A) (A) (A) (A) (A) (A) (A) (A) (A)
                 (A) (A) (A) (A) (A) (A) (A) (A) (A) (A) (A) (A)
                 (A) (A) (A) (A) (A) (A) (A) (A) (A) (A) (A) (A)
                 (A) (A) (A) (A) (A) (A) (A) (A) (A) (A) (A) (A)
                 (A) (A) (A) (A) (A) (A) (A) (A) (A) (A) (A) (A)
                 (A) (A) (A) (A) (A) (A) (A)
 The electronic state is 1-A.
 Alpha  occ. eigenvalues --  -19.38859 -19.38186 -19.36613 -19.36510 -14.66333
 Alpha  occ. eigenvalues --  -14.54483 -10.49885 -10.49133 -10.46569 -10.45832
 Alpha  occ. eigenvalues --  -10.45750 -10.44487 -10.40930 -10.40924 -10.39949
 Alpha  occ. eigenvalues --  -10.38705  -1.24664  -1.23243  -1.22720  -1.21228
 Alpha  occ. eigenvalues --   -1.19972  -1.14911  -1.06964  -1.03259  -0.98619
 Alpha  occ. eigenvalues --   -0.94263  -0.89371  -0.87981  -0.86746  -0.81219
 Alpha  occ. eigenvalues --   -0.77949  -0.77041  -0.74057  -0.73652  -0.73189
 Alpha  occ. eigenvalues --   -0.72475  -0.72270  -0.71903  -0.69505  -0.68253
 Alpha  occ. eigenvalues --   -0.67780  -0.66427  -0.63301  -0.63004  -0.62422
 Alpha  occ. eigenvalues --   -0.61524  -0.61147  -0.59929  -0.59081  -0.57435
 Alpha  occ. eigenvalues --   -0.56386  -0.55595  -0.55044  -0.54582  -0.53745
 Alpha  occ. eigenvalues --   -0.52094  -0.51826  -0.51755  -0.51718  -0.50535
 Alpha  occ. eigenvalues --   -0.50230  -0.49856  -0.47770  -0.40450
 Alpha virt. eigenvalues --   -0.12907  -0.09412  -0.05847  -0.04790  -0.04125
 Alpha virt. eigenvalues --   -0.03652  -0.03510  -0.02503  -0.02315  -0.02207
 Alpha virt. eigenvalues --   -0.01931  -0.01205  -0.00817  -0.00704  -0.00269
 Alpha virt. eigenvalues --    0.00234   0.00356   0.00518   0.01377   0.01483
 Alpha virt. eigenvalues --    0.02022   0.02462   0.02643   0.02944   0.03142
 Alpha virt. eigenvalues --    0.03581   0.04014   0.04217   0.04641   0.04794
 Alpha virt. eigenvalues --    0.05302   0.05511   0.05896   0.06243   0.06377
 Alpha virt. eigenvalues --    0.06645   0.06811   0.07145   0.07530   0.07783
 Alpha virt. eigenvalues --    0.08143   0.08637   0.08995   0.09039   0.09415
 Alpha virt. eigenvalues --    0.09539   0.09740   0.10168   0.10467   0.10668
 Alpha virt. eigenvalues --    0.10837   0.11059   0.11600   0.11755   0.11940
 Alpha virt. eigenvalues --    0.12183   0.12570   0.12908   0.13088   0.13265
 Alpha virt. eigenvalues --    0.13537   0.13897   0.14057   0.14504   0.14572
 Alpha virt. eigenvalues --    0.15285   0.15645   0.15749   0.15941   0.16394
 Alpha virt. eigenvalues --    0.16476   0.17025   0.17050   0.17301   0.17632
 Alpha virt. eigenvalues --    0.17857   0.18103   0.18356   0.18827   0.18975
 Alpha virt. eigenvalues --    0.19554   0.19708   0.19960   0.20144   0.20652
 Alpha virt. eigenvalues --    0.20920   0.21308   0.21524   0.21835   0.22096
 Alpha virt. eigenvalues --    0.22264   0.22554   0.22695   0.23362   0.23450
 Alpha virt. eigenvalues --    0.23607   0.23837   0.24215   0.24329   0.25038
 Alpha virt. eigenvalues --    0.25386   0.25682   0.26112   0.26311   0.27025
 Alpha virt. eigenvalues --    0.27211   0.27575   0.28135   0.28185   0.29106
 Alpha virt. eigenvalues --    0.29273   0.29602   0.29877   0.30034   0.30197
 Alpha virt. eigenvalues --    0.30656   0.30959   0.31434   0.31515   0.31844
 Alpha virt. eigenvalues --    0.32242   0.33074   0.33764   0.34025   0.34220
 Alpha virt. eigenvalues --    0.34693   0.35037   0.35493   0.35914   0.36249
 Alpha virt. eigenvalues --    0.36528   0.36739   0.36951   0.37327   0.37906
 Alpha virt. eigenvalues --    0.38155   0.38907   0.39039   0.39367   0.40138
 Alpha virt. eigenvalues --    0.40320   0.40989   0.41457   0.41653   0.42055
 Alpha virt. eigenvalues --    0.42225   0.43204   0.43385   0.43907   0.44452
 Alpha virt. eigenvalues --    0.44565   0.44866   0.45079   0.45468   0.45525
 Alpha virt. eigenvalues --    0.45843   0.46415   0.46796   0.47265   0.47487
 Alpha virt. eigenvalues --    0.47680   0.48344   0.48536   0.49063   0.49441
 Alpha virt. eigenvalues --    0.49790   0.50226   0.50548   0.50959   0.51333
 Alpha virt. eigenvalues --    0.51447   0.51531   0.51794   0.52557   0.52706
 Alpha virt. eigenvalues --    0.53021   0.53114   0.53522   0.54023   0.54466
 Alpha virt. eigenvalues --    0.54581   0.54839   0.55026   0.55756   0.56368
 Alpha virt. eigenvalues --    0.56609   0.56802   0.57495   0.57676   0.57834
 Alpha virt. eigenvalues --    0.58727   0.58970   0.59229   0.59665   0.60121
 Alpha virt. eigenvalues --    0.60394   0.61289   0.61661   0.62707   0.62895
 Alpha virt. eigenvalues --    0.63184   0.63804   0.64510   0.64817   0.65329
 Alpha virt. eigenvalues --    0.65704   0.65854   0.66358   0.66399   0.67382
 Alpha virt. eigenvalues --    0.67619   0.67903   0.68431   0.68906   0.69310
 Alpha virt. eigenvalues --    0.69570   0.70127   0.70890   0.71393   0.71749
 Alpha virt. eigenvalues --    0.72067   0.72528   0.73246   0.73782   0.74225
 Alpha virt. eigenvalues --    0.74429   0.75122   0.75807   0.76175   0.76424
 Alpha virt. eigenvalues --    0.77135   0.77272   0.77866   0.78478   0.79320
 Alpha virt. eigenvalues --    0.79506   0.79916   0.80158   0.80299   0.81007
 Alpha virt. eigenvalues --    0.81123   0.81658   0.82412   0.82933   0.83534
 Alpha virt. eigenvalues --    0.85099   0.85686   0.86010   0.86459   0.86834
 Alpha virt. eigenvalues --    0.87897   0.88303   0.89179   0.89559   0.90210
 Alpha virt. eigenvalues --    0.91775   0.93058   0.93299   0.93669   0.95503
 Alpha virt. eigenvalues --    0.96354   0.96772   0.97562   0.97806   0.98435
 Alpha virt. eigenvalues --    0.98979   0.99458   1.00461   1.00755   1.01784
 Alpha virt. eigenvalues --    1.02033   1.02710   1.03434   1.04130   1.04502
 Alpha virt. eigenvalues --    1.04658   1.06094   1.06601   1.07876   1.08825
 Alpha virt. eigenvalues --    1.09331   1.10363   1.11061   1.11731   1.11853
 Alpha virt. eigenvalues --    1.13158   1.13591   1.14455   1.15465   1.15930
 Alpha virt. eigenvalues --    1.17898   1.18339   1.19241   1.19727   1.20293
 Alpha virt. eigenvalues --    1.21928   1.23487   1.23758   1.24797   1.25409
 Alpha virt. eigenvalues --    1.26044   1.27635   1.28255   1.29673   1.30842
 Alpha virt. eigenvalues --    1.31207   1.32242   1.32751   1.33257   1.34289
 Alpha virt. eigenvalues --    1.34710   1.35671   1.35897   1.36295   1.37749
 Alpha virt. eigenvalues --    1.38355   1.39415   1.40239   1.41182   1.42279
 Alpha virt. eigenvalues --    1.42846   1.43508   1.44511   1.45778   1.46410
 Alpha virt. eigenvalues --    1.46573   1.47860   1.49092   1.50239   1.51191
 Alpha virt. eigenvalues --    1.51701   1.53345   1.53776   1.55086   1.57071
 Alpha virt. eigenvalues --    1.57858   1.58606   1.59299   1.61298   1.62264
 Alpha virt. eigenvalues --    1.62926   1.63571   1.64554   1.64909   1.65611
 Alpha virt. eigenvalues --    1.66015   1.67633   1.69004   1.69184   1.69622
 Alpha virt. eigenvalues --    1.70990   1.71815   1.72102   1.73428   1.73855
 Alpha virt. eigenvalues --    1.74144   1.74320   1.75356   1.75722   1.76459
 Alpha virt. eigenvalues --    1.77314   1.78268   1.79317   1.79847   1.80143
 Alpha virt. eigenvalues --    1.80966   1.81848   1.83653   1.84102   1.84603
 Alpha virt. eigenvalues --    1.84867   1.85794   1.86591   1.87016   1.87717
 Alpha virt. eigenvalues --    1.88663   1.89093   1.89745   1.90805   1.91322
 Alpha virt. eigenvalues --    1.92344   1.93838   1.94157   1.95159   1.95696
 Alpha virt. eigenvalues --    1.96075   1.97108   1.97751   1.97867   1.98557
 Alpha virt. eigenvalues --    2.00837   2.01317   2.02984   2.03577   2.06053
 Alpha virt. eigenvalues --    2.06613   2.08091   2.08498   2.08727   2.09681
 Alpha virt. eigenvalues --    2.10006   2.10645   2.11754   2.12167   2.12694
 Alpha virt. eigenvalues --    2.15219   2.15505   2.16457   2.16521   2.17657
 Alpha virt. eigenvalues --    2.19336   2.20099   2.21084   2.21573   2.22321
 Alpha virt. eigenvalues --    2.23573   2.23886   2.25072   2.26058   2.27069
 Alpha virt. eigenvalues --    2.27808   2.28848   2.30097   2.30336   2.30742
 Alpha virt. eigenvalues --    2.32141   2.34117   2.35333   2.35854   2.37426
 Alpha virt. eigenvalues --    2.38481   2.41099   2.41865   2.42580   2.44220
 Alpha virt. eigenvalues --    2.45246   2.45516   2.47973   2.48949   2.49528
 Alpha virt. eigenvalues --    2.51367   2.52952   2.53413   2.54700   2.55338
 Alpha virt. eigenvalues --    2.56042   2.57179   2.57747   2.57827   2.58910
 Alpha virt. eigenvalues --    2.60757   2.62834   2.64059   2.64322   2.65231
 Alpha virt. eigenvalues --    2.66400   2.67574   2.68829   2.70145   2.71313
 Alpha virt. eigenvalues --    2.71468   2.73314   2.74593   2.75343   2.77378
 Alpha virt. eigenvalues --    2.78046   2.78810   2.81354   2.81467   2.82676
 Alpha virt. eigenvalues --    2.84207   2.84931   2.85643   2.86217   2.88073
 Alpha virt. eigenvalues --    2.89929   2.91307   2.97587   3.02810   3.04468
 Alpha virt. eigenvalues --    3.11200   3.15880   3.17240   3.20852   3.24891
 Alpha virt. eigenvalues --    3.29378   3.34141   3.34762   3.35022   3.36626
 Alpha virt. eigenvalues --    3.41146   3.41696   3.44436   3.44990   3.46011
 Alpha virt. eigenvalues --    3.46965   3.49876   3.51677   3.56006   3.63347
 Alpha virt. eigenvalues --    3.67526   3.75264   3.78401   3.81609   3.82488
 Alpha virt. eigenvalues --    3.91115   4.03986   4.06227   4.06628   4.20208
 Alpha virt. eigenvalues --    4.57404
          Condensed to atoms (all electrons):
               1          2          3          4          5          6
     1  C   21.501378  -9.694957  -1.907277   0.162797   1.437552  -3.975577
     2  C   -9.694957  20.133558  -2.677349  -0.075206  -1.558447   1.650453
     3  C   -1.907277  -2.677349  15.696846  -1.559935  -0.691005  -1.001873
     4  N    0.162797  -0.075206  -1.559935   7.796402   0.368538   0.072469
     5  C    1.437552  -1.558447  -0.691005   0.368538   9.665944  -2.514430
     6  C   -3.975577   1.650453  -1.001873   0.072469  -2.514430  11.653505
     7  C   -0.140878  -4.600874  -2.992137   0.745606  -0.170001  -0.423719
     8  N   -0.341972   0.892937   0.915766  -0.166294  -0.038808   0.034643
     9  C    0.087056  -0.198330  -0.325157   0.057572  -0.007864  -0.007158
    10  C   -0.242252   0.450843   0.091619  -0.070645  -0.023495   0.059493
    11  C   -0.422835   0.344046  -0.386714   0.063779  -0.211788   0.354762
    12  O    0.047434  -0.103106   0.080581  -0.179375   0.025722  -0.046611
    13  O   -0.001443   0.004925  -0.009713   0.005501   0.003286   0.000894
    14  H    0.013087  -0.199891  -0.058412   0.010643  -0.001471  -0.000159
    15  H    0.002422  -0.062584  -0.001427  -0.003779  -0.004942   0.007558
    16  H   -0.023302   0.162259   0.074481  -0.008452   0.010593  -0.005493
    17  H   -0.078794   0.253149   0.095605  -0.011256   0.013036  -0.016012
    18  H    0.166453  -0.540538  -0.124589   0.034295  -0.020974   0.033791
    19  H   -0.010229   0.207086   0.015060  -0.000908   0.002178   0.001858
    20  H   -0.046558   0.535505  -0.063179   0.006340  -0.036509   0.058764
    21  H   -0.030743  -0.354400  -0.906568   0.008071  -0.058969   0.024570
    22  H   -0.005757   0.140995   0.167344  -0.057997  -0.826486   0.298205
    23  H    0.717866  -0.265574   0.030833  -0.033828   0.455601  -1.148233
    24  H   -2.265247   1.118464   0.236079  -0.091884  -0.205756   0.784975
    25  C   -0.073767  -0.058822   0.167540  -0.014794  -0.013060  -0.028303
    26  H    0.089885  -0.451328   0.464504  -0.063046  -0.304255  -0.204101
    27  H   -0.004366   0.008654  -0.000478  -0.000821  -0.007763   0.009931
    28  H    0.006423  -0.009289   0.014190  -0.000566  -0.011941  -0.002042
    29  H   -0.001473   0.001874   0.000509   0.001078  -0.001808  -0.000467
    30  H   -0.000314   0.000078  -0.002041   0.000651   0.000884   0.001070
    31  O    0.000158  -0.000037   0.000059  -0.000247   0.001259   0.000383
    32  H    0.000086  -0.000035  -0.000084   0.000061   0.000141  -0.000072
    33  H    0.000022  -0.000025   0.000068  -0.000131  -0.000288   0.000245
    34  H   -0.166979   0.158864  -0.081468   0.003546  -0.042226   0.047438
    35  H    0.044457   0.038211   0.079611  -0.008983   0.004376  -0.003694
    36  H    0.031143  -0.020818  -0.034323   0.010637   0.007825  -0.009481
    37  O    0.000000   0.000001   0.000002  -0.000005  -0.000013  -0.000005
    38  H    0.000000  -0.000001   0.000005  -0.000003  -0.000003  -0.000002
    39  H   -0.000001   0.000002  -0.000002   0.000001  -0.000000  -0.000001
               7          8          9         10         11         12
     1  C   -0.140878  -0.341972   0.087056  -0.242252  -0.422835   0.047434
     2  C   -4.600874   0.892937  -0.198330   0.450843   0.344046  -0.103106
     3  C   -2.992137   0.915766  -0.325157   0.091619  -0.386714   0.080581
     4  N    0.745606  -0.166294   0.057572  -0.070645   0.063779  -0.179375
     5  C   -0.170001  -0.038808  -0.007864  -0.023495  -0.211788   0.025722
     6  C   -0.423719   0.034643  -0.007158   0.059493   0.354762  -0.046611
     7  C   17.901003  -2.639854   0.038054  -0.964304  -0.175154   0.003340
     8  N   -2.639854   9.402895   0.018680   0.093067  -0.429286   0.001551
     9  C    0.038054   0.018680   5.517497   0.231067  -0.002349   0.000214
    10  C   -0.964304   0.093067   0.231067   5.638194   0.012653  -0.000399
    11  C   -0.175154  -0.429286  -0.002349   0.012653   6.044733  -0.000998
    12  O    0.003340   0.001551   0.000214  -0.000399  -0.000998   7.990826
    13  O    0.000200  -0.000056  -0.000011   0.000002  -0.000023  -0.048802
    14  H    0.511483  -0.660224   0.010403  -0.053129   0.069596   0.000066
    15  H    0.064220  -0.010634   0.080247  -0.226529   0.257089   0.000015
    16  H   -0.133986   0.083539  -0.080396  -0.090732  -0.038790  -0.000254
    17  H    0.290796   0.146703  -0.200613   0.117575  -0.692216  -0.000077
    18  H   -0.102988   0.023106   0.164392   0.173033  -0.089252   0.000509
    19  H   -0.380877   0.392681  -0.311059   0.021393  -0.055819  -0.000039
    20  H   -1.536089  -0.200612  -0.047368   0.106232   0.362754   0.000178
    21  H    0.651862  -0.370693   0.038439   0.040660   0.030482   0.008091
    22  H    0.006627   0.003683  -0.000782   0.000018   0.005152  -0.003394
    23  H   -0.009655  -0.002466  -0.000763   0.000035  -0.015889  -0.000962
    24  H   -0.450324   0.053233  -0.017821   0.023844   0.068216   0.000813
    25  C   -0.325181   0.458227  -0.225586  -0.009648  -0.019165  -0.000596
    26  H   -0.091691   0.021484   0.001601   0.005087  -0.032967   0.012680
    27  H    0.000967   0.000121  -0.000025   0.000010   0.000661   0.365844
    28  H    0.000730  -0.000650   0.000098  -0.000085  -0.000216   0.322033
    29  H   -0.000206   0.000030  -0.000035   0.000058  -0.000047  -0.001961
    30  H    0.000141  -0.000024   0.000032  -0.000051   0.000094   0.002328
    31  O    0.000009  -0.000001   0.000000  -0.000000   0.000000   0.000584
    32  H   -0.000004  -0.000001   0.000000   0.000000  -0.000001  -0.000003
    33  H    0.000016  -0.000000   0.000001  -0.000001   0.000001  -0.000008
    34  H    0.130290  -0.087202  -0.119009  -0.031604   0.064245   0.000472
    35  H   -0.135906   0.160217   0.040843   0.051459  -0.054697   0.000057
    36  H   -0.015098  -0.338031   0.080463   0.004090  -0.001894  -0.000307
    37  O    0.000000   0.000000   0.000000  -0.000000   0.000000   0.000163
    38  H   -0.000000   0.000000   0.000000  -0.000000   0.000000   0.000003
    39  H    0.000000  -0.000000  -0.000000  -0.000000   0.000000   0.000006
              13         14         15         16         17         18
     1  C   -0.001443   0.013087   0.002422  -0.023302  -0.078794   0.166453
     2  C    0.004925  -0.199891  -0.062584   0.162259   0.253149  -0.540538
     3  C   -0.009713  -0.058412  -0.001427   0.074481   0.095605  -0.124589
     4  N    0.005501   0.010643  -0.003779  -0.008452  -0.011256   0.034295
     5  C    0.003286  -0.001471  -0.004942   0.010593   0.013036  -0.020974
     6  C    0.000894  -0.000159   0.007558  -0.005493  -0.016012   0.033791
     7  C    0.000200   0.511483   0.064220  -0.133986   0.290796  -0.102988
     8  N   -0.000056  -0.660224  -0.010634   0.083539   0.146703   0.023106
     9  C   -0.000011   0.010403   0.080247  -0.080396  -0.200613   0.164392
    10  C    0.000002  -0.053129  -0.226529  -0.090732   0.117575   0.173033
    11  C   -0.000023   0.069596   0.257089  -0.038790  -0.692216  -0.089252
    12  O   -0.048802   0.000066   0.000015  -0.000254  -0.000077   0.000509
    13  O    7.812372   0.000001  -0.000005   0.000036  -0.000005   0.000017
    14  H    0.000001   2.400975   0.018080  -0.209753  -0.020626   0.013860
    15  H   -0.000005   0.018080   1.815491  -0.393892  -0.225918   0.054434
    16  H    0.000036  -0.209753  -0.393892   2.037485   0.161266  -0.256380
    17  H   -0.000005  -0.020626  -0.225918   0.161266   2.175977  -0.446351
    18  H    0.000017   0.013860   0.054434  -0.256380  -0.446351   2.264168
    19  H    0.000001  -0.385515  -0.149479   0.148854   0.064911  -0.019745
    20  H    0.000015   0.037103   0.027884  -0.037544  -0.252581   0.099188
    21  H    0.001592   0.015237   0.009368  -0.020856  -0.009610   0.018057
    22  H    0.002131  -0.000149  -0.000100   0.000328   0.001026  -0.000600
    23  H    0.000063  -0.000036   0.000045   0.000150  -0.001307  -0.002389
    24  H   -0.000059  -0.002221   0.001773   0.002319  -0.001218  -0.007149
    25  C   -0.000026  -0.025625   0.007085  -0.007669   0.000840   0.005301
    26  H   -0.009534  -0.001710   0.000318   0.002850   0.000609   0.000565
    27  H    0.003017   0.000066  -0.000005  -0.000007   0.000010  -0.000056
    28  H   -0.000721   0.000003   0.000053  -0.000418  -0.000048   0.000288
    29  H    0.315743  -0.000006   0.000002   0.000048  -0.000001  -0.000050
    30  H    0.364908   0.000004  -0.000007  -0.000002   0.000003   0.000015
    31  O   -0.043763   0.000000  -0.000000  -0.000002   0.000000   0.000004
    32  H   -0.000012   0.000000   0.000000  -0.000000  -0.000000   0.000000
    33  H    0.001566   0.000000   0.000000  -0.000002   0.000000   0.000003
    34  H    0.000005  -0.006860  -0.001394  -0.001755  -0.000724   0.000200
    35  H   -0.000003   0.016375   0.007289  -0.003997   0.000510   0.000417
    36  H   -0.000008   0.020671  -0.004267   0.006811   0.000719   0.000924
    37  O    0.000559   0.000000  -0.000000   0.000000   0.000000  -0.000000
    38  H    0.000228  -0.000000  -0.000000   0.000000   0.000000  -0.000000
    39  H   -0.000023  -0.000000  -0.000000   0.000000   0.000000  -0.000000
              19         20         21         22         23         24
     1  C   -0.010229  -0.046558  -0.030743  -0.005757   0.717866  -2.265247
     2  C    0.207086   0.535505  -0.354400   0.140995  -0.265574   1.118464
     3  C    0.015060  -0.063179  -0.906568   0.167344   0.030833   0.236079
     4  N   -0.000908   0.006340   0.008071  -0.057997  -0.033828  -0.091884
     5  C    0.002178  -0.036509  -0.058969  -0.826486   0.455601  -0.205756
     6  C    0.001858   0.058764   0.024570   0.298205  -1.148233   0.784975
     7  C   -0.380877  -1.536089   0.651862   0.006627  -0.009655  -0.450324
     8  N    0.392681  -0.200612  -0.370693   0.003683  -0.002466   0.053233
     9  C   -0.311059  -0.047368   0.038439  -0.000782  -0.000763  -0.017821
    10  C    0.021393   0.106232   0.040660   0.000018   0.000035   0.023844
    11  C   -0.055819   0.362754   0.030482   0.005152  -0.015889   0.068216
    12  O   -0.000039   0.000178   0.008091  -0.003394  -0.000962   0.000813
    13  O    0.000001   0.000015   0.001592   0.002131   0.000063  -0.000059
    14  H   -0.385515   0.037103   0.015237  -0.000149  -0.000036  -0.002221
    15  H   -0.149479   0.027884   0.009368  -0.000100   0.000045   0.001773
    16  H    0.148854  -0.037544  -0.020856   0.000328   0.000150   0.002319
    17  H    0.064911  -0.252581  -0.009610   0.001026  -0.001307  -0.001218
    18  H   -0.019745   0.099188   0.018057  -0.000600  -0.002389  -0.007149
    19  H    1.952300  -0.054379   0.002811   0.000097  -0.000013   0.000529
    20  H   -0.054379   2.493282   0.041978  -0.000111   0.000136  -0.047121
    21  H    0.002811   0.041978   2.966221   0.007981  -0.000799  -0.021225
    22  H    0.000097  -0.000111   0.007981   2.207708  -0.122898  -0.012612
    23  H   -0.000013   0.000136  -0.000799  -0.122898   2.081218  -0.134704
    24  H    0.000529  -0.047121  -0.021225  -0.012612  -0.134704   2.817890
    25  C    0.006542   0.091533  -0.075309  -0.000016   0.002403   0.006230
    26  H   -0.000145  -0.007479  -0.058663  -0.155029   0.012878   0.012527
    27  H    0.000001   0.000003   0.002658   0.006657  -0.000290  -0.000056
    28  H   -0.000022   0.000119   0.001214   0.002073  -0.000053  -0.000136
    29  H    0.000001  -0.000003   0.000374  -0.001662   0.000020  -0.000020
    30  H    0.000000  -0.000000  -0.000186   0.000221   0.000003  -0.000004
    31  O   -0.000000   0.000001   0.000023  -0.000067   0.000002   0.000001
    32  H    0.000000  -0.000000   0.000011  -0.000063   0.000008   0.000001
    33  H   -0.000000   0.000001  -0.000016   0.000125  -0.000011   0.000001
    34  H   -0.001529   0.020808   0.002354   0.000436   0.000309  -0.004062
    35  H    0.010867   0.000787   0.004465   0.000024  -0.000081   0.003244
    36  H   -0.003941   0.014586  -0.004798  -0.000002   0.000062   0.001490
    37  O   -0.000000   0.000000  -0.000004   0.000067  -0.000001   0.000000
    38  H   -0.000000   0.000000  -0.000000   0.000003  -0.000000   0.000000
    39  H    0.000000   0.000000  -0.000000   0.000003  -0.000000  -0.000000
              25         26         27         28         29         30
     1  C   -0.073767   0.089885  -0.004366   0.006423  -0.001473  -0.000314
     2  C   -0.058822  -0.451328   0.008654  -0.009289   0.001874   0.000078
     3  C    0.167540   0.464504  -0.000478   0.014190   0.000509  -0.002041
     4  N   -0.014794  -0.063046  -0.000821  -0.000566   0.001078   0.000651
     5  C   -0.013060  -0.304255  -0.007763  -0.011941  -0.001808   0.000884
     6  C   -0.028303  -0.204101   0.009931  -0.002042  -0.000467   0.001070
     7  C   -0.325181  -0.091691   0.000967   0.000730  -0.000206   0.000141
     8  N    0.458227   0.021484   0.000121  -0.000650   0.000030  -0.000024
     9  C   -0.225586   0.001601  -0.000025   0.000098  -0.000035   0.000032
    10  C   -0.009648   0.005087   0.000010  -0.000085   0.000058  -0.000051
    11  C   -0.019165  -0.032967   0.000661  -0.000216  -0.000047   0.000094
    12  O   -0.000596   0.012680   0.365844   0.322033  -0.001961   0.002328
    13  O   -0.000026  -0.009534   0.003017  -0.000721   0.315743   0.364908
    14  H   -0.025625  -0.001710   0.000066   0.000003  -0.000006   0.000004
    15  H    0.007085   0.000318  -0.000005   0.000053   0.000002  -0.000007
    16  H   -0.007669   0.002850  -0.000007  -0.000418   0.000048  -0.000002
    17  H    0.000840   0.000609   0.000010  -0.000048  -0.000001   0.000003
    18  H    0.005301   0.000565  -0.000056   0.000288  -0.000050   0.000015
    19  H    0.006542  -0.000145   0.000001  -0.000022   0.000001   0.000000
    20  H    0.091533  -0.007479   0.000003   0.000119  -0.000003  -0.000000
    21  H   -0.075309  -0.058663   0.002658   0.001214   0.000374  -0.000186
    22  H   -0.000016  -0.155029   0.006657   0.002073  -0.001662   0.000221
    23  H    0.002403   0.012878  -0.000290  -0.000053   0.000020   0.000003
    24  H    0.006230   0.012527  -0.000056  -0.000136  -0.000020  -0.000004
    25  C    4.566308  -0.002743   0.000210   0.000321  -0.000027  -0.000000
    26  H   -0.002743   1.683057  -0.018728  -0.002731   0.002925   0.000184
    27  H    0.000210  -0.018728   0.612954  -0.111638  -0.000533  -0.000159
    28  H    0.000321  -0.002731  -0.111638   0.506372  -0.002931  -0.006962
    29  H   -0.000027   0.002925  -0.000533  -0.002931   0.522280  -0.106337
    30  H   -0.000000   0.000184  -0.000159  -0.006962  -0.106337   0.617628
    31  O    0.000000  -0.002528   0.001133  -0.002734   0.009932   0.001137
    32  H   -0.000000   0.000148   0.000039  -0.000058  -0.003083   0.000144
    33  H    0.000001  -0.000098  -0.000092   0.001047  -0.005873  -0.001029
    34  H    0.334002  -0.014364   0.000676  -0.000105  -0.000007   0.000001
    35  H    0.058755   0.003932  -0.000083   0.000037  -0.000001  -0.000001
    36  H    0.374630   0.000879  -0.000130   0.000081  -0.000004  -0.000001
    37  O    0.000000  -0.000029   0.000035  -0.000040  -0.001576   0.000293
    38  H    0.000000   0.000001  -0.000014   0.000064   0.000060  -0.000050
    39  H   -0.000000   0.000001   0.000003  -0.000073   0.000547  -0.000020
              31         32         33         34         35         36
     1  C    0.000158   0.000086   0.000022  -0.166979   0.044457   0.031143
     2  C   -0.000037  -0.000035  -0.000025   0.158864   0.038211  -0.020818
     3  C    0.000059  -0.000084   0.000068  -0.081468   0.079611  -0.034323
     4  N   -0.000247   0.000061  -0.000131   0.003546  -0.008983   0.010637
     5  C    0.001259   0.000141  -0.000288  -0.042226   0.004376   0.007825
     6  C    0.000383  -0.000072   0.000245   0.047438  -0.003694  -0.009481
     7  C    0.000009  -0.000004   0.000016   0.130290  -0.135906  -0.015098
     8  N   -0.000001  -0.000001  -0.000000  -0.087202   0.160217  -0.338031
     9  C    0.000000   0.000000   0.000001  -0.119009   0.040843   0.080463
    10  C   -0.000000   0.000000  -0.000001  -0.031604   0.051459   0.004090
    11  C    0.000000  -0.000001   0.000001   0.064245  -0.054697  -0.001894
    12  O    0.000584  -0.000003  -0.000008   0.000472   0.000057  -0.000307
    13  O   -0.043763  -0.000012   0.001566   0.000005  -0.000003  -0.000008
    14  H    0.000000   0.000000   0.000000  -0.006860   0.016375   0.020671
    15  H   -0.000000   0.000000   0.000000  -0.001394   0.007289  -0.004267
    16  H   -0.000002  -0.000000  -0.000002  -0.001755  -0.003997   0.006811
    17  H    0.000000  -0.000000   0.000000  -0.000724   0.000510   0.000719
    18  H    0.000004   0.000000   0.000003   0.000200   0.000417   0.000924
    19  H   -0.000000   0.000000  -0.000000  -0.001529   0.010867  -0.003941
    20  H    0.000001  -0.000000   0.000001   0.020808   0.000787   0.014586
    21  H    0.000023   0.000011  -0.000016   0.002354   0.004465  -0.004798
    22  H   -0.000067  -0.000063   0.000125   0.000436   0.000024  -0.000002
    23  H    0.000002   0.000008  -0.000011   0.000309  -0.000081   0.000062
    24  H    0.000001   0.000001   0.000001  -0.004062   0.003244   0.001490
    25  C    0.000000  -0.000000   0.000001   0.334002   0.058755   0.374630
    26  H   -0.002528   0.000148  -0.000098  -0.014364   0.003932   0.000879
    27  H    0.001133   0.000039  -0.000092   0.000676  -0.000083  -0.000130
    28  H   -0.002734  -0.000058   0.001047  -0.000105   0.000037   0.000081
    29  H    0.009932  -0.003083  -0.005873  -0.000007  -0.000001  -0.000004
    30  H    0.001137   0.000144  -0.001029   0.000001  -0.000001  -0.000001
    31  O    7.734265   0.324041   0.365009   0.000001  -0.000000  -0.000000
    32  H    0.324041   0.543870  -0.105964   0.000000   0.000000   0.000000
    33  H    0.365009  -0.105964   0.622759   0.000000   0.000000  -0.000000
    34  H    0.000001   0.000000   0.000000   2.000068  -0.419116  -0.498255
    35  H   -0.000000   0.000000   0.000000  -0.419116   1.582170  -0.308913
    36  H   -0.000000   0.000000  -0.000000  -0.498255  -0.308913   1.901264
    37  O   -0.032815   0.013537   0.000262  -0.000000  -0.000000   0.000000
    38  H    0.001535  -0.002463  -0.000232  -0.000000   0.000000   0.000000
    39  H    0.001590  -0.004342  -0.000910  -0.000000  -0.000000   0.000000
              37         38         39
     1  C    0.000000   0.000000  -0.000001
     2  C    0.000001  -0.000001   0.000002
     3  C    0.000002   0.000005  -0.000002
     4  N   -0.000005  -0.000003   0.000001
     5  C   -0.000013  -0.000003  -0.000000
     6  C   -0.000005  -0.000002  -0.000001
     7  C    0.000000  -0.000000   0.000000
     8  N    0.000000   0.000000  -0.000000
     9  C    0.000000   0.000000  -0.000000
    10  C   -0.000000  -0.000000  -0.000000
    11  C    0.000000   0.000000   0.000000
    12  O    0.000163   0.000003   0.000006
    13  O    0.000559   0.000228  -0.000023
    14  H    0.000000  -0.000000  -0.000000
    15  H   -0.000000  -0.000000  -0.000000
    16  H    0.000000   0.000000   0.000000
    17  H    0.000000   0.000000   0.000000
    18  H   -0.000000  -0.000000  -0.000000
    19  H   -0.000000  -0.000000   0.000000
    20  H    0.000000   0.000000   0.000000
    21  H   -0.000004  -0.000000  -0.000000
    22  H    0.000067   0.000003   0.000003
    23  H   -0.000001  -0.000000  -0.000000
    24  H    0.000000   0.000000  -0.000000
    25  C    0.000000   0.000000  -0.000000
    26  H   -0.000029   0.000001   0.000001
    27  H    0.000035  -0.000014   0.000003
    28  H   -0.000040   0.000064  -0.000073
    29  H   -0.001576   0.000060   0.000547
    30  H    0.000293  -0.000050  -0.000020
    31  O   -0.032815   0.001535   0.001590
    32  H    0.013537  -0.002463  -0.004342
    33  H    0.000262  -0.000232  -0.000910
    34  H   -0.000000  -0.000000  -0.000000
    35  H   -0.000000   0.000000  -0.000000
    36  H    0.000000   0.000000   0.000000
    37  O    7.618540   0.356601   0.359606
    38  H    0.356601   0.568862  -0.073646
    39  H    0.359606  -0.073646   0.572388
 Mulliken charges:
               1
     1  C    1.126499
     2  C    0.769708
     3  C    0.693028
     4  N    0.000168
     5  C    0.755365
     6  C    0.292426
     7  C    0.943582
     8  N   -0.415755
     9  C    1.177666
    10  C    0.592439
    11  C    0.951835
    12  O   -0.476619
    13  O   -0.402857
    14  H   -0.511868
    15  H   -0.268408
    16  H   -0.377334
    17  H   -0.365380
    18  H   -0.441959
    19  H   -0.453471
    20  H   -0.567662
    21  H   -0.963677
    22  H   -0.663177
    23  H   -0.561679
    24  H   -0.870007
    25  C    0.800409
    26  H    0.105053
    27  H    0.131594
    28  H    0.298312
    29  H    0.272629
    30  H    0.127369
    31  O   -0.358930
    32  H    0.234098
    33  H    0.123551
    34  H   -0.287059
    35  H   -0.172627
    36  H   -0.216006
    37  O   -0.315179
    38  H    0.149053
    39  H    0.144871
 Sum of Mulliken charges =   1.00000
 Mulliken charges with hydrogens summed into heavy atoms:
               1
     1  C    0.256492
     2  C    0.769708
     3  C   -0.270649
     4  N    0.105221
     5  C    0.092188
     6  C   -0.269253
     7  C    0.375920
     8  N   -0.415755
     9  C    0.212327
    10  C   -0.053303
    11  C    0.144497
    12  O   -0.046713
    13  O   -0.002859
    25  C    0.124717
    31  O   -0.001281
    37  O   -0.021255
 Electronic spatial extent (au):  <R**2>=           9460.9068
 Charge=              1.0000 electrons
 Dipole moment (field-independent basis, Debye):
    X=             -6.8063    Y=              1.9921    Z=              0.5526  Tot=              7.1133
 Quadrupole moment (field-independent basis, Debye-Ang):
   XX=             43.9160   YY=            -73.2340   ZZ=            -87.4333
   XY=             11.5296   XZ=             -4.4290   YZ=             -1.1558
 Traceless Quadrupole moment (field-independent basis, Debye-Ang):
   XX=             82.8331   YY=            -34.3169   ZZ=            -48.5162
   XY=             11.5296   XZ=             -4.4290   YZ=             -1.1558
 Octapole moment (field-independent basis, Debye-Ang**2):
  XXX=          -1067.5184  YYY=             22.2084  ZZZ=              9.3255  XYY=            -48.6193
  XXY=           -111.0009  XXZ=             20.9742  XZZ=            -62.3452  YZZ=            -14.6982
  YYZ=            -11.7720  XYZ=             -4.0868
 Hexadecapole moment (field-independent basis, Debye-Ang**3):
 XXXX=           1137.9287 YYYY=          -1023.4618 ZZZZ=           -634.8143 XXXY=            919.9155
 XXXZ=           -464.1766 YYYX=            130.5594 YYYZ=            -12.7249 ZZZX=              2.9920
 ZZZY=            -16.4143 XXYY=          -1427.8581 XXZZ=          -1373.7546 YYZZ=           -311.9848
 XXYZ=             -8.5785 YYXZ=             28.6122 ZZXY=             -7.1406
 N-N= 1.099295976512D+03 E-N=-4.063680356912D+03  KE= 8.000006355891D+02
 Calling FoFJK, ICntrl=      2127 FMM=F ISym2X=0 I1Cent= 0 IOpClX= 0 NMat=1 NMatS=1 NMatT=0.
 ***** Axes restored to original set *****
 -------------------------------------------------------------------
 Center     Atomic                   Forces (Hartrees/Bohr)
 Number     Number              X              Y              Z
 -------------------------------------------------------------------
      1        6           0.000022073    0.000002916    0.000002340
[...]
 492,0.00002813,0.00001150,0.00297256,0.00205022,0.00086444,-0.00359381
 ,-0.00105184,-0.00579945,-0.00231366,0.00070124,0.00079768,0.00025399,
 0.00006757,-0.00012157,-0.00001204,-0.00002452,0.00008827,-0.00004354,
 -0.00000635,0.00001007,-0.00002579,0.00000544,-0.00000867,-0.00003896,
 -0.00014095,0.00012843,0.00000861,0.00002785,-0.00011033,0.00013922,-0
 .00009356,0.00013521,-0.00001711,-0.00000083,-0.00002855,0.00002315,-0
 .00000963,-0.00004157,0.00067077,-0.00023964,-0.00016805,-0.00077833,0
 .00040268,-0.00095316,0.00008408,-0.00007712,-0.00006186,-0.00000267,0
 .00000472,0.00000972,-0.00000633,0.00000597,0.00000333,0.00001188,-0.0
 0002349,-0.00000331,-0.08552884,-0.08756272,-0.00697082,0.00003981,0.0
 0003631,-0.00003235,0.00000236,-0.00000870,-0.00000801,0.00002209,0.00
 000047,0.00001856,0.00001893,-0.00000993,-0.00000026,0.00000673,0.0000
 0003,0.00000133,-0.00001550,0.00000375,0.00000198,0.00000748,0.0000023
 2,-0.00000423,0.00000224,-0.00000057,0.00000045,0.01758486,0.00763135,
 0.00208654,0.09725069,0.08799941,-0.00016343,0.00007381,0.00003655,0.0
 0033536,0.00058267,0.00009594,-0.00003462,0.00001386,0.00002901,-0.000
 10938,0.00018471,0.00003140,-0.00004903,0.00000159,-0.00003109,0.00000
 879,0.00005147,-0.00001769,-0.00199175,-0.00642943,0.00225873,-0.03515
 814,-0.01450298,-0.02157760,-0.00486963,0.00223888,0.00250487,0.000371
 80,0.00006581,0.00008390,0.00023801,-0.00015581,0.00051167,0.00001007,
 -0.00002487,0.00006436,0.00000599,-0.00000140,0.00002148,0.00045538,-0
 .00013614,-0.00020365,0.00016823,0.00011295,-0.00011713,0.00020151,0.0
 0002288,0.00017832,0.00004581,0.00004380,-0.00006677,0.00000181,0.0000
 2334,0.00006874,0.00195955,0.00039751,0.00053518,0.00144154,0.00148235
 ,0.00082736,0.00024948,-0.00007000,-0.00023872,-0.00000673,0.00000942,
 -0.00001364,-0.00001688,0.00000394,-0.00000740,0.00001537,0.00000183,0
 .00000110,-0.01728980,-0.00723989,-0.04982750,0.00005519,0.00004231,-0
 .00004399,-0.00003207,0.00000731,-0.00001887,-0.00001909,-0.00000552,-
 0.00003055,-0.00000210,0.00000258,-0.00000237,0.00000360,0.00000113,-0
 .00000591,0.00000063,-0.00000244,0.00000485,0.00000014,0.00000096,-0.0
 0000275,0.00000105,0.00000078,-0.00000184,0.01161970,0.00615556,0.0019
 5047,0.03022507,0.01299159,0.06110646,-0.00003149,-0.00013071,0.000051
 07,0.00031650,-0.00004813,0.00005887,0.00012103,0.00009112,0.00003690,
 -0.00004514,-0.00010777,0.00000212,0.00001722,0.00006427,-0.00001138,-
 0.00004876,-0.00000008,0.00000881,0.00050798,-0.00085712,-0.00153847,-
 0.00101466,0.00916511,-0.00462954,0.00032939,-0.00043119,0.00044677,-0
 .00015482,0.00008021,0.00015863,0.00009510,0.00051858,-0.00012715,0.00
 000716,-0.00006187,0.00005747,0.00001592,-0.00001034,0.00002001,0.0002
 4248,-0.00003875,0.00002859,0.00000042,-0.00002350,0.00003005,-0.00003
 202,0.00000505,-0.00004472,0.00002790,-0.00001110,-0.00015319,0.000052
 45,-0.00000287,-0.00005442,-0.00015125,-0.00030351,-0.00009616,0.00008
 357,0.00043830,-0.00008079,-0.00002032,0.00010881,-0.00007545,0.000004
 52,-0.00000021,0.00000692,-0.00001083,0.00000104,-0.00000435,-0.000004
 57,-0.00000584,0.00000087,-0.04764339,-0.01001438,0.00443628,0.0000763
 2,0.00008651,-0.00004944,-0.00003348,0.00001794,-0.00001584,-0.0000238
 0,0.00000043,-0.00002786,-0.00000956,0.00000850,-0.00000227,-0.0000021
 4,0.00000341,-0.00000656,0.00000512,-0.00000627,0.00000372,-0.00000138
 ,0.00000103,-0.00000177,0.00000092,0.00000178,-0.00000161,0.00088802,0
 .01934550,-0.01013529,-0.00028490,-0.02636420,0.01232927,0.04672057,-0
 .00001811,0.00007539,-0.00003368,-0.00023303,0.00014334,-0.00002280,-0
 .00003831,-0.00010713,-0.00003199,0.00010607,0.00007700,-0.00002255,-0
 .00000501,-0.00007056,-0.00000202,0.00004022,0.00003303,0.00000341,-0.
 00032153,0.00102976,-0.00093779,0.00079467,0.00589807,-0.00268330,0.00
 036006,0.00110072,-0.00076695,-0.00007470,0.00026215,0.00022001,0.0001
 3314,0.00013296,-0.00041773,0.00005251,0.00007985,-0.00005340,0.000014
 55,0.00000990,-0.00000607,-0.00025307,0.00010509,0.00048721,-0.0000139
 4,0.00000918,0.00000790,0.00000415,-0.00000720,-0.00000262,0.00000286,
 0.00002963,-0.00002635,-0.00000689,0.00011837,-0.00002622,-0.00020188,
 -0.00029487,0.00000627,0.00027097,0.00034441,-0.00034668,0.00001107,-0
 .00008312,0.00010674,-0.00000482,0.00000049,-0.00000072,0.00000522,0.0
 0000010,-0.00000282,-0.00000393,0.00002108,-0.00002585,-0.00768058,-0.
 27292444,0.10816147,-0.00014247,-0.00012405,0.00006419,0.00002557,-0.0
 0001434,0.00002374,-0.00000677,-0.00000668,-0.00000268,-0.00001061,0.0
 0000027,0.00000313,-0.00000219,-0.00000532,0.00000508,0.00001299,0.000
 00529,-0.00000599,-0.00000823,-0.00000536,0.00000708,-0.00000395,-0.00
 000250,0.00000089,-0.00217185,-0.01437961,0.00748108,0.00088353,-0.009
 58740,0.00405570,0.00848035,0.28813485,-0.00023155,0.00016300,0.000028
 29,0.00051214,-0.00021037,-0.00012860,-0.00006440,0.00004763,0.0000150
 1,-0.00013620,0.00001559,0.00003250,-0.00006024,-0.00003411,0.00000249
 ,0.00005889,0.00004115,0.00000617,0.00011927,-0.00266839,-0.00555483,-
 0.00271456,0.03246793,-0.02013903,-0.00000639,0.00197687,0.00114450,-0
 .00029330,0.00017549,0.00021131,-0.00038517,0.00140445,-0.00075302,-0.
 00002421,-0.00004107,0.00001457,-0.00000429,-0.00000842,-0.00000064,0.
 00005316,-0.00072051,-0.00021680,0.00001051,-0.00008253,0.00006430,0.0
 0000267,-0.00003626,0.00002363,0.00003418,-0.00002239,-0.00027936,0.00
 017662,-0.00009823,-0.00046369,0.00022201,-0.00021295,-0.00014105,0.00
 013614,-0.00005870,0.00000943,0.00005691,0.00002924,-0.00004554,-0.000
 00144,-0.00000196,-0.00000639,-0.00001757,0.00000546,-0.00000706,0.000
 01180,-0.00002574,-0.00001193,0.00393283,0.09868196,-0.09493664,0.0000
 5811,0.00006539,-0.00002981,-0.00000944,0.00000473,-0.00000272,0.00000
 448,0.00000736,0.00000621,0.00000211,0.00000150,-0.00000084,-0.0000022
 0,0.00000450,-0.00000160,-0.00000416,-0.00000305,0.00000104,0.00000272
 ,0.00000204,-0.00000159,0.00000171,0.00000136,-0.00000002,-0.00131358,
 -0.01300734,0.00692346,0.00049377,-0.00264966,0.00189668,-0.00062016,-
 0.11521342,0.11234079,0.00001292,0.00000250,-0.00000243,0.00002954,-0.
 00002080,-0.00001030,0.00004836,-0.00004332,0.00000774,-0.00019140,-0.
 00014376,0.00005213,0.00004141,0.00008349,-0.00002382,-0.00006599,0.00
 000742,0.00000554,0.00004212,-0.00002428,0.00003206,-0.00006666,0.0000
 1915,-0.00001098,0.00003232,-0.00001770,-0.00001993,0.00000603,-0.0000
 0171,0.00000767,0.00000142,0.00000791,-0.00001610,-0.00061191,-0.00011
 536,-0.00029853,-0.00145750,0.00068262,-0.00004100,0.00000293,0.000005
 77,-0.00000158,-0.00000673,0.00000515,0.00000275,-0.00000137,-0.000006
 21,-0.00000464,-0.00000974,0.00000077,0.00000328,0.00000232,0.00000367
 ,-0.00001161,-0.00001845,-0.00000391,-0.00000116,-0.00001593,0.0000056
 2,-0.00000341,0.00003417,-0.00000860,0.00000481,0.00003091,0.00003492,
 0.00001200,0.00000315,0.00000512,0.00000210,-0.00000384,0.00000019,0.0
 0000198,0.00002665,0.00000509,0.00002532,0.00040905,0.00024893,-0.0000
 8319,0.00010934,-0.00004574,0.00009052,0.00058659,0.00006561,0.0005131
 2,0.00191817,-0.00117260,-0.00006007,0.00009029,-0.00015633,-0.0001576
 3,-0.00924644,-0.00486634,0.00788158,-0.00153942,-0.00060306,-0.000075
 90,-0.00171673,0.00007633,-0.00008890,-0.00000025,0.00000579,0.0000086
 2,-0.00001602,-0.00000633,0.00000186,0.00000337,0.00000402,-0.00000153
 ,0.42813902,0.00001957,-0.00001803,0.00000035,0.00003380,0.00002790,-0
 .00001588,-0.00002861,-0.00001913,0.00001065,-0.00000129,-0.00001519,0
 .00000123,0.00006022,0.00000660,-0.00001126,-0.00005091,0.00000305,0.0
 0000660,0.00001745,-0.00002504,0.00001973,-0.00001709,0.00002714,-0.00
 000777,0.00000777,-0.00001562,-0.00000920,-0.00000595,-0.00000545,0.00
 000284,-0.00000041,0.00000213,-0.00000821,-0.00010689,0.00016105,-0.00
 010799,-0.00072174,0.00084309,-0.00022288,-0.00000152,0.00000612,-0.00
 000285,-0.00000233,0.00000245,0.00000146,0.00000330,-0.00000130,0.0000
 0002,-0.00000133,0.00000270,0.00000250,-0.00000171,0.,-0.00000580,-0.0
 0000475,0.00000122,0.00000146,-0.00000314,0.00000728,0.,0.00000286,-0.
 00001004,0.00000281,0.00002199,-0.00000143,0.00000606,0.00000941,0.000
 00321,-0.00000033,-0.00000010,-0.00000179,0.00000090,0.00000499,-0.000
 00421,0.00000972,0.00001580,-0.00002679,0.00000753,-0.00000582,-0.0001
 2503,0.00002401,0.00012801,-0.00008603,0.00015655,0.00132321,-0.001204
 42,0.00018327,-0.00017866,-0.00016789,0.00010507,-0.00517369,0.0027755
 4,0.00418156,-0.00002755,-0.00832175,-0.00304119,0.00005671,0.00001284
 ,-0.00052136,-0.00000237,-0.00000046,0.00000483,-0.00000178,-0.0000003
 4,-0.00000158,-0.00000234,0.00000500,-0.00000214,0.11058248,0.46153336
 ,-0.00000816,0.00000492,0.00000009,-0.00001244,-0.00000756,0.00000627,
 -0.00000004,0.00001120,-0.00000875,0.00001784,0.00002097,0.00000631,-0
 .00001951,-0.00001480,0.00000460,0.00002208,-0.00000116,0.00000463,-0.
 00001420,0.00001358,-0.00001472,0.00001345,-0.00000673,0.00002825,-0.0
 0000265,0.00000062,-0.00000134,-0.00000599,-0.00000164,-0.00000059,-0.
 00000306,0.00000010,-0.00000172,0.00022932,0.00004437,0.00043269,0.001
 12752,-0.00059815,0.00046317,-0.00000110,-0.00000364,-0.00000004,-0.00
 000057,-0.00000014,0.00000043,0.00000301,0.00000394,-0.00000128,0.0000
 0152,0.00000003,0.00000008,0.00000237,-0.00000436,0.00000477,0.0000043
 6,0.00000194,0.00000197,0.00000454,-0.00000236,0.00000141,-0.00000664,
 0.00000302,-0.00001258,-0.00001160,-0.00001084,-0.00003348,-0.00000406
 ,-0.00000390,-0.00000914,-0.00000030,-0.00000046,-0.00000442,-0.000004
 12,-0.00000267,-0.00002655,-0.00004081,-0.00001869,-0.00003345,0.00009
 738,0.00001587,-0.00010854,-0.00043606,-0.00007313,-0.00060678,-0.0016
 1641,0.00101563,-0.00024071,-0.00009820,0.00012229,-0.00005964,0.00726
 011,0.00361422,-0.00023457,0.00011474,-0.00252727,-0.00752370,-0.00024
 564,-0.00057440,0.00054138,-0.00000228,0.00000532,-0.00000274,0.000004
 88,0.00000201,0.00000364,0.00000308,-0.00000605,0.00000075,-0.11059988
 ,0.32250448,0.32156191,0.00000009,-0.00000485,0.00000115,-0.00000176,0
 .00001146,-0.00000059,-0.00001667,0.00000539,0.00000094,0.00004713,0.0
 0003147,-0.00001328,0.00000156,-0.00001915,0.00000399,0.00000660,-0.00
 000020,-0.00000083,-0.00000787,0.00000076,-0.00000442,0.00001549,0.000
 00049,0.00000081,-0.00000801,0.00000165,0.00000369,-0.00000339,-0.0000
 0080,-0.00000148,-0.00000060,-0.00000175,0.00000271,0.00011014,0.00007
 335,0.00003740,0.00008332,0.00018691,-0.00004433,-0.00000134,-0.000000
 20,-0.00000020,0.00000145,-0.00000093,-0.00000057,0.00000126,0.0000014
 0,0.00000136,0.00000243,0.00000052,-0.00000034,-0.00000098,-0.00000105
 ,0.00000190,0.00000438,0.00000156,0.00000074,0.00000356,0.00000017,0.0
 0000104,-0.00000846,-0.00000031,-0.00000047,-0.00000238,-0.00000647,-0
 .00000035,0.00000042,-0.00000054,-0.00000008,0.00000075,-0.00000020,-0
 .00000025,-0.00000677,-0.00000231,-0.00000446,-0.00009407,-0.00006578,
 0.00002326,-0.00002269,-0.00002427,-0.00001219,-0.00009669,-0.00004300
 ,-0.00007709,0.00006212,-0.00024834,0.00004719,-0.00012810,-0.00002993
 ,0.00007261,-0.00053612,0.00012207,0.00129715,0.00088647,-0.00051066,-
 0.00308557,-0.00030092,-0.00014170,0.00013215,-0.00000024,-0.00000193,
 -0.00000125,0.00000421,0.00000186,-0.00000102,-0.00000171,0.00000003,-
 0.00000007,-0.23692695,-0.25313526,-0.09892050,0.22529664,-0.00000706,
 0.00000721,-0.00000018,-0.00001305,-0.00001158,0.00000609,0.00001185,0
 .00000830,-0.00000396,-0.00000123,0.00000470,-0.00000051,-0.00001966,-
 0.00000255,0.00000456,0.00001781,0.,-0.00000308,-0.00000565,0.00001026
 ,-0.00000721,0.00000493,-0.00001199,0.00000157,-0.00000236,0.00000729,
 0.00000371,0.00000353,0.00000262,-0.00000097,0.00000025,-0.00000061,0.
 00000311,0.00003367,-0.00006545,0.00001098,0.00016841,-0.00023358,0.00
 002183,0.00000088,-0.00000258,0.00000147,0.00000095,-0.00000082,-0.000
 00067,-0.00000194,0.00000029,-0.00000014,0.00000013,-0.00000128,-0.000
 00107,0.00000087,0.00000034,0.00000201,0.00000130,-0.00000092,-0.00000
 088,0.00000061,-0.00000315,-0.00000029,-0.00000056,0.00000450,-0.00000
 023,-0.00000650,0.00000149,-0.00000154,-0.00000316,-0.00000085,0.00000
 031,-0.00000018,0.00000096,-0.00000019,-0.00000107,0.00000246,-0.00000
 194,-0.00000447,0.00001036,-0.00000125,-0.00001366,0.00004624,-0.00000
 282,-0.00003009,0.00003883,-0.00001729,-0.00034575,0.00028404,0.000023
 08,0.00005319,0.00007933,-0.00003229,0.00095063,0.00026306,-0.00042022
 ,-0.00148200,-0.00096254,0.00073630,-0.00021538,-0.00010438,0.00001888
 ,0.00000128,-0.00000006,-0.00000180,-0.00000004,-0.00000021,0.00000056
 ,0.00000094,-0.00000176,0.00000098,-0.21064069,-0.28405444,-0.13815010
 ,0.23200540,0.30134577,0.00000008,-0.00000130,0.,-0.00000145,0.0000045
 6,-0.00000011,-0.00000565,0.00000307,0.00000154,0.00002209,0.00001486,
 -0.00000943,-0.00000281,-0.00000766,0.00000253,0.00000457,-0.00000061,
 -0.00000230,-0.00000164,-0.00000037,-0.00000006,0.00000539,-0.00000141
 ,-0.00000947,-0.00000392,0.00000290,0.00000435,0.00000193,0.00000144,-
 0.00000106,0.00000100,-0.00000132,0.00000356,0.00002522,0.00001026,-0.
 00006064,0.00007090,-0.00009193,-0.00013293,0.00000013,0.00000034,0.00
 000044,0.00000164,-0.00000088,-0.00000058,-0.00000143,-0.00000056,0.00
 000139,0.00000101,-0.00000034,-0.00000061,-0.00000137,0.00000131,0.000
 00031,0.00000116,-0.00000034,-0.00000082,0.00000086,-0.00000034,-0.000
 00013,-0.00000278,0.00000047,0.00000375,-0.00000218,-0.00000192,0.0000
 0647,0.00000050,0.00000038,0.00000274,0.00000078,0.00000025,0.00000136
 ,-0.00000209,-0.00000001,0.00000613,-0.00004653,-0.00002934,0.00002067
 ,-0.00003029,-0.00000553,0.00001606,0.00002250,0.00000729,0.00006796,-
 0.00013662,0.00016674,0.00005347,0.00006246,0.00000306,0.00007265,0.00
 206753,0.00001712,-0.00227658,-0.00295712,0.00047293,0.00373149,0.0003
 3980,0.00031433,0.00013846,0.00000095,-0.00000275,-0.00000053,0.000000
 41,0.00000015,-0.00000157,-0.00000156,0.00000160,0.00000007,-0.0654280
 0,-0.12026136,-0.07163012,0.08821384,0.14258476,0.07911050,-0.00000444
 ,-0.00000004,0.00000109,-0.00000916,0.00000481,0.00000334,-0.00000924,
 0.00001070,-0.00000097,0.00004814,0.00003579,-0.00001759,-0.00001558,-
 0.00001945,0.00000687,0.00001979,-0.00000279,-0.00000387,-0.00001080,0
 .00000549,-0.00000762,0.00001868,-0.00000614,-0.00000297,-0.00001023,0
 .00000633,0.00000693,0.00000007,0.00000124,-0.00000237,0.00000036,-0.0
 0000264,0.00000609,0.00009637,-0.00001488,-0.00006971,-0.00002570,0.00
 000028,-0.00009920,-0.00000056,-0.00000129,0.00000062,0.00000209,-0.00
 000179,-0.00000114,-0.00000028,0.00000090,0.00000158,0.00000266,-0.000
 00037,-0.00000131,-0.00000103,-0.00000009,0.00000266,0.00000511,0.0000
 0080,-0.00000016,0.00000393,-0.00000156,0.00000082,-0.00000817,0.00000
 239,0.00000188,-0.00000868,-0.00000553,0.00000817,-0.00000145,-0.00000
 089,0.00000201,0.00000131,0.00000015,0.00000041,-0.00000819,-0.0000004
 7,-0.00000167,-0.00010206,-0.00005873,0.00003412,-0.00006716,0.0000315
 4,0.00001256,-0.00000205,0.00002733,0.00007397,0.00007054,-0.00002064,
 0.00007654,0.00000612,0.00000330,0.00001855,-0.00085986,-0.00136186,0.
 00033340,0.00134187,0.00342074,-0.00005440,-0.00022971,-0.00008586,0.0
 0009367,0.00000089,-0.00000325,-0.00000224,0.00000412,0.00000159,-0.00
 000154,-0.00000174,-0.00000009,0.00000041,-0.17967473,0.14718770,0.203
 14803,0.01163770,-0.02046213,-0.02221931,0.16779109,-0.00000772,0.0000
 0879,-0.00000033,-0.00001236,-0.00001650,0.00000633,0.00002293,0.00000
 067,-0.00000343,-0.00003059,-0.00001704,0.00000644,-0.00002264,0.00001
 101,0.00000150,0.00001426,0.00000064,-0.00000347,-0.00000195,0.0000078
 1,-0.00000404,-0.00000115,-0.00000999,0.00000061,0.00000031,0.00000482
 ,0.00000186,0.00000353,0.00000228,-0.00000035,0.00000087,-0.00000011,0
 .00000205,-0.00007074,-0.00008951,-0.00003450,-0.00013046,-0.00002708,
 0.00001608,0.00000100,-0.00000192,0.00000101,0.00000022,-0.00000047,-0
 .00000037,-0.00000169,-0.00000057,-0.00000044,-0.00000076,-0.00000100,
 -0.00000077,0.00000097,0.00000080,0.00000090,-0.00000024,-0.00000099,-
 0.00000088,-0.00000106,-0.00000247,-0.00000058,0.00000380,0.00000312,0
 .00000011,-0.00000538,0.00000954,0.00000378,-0.00000463,-0.00000029,0.
 00000183,-0.00000061,0.00000113,0.00000028,0.00000109,0.00000287,0.000
 00018,0.00006133,0.00005425,-0.00001380,0.00001436,0.00004351,0.000005
 36,0.00007359,0.00004679,0.00006521,0.00010331,-0.00003556,-0.00002047
 ,0.00003438,0.00001077,-0.00003592,-0.00211194,-0.00193176,0.00069311,
 0.00309664,0.00327347,-0.00061118,-0.00015852,0.00025832,0.00017174,0.
 00000135,0.00000075,-0.00000101,-0.00000149,-0.00000066,0.00000079,0.0
 0000131,-0.00000161,0.00000061,0.10602417,-0.17131629,-0.18537648,0.02
 179514,-0.01665930,-0.02319987,-0.12869059,0.18637177,0.00000153,-0.00
 000161,0.00000016,0.00000145,0.00000373,-0.00000125,-0.00000278,-0.000
 00046,0.00000275,0.00000331,0.00000100,-0.00000607,0.00000294,-0.00000
 030,0.00000006,-0.00000289,-0.00000152,-0.00000253,0.00000231,-0.00000
 307,0.00000305,-0.00000002,-0.00000002,-0.00001152,-0.00000174,0.00000
 229,0.00000239,0.00000229,0.00000095,-0.00000047,0.00000101,-0.0000006
 9,0.00000219,-0.00004988,-0.00002354,-0.00013006,-0.00024970,0.0000756
 7,-0.00010735,0.00000036,0.00000083,0.00000033,0.00000085,-0.00000043,
 -0.00000052,-0.00000135,-0.00000101,0.00000075,0.00000027,-0.00000019,
 -0.00000032,-0.00000119,0.00000142,-0.00000091,-0.00000024,-0.00000064
 ,-0.00000072,-0.00000071,0.00000024,-0.00000024,0.00000044,0.00000009,
 0.00000476,0.00000219,0.00000078,0.00001323,0.00000141,0.00000089,0.00
 000415,0.00000041,0.00000013,0.00000189,-0.00000060,0.00000131,0.00000
 977,-0.00000656,-0.00000435,0.00001760,-0.00003031,0.00001105,0.000044
 86,0.00012056,0.00002928,0.00016362,0.00031604,-0.00012089,0.00003570,
 0.00003539,-0.00001988,0.00000404,-0.00039290,0.00043267,0.00026092,0.
 00072531,-0.00080934,-0.00102820,0.00025655,-0.00011600,-0.00017905,0.
 00000134,-0.00000287,0.00000043,-0.00000095,-0.00000046,-0.00000166,-0
 .00000145,0.00000219,-0.00000002,0.16828754,-0.20301381,-0.24250751,0.
 01232743,-0.00477156,-0.00911896,-0.18134765,0.20832810,0.25252472\\0.
 00000012,0.00000186,-0.00000172,-0.00000366,-0.00000427,0.00000120,0.0
 0000250,0.00000334,-0.00000100,0.00000395,-0.00000445,0.00000021,-0.00
 000102,-0.00000069,-0.00000146,0.00000144,0.00000105,-0.00000217,0.000
 00012,-0.00000106,-0.00000069,-0.00000145,0.00000058,-0.00000006,-0.00
 000032,-0.00000014,0.00000142,-0.00000045,-0.00000126,0.00000163,0.000
 00007,-0.00000027,0.00000045,-0.00000298,-0.00000229,0.00000216,-0.000
 00181,0.00000408,0.00000395,-0.00000029,-0.00000003,0.00000196,-0.0000
 0002,-0.00000130,0.00000162,0.00000002,-0.00000114,0.00000117,-0.00000
 011,-0.00000120,0.00000016,-0.00000001,-0.00000165,0.00000004,-0.00000
 010,-0.00000023,0.00000144,0.00000001,0.00000034,-0.00000006,-0.000000
 07,0.00000010,0.00000053,-0.00000003,0.,-0.00000124,0.00000008,-0.0000
 0041,-0.00000206,0.00000026,-0.00000117,-0.00000152,-0.00000059,0.0000
 0056,0.00000059,-0.00000040,0.00000301,-0.00000074,0.00000242,0.000002
 62,0.00000093,-0.00000012,0.00000265,-0.00000400,0.00000829,-0.0000047
 8,-0.00000141,-0.00000138,-0.00000222,-0.00000080,-0.00000212,0.000000
 31,0.00000217,-0.00000044,0.00000274,0.00000138,-0.00000170,0.00000080
 ,-0.00000298,0.00000013,0.00000092,-0.00000007,0.00000002,0.00000096,0
 .00000050,-0.00000033,0.00000115,0.00000117,0.00000232,-0.00000265,-0.
 00000510,-0.00000209,0.00000258,0.00000390,-0.00000025,0.00000151,-0.0
 0000152\\\@


 IT IS IMPOSSIBLE TO MEDITATE ON TIME AND THE MYSTERY 
 OF NATURE WITHOUT AN OVERWHELMING EMOTION AT THE
 LIMITATIONS OF HUMAN INTELLIGENCE.

                                         -- ALFRED NORTH WHITEHEAD
 Job cpu time:       0 days 22 hours 14 minutes 22.6 seconds.
 Elapsed time:       0 days  0 hours 47 minutes 42.2 seconds.
 File lengths (MBytes):  RWF=   1240 Int=      0 D2E=      0 Chk=     32 Scr=      8
 Normal termination of Gaussian 16 at Mon Jan 30 18:45:06 2023.
