 Entering Gaussian System, Link 0=g16
 Input=NicPySs4hYbbb.gjf
 Output=NicPySs4hYbbb.log
 Initial command:
 /sw/contrib/gaussian/g16/A03/g16/l1.exe "/gscratch/scrubbed/gds001/Gau-14973.inp" -scrdir="/gscratch/scrubbed/gds001/"
 Entering Link 1 = /sw/contrib/gaussian/g16/A03/g16/l1.exe PID=     14974.
  
 Copyright (c) 1988,1990,1992,1993,1995,1998,2003,2009,2016,
            Gaussian, Inc.  All Rights Reserved.
  
 This is part of the Gaussian(R) 16 program.  It is based on
 the Gaussian(R) 09 system (copyright 2009, Gaussian, Inc.),
 the Gaussian(R) 03 system (copyright 2003, Gaussian, Inc.),
 the Gaussian(R) 98 system (copyright 1998, Gaussian, Inc.),
 the Gaussian(R) 94 system (copyright 1995, Gaussian, Inc.),
 the Gaussian 92(TM) system (copyright 1992, Gaussian, Inc.),
 the Gaussian 90(TM) system (copyright 1990, Gaussian, Inc.),
 the Gaussian 88(TM) system (copyright 1988, Gaussian, Inc.),
 the Gaussian 86(TM) system (copyright 1986, Carnegie Mellon
 University), and the Gaussian 82(TM) system (copyright 1983,
 Carnegie Mellon University). Gaussian is a federally registered
 trademark of Gaussian, Inc.
  
 This software contains proprietary and confidential information,
 including trade secrets, belonging to Gaussian, Inc.
  
 This software is provided under written license and may be
 used, copied, transmitted, or stored only in accord with that
 written license.
  
 The following legend is applicable only to US Government
 contracts under FAR:
  
                    RESTRICTED RIGHTS LEGEND
  
 Use, reproduction and disclosure by the US Government is
 subject to restrictions as set forth in subparagraphs (a)
 and (c) of the Commercial Computer Software - Restricted
 Rights clause in FAR 52.227-19.
  
 Gaussian, Inc.
 340 Quinnipiac St., Bldg. 40, Wallingford CT 06492
  
  
 ---------------------------------------------------------------
 Warning -- This program may not be used in any manner that
 competes with the business of Gaussian, Inc. or will provide
 assistance to any competitor of Gaussian, Inc.  The licensee
 of this program is prohibited from giving any competitor of
 Gaussian, Inc. access to this program.  By using this program,
 the user acknowledges that Gaussian, Inc. is engaged in the
 business of creating and licensing software in the field of
 computational chemistry and represents and warrants to the
 licensee that it is not a competitor of Gaussian, Inc. and that
 it will not use this program in any manner prohibited above.
 ---------------------------------------------------------------
  

 Cite this work as:
 Gaussian 16, Revision A.03,
 M. J. Frisch, G. W. Trucks, H. B. Schlegel, G. E. Scuseria, 
 M. A. Robb, J. R. Cheeseman, G. Scalmani, V. Barone, 
 G. A. Petersson, H. Nakatsuji, X. Li, M. Caricato, A. V. Marenich, 
 J. Bloino, B. G. Janesko, R. Gomperts, B. Mennucci, H. P. Hratchian, 
 J. V. Ortiz, A. F. Izmaylov, J. L. Sonnenberg, D. Williams-Young, 
 F. Ding, F. Lipparini, F. Egidi, J. Goings, B. Peng, A. Petrone, 
 T. Henderson, D. Ranasinghe, V. G. Zakrzewski, J. Gao, N. Rega, 
 G. Zheng, W. Liang, M. Hada, M. Ehara, K. Toyota, R. Fukuda, 
 J. Hasegawa, M. Ishida, T. Nakajima, Y. Honda, O. Kitao, H. Nakai, 
 T. Vreven, K. Throssell, J. A. Montgomery, Jr., J. E. Peralta, 
 F. Ogliaro, M. J. Bearpark, J. J. Heyd, E. N. Brothers, K. N. Kudin, 
 V. N. Staroverov, T. A. Keith, R. Kobayashi, J. Normand, 
 K. Raghavachari, A. P. Rendell, J. C. Burant, S. S. Iyengar, 
 J. Tomasi, M. Cossi, J. M. Millam, M. Klene, C. Adamo, R. Cammi, 
 J. W. Ochterski, R. L. Martin, K. Morokuma, O. Farkas, 
 J. B. Foresman, and D. J. Fox, Gaussian, Inc., Wallingford CT, 2016.
 
 ******************************************
 Gaussian 16:  ES64L-G16RevA.03 25-Dec-2016
                27-Jan-2023 
 ******************************************
 %nprocshared=28
 Will use up to   28 processors via shared memory.
 %mem=41GB
 -----------------------------
 # wB97XD/aug-cc-pVDZ opt freq
 -----------------------------
 1/18=20,19=15,26=3,38=1/1,3;
 2/9=110,12=2,17=6,18=5,40=1/2;
 3/5=16,7=10,11=2,25=1,30=1,71=1,74=-58/1,2,3;
 4//1;
 5/5=2,38=5/2;
 6/7=2,8=2,9=2,10=2,28=1/1;
 7//1,2,3,16;
 1/18=20,19=15,26=3/3(2);
 2/9=110/2;
 99//99;
 2/9=110/2;
 3/5=16,7=10,11=2,25=1,30=1,71=1,74=-58/1,2,3;
 4/5=5,16=3,69=1/1;
 5/5=2,38=5/2;
 7//1,2,3,16;
 1/18=20,19=15,26=3/3(-5);
 2/9=110/2;
 6/7=2,8=2,9=2,10=2,19=2,28=1/1;
 99/9=1/99;
 ----
 blah
 ----
 Symbolic Z-matrix:
 Charge =  1 Multiplicity = 1
 C                    -3.33641   0.33033  -1.41017 
 C                    -2.41824  -0.43921  -0.42543 
 N                    -3.26115  -0.69103   0.73252 
 C                    -4.58096  -1.00091   0.18829 
 C                    -4.77145   0.04303  -0.91104 
 C                    -1.18059   0.33999  -0.04937 
 C                     0.04609   0.07223  -0.63381 
 N                     1.13133   0.80165  -0.32289 
 C                     1.09541   1.80613   0.56306 
 C                    -0.09687   2.12048   1.19345 
 C                    -1.23648   1.38357   0.88348 
 C                    -2.74455  -1.70798   1.62945 
 H                    -2.09594  -1.39197  -0.89687 
 H                    -3.11659   1.4044   -1.39006 
 H                    -3.16835  -0.01579  -2.4362 
 H                    -5.22024   0.95262  -0.49649 
 H                    -5.4259   -0.31828  -1.71095 
 H                    -4.60153  -2.02503  -0.2371 
 H                    -5.33922  -0.94919   0.97842 
 H                    -2.18984   1.59291   1.3686 
 H                     2.03233   2.32746   0.7433 
 H                     2.04645   0.56717  -0.79189 
 H                     0.1986   -0.72558  -1.35806 
 H                    -1.77324  -1.39995   2.03902 
 H                    -2.61684  -2.6864    1.12439 
 H                    -3.43558  -1.84042   2.46985 
 H                    -0.12615   2.93196   1.91685 
 O                     3.41682   0.16315  -1.49794 
 H                     4.11307  -0.40043  -1.08054 
 H                     3.78128   0.51228  -2.31345 
 O                     5.20928  -1.36483  -0.29436 
 H                     5.35325  -2.28195  -0.53714 
 H                     6.05636  -1.0398    0.06578 
 O                     7.56872  -0.40706   0.74418 
 H                     8.37126  -0.23567   0.24437 
 H                     7.85131  -0.56884   1.64821 
 O                     8.29761  -1.19945   3.26075 
 H                     8.0433   -2.1069    3.50355 
 H                     8.25833  -0.73462   4.11478 
 
 Add virtual bond connecting atoms O28        and H22        Dist= 3.01D+00.
 Add virtual bond connecting atoms O31        and H29        Dist= 3.13D+00.
 Add virtual bond connecting atoms O34        and H33        Dist= 3.35D+00.
 Add virtual bond connecting atoms O37        and H36        Dist= 3.38D+00.

 GradGradGradGradGradGradGradGradGradGradGradGradGradGradGradGradGradGrad
 Berny optimization.
 Initialization pass.
                           ----------------------------
                           !    Initial Parameters    !
                           ! (Angstroms and Degrees)  !
 --------------------------                            --------------------------
 ! Name  Definition              Value          Derivative Info.                !
 --------------------------------------------------------------------------------
 ! R1    R(1,2)                  1.5508         estimate D2E/DX2                !
 ! R2    R(1,5)                  1.5463         estimate D2E/DX2                !
 ! R3    R(1,14)                 1.0965         estimate D2E/DX2                !
 ! R4    R(1,15)                 1.0958         estimate D2E/DX2                !
 ! R5    R(2,3)                  1.4542         estimate D2E/DX2                !
 ! R6    R(2,6)                  1.5101         estimate D2E/DX2                !
 ! R7    R(2,13)                 1.1108         estimate D2E/DX2                !
 ! R8    R(3,4)                  1.4609         estimate D2E/DX2                !
 ! R9    R(3,12)                 1.451          estimate D2E/DX2                !
 ! R10   R(4,5)                  1.5279         estimate D2E/DX2                !
 ! R11   R(4,18)                 1.1091         estimate D2E/DX2                !
 ! R12   R(4,19)                 1.0963         estimate D2E/DX2                !
 ! R13   R(5,16)                 1.0957         estimate D2E/DX2                !
 ! R14   R(5,17)                 1.0949         estimate D2E/DX2                !
 ! R15   R(6,7)                  1.3849         estimate D2E/DX2                !
 ! R16   R(6,11)                 1.4009         estimate D2E/DX2                !
 ! R17   R(7,8)                  1.3441         estimate D2E/DX2                !
 ! R18   R(7,23)                 1.0883         estimate D2E/DX2                !
 ! R19   R(8,9)                  1.3398         estimate D2E/DX2                !
 ! R20   R(8,22)                 1.0547         estimate D2E/DX2                !
 ! R21   R(9,10)                 1.3848         estimate D2E/DX2                !
 ! R22   R(9,21)                 1.0872         estimate D2E/DX2                !
 ! R23   R(10,11)                1.3921         estimate D2E/DX2                !
 ! R24   R(10,27)                1.0875         estimate D2E/DX2                !
 ! R25   R(11,20)                1.09           estimate D2E/DX2                !
 ! R26   R(12,24)                1.0982         estimate D2E/DX2                !
 ! R27   R(12,25)                1.1085         estimate D2E/DX2                !
 ! R28   R(12,26)                1.096          estimate D2E/DX2                !
 ! R29   R(22,28)                1.5936         estimate D2E/DX2                !
 ! R30   R(28,29)                0.9882         estimate D2E/DX2                !
 ! R31   R(28,30)                0.9591         estimate D2E/DX2                !
 ! R32   R(29,31)                1.6583         estimate D2E/DX2                !
 ! R33   R(31,32)                0.9596         estimate D2E/DX2                !
 ! R34   R(31,33)                0.9762         estimate D2E/DX2                !
 ! R35   R(33,34)                1.7742         estimate D2E/DX2                !
 ! R36   R(34,35)                0.9609         estimate D2E/DX2                !
 ! R37   R(34,36)                0.9609         estimate D2E/DX2                !
 ! R38   R(36,37)                1.7881         estimate D2E/DX2                !
 ! R39   R(37,38)                0.9732         estimate D2E/DX2                !
 ! R40   R(37,39)                0.9731         estimate D2E/DX2                !
 ! A1    A(2,1,5)              104.6135         estimate D2E/DX2                !
 ! A2    A(2,1,14)             110.8381         estimate D2E/DX2                !
 ! A3    A(2,1,15)             110.3051         estimate D2E/DX2                !
 ! A4    A(5,1,14)             111.2307         estimate D2E/DX2                !
 ! A5    A(5,1,15)             112.6986         estimate D2E/DX2                !
 ! A6    A(14,1,15)            107.2072         estimate D2E/DX2                !
 ! A7    A(1,2,3)              104.3813         estimate D2E/DX2                !
 ! A8    A(1,2,6)              112.7884         estimate D2E/DX2                !
 ! A9    A(1,2,13)             109.1419         estimate D2E/DX2                !
 ! A10   A(3,2,6)              111.4763         estimate D2E/DX2                !
 ! A11   A(3,2,13)             110.953          estimate D2E/DX2                !
 ! A12   A(6,2,13)             108.088          estimate D2E/DX2                !
 ! A13   A(2,3,4)              105.2929         estimate D2E/DX2                !
 ! A14   A(2,3,12)             114.0285         estimate D2E/DX2                !
 ! A15   A(4,3,12)             113.7823         estimate D2E/DX2                !
 ! A16   A(3,4,5)              103.6355         estimate D2E/DX2                !
 ! A17   A(3,4,18)             110.8238         estimate D2E/DX2                !
 ! A18   A(3,4,19)             110.2641         estimate D2E/DX2                !
 ! A19   A(5,4,18)             110.6466         estimate D2E/DX2                !
 ! A20   A(5,4,19)             113.5833         estimate D2E/DX2                !
 ! A21   A(18,4,19)            107.8873         estimate D2E/DX2                !
 ! A22   A(1,5,4)              104.0924         estimate D2E/DX2                !
 ! A23   A(1,5,16)             110.3652         estimate D2E/DX2                !
 ! A24   A(1,5,17)             112.3477         estimate D2E/DX2                !
 ! A25   A(4,5,16)             110.244          estimate D2E/DX2                !
 ! A26   A(4,5,17)             112.0061         estimate D2E/DX2                !
 ! A27   A(16,5,17)            107.7907         estimate D2E/DX2                !
 ! A28   A(2,6,7)              121.405          estimate D2E/DX2                !
 ! A29   A(2,6,11)             121.1669         estimate D2E/DX2                !
 ! A30   A(7,6,11)             117.4123         estimate D2E/DX2                !
 ! A31   A(6,7,8)              120.8392         estimate D2E/DX2                !
 ! A32   A(6,7,23)             123.142          estimate D2E/DX2                !
 ! A33   A(8,7,23)             116.0186         estimate D2E/DX2                !
 ! A34   A(7,8,9)              122.5598         estimate D2E/DX2                !
 ! A35   A(7,8,22)             118.4934         estimate D2E/DX2                !
 ! A36   A(9,8,22)             118.9456         estimate D2E/DX2                !
 ! A37   A(8,9,10)             119.6214         estimate D2E/DX2                !
 ! A38   A(8,9,21)             116.4865         estimate D2E/DX2                !
 ! A39   A(10,9,21)            123.8916         estimate D2E/DX2                !
 ! A40   A(9,10,11)            118.9011         estimate D2E/DX2                !
 ! A41   A(9,10,27)            119.694          estimate D2E/DX2                !
 ! A42   A(11,10,27)           121.4049         estimate D2E/DX2                !
 ! A43   A(6,11,10)            120.6621         estimate D2E/DX2                !
 ! A44   A(6,11,20)            118.3171         estimate D2E/DX2                !
 ! A45   A(10,11,20)           121.0153         estimate D2E/DX2                !
 ! A46   A(3,12,24)            110.4161         estimate D2E/DX2                !
 ! A47   A(3,12,25)            112.2096         estimate D2E/DX2                !
 ! A48   A(3,12,26)            109.5225         estimate D2E/DX2                !
 ! A49   A(24,12,25)           108.3968         estimate D2E/DX2                !
 ! A50   A(24,12,26)           107.7914         estimate D2E/DX2                !
 ! A51   A(25,12,26)           108.3811         estimate D2E/DX2                !
 ! A52   A(22,28,29)           124.284          estimate D2E/DX2                !
 ! A53   A(22,28,30)           127.6784         estimate D2E/DX2                !
 ! A54   A(29,28,30)           107.3981         estimate D2E/DX2                !
 ! A55   A(29,31,32)           122.3493         estimate D2E/DX2                !
 ! A56   A(29,31,33)           123.7049         estimate D2E/DX2                !
 ! A57   A(32,31,33)           106.3425         estimate D2E/DX2                !
 ! A58   A(33,34,35)           125.2172         estimate D2E/DX2                !
 ! A59   A(33,34,36)           123.3938         estimate D2E/DX2                !
 ! A60   A(35,34,36)           105.8891         estimate D2E/DX2                !
 ! A61   A(36,37,38)           119.2512         estimate D2E/DX2                !
 ! A62   A(36,37,39)           127.8018         estimate D2E/DX2                !
 ! A63   A(38,37,39)           102.468          estimate D2E/DX2                !
 ! A64   L(8,22,28,39,-1)      179.9962         estimate D2E/DX2                !
 ! A65   L(28,29,31,24,-1)     176.1728         estimate D2E/DX2                !
 ! A66   L(31,33,34,21,-1)     178.2312         estimate D2E/DX2                !
 ! A67   L(34,36,37,3,-1)      176.9752         estimate D2E/DX2                !
 ! A68   L(8,22,28,39,-2)      177.9507         estimate D2E/DX2                !
 ! A69   L(28,29,31,24,-2)     180.9213         estimate D2E/DX2                !
 ! A70   L(31,33,34,21,-2)     179.6968         estimate D2E/DX2                !
 ! A71   L(34,36,37,3,-2)      168.6135         estimate D2E/DX2                !
 ! D1    D(5,1,2,3)            -18.3247         estimate D2E/DX2                !
 ! D2    D(5,1,2,6)           -139.5017         estimate D2E/DX2                !
 ! D3    D(5,1,2,13)           100.3461         estimate D2E/DX2                !
 ! D4    D(14,1,2,3)           101.6531         estimate D2E/DX2                !
 ! D5    D(14,1,2,6)           -19.524          estimate D2E/DX2                !
 ! D6    D(14,1,2,13)         -139.6762         estimate D2E/DX2                !
 ! D7    D(15,1,2,3)          -139.7697         estimate D2E/DX2                !
 ! D8    D(15,1,2,6)            99.0532         estimate D2E/DX2                !
 ! D9    D(15,1,2,13)          -21.099          estimate D2E/DX2                !
 ! D10   D(2,1,5,4)             -7.1897         estimate D2E/DX2                !
 ! D11   D(2,1,5,16)           111.087          estimate D2E/DX2                !
 ! D12   D(2,1,5,17)          -128.5829         estimate D2E/DX2                !
 ! D13   D(14,1,5,4)          -126.9044         estimate D2E/DX2                !
 ! D14   D(14,1,5,16)           -8.6276         estimate D2E/DX2                !
 ! D15   D(14,1,5,17)          111.7025         estimate D2E/DX2                !
 ! D16   D(15,1,5,4)           112.664          estimate D2E/DX2                !
 ! D17   D(15,1,5,16)         -129.0593         estimate D2E/DX2                !
 ! D18   D(15,1,5,17)           -8.7292         estimate D2E/DX2                !
 ! D19   D(1,2,3,4)             38.4536         estimate D2E/DX2                !
 ! D20   D(1,2,3,12)           163.8786         estimate D2E/DX2                !
 ! D21   D(6,2,3,4)            160.4977         estimate D2E/DX2                !
 ! D22   D(6,2,3,12)           -74.0773         estimate D2E/DX2                !
 ! D23   D(13,2,3,4)           -78.9768         estimate D2E/DX2                !
 ! D24   D(13,2,3,12)           46.4482         estimate D2E/DX2                !
 ! D25   D(1,2,6,7)           -101.0306         estimate D2E/DX2                !
 ! D26   D(1,2,6,11)            77.4885         estimate D2E/DX2                !
 ! D27   D(3,2,6,7)            141.9178         estimate D2E/DX2                !
 ! D28   D(3,2,6,11)           -39.5632         estimate D2E/DX2                !
 ! D29   D(13,2,6,7)            19.7254         estimate D2E/DX2                !
 ! D30   D(13,2,6,11)         -161.7555         estimate D2E/DX2                !
 ! D31   D(2,3,4,5)            -43.3972         estimate D2E/DX2                !
 ! D32   D(2,3,4,18)            75.3175         estimate D2E/DX2                !
 ! D33   D(2,3,4,19)          -165.2951         estimate D2E/DX2                !
 ! D34   D(12,3,4,5)          -168.9752         estimate D2E/DX2                !
 ! D35   D(12,3,4,18)          -50.2605         estimate D2E/DX2                !
 ! D36   D(12,3,4,19)           69.1269         estimate D2E/DX2                !
 ! D37   D(2,3,12,24)           61.6623         estimate D2E/DX2                !
 ! D38   D(2,3,12,25)          -59.3824         estimate D2E/DX2                !
 ! D39   D(2,3,12,26)         -179.7898         estimate D2E/DX2                !
 ! D40   D(4,3,12,24)         -177.5376         estimate D2E/DX2                !
 ! D41   D(4,3,12,25)           61.4176         estimate D2E/DX2                !
 ! D42   D(4,3,12,26)          -58.9898         estimate D2E/DX2                !
 ! D43   D(3,4,5,1)             30.1555         estimate D2E/DX2                !
 ! D44   D(3,4,5,16)           -88.2045         estimate D2E/DX2                !
 ! D45   D(3,4,5,17)           151.7759         estimate D2E/DX2                !
 ! D46   D(18,4,5,1)           -88.6814         estimate D2E/DX2                !
 ! D47   D(18,4,5,16)          152.9587         estimate D2E/DX2                !
 ! D48   D(18,4,5,17)           32.939          estimate D2E/DX2                !
 ! D49   D(19,4,5,1)           149.8099         estimate D2E/DX2                !
 ! D50   D(19,4,5,16)           31.45           estimate D2E/DX2                !
 ! D51   D(19,4,5,17)          -88.5697         estimate D2E/DX2                !
 ! D52   D(2,6,7,8)            177.8039         estimate D2E/DX2                !
 ! D53   D(2,6,7,23)            -2.3582         estimate D2E/DX2                !
 ! D54   D(11,6,7,8)            -0.7687         estimate D2E/DX2                !
 ! D55   D(11,6,7,23)          179.0693         estimate D2E/DX2                !
 ! D56   D(2,6,11,10)         -178.115          estimate D2E/DX2                !
 ! D57   D(2,6,11,20)            2.7317         estimate D2E/DX2                !
 ! D58   D(7,6,11,10)            0.4612         estimate D2E/DX2                !
 ! D59   D(7,6,11,20)         -178.6922         estimate D2E/DX2                !
 ! D60   D(6,7,8,9)              0.56           estimate D2E/DX2                !
 ! D61   D(6,7,8,22)          -179.8512         estimate D2E/DX2                !
 ! D62   D(23,7,8,9)          -179.289          estimate D2E/DX2                !
 ! D63   D(23,7,8,22)            0.2998         estimate D2E/DX2                !
 ! D64   D(7,8,9,10)            -0.0054         estimate D2E/DX2                !
 ! D65   D(7,8,9,21)           179.729          estimate D2E/DX2                !
 ! D66   D(22,8,9,10)         -179.5924         estimate D2E/DX2                !
 ! D67   D(22,8,9,21)            0.142          estimate D2E/DX2                !
 ! D68   D(7,8,28,29)          -97.6936         estimate D2E/DX2                !
 ! D69   D(7,8,28,30)           91.7702         estimate D2E/DX2                !
 ! D70   D(9,8,28,29)           81.1734         estimate D2E/DX2                !
 ! D71   D(9,8,28,30)          -89.3628         estimate D2E/DX2                !
 ! D72   D(8,9,10,11)           -0.2989         estimate D2E/DX2                !
 ! D73   D(8,9,10,27)          179.6609         estimate D2E/DX2                !
 ! D74   D(21,9,10,11)         179.9875         estimate D2E/DX2                !
 ! D75   D(21,9,10,27)          -0.0527         estimate D2E/DX2                !
 ! D76   D(9,10,11,6)            0.0599         estimate D2E/DX2                !
 ! D77   D(9,10,11,20)         179.1902         estimate D2E/DX2                !
 ! D78   D(27,10,11,6)        -179.8992         estimate D2E/DX2                !
 ! D79   D(27,10,11,20)         -0.7689         estimate D2E/DX2                !
 ! D80   D(22,28,31,32)        106.1619         estimate D2E/DX2                !
 ! D81   D(22,28,31,33)       -106.6434         estimate D2E/DX2                !
 ! D82   D(30,28,31,32)        -82.224          estimate D2E/DX2                !
 ! D83   D(30,28,31,33)         64.9707         estimate D2E/DX2                !
 ! D84   D(29,31,34,35)        -80.3176         estimate D2E/DX2                !
 ! D85   D(29,31,34,36)        128.8366         estimate D2E/DX2                !
 ! D86   D(32,31,34,35)         70.3402         estimate D2E/DX2                !
 ! D87   D(32,31,34,36)        -80.5056         estimate D2E/DX2                !
 ! D88   D(33,34,37,38)         33.2813         estimate D2E/DX2                !
 ! D89   D(33,34,37,39)       -103.8707         estimate D2E/DX2                !
 ! D90   D(35,34,37,38)       -116.4143         estimate D2E/DX2                !
 ! D91   D(35,34,37,39)        106.4337         estimate D2E/DX2                !
 --------------------------------------------------------------------------------
 Trust Radius=3.00D-01 FncErr=1.00D-07 GrdErr=1.00D-06 EigMax=2.50D+02 EigMin=1.00D-04
 Number of steps in this run=    212 maximum allowed number of steps=    234.
 GradGradGradGradGradGradGradGradGradGradGradGradGradGradGradGradGradGrad

                          Input orientation:                          
 ---------------------------------------------------------------------
 Center     Atomic      Atomic             Coordinates (Angstroms)
 Number     Number       Type             X           Y           Z
 ---------------------------------------------------------------------
      1          6           0       -3.336407    0.330334   -1.410172
      2          6           0       -2.418239   -0.439213   -0.425428
      3          7           0       -3.261152   -0.691030    0.732520
      4          6           0       -4.580962   -1.000907    0.188286
      5          6           0       -4.771451    0.043033   -0.911041
      6          6           0       -1.180588    0.339993   -0.049369
      7          6           0        0.046090    0.072228   -0.633809
      8          7           0        1.131333    0.801652   -0.322888
      9          6           0        1.095409    1.806130    0.563064
     10          6           0       -0.096867    2.120480    1.193451
     11          6           0       -1.236480    1.383572    0.883477
     12          6           0       -2.744551   -1.707977    1.629449
     13          1           0       -2.095945   -1.391969   -0.896870
     14          1           0       -3.116586    1.404403   -1.390058
     15          1           0       -3.168349   -0.015790   -2.436196
     16          1           0       -5.220240    0.952616   -0.496485
     17          1           0       -5.425900   -0.318282   -1.710949
     18          1           0       -4.601531   -2.025027   -0.237104
     19          1           0       -5.339215   -0.949189    0.978422
     20          1           0       -2.189840    1.592911    1.368595
     21          1           0        2.032326    2.327456    0.743295
     22          1           0        2.046449    0.567167   -0.791890
     23          1           0        0.198595   -0.725579   -1.358060
     24          1           0       -1.773236   -1.399948    2.039024
     25          1           0       -2.616835   -2.686404    1.124393
     26          1           0       -3.435576   -1.840422    2.469846
     27          1           0       -0.126147    2.931957    1.916854
     28          8           0        3.416816    0.163150   -1.497936
     29          1           0        4.113073   -0.400427   -1.080539
     30          1           0        3.781278    0.512275   -2.313450
     31          8           0        5.209282   -1.364830   -0.294363
     32          1           0        5.353255   -2.281951   -0.537144
     33          1           0        6.056363   -1.039804    0.065779
     34          8           0        7.568715   -0.407055    0.744184
     35          1           0        8.371264   -0.235665    0.244374
     36          1           0        7.851311   -0.568841    1.648211
     37          8           0        8.297607   -1.199452    3.260748
     38          1           0        8.043303   -2.106899    3.503552
     39          1           0        8.258335   -0.734621    4.114782
 ---------------------------------------------------------------------
                    Distance matrix (angstroms):
                    1          2          3          4          5
     1  C    0.000000
     2  C    1.550792   0.000000
     3  N    2.374864   1.454221   0.000000
     4  C    2.424085   2.317222   1.460860   0.000000
     5  C    1.546294   2.450712   2.349712   1.527945   0.000000
     6  C    2.549399   1.510087   2.450124   3.662927   3.704721
     7  C    3.480035   2.525453   3.658861   4.820484   4.825600
     8  N    4.622232   3.761612   4.757721   6.011725   5.980325
     9  C    5.070762   4.285371   5.024355   6.343588   6.300916
    10  C    4.525273   3.815962   4.257904   5.555225   5.531402
    11  C    3.283265   2.536204   2.902767   4.165884   4.184897
    12  C    3.707331   2.436957   1.451048   2.439120   3.691673
    13  H    2.183702   1.110799   2.122248   2.739672   3.036077
    14  H    1.096517   2.194794   2.986147   3.228170   2.195760
    15  H    1.095797   2.187496   3.241192   3.139082   2.213480
    16  H    2.184236   3.129448   2.837261   2.166527   1.095723
    17  H    2.208427   3.273105   3.285668   2.187919   1.094854
    18  H    2.919649   2.705002   2.125167   1.109144   2.181728
    19  H    3.369540   3.280697   2.108426   1.096329   2.208377
    20  H    3.260408   2.720333   2.601670   3.720012   3.776715
    21  H    6.119576   5.369162   6.093626   7.424393   7.365243
    22  H    5.423422   4.591354   5.663701   6.880565   6.839055
    23  H    3.689703   2.792781   4.042470   5.031019   5.048955
    24  H    4.163452   2.722602   2.103191   3.386413   4.446838
    25  H    4.005310   2.737015   2.133126   2.752270   4.029291
    26  H    4.447084   3.373570   2.090413   2.687417   4.094186
    27  H    5.305027   4.701570   4.935275   6.188759   6.158061
    28  O    6.755862   5.963303   7.092236   8.256078   8.210152
    29  H    7.492491   6.564199   7.599397   8.806630   8.897199
    30  H    7.177078   6.550112   7.766704   8.858638   8.679638
    31  O    8.783360   7.684596   8.559016   9.808887  10.098386
    32  H    9.115725   7.987758   8.851615  10.042708  10.394952
    33  H    9.606240   8.510045   9.347849  10.638102  10.925579
    34  O   11.140318  10.055261  10.833596  12.176877  12.458814
    35  H   11.837544  10.812189  11.651556  12.974934  13.196349
    36  H   11.633024  10.477616  11.150796  12.525154  12.894118
    37  O   12.629648  11.357606  11.842945  13.241487  13.774900
    38  H   12.632600  11.298757  11.724931  13.099094  13.723293
    39  H   12.887874  11.605602  12.005839  13.428918  13.987100
                    6          7          8          9         10
     6  C    0.000000
     7  C    1.384921   0.000000
     8  N    2.373377   1.344055   0.000000
     9  C    2.775751   2.353719   1.339842   0.000000
    10  C    2.426765   2.748573   2.355221   1.384820   0.000000
    11  C    1.400851   2.380497   2.720383   2.391428   1.392061
    12  C    3.075482   4.009881   5.013216   5.313325   4.675191
    13  H    2.134439   2.607947   3.944205   4.748051   4.550061
    14  H    2.584280   3.514132   4.421196   4.660147   4.038067
    15  H    3.126455   3.686321   4.860200   5.522190   5.212676
    16  H    4.110232   5.341177   6.355738   6.460538   5.519850
    17  H    4.606175   5.590653   6.795460   7.225769   6.540772
    18  H    4.163102   5.114317   6.392433   6.911813   6.286789
    19  H    4.473536   5.713501   6.828385   7.012039   6.078760
    20  H    2.144531   3.364741   3.810170   3.389278   2.165535
    21  H    3.860200   3.305692   2.067997   1.087234   2.186079
    22  H    3.319143   2.066734   1.054696   2.067706   3.308801
    23  H    2.179509   1.088252   2.067369   3.302203   3.833739
    24  H    2.782088   3.552645   4.343063   4.548243   3.989815
    25  H    3.549592   4.218115   5.320707   5.854802   5.427812
    26  H    4.023136   5.041121   5.969638   6.120701   5.335251
    27  H    3.419964   3.835831   3.337050   2.142996   1.087504
    28  O    4.823458   3.480916   2.647991   3.512269   4.839491
    29  H    5.443747   4.118655   3.302999   4.083702   5.408290
    30  H    5.456726   4.119037   3.326903   4.142739   5.470346
    31  O    6.617921   5.370187   4.617805   5.264420   6.520444
    32  H    7.057168   5.806677   5.232508   6.004341   7.216660
    33  H    7.368213   6.152188   5.272375   5.740879   7.008657
    34  O    8.816922   7.662797   6.636227   6.843587   8.084023
    35  H    9.573690   8.377024   7.335831   7.563634   8.840894
    36  H    9.234877   8.157209   7.135936   7.242944   8.403142
    37  O   10.156916   9.212615   8.258471   8.257280   9.260824
    38  H   10.182863   9.264004   8.418826   8.498911   9.458841
    39  H   10.372474   9.520561   8.535058   8.389137   9.300278
                   11         12         13         14         15
    11  C    0.000000
    12  C    3.519720   0.000000
    13  H    3.407630   2.627325   0.000000
    14  H    2.950287   4.352326   3.017389   0.000000
    15  H    4.087855   4.424090   2.326681   1.764662   0.000000
    16  H    4.237967   4.210390   3.926653   2.329795   2.985054
    17  H    5.213309   4.503237   3.592232   2.898887   2.390402
    18  H    4.919128   2.651964   2.667211   3.910928   3.305609
    19  H    4.720511   2.780625   3.772476   4.011131   4.152530
    20  H    1.089981   3.357322   3.748421   2.916258   4.245213
    21  H    3.405240   6.315738   5.793694   5.649293   6.530466
    22  H    3.775049   5.830338   4.583521   5.264570   5.498882
    23  H    3.395946   4.307253   2.433451   3.940593   3.605896
    24  H    3.061271   1.098220   2.953587   4.628993   4.887722
    25  H    4.304431   1.108473   2.456093   4.827724   4.484879
    26  H    4.212686   1.096049   3.651095   5.052673   5.241177
    27  H    2.167534   5.335506   5.522090   4.712941   6.073981
    28  O    5.367841   7.158498   5.759358   6.651142   6.654078
    29  H    5.971409   7.488707   6.290373   7.457961   7.416526
    30  H    6.013102   7.941185   6.338343   7.016343   6.970741
    31  O    7.105552   8.190376   7.330081   8.842470   8.751689
    32  H    7.673254   8.402264   7.510796   9.276577   9.019957
    33  H    7.728321   8.963683   8.216498   9.603989   9.612689
    34  O    8.986501  10.432619   9.852348  11.045905  11.205019
    35  H    9.764176  11.298118  10.592542  11.718869  11.848902
    36  H    9.326558  10.656936  10.300625  11.550737  11.765252
    37  O   10.159835  11.173584  11.195927  12.597375  12.857853
    38  H   10.254879  10.956696  11.076064  12.681474  12.859023
    39  H   10.250833  11.322005  11.522147  12.816689  13.190949
                   16         17         18         19         20
    16  H    0.000000
    17  H    1.769859   0.000000
    18  H    3.052284   2.400996   0.000000
    19  H    2.409641   2.763743   1.783005   0.000000
    20  H    3.615498   4.858841   4.635083   4.066088   0.000000
    21  H    7.485115   8.285432   7.994582   8.070397   4.330963
    22  H    7.282898   7.580547   7.157017   7.744764   4.864770
    23  H    5.737806   5.650254   5.097678   6.014689   4.302867
    24  H    4.883155   5.345489   3.683848   3.747568   3.095196
    25  H    4.758932   4.640906   2.496019   3.232735   4.307493
    26  H    4.448056   4.874151   2.953152   2.577302   3.814759
    27  H    5.974260   7.198082   7.017142   6.566584   2.520409
    28  O    8.730687   8.858373   8.406646   9.167209   6.457229
    29  H    9.448946   9.560134   8.904776   9.689490   7.049707
    30  H    9.193617   9.264176   9.001144   9.805901   7.097850
    31  O   10.685801  10.780031   9.833168  10.633134   8.140066
    32  H   11.057254  11.019256   9.962620  10.881273   8.691644
    33  H   11.465062  11.641294  10.707619  11.432424   8.753764
    34  O   12.920733  13.224809  12.316479  12.921433   9.980939
    35  H   13.663450  13.935274  13.104467  13.748643  10.777035
    36  H   13.333417  13.697849  12.678650  13.212996  10.275022
    37  O   14.194379  14.622889  13.390456  13.828758  11.016537
    38  H   14.187406  14.553680  13.186775  13.667786  11.088907
    39  H   14.345122  14.878534  13.637456  13.956223  11.050942
                   21         22         23         24         25
    21  H    0.000000
    22  H    2.335725   0.000000
    23  H    4.135128   2.325146   0.000000
    24  H    5.482222   5.145251   3.985357   0.000000
    25  H    6.848264   6.000340   4.234862   1.789742   0.000000
    26  H    7.088733   6.818211   5.394714   1.772851   1.787810
    27  H    2.530152   4.201155   4.920172   4.636079   6.196572
    28  O    3.409421   1.593624   3.341609   6.472249   7.169485
    29  H    3.885515   2.300107   3.937751   6.736420   7.441712
    30  H    3.961995   2.308201   3.909050   7.311173   7.936382
    31  O    4.980237   3.739473   5.162081   7.362166   8.062725
    32  H    5.823635   4.372337   5.446716   7.628987   8.151480
    33  H    5.290590   4.404244   6.036514   8.082451   8.891362
    34  O    6.174881   5.814125   7.670695   9.483380  10.444397
    35  H    6.855702   6.459231   8.342681  10.367604  11.292426
    36  H    6.562621   6.398518   8.223521   9.668267  10.693014
    37  O    7.617768   7.656487   9.335520  10.146659  11.220520
    38  H    7.963314   7.846254   9.331814   9.950330  10.937768
    39  H    7.714041   8.022319   9.742253  10.265664  11.446449
                   26         27         28         29         30
    26  H    0.000000
    27  H    5.833843   0.000000
    28  O    8.167795   5.646208   0.000000
    29  H    8.465277   6.169290   0.988237   0.000000
    30  H    8.972073   6.246463   0.959054   1.569453   0.000000
    31  O    9.088488   7.198518   2.645042   1.658258   3.104743
    32  H    9.299489   7.951779   3.263654   2.318073   3.665252
    33  H    9.824329   7.577915   3.295377   2.345042   3.639463
    34  O   11.230622   8.469655   4.752947   3.907828   4.953683
    35  H   12.121446   9.221552   5.266997   4.462592   5.307528
    36  H   11.387968   8.715939   5.486237   4.631292   5.781759
    37  O   11.777264   9.478092   6.951538   6.082396   7.375562
    38  H   11.528409   9.728699   7.181391   6.274762   7.672186
    39  H   11.860698   9.411388   7.466519   6.654791   7.932273
                   31         32         33         34         35
    31  O    0.000000
    32  H    0.959574   0.000000
    33  H    0.976161   1.549454   0.000000
    34  O    2.750061   3.172586   1.774208   0.000000
    35  H    3.400497   3.729133   2.457092   0.960869   0.000000
    36  H    3.374538   3.735078   2.438798   0.960885   1.533661
    37  O    4.712103   4.925951   3.905956   2.737201   3.167463
    38  H    4.796509   4.857389   4.111557   3.275487   3.772441
    39  H    5.397633   5.698608   4.619117   3.455981   3.904071
                   36         37         38         39
    36  H    0.000000
    37  O    1.788051   0.000000
    38  H    2.417596   0.973182   0.000000
    39  H    2.505419   0.973131   1.517559   0.000000
 Stoichiometry    C10H23N2O4(1+)
 Framework group  C1[X(C10H23N2O4)]
 Deg. of freedom   111
 Full point group                 C1      NOp   1
 Largest Abelian subgroup         C1      NOp   1
 Largest concise Abelian subgroup C1      NOp   1
                         Standard orientation:                         
 ---------------------------------------------------------------------
 Center     Atomic      Atomic             Coordinates (Angstroms)
 Number     Number       Type             X           Y           Z
 ---------------------------------------------------------------------
      1          6           0        4.165668   -1.135885   -0.390108
      2          6           0        3.101142   -0.023351   -0.574525
      3          7           0        3.785396    1.199371   -0.185288
      4          6           0        5.145993    1.059581   -0.698462
      5          6           0        5.515239   -0.382066   -0.352155
      6          6           0        1.863624   -0.253893    0.259598
      7          6           0        0.705869   -0.773371   -0.295156
      8          7           0       -0.374888   -1.014934    0.466484
      9          6           0       -0.401046   -0.762162    1.782007
     10          6           0        0.719143   -0.231405    2.399421
     11          6           0        1.853360    0.021669    1.633040
     12          6           0        3.118498    2.413150   -0.618331
     13          1           0        2.795491    0.015004   -1.641756
     14          1           0        3.993884   -1.689707    0.540548
     15          1           0        4.107565   -1.857844   -1.212404
     16          1           0        5.951256   -0.431040    0.651887
     17          1           0        6.244681   -0.798710   -1.054314
     18          1           0        5.171522    1.216950   -1.796089
     19          1           0        5.804568    1.804199   -0.236121
     20          1           0        2.749469    0.451144    2.080921
     21          1           0       -1.328320   -0.991165    2.301427
     22          1           0       -1.236164   -1.413076    0.005973
     23          1           0        0.606204   -1.007478   -1.353246
     24          1           0        2.119692    2.483315   -0.167167
     25          1           0        3.008700    2.460563   -1.720333
     26          1           0        3.695987    3.285209   -0.290696
     27          1           0        0.697338   -0.020615    3.466078
     28          8           0       -2.527849   -1.985729   -0.731084
     29          1           0       -3.294314   -1.433230   -1.020721
     30          1           0       -2.774717   -2.904538   -0.852039
     31          8           0       -4.520170   -0.414292   -1.477736
     32          1           0       -4.675066   -0.176129   -2.394288
     33          1           0       -5.389030   -0.379092   -1.034190
     34          8           0       -6.942180   -0.312545   -0.179139
     35          1           0       -7.669727   -0.927846   -0.303029
     36          1           0       -7.339177    0.504735    0.133506
     37          8           0       -8.005503    2.142810    0.397792
     38          1           0       -7.823812    2.841144   -0.255203
     39          1           0       -8.048909    2.641597    1.232244
 ---------------------------------------------------------------------
 Rotational constants (GHZ):           0.8243486           0.1140951           0.1115072
 Standard basis: Aug-CC-pVDZ (5D, 7F)
 There are   607 symmetry adapted cartesian basis functions of A   symmetry.
 There are   575 symmetry adapted basis functions of A   symmetry.
   575 basis functions,   941 primitive gaussians,   607 cartesian basis functions
    64 alpha electrons       64 beta electrons
       nuclear repulsion energy      1090.6532461038 Hartrees.
 NAtoms=   39 NActive=   39 NUniq=   39 SFac= 1.00D+00 NAtFMM=   60 NAOKFM=F Big=F
 Integral buffers will be    131072 words long.
 Raffenetti 2 integral format.
 Two-electron integral symmetry is turned on.
 Nuclear repulsion after empirical dispersion term =     1090.6297341602 Hartrees.
 One-electron integrals computed using PRISM.
 NBasis=   575 RedAO= T EigKep=  2.45D-06  NBF=   575
 NBsUse=   575 1.00D-06 EigRej= -1.00D+00 NBFU=   575
 ExpMin= 2.97D-02 ExpMax= 1.17D+04 ExpMxC= 4.01D+02 IAcc=3 IRadAn=         5 AccDes= 0.00D+00
 Harris functional with IExCor= 4639 and IRadAn=       5 diagonalized for initial guess.
 HarFok:  IExCor= 4639 AccDes= 0.00D+00 IRadAn=         5 IDoV= 1 UseB2=F ITyADJ=14
 ICtDFT=  3500011 ScaDFX=  1.000000  1.000000  1.000000  1.000000
 FoFCou: FMM=F IPFlag=           0 FMFlag=      100000 FMFlg1=           0
         NFxFlg=           0 DoJE=T BraDBF=F KetDBF=T FulRan=T
         wScrn=  0.000000 ICntrl=       500 IOpCl=  0 I1Cent=   200000004 NGrid=           0
         NMat0=    1 NMatS0=      1 NMatT0=    0 NMatD0=    1 NMtDS0=    0 NMtDT0=    0
 Petite list used in FoFCou.
 Requested convergence on RMS density matrix=1.00D-08 within 128 cycles.
 Requested convergence on MAX density matrix=1.00D-06.
 Requested convergence on             energy=1.00D-06.
 No special actions if energy rises.
 SCF Done:  E(RwB97XD) =  -805.020483087     A.U. after   14 cycles
            NFock= 14  Conv=0.71D-08     -V/T= 2.0063

 **********************************************************************

            Population analysis using the SCF density.

 **********************************************************************

 Orbital symmetries:
       Occupied  (A) (A) (A) (A) (A) (A) (A) (A) (A) (A) (A) (A)
                 (A) (A) (A) (A) (A) (A) (A) (A) (A) (A) (A) (A)
                 (A) (A) (A) (A) (A) (A) (A) (A) (A) (A) (A) (A)
                 (A) (A) (A) (A) (A) (A) (A) (A) (A) (A) (A) (A)
                 (A) (A) (A) (A) (A) (A) (A) (A) (A) (A) (A) (A)
                 (A) (A) (A) (A)
       Virtual   (A) (A) (A) (A) (A) (A) (A) (A) (A) (A) (A) (A)
                 (A) (A) (A) (A) (A) (A) (A) (A) (A) (A) (A) (A)
                 (A) (A) (A) (A) (A) (A) (A) (A) (A) (A) (A) (A)
                 (A) (A) (A) (A) (A) (A) (A) (A) (A) (A) (A) (A)
                 (A) (A) (A) (A) (A) (A) (A) (A) (A) (A) (A) (A)
                 (A) (A) (A) (A) (A) (A) (A) (A) (A) (A) (A) (A)
                 (A) (A) (A) (A) (A) (A) (A) (A) (A) (A) (A) (A)
                 (A) (A) (A) (A) (A) (A) (A) (A) (A) (A) (A) (A)
                 (A) (A) (A) (A) (A) (A) (A) (A) (A) (A) (A) (A)
                 (A) (A) (A) (A) (A) (A) (A) (A) (A) (A) (A) (A)
                 (A) (A) (A) (A) (A) (A) (A) (A) (A) (A) (A) (A)
                 (A) (A) (A) (A) (A) (A) (A) (A) (A) (A) (A) (A)
                 (A) (A) (A) (A) (A) (A) (A) (A) (A) (A) (A) (A)
                 (A) (A) (A) (A) (A) (A) (A) (A) (A) (A) (A) (A)
                 (A) (A) (A) (A) (A) (A) (A) (A) (A) (A) (A) (A)
                 (A) (A) (A) (A) (A) (A) (A) (A) (A) (A) (A) (A)
                 (A) (A) (A) (A) (A) (A) (A) (A) (A) (A) (A) (A)
                 (A) (A) (A) (A) (A) (A) (A) (A) (A) (A) (A) (A)
                 (A) (A) (A) (A) (A) (A) (A) (A) (A) (A) (A) (A)
                 (A) (A) (A) (A) (A) (A) (A) (A) (A) (A) (A) (A)
                 (A) (A) (A) (A) (A) (A) (A) (A) (A) (A) (A) (A)
                 (A) (A) (A) (A) (A) (A) (A) (A) (A) (A) (A) (A)
                 (A) (A) (A) (A) (A) (A) (A) (A) (A) (A) (A) (A)
                 (A) (A) (A) (A) (A) (A) (A) (A) (A) (A) (A) (A)
                 (A) (A) (A) (A) (A) (A) (A) (A) (A) (A) (A) (A)
                 (A) (A) (A) (A) (A) (A) (A) (A) (A) (A) (A) (A)
                 (A) (A) (A) (A) (A) (A) (A) (A) (A) (A) (A) (A)
                 (A) (A) (A) (A) (A) (A) (A) (A) (A) (A) (A) (A)
                 (A) (A) (A) (A) (A) (A) (A) (A) (A) (A) (A) (A)
                 (A) (A) (A) (A) (A) (A) (A) (A) (A) (A) (A) (A)
                 (A) (A) (A) (A) (A) (A) (A) (A) (A) (A) (A) (A)
                 (A) (A) (A) (A) (A) (A) (A) (A) (A) (A) (A) (A)
                 (A) (A) (A) (A) (A) (A) (A) (A) (A) (A) (A) (A)
                 (A) (A) (A) (A) (A) (A) (A) (A) (A) (A) (A) (A)
                 (A) (A) (A) (A) (A) (A) (A) (A) (A) (A) (A) (A)
                 (A) (A) (A) (A) (A) (A) (A) (A) (A) (A) (A) (A)
                 (A) (A) (A) (A) (A) (A) (A) (A) (A) (A) (A) (A)
                 (A) (A) (A) (A) (A) (A) (A) (A) (A) (A) (A) (A)
                 (A) (A) (A) (A) (A) (A) (A) (A) (A) (A) (A) (A)
                 (A) (A) (A) (A) (A) (A) (A) (A) (A) (A) (A) (A)
                 (A) (A) (A) (A) (A) (A) (A) (A) (A) (A) (A) (A)
                 (A) (A) (A) (A) (A) (A) (A) (A) (A) (A) (A) (A)
                 (A) (A) (A) (A) (A) (A) (A)
 The electronic state is 1-A.
 Alpha  occ. eigenvalues --  -19.38941 -19.38687 -19.37047 -19.35983 -14.66878
 Alpha  occ. eigenvalues --  -14.54648 -10.50391 -10.50029 -10.46565 -10.46164
 Alpha  occ. eigenvalues --  -10.46081 -10.44582 -10.40973 -10.40888 -10.39963
 Alpha  occ. eigenvalues --  -10.38587  -1.25214  -1.23186  -1.22789  -1.21328
 Alpha  occ. eigenvalues --   -1.20081  -1.15146  -1.07139  -1.03890  -0.98489
 Alpha  occ. eigenvalues --   -0.94397  -0.89712  -0.88138  -0.86952  -0.81997
 Alpha  occ. eigenvalues --   -0.77859  -0.76658  -0.74465  -0.74119  -0.72745
 Alpha  occ. eigenvalues --   -0.72446  -0.72396  -0.71698  -0.69979  -0.68133
 Alpha  occ. eigenvalues --   -0.67857  -0.67048  -0.63940  -0.62936  -0.62536
 Alpha  occ. eigenvalues --   -0.61792  -0.61217  -0.59707  -0.59161  -0.57652
 Alpha  occ. eigenvalues --   -0.56477  -0.55570  -0.55274  -0.54622  -0.53726
 Alpha  occ. eigenvalues --   -0.52559  -0.52104  -0.51819  -0.51565  -0.50591
 Alpha  occ. eigenvalues --   -0.50186  -0.49496  -0.48268  -0.40711
 Alpha virt. eigenvalues --   -0.13318  -0.09823  -0.06107  -0.04743  -0.04533
 Alpha virt. eigenvalues --   -0.03908  -0.03363  -0.02920  -0.02361  -0.02267
 Alpha virt. eigenvalues --   -0.01861  -0.01354  -0.01085  -0.00899  -0.00332
 Alpha virt. eigenvalues --   -0.00128   0.00352   0.00444   0.01435   0.01483
 Alpha virt. eigenvalues --    0.01856   0.02217   0.02625   0.02985   0.03416
 Alpha virt. eigenvalues --    0.03815   0.03875   0.04045   0.04221   0.04379
 Alpha virt. eigenvalues --    0.05028   0.05309   0.05606   0.05915   0.06099
 Alpha virt. eigenvalues --    0.06283   0.06777   0.06884   0.07668   0.07774
 Alpha virt. eigenvalues --    0.08027   0.08359   0.08655   0.08951   0.09331
 Alpha virt. eigenvalues --    0.09372   0.09510   0.09823   0.10064   0.10505
 Alpha virt. eigenvalues --    0.10797   0.10975   0.11211   0.11638   0.12016
 Alpha virt. eigenvalues --    0.12413   0.12643   0.12730   0.13053   0.13402
 Alpha virt. eigenvalues --    0.13643   0.13825   0.14165   0.14349   0.14797
 Alpha virt. eigenvalues --    0.14935   0.15269   0.15513   0.15986   0.16266
 Alpha virt. eigenvalues --    0.16470   0.16931   0.17180   0.17400   0.17611
 Alpha virt. eigenvalues --    0.17708   0.18138   0.18304   0.18687   0.18748
 Alpha virt. eigenvalues --    0.19090   0.19745   0.19869   0.20078   0.20367
 Alpha virt. eigenvalues --    0.20665   0.20975   0.21217   0.21473   0.21770
 Alpha virt. eigenvalues --    0.22014   0.22199   0.22500   0.22707   0.23341
 Alpha virt. eigenvalues --    0.23736   0.24192   0.24618   0.25051   0.25105
 Alpha virt. eigenvalues --    0.25239   0.25524   0.25822   0.26379   0.26730
 Alpha virt. eigenvalues --    0.27123   0.27220   0.27622   0.27773   0.28213
 Alpha virt. eigenvalues --    0.28832   0.28949   0.29429   0.29750   0.30290
 Alpha virt. eigenvalues --    0.30783   0.30949   0.31455   0.32042   0.32158
 Alpha virt. eigenvalues --    0.32637   0.32921   0.33518   0.33692   0.33860
 Alpha virt. eigenvalues --    0.34106   0.34546   0.35028   0.35597   0.36139
 Alpha virt. eigenvalues --    0.36396   0.37022   0.37305   0.37710   0.37948
 Alpha virt. eigenvalues --    0.38500   0.38659   0.39022   0.39296   0.39730
 Alpha virt. eigenvalues --    0.39970   0.40968   0.41077   0.41520   0.42133
 Alpha virt. eigenvalues --    0.42939   0.43119   0.43466   0.43561   0.43836
 Alpha virt. eigenvalues --    0.44147   0.44561   0.44713   0.45123   0.45383
 Alpha virt. eigenvalues --    0.46236   0.46559   0.46744   0.46811   0.47220
 Alpha virt. eigenvalues --    0.47392   0.47937   0.48178   0.48782   0.49157
 Alpha virt. eigenvalues --    0.49700   0.50057   0.50338   0.50507   0.50828
 Alpha virt. eigenvalues --    0.50997   0.51542   0.51761   0.52081   0.52354
 Alpha virt. eigenvalues --    0.52762   0.52916   0.53261   0.53385   0.54103
 Alpha virt. eigenvalues --    0.54534   0.54580   0.54738   0.55254   0.55455
 Alpha virt. eigenvalues --    0.55755   0.56380   0.56495   0.57022   0.57767
 Alpha virt. eigenvalues --    0.58156   0.58376   0.58891   0.59619   0.60226
 Alpha virt. eigenvalues --    0.60612   0.60737   0.61895   0.62382   0.62785
 Alpha virt. eigenvalues --    0.63049   0.63451   0.63878   0.64275   0.64506
 Alpha virt. eigenvalues --    0.65167   0.65805   0.65877   0.66589   0.67359
 Alpha virt. eigenvalues --    0.68137   0.68407   0.68681   0.68703   0.69573
 Alpha virt. eigenvalues --    0.69910   0.70649   0.71033   0.71127   0.71753
 Alpha virt. eigenvalues --    0.72081   0.72269   0.73145   0.73489   0.74278
 Alpha virt. eigenvalues --    0.74492   0.74669   0.74963   0.75600   0.76188
 Alpha virt. eigenvalues --    0.77032   0.77404   0.77657   0.77825   0.78316
 Alpha virt. eigenvalues --    0.79362   0.79594   0.80242   0.80552   0.80872
 Alpha virt. eigenvalues --    0.81725   0.81939   0.82920   0.83970   0.84275
 Alpha virt. eigenvalues --    0.84709   0.85198   0.86268   0.86607   0.86823
 Alpha virt. eigenvalues --    0.87706   0.88314   0.88706   0.90250   0.91067
 Alpha virt. eigenvalues --    0.92013   0.92611   0.93411   0.93774   0.94480
 Alpha virt. eigenvalues --    0.95491   0.96506   0.96838   0.97066   0.97914
 Alpha virt. eigenvalues --    0.98402   0.99460   0.99790   1.00363   1.01123
 Alpha virt. eigenvalues --    1.01364   1.02094   1.02731   1.03273   1.04501
 Alpha virt. eigenvalues --    1.05300   1.05982   1.06680   1.06919   1.07303
 Alpha virt. eigenvalues --    1.08521   1.09292   1.09753   1.11762   1.12285
 Alpha virt. eigenvalues --    1.13336   1.14310   1.14690   1.15709   1.16530
 Alpha virt. eigenvalues --    1.17618   1.18100   1.18338   1.18744   1.20492
 Alpha virt. eigenvalues --    1.22486   1.22917   1.24445   1.24763   1.25704
 Alpha virt. eigenvalues --    1.25890   1.27030   1.27869   1.29131   1.29940
 Alpha virt. eigenvalues --    1.30347   1.31022   1.31859   1.33140   1.33627
 Alpha virt. eigenvalues --    1.34506   1.35446   1.35906   1.36373   1.36958
 Alpha virt. eigenvalues --    1.38441   1.39232   1.39731   1.41307   1.42352
 Alpha virt. eigenvalues --    1.43325   1.43782   1.43980   1.45099   1.45621
 Alpha virt. eigenvalues --    1.47538   1.47877   1.48753   1.49773   1.51202
 Alpha virt. eigenvalues --    1.52101   1.52695   1.53685   1.55051   1.55533
 Alpha virt. eigenvalues --    1.57158   1.57909   1.59285   1.60787   1.60913
 Alpha virt. eigenvalues --    1.62556   1.63042   1.64033   1.64928   1.65376
 Alpha virt. eigenvalues --    1.66457   1.66931   1.67715   1.68632   1.69369
 Alpha virt. eigenvalues --    1.71093   1.71750   1.72385   1.72717   1.73450
 Alpha virt. eigenvalues --    1.73832   1.73998   1.74439   1.74976   1.76369
 Alpha virt. eigenvalues --    1.78135   1.79037   1.79386   1.79821   1.80406
 Alpha virt. eigenvalues --    1.80994   1.81999   1.82598   1.83106   1.83442
 Alpha virt. eigenvalues --    1.84262   1.84897   1.86368   1.86654   1.86854
 Alpha virt. eigenvalues --    1.88748   1.88893   1.89448   1.90103   1.91710
 Alpha virt. eigenvalues --    1.92215   1.92822   1.94222   1.94467   1.96162
 Alpha virt. eigenvalues --    1.96525   1.97468   1.97876   2.00056   2.00758
 Alpha virt. eigenvalues --    2.01030   2.01519   2.03241   2.03815   2.05338
 Alpha virt. eigenvalues --    2.06415   2.06791   2.07527   2.08427   2.09148
 Alpha virt. eigenvalues --    2.09793   2.11894   2.12562   2.12642   2.14366
 Alpha virt. eigenvalues --    2.14905   2.15620   2.16192   2.16837   2.17531
 Alpha virt. eigenvalues --    2.18333   2.20313   2.21560   2.21967   2.22660
 Alpha virt. eigenvalues --    2.23344   2.23613   2.25116   2.25877   2.26727
 Alpha virt. eigenvalues --    2.27210   2.28187   2.28560   2.29868   2.31356
 Alpha virt. eigenvalues --    2.32722   2.33678   2.33932   2.36352   2.37832
 Alpha virt. eigenvalues --    2.38951   2.40557   2.41926   2.41981   2.44291
 Alpha virt. eigenvalues --    2.45102   2.45841   2.47859   2.48092   2.49058
 Alpha virt. eigenvalues --    2.50470   2.52001   2.52904   2.55011   2.55712
 Alpha virt. eigenvalues --    2.55865   2.56417   2.57869   2.58044   2.59524
 Alpha virt. eigenvalues --    2.61160   2.61774   2.63926   2.65383   2.66418
 Alpha virt. eigenvalues --    2.67398   2.68481   2.68695   2.69080   2.70481
 Alpha virt. eigenvalues --    2.71753   2.72542   2.73533   2.73929   2.75039
 Alpha virt. eigenvalues --    2.75753   2.78231   2.79124   2.79490   2.82660
 Alpha virt. eigenvalues --    2.83431   2.85013   2.85655   2.87185   2.88577
 Alpha virt. eigenvalues --    2.90947   2.93476   2.96491   3.02249   3.04601
 Alpha virt. eigenvalues --    3.14168   3.14418   3.16210   3.21083   3.27473
 Alpha virt. eigenvalues --    3.30192   3.32543   3.33347   3.35234   3.36318
 Alpha virt. eigenvalues --    3.36797   3.39828   3.42084   3.44117   3.44533
 Alpha virt. eigenvalues --    3.46694   3.48850   3.50585   3.52487   3.62010
 Alpha virt. eigenvalues --    3.64613   3.70903   3.76751   3.81075   3.82574
 Alpha virt. eigenvalues --    3.89013   4.03701   4.06117   4.06635   4.26613
 Alpha virt. eigenvalues --    4.89874
          Condensed to atoms (all electrons):
               1          2          3          4          5          6
     1  C    7.033799  -0.770798  -0.426339   0.309064  -0.646550   0.275227
     2  C   -0.770798  19.416495  -2.140009  -0.173561  -0.911339  -5.286666
     3  N   -0.426339  -2.140009   8.834097   0.120774   0.144181   0.732325
     4  C    0.309064  -0.173561   0.120774   5.658664   0.110301  -0.260512
     5  C   -0.646550  -0.911339   0.144181   0.110301   6.094358   0.586360
     6  C    0.275227  -5.286666   0.732325  -0.260512   0.586360  22.871868
     7  C   -0.642961  -1.719547   0.012607  -0.215784   0.133322  -7.040657
     8  N    0.030291   0.466429  -0.056692   0.019230  -0.014138   0.337702
     9  C   -0.120642  -0.949110   0.058875  -0.056805  -0.010176  -0.329357
    10  C    0.259165   0.263588  -0.161395   0.069470   0.068877   1.249437
    11  C   -0.179491  -0.840230   0.389828  -0.094130  -0.362369  -8.283890
    12  C   -0.067294  -0.374132   0.430132  -0.207148   0.007242   0.204328
    13  H    0.399788  -2.216603  -0.131690  -0.115522   0.056503   0.492666
    14  H   -0.325197   0.017448   0.037681   0.070188   0.271367  -0.488777
    15  H   -0.706145   0.205548   0.145183  -0.148456   0.243399   0.201825
    16  H    0.110453  -0.043806   0.087567  -0.028188  -0.210630   0.053917
    17  H    0.323747  -0.004650  -0.031579   0.126066  -0.323722  -0.045449
    18  H   -0.126999  -0.275157   0.453934  -0.279284   0.070215   0.178895
    19  H    0.126534   0.542741  -0.692612  -0.102943  -0.042007  -0.220675
    20  H    0.058485   0.106697  -0.220427   0.029494   0.010762   0.147705
    21  H    0.005023   0.009660   0.003986  -0.001159  -0.000324   0.218506
    22  H   -0.023744  -0.018491   0.001132  -0.004549   0.004689  -0.666338
    23  H    0.141953   0.073740   0.056762   0.012987   0.002358   0.098823
    24  H    0.126957   0.161068  -0.166107  -0.074121  -0.068429   0.060823
    25  H   -0.023070  -0.285762   0.218189   0.015690   0.058071   0.012166
    26  H   -0.059558  -0.053159  -0.259134   0.024631   0.050323   0.113611
    27  H   -0.009766   0.015736  -0.004535   0.001153   0.004990  -0.387866
    28  O   -0.001671  -0.001673   0.000439   0.000172  -0.000193  -0.100833
    29  H    0.000633   0.002364   0.000383   0.000238  -0.000154  -0.002705
    30  H    0.000198   0.003098  -0.000142   0.000051  -0.000060   0.008285
    31  O    0.000021  -0.000070  -0.000003  -0.000002  -0.000001   0.003485
    32  H   -0.000001   0.000072  -0.000015  -0.000005   0.000003   0.000726
    33  H   -0.000029  -0.000141  -0.000008  -0.000005   0.000004   0.000335
    34  O    0.000000   0.000002   0.000000   0.000000  -0.000000   0.000055
    35  H    0.000000  -0.000009  -0.000000  -0.000000   0.000000  -0.000007
    36  H    0.000000   0.000035   0.000001   0.000001  -0.000000  -0.000019
    37  O    0.000000   0.000001   0.000000   0.000000  -0.000000   0.000007
    38  H    0.000000  -0.000001   0.000000   0.000000   0.000000  -0.000009
    39  H   -0.000000  -0.000000  -0.000000  -0.000000   0.000000   0.000008
               7          8          9         10         11         12
     1  C   -0.642961   0.030291  -0.120642   0.259165  -0.179491  -0.067294
     2  C   -1.719547   0.466429  -0.949110   0.263588  -0.840230  -0.374132
     3  N    0.012607  -0.056692   0.058875  -0.161395   0.389828   0.430132
     4  C   -0.215784   0.019230  -0.056805   0.069470  -0.094130  -0.207148
     5  C    0.133322  -0.014138  -0.010176   0.068877  -0.362369   0.007242
     6  C   -7.040657   0.337702  -0.329357   1.249437  -8.283890   0.204328
     7  C   18.659772  -0.972132  -0.688966  -1.403547  -1.008168  -0.031808
     8  N   -0.972132   7.421705  -0.013829   0.402823  -0.447942  -0.016435
     9  C   -0.688966  -0.013829  10.300786  -3.035057   1.030293   0.009524
    10  C   -1.403547   0.402823  -3.035057  13.578589  -5.409801  -0.001276
    11  C   -1.008168  -0.447942   1.030293  -5.409801  21.470562  -0.050350
    12  C   -0.031808  -0.016435   0.009524  -0.001276  -0.050350   4.475682
    13  H    0.394935  -0.011512   0.038033  -0.068289  -0.042723   0.051899
    14  H    0.129223   0.020097  -0.023551  -0.005443   0.088094   0.018157
    15  H   -0.033356  -0.012320   0.003936   0.029694  -0.046029   0.015187
    16  H    0.013777  -0.002125   0.002343   0.011387   0.012493  -0.015370
    17  H    0.004623  -0.000518   0.000688  -0.005098  -0.000284   0.014398
    18  H    0.014886  -0.000106  -0.000152   0.003503   0.024486  -0.016071
    19  H   -0.013417   0.001961  -0.003076   0.001715  -0.007050  -0.012887
    20  H    0.174317  -0.029502  -0.214446   1.073964  -2.345988  -0.028446
    21  H    0.022466   0.015009  -0.879026   0.316398   0.045376   0.003090
    22  H    0.585746   0.031290  -0.390465  -0.157953   0.054539  -0.002167
    23  H   -1.041335   0.090903  -0.005716   0.022161   0.030648   0.007320
    24  H   -0.214080   0.024522  -0.008041   0.057914  -0.042440   0.257778
    25  H    0.076181  -0.009886   0.002102   0.000674   0.021679   0.140776
    26  H    0.028205  -0.003314   0.005206  -0.003814  -0.038974   0.352869
    27  H    0.067921  -0.036573   0.530950  -1.309104   0.843427  -0.008204
    28  O    0.093584  -0.186441   0.007809  -0.046874   0.046959  -0.000487
    29  H    0.000595   0.004584  -0.008520   0.000517   0.007442  -0.000356
    30  H   -0.009956   0.004988  -0.008632   0.009400  -0.002111   0.000041
    31  O   -0.004314  -0.000432   0.004748   0.001229  -0.000621  -0.000007
    32  H   -0.002382   0.000674   0.000344   0.000863  -0.000455   0.000021
    33  H    0.000881   0.001152  -0.000933  -0.000495  -0.001128   0.000020
    34  O    0.000036   0.000113   0.000463   0.000054   0.000046  -0.000001
    35  H   -0.000031   0.000051   0.000036  -0.000079   0.000004   0.000000
    36  H    0.000078  -0.000185  -0.000091   0.000132   0.000134  -0.000003
    37  O   -0.000005  -0.000011   0.000042   0.000017  -0.000002  -0.000000
    38  H    0.000013  -0.000006   0.000001  -0.000007   0.000005   0.000000
    39  H   -0.000007   0.000010  -0.000002   0.000003  -0.000015   0.000000
              13         14         15         16         17         18
     1  C    0.399788  -0.325197  -0.706145   0.110453   0.323747  -0.126999
     2  C   -2.216603   0.017448   0.205548  -0.043806  -0.004650  -0.275157
     3  N   -0.131690   0.037681   0.145183   0.087567  -0.031579   0.453934
     4  C   -0.115522   0.070188  -0.148456  -0.028188   0.126066  -0.279284
     5  C    0.056503   0.271367   0.243399  -0.210630  -0.323722   0.070215
     6  C    0.492666  -0.488777   0.201825   0.053917  -0.045449   0.178895
     7  C    0.394935   0.129223  -0.033356   0.013777   0.004623   0.014886
     8  N   -0.011512   0.020097  -0.012320  -0.002125  -0.000518  -0.000106
     9  C    0.038033  -0.023551   0.003936   0.002343   0.000688  -0.000152
    10  C   -0.068289  -0.005443   0.029694   0.011387  -0.005098   0.003503
    11  C   -0.042723   0.088094  -0.046029   0.012493  -0.000284   0.024486
    12  C    0.051899   0.018157   0.015187  -0.015370   0.014398  -0.016071
    13  H    3.125631   0.135034  -0.293209  -0.046768   0.041375  -0.075519
    14  H    0.135034   2.208918  -0.487447  -0.344287   0.137106  -0.038873
    15  H   -0.293209  -0.487447   2.332649   0.189391  -0.301765   0.060282
    16  H   -0.046768  -0.344287   0.189391   2.066778  -0.449007   0.168789
    17  H    0.041375   0.137106  -0.301765  -0.449007   1.914050  -0.198974
    18  H   -0.075519  -0.038873   0.060282   0.168789  -0.198974   1.849455
    19  H    0.050227   0.018059  -0.024519  -0.256208   0.071488  -0.436992
    20  H    0.008676  -0.018264  -0.000146   0.008856   0.004647   0.001940
    21  H   -0.000129  -0.001916   0.001503   0.000279  -0.000010   0.000160
    22  H    0.005036   0.000441   0.001275   0.000477   0.000083  -0.000130
    23  H   -0.074867   0.017348   0.004024   0.000591   0.000736   0.003806
    24  H    0.027724   0.007729  -0.002917  -0.007277  -0.000777  -0.002962
    25  H    0.043960   0.001414   0.001086  -0.001067   0.007330   0.003397
    26  H    0.004905  -0.002162   0.000665   0.007214  -0.002413  -0.002161
    27  H    0.003519  -0.001748  -0.001152   0.000375  -0.000408  -0.000116
    28  O    0.001282   0.000235  -0.000108  -0.000022   0.000002  -0.000036
    29  H    0.000299   0.000126  -0.000024  -0.000016  -0.000002   0.000002
    30  H   -0.000176   0.000058  -0.000008  -0.000010   0.000001   0.000001
    31  O   -0.000035   0.000009  -0.000013  -0.000001   0.000001  -0.000001
    32  H   -0.000021  -0.000004   0.000006   0.000000  -0.000000   0.000001
    33  H   -0.000049  -0.000005  -0.000007   0.000000   0.000000  -0.000001
    34  O    0.000001   0.000000   0.000000  -0.000000   0.000000  -0.000000
    35  H   -0.000002  -0.000000   0.000000   0.000000  -0.000000   0.000000
    36  H    0.000007   0.000001   0.000000  -0.000000  -0.000000   0.000000
    37  O    0.000000   0.000000   0.000000  -0.000000  -0.000000   0.000000
    38  H   -0.000000   0.000000   0.000000   0.000000   0.000000   0.000000
    39  H   -0.000000  -0.000000   0.000000   0.000000  -0.000000  -0.000000
              19         20         21         22         23         24
     1  C    0.126534   0.058485   0.005023  -0.023744   0.141953   0.126957
     2  C    0.542741   0.106697   0.009660  -0.018491   0.073740   0.161068
     3  N   -0.692612  -0.220427   0.003986   0.001132   0.056762  -0.166107
     4  C   -0.102943   0.029494  -0.001159  -0.004549   0.012987  -0.074121
     5  C   -0.042007   0.010762  -0.000324   0.004689   0.002358  -0.068429
     6  C   -0.220675   0.147705   0.218506  -0.666338   0.098823   0.060823
     7  C   -0.013417   0.174317   0.022466   0.585746  -1.041335  -0.214080
     8  N    0.001961  -0.029502   0.015009   0.031290   0.090903   0.024522
     9  C   -0.003076  -0.214446  -0.879026  -0.390465  -0.005716  -0.008041
    10  C    0.001715   1.073964   0.316398  -0.157953   0.022161   0.057914
    11  C   -0.007050  -2.345988   0.045376   0.054539   0.030648  -0.042440
    12  C   -0.012887  -0.028446   0.003090  -0.002167   0.007320   0.257778
    13  H    0.050227   0.008676  -0.000129   0.005036  -0.074867   0.027724
    14  H    0.018059  -0.018264  -0.001916   0.000441   0.017348   0.007729
    15  H   -0.024519  -0.000146   0.001503   0.001275   0.004024  -0.002917
    16  H   -0.256208   0.008856   0.000279   0.000477   0.000591  -0.007277
    17  H    0.071488   0.004647  -0.000010   0.000083   0.000736  -0.000777
    18  H   -0.436992   0.001940   0.000160  -0.000130   0.003806  -0.002962
    19  H    2.493247   0.011745  -0.000162  -0.000274  -0.001339   0.006622
    20  H    0.011745   3.311351  -0.015172   0.018462  -0.021610   0.021120
    21  H   -0.000162  -0.015172   2.160987  -0.149221   0.005826  -0.000497
    22  H   -0.000274   0.018462  -0.149221   1.668699  -0.079894  -0.003375
    23  H   -0.001339  -0.021610   0.005826  -0.079894   2.465874   0.007154
    24  H    0.006622   0.021120  -0.000497  -0.003375   0.007154   2.124383
    25  H    0.006613   0.003710   0.000096   0.001985   0.002560  -0.404862
    26  H    0.014233  -0.002796   0.000364   0.000153   0.000997  -0.549858
    27  H   -0.000640  -0.130397  -0.125123   0.016179  -0.001259   0.000675
    28  O    0.000011   0.000929  -0.003718   0.044453   0.004363   0.000005
    29  H    0.000014  -0.000133   0.002303  -0.010564   0.002624   0.000080
    30  H    0.000005  -0.000102   0.005667  -0.015218   0.003197   0.000014
    31  O    0.000000  -0.000015   0.002238  -0.014294   0.002127   0.000023
    32  H   -0.000000  -0.000010   0.000191   0.001430  -0.000104   0.000023
    33  H   -0.000001  -0.000009  -0.000979   0.002551   0.000128  -0.000055
    34  O    0.000000   0.000001   0.000136  -0.001350  -0.000028   0.000005
    35  H   -0.000000  -0.000000   0.000026   0.000248  -0.000003   0.000001
    36  H    0.000000   0.000004  -0.000005  -0.000327  -0.000015   0.000002
    37  O    0.000000  -0.000000   0.000029  -0.000014  -0.000011   0.000001
    38  H   -0.000000   0.000000   0.000003  -0.000011  -0.000002   0.000000
    39  H   -0.000000  -0.000000  -0.000006   0.000009   0.000000  -0.000000
              25         26         27         28         29         30
     1  C   -0.023070  -0.059558  -0.009766  -0.001671   0.000633   0.000198
     2  C   -0.285762  -0.053159   0.015736  -0.001673   0.002364   0.003098
     3  N    0.218189  -0.259134  -0.004535   0.000439   0.000383  -0.000142
     4  C    0.015690   0.024631   0.001153   0.000172   0.000238   0.000051
     5  C    0.058071   0.050323   0.004990  -0.000193  -0.000154  -0.000060
     6  C    0.012166   0.113611  -0.387866  -0.100833  -0.002705   0.008285
     7  C    0.076181   0.028205   0.067921   0.093584   0.000595  -0.009956
     8  N   -0.009886  -0.003314  -0.036573  -0.186441   0.004584   0.004988
     9  C    0.002102   0.005206   0.530950   0.007809  -0.008520  -0.008632
    10  C    0.000674  -0.003814  -1.309104  -0.046874   0.000517   0.009400
    11  C    0.021679  -0.038974   0.843427   0.046959   0.007442  -0.002111
    12  C    0.140776   0.352869  -0.008204  -0.000487  -0.000356   0.000041
    13  H    0.043960   0.004905   0.003519   0.001282   0.000299  -0.000176
    14  H    0.001414  -0.002162  -0.001748   0.000235   0.000126   0.000058
    15  H    0.001086   0.000665  -0.001152  -0.000108  -0.000024  -0.000008
    16  H   -0.001067   0.007214   0.000375  -0.000022  -0.000016  -0.000010
    17  H    0.007330  -0.002413  -0.000408   0.000002  -0.000002   0.000001
    18  H    0.003397  -0.002161  -0.000116  -0.000036   0.000002   0.000001
    19  H    0.006613   0.014233  -0.000640   0.000011   0.000014   0.000005
    20  H    0.003710  -0.002796  -0.130397   0.000929  -0.000133  -0.000102
    21  H    0.000096   0.000364  -0.125123  -0.003718   0.002303   0.005667
    22  H    0.001985   0.000153   0.016179   0.044453  -0.010564  -0.015218
    23  H    0.002560   0.000997  -0.001259   0.004363   0.002624   0.003197
    24  H   -0.404862  -0.549858   0.000675   0.000005   0.000080   0.000014
    25  H    1.552002  -0.276142  -0.001386   0.000045  -0.000025  -0.000011
    26  H   -0.276142   1.886136   0.000212  -0.000050  -0.000052  -0.000000
    27  H   -0.001386   0.000212   2.119511  -0.000899   0.000115  -0.000281
    28  O    0.000045  -0.000050  -0.000899   7.978802   0.320358   0.364206
    29  H   -0.000025  -0.000052   0.000115   0.320358   0.511010  -0.111374
    30  H   -0.000011  -0.000000  -0.000281   0.364206  -0.111374   0.608953
    31  O    0.000002   0.000000  -0.000015  -0.048837  -0.001506   0.005087
    32  H   -0.000007   0.000001  -0.000000   0.001428  -0.005335  -0.000608
    33  H    0.000013   0.000006   0.000029   0.002466  -0.004478   0.000359
    34  O   -0.000000  -0.000000  -0.000000   0.000519  -0.002450   0.000623
    35  H    0.000000   0.000000  -0.000001   0.000127  -0.000069  -0.000116
    36  H   -0.000001  -0.000000  -0.000005   0.000005   0.001251  -0.000027
    37  O   -0.000000  -0.000000   0.000001   0.000025   0.000301  -0.000018
    38  H   -0.000000  -0.000000  -0.000000   0.000001   0.000133  -0.000006
    39  H    0.000000   0.000000   0.000001  -0.000001  -0.000005   0.000001
              31         32         33         34         35         36
     1  C    0.000021  -0.000001  -0.000029   0.000000   0.000000   0.000000
     2  C   -0.000070   0.000072  -0.000141   0.000002  -0.000009   0.000035
     3  N   -0.000003  -0.000015  -0.000008   0.000000  -0.000000   0.000001
     4  C   -0.000002  -0.000005  -0.000005   0.000000  -0.000000   0.000001
     5  C   -0.000001   0.000003   0.000004  -0.000000   0.000000  -0.000000
     6  C    0.003485   0.000726   0.000335   0.000055  -0.000007  -0.000019
     7  C   -0.004314  -0.002382   0.000881   0.000036  -0.000031   0.000078
     8  N   -0.000432   0.000674   0.001152   0.000113   0.000051  -0.000185
     9  C    0.004748   0.000344  -0.000933   0.000463   0.000036  -0.000091
    10  C    0.001229   0.000863  -0.000495   0.000054  -0.000079   0.000132
    11  C   -0.000621  -0.000455  -0.001128   0.000046   0.000004   0.000134
    12  C   -0.000007   0.000021   0.000020  -0.000001   0.000000  -0.000003
    13  H   -0.000035  -0.000021  -0.000049   0.000001  -0.000002   0.000007
    14  H    0.000009  -0.000004  -0.000005   0.000000  -0.000000   0.000001
    15  H   -0.000013   0.000006  -0.000007   0.000000   0.000000   0.000000
    16  H   -0.000001   0.000000   0.000000  -0.000000   0.000000  -0.000000
    17  H    0.000001  -0.000000   0.000000   0.000000  -0.000000  -0.000000
    18  H   -0.000001   0.000001  -0.000001  -0.000000   0.000000   0.000000
    19  H    0.000000  -0.000000  -0.000001   0.000000  -0.000000   0.000000
    20  H   -0.000015  -0.000010  -0.000009   0.000001  -0.000000   0.000004
    21  H    0.002238   0.000191  -0.000979   0.000136   0.000026  -0.000005
    22  H   -0.014294   0.001430   0.002551  -0.001350   0.000248  -0.000327
    23  H    0.002127  -0.000104   0.000128  -0.000028  -0.000003  -0.000015
    24  H    0.000023   0.000023  -0.000055   0.000005   0.000001   0.000002
    25  H    0.000002  -0.000007   0.000013  -0.000000   0.000000  -0.000001
    26  H    0.000000   0.000001   0.000006  -0.000000   0.000000  -0.000000
    27  H   -0.000015  -0.000000   0.000029  -0.000000  -0.000001  -0.000005
    28  O   -0.048837   0.001428   0.002466   0.000519   0.000127   0.000005
    29  H   -0.001506  -0.005335  -0.004478  -0.002450  -0.000069   0.001251
    30  H    0.005087  -0.000608   0.000359   0.000623  -0.000116  -0.000027
    31  O    7.791937   0.363748   0.316303  -0.039118   0.000828   0.002272
    32  H    0.363748   0.618222  -0.107062   0.000231  -0.000067  -0.000561
    33  H    0.316303  -0.107062   0.534882   0.024645  -0.001728  -0.009368
    34  O   -0.039118   0.000231   0.024645   7.678507   0.365122   0.337392
    35  H    0.000828  -0.000067  -0.001728   0.365122   0.616396  -0.108361
    36  H    0.002272  -0.000561  -0.009368   0.337392  -0.108361   0.576968
    37  O    0.001084   0.000552  -0.004545  -0.037773   0.003427   0.010857
    38  H    0.000294   0.000120  -0.001305   0.001009  -0.000200  -0.002254
    39  H    0.000013  -0.000009  -0.000057   0.000908  -0.000470  -0.003416
              37         38         39
     1  C    0.000000   0.000000  -0.000000
     2  C    0.000001  -0.000001  -0.000000
     3  N    0.000000   0.000000  -0.000000
     4  C    0.000000   0.000000  -0.000000
     5  C   -0.000000   0.000000   0.000000
     6  C    0.000007  -0.000009   0.000008
     7  C   -0.000005   0.000013  -0.000007
     8  N   -0.000011  -0.000006   0.000010
     9  C    0.000042   0.000001  -0.000002
    10  C    0.000017  -0.000007   0.000003
    11  C   -0.000002   0.000005  -0.000015
    12  C   -0.000000   0.000000   0.000000
    13  H    0.000000  -0.000000  -0.000000
    14  H    0.000000   0.000000  -0.000000
    15  H    0.000000   0.000000   0.000000
    16  H   -0.000000   0.000000   0.000000
    17  H   -0.000000   0.000000  -0.000000
    18  H    0.000000   0.000000  -0.000000
    19  H    0.000000  -0.000000  -0.000000
    20  H   -0.000000   0.000000  -0.000000
    21  H    0.000029   0.000003  -0.000006
    22  H   -0.000014  -0.000011   0.000009
    23  H   -0.000011  -0.000002   0.000000
    24  H    0.000001   0.000000  -0.000000
    25  H   -0.000000  -0.000000   0.000000
    26  H   -0.000000  -0.000000   0.000000
    27  H    0.000001  -0.000000   0.000001
    28  O    0.000025   0.000001  -0.000001
    29  H    0.000301   0.000133  -0.000005
    30  H   -0.000018  -0.000006   0.000001
    31  O    0.001084   0.000294   0.000013
    32  H    0.000552   0.000120  -0.000009
    33  H   -0.004545  -0.001305  -0.000057
    34  O   -0.037773   0.001009   0.000908
    35  H    0.003427  -0.000200  -0.000470
    36  H    0.010857  -0.002254  -0.003416
    37  O    7.655140   0.345698   0.348429
    38  H    0.345698   0.575091  -0.070952
    39  H    0.348429  -0.070952   0.565187
 Mulliken charges:
               1
     1  C    0.928918
     2  C    0.780193
     3  N   -0.437387
     4  C    1.194001
     5  C    0.672771
     6  C    1.264678
     7  C    0.629287
     8  N   -0.059434
     9  C    0.750414
    10  C    0.186660
    11  C    1.138176
    12  C    0.843976
    13  H   -0.804387
    14  H   -0.441059
    15  H   -0.378035
    16  H   -0.329907
    17  H   -0.281683
    18  H   -0.380218
    19  H   -0.530412
    20  H   -0.965400
    21  H   -0.641873
    22  H    0.099506
    23  H   -0.832828
    24  H   -0.338825
    25  H   -0.167518
    26  H   -0.236143
    27  H   -0.585315
    28  O   -0.476380
    29  H    0.292396
    30  H    0.134625
    31  O   -0.386164
    32  H    0.127992
    33  H    0.248619
    34  O   -0.329147
    35  H    0.124877
    36  H    0.195499
    37  O   -0.323231
    38  H    0.152385
    39  H    0.160374
 Sum of Mulliken charges =   1.00000
 Mulliken charges with hydrogens summed into heavy atoms:
               1
     1  C    0.109824
     2  C   -0.024194
     3  N   -0.437387
     4  C    0.283371
     5  C    0.061181
     6  C    1.264678
     7  C   -0.203541
     8  N    0.040072
     9  C    0.108542
    10  C   -0.398655
    11  C    0.172776
    12  C    0.101491
    28  O   -0.049360
    31  O   -0.009553
    34  O   -0.008771
    37  O   -0.010473
 Electronic spatial extent (au):  <R**2>=           9782.1617
 Charge=              1.0000 electrons
 Dipole moment (field-independent basis, Debye):
    X=             -5.4905    Y=              0.1220    Z=              0.9668  Tot=              5.5764
 Quadrupole moment (field-independent basis, Debye-Ang):
   XX=              6.3523   YY=            -74.8840   ZZ=            -77.2847
   XY=            -12.7616   XZ=              0.9741   YZ=              2.9681
 Traceless Quadrupole moment (field-independent basis, Debye-Ang):
   XX=             54.9578   YY=            -26.2785   ZZ=            -28.6792
   XY=            -12.7616   XZ=              0.9741   YZ=              2.9681
 Octapole moment (field-independent basis, Debye-Ang**2):
  XXX=           -581.9435  YYY=             20.9855  ZZZ=             11.8775  XYY=           -140.2723
  XXY=            143.3844  XXZ=            -23.2414  XZZ=            -66.9600  YZZ=              2.1661
  YYZ=             -7.5438  XYZ=            -22.1235
 Hexadecapole moment (field-independent basis, Debye-Ang**3):
 XXXX=          -4909.9478 YYYY=           -766.1766 ZZZZ=           -614.9284 XXXY=          -1052.9255
 XXXZ=           -113.2053 YYYX=           -220.3423 YYYZ=             56.1524 ZZZX=             86.0831
 ZZZY=             24.2445 XXYY=           -957.8353 XXZZ=          -1510.8133 YYZZ=           -279.2385
 XXYZ=            179.2104 YYXZ=            -25.3209 ZZXY=            -67.3473
 N-N= 1.090629734160D+03 E-N=-4.046126875014D+03  KE= 7.999785513470D+02
 Calling FoFJK, ICntrl=      2127 FMM=F ISym2X=0 I1Cent= 0 IOpClX= 0 NMat=1 NMatS=1 NMatT=0.
 ***** Axes restored to original set *****
 -------------------------------------------------------------------
 Center     Atomic                   Forces (Hartrees/Bohr)
 Number     Number              X              Y              Z
 -------------------------------------------------------------------
      1        6          -0.000043649   -0.000022567   -0.000011929
[...]
 .00000430,0.00000093,0.00000084,-0.00000056,0.00001515,-0.00001150,-0.
 00001335,-0.00002123,0.00000442,0.00000544,0.00001133,-0.00000480,0.00
 000329,0.00003289,0.00001048,0.00000151,-0.00002513,-0.00000867,0.0000
 0336,0.00000841,0.00001085,0.00000707,-0.00000514,0.00001433,-0.000002
 56,-0.00000185,-0.00000481,-0.00000159,0.00000030,-0.00000369,-0.00000
 101,0.00000017,0.00000132,0.00000037,0.00000031,-0.00000097,-0.0000004
 3,-0.00000099,-0.00000002,0.00000029,0.00000009,-0.00000318,-0.0000016
 3,-0.00000098,-0.00000005,0.00000048,0.00000121,0.00000281,-0.00000085
 ,0.00001188,0.00002163,-0.00001257,-0.00001512,0.00003576,0.00000344,-
 0.00000447,0.00000521,-0.00000286,0.00000065,0.00000325,-0.00000023,-0
 .00000116,-0.00000506,-0.00000434,-0.00000087,-0.00000078,0.00000070,0
 .00000477,0.00000365,-0.00000426,0.00004392,-0.00022616,0.00003582,-0.
 00018921,0.00020311,-0.00015227,0.00004373,0.00011868,0.00003851,-0.00
 064527,-0.00048979,-0.00124260,-0.00042637,-0.00010562,0.00021344,0.00
 016231,-0.00000514,0.00238852,-0.07672268,-0.02382704,0.06846704,0.084
 53943,0.02573700,-0.00000130,-0.00000173,0.00000576,-0.00000236,0.0000
 0500,0.00000529,-0.00000668,-0.00000018,-0.00001352,0.00000648,0.00000
 226,0.00000325,-0.00000093,0.00000121,-0.00000154,0.00001552,-0.000009
 25,-0.00001244,-0.00002028,-0.00000418,0.00000540,0.00003947,-0.000003
 65,-0.00002566,0.00002419,0.00000780,0.00000759,-0.00001585,0.00000034
 ,-0.00000533,0.00000852,0.00000663,0.00000667,0.00000687,-0.00000053,0
 .00000788,-0.00000011,-0.00000335,-0.00000083,0.00000018,0.00000053,0.
 00000154,-0.00000084,-0.00000154,-0.00000288,0.00000022,0.,0.00000018,
 -0.00000168,-0.00000015,-0.00000067,-0.00000058,-0.00000177,-0.0000007
 5,0.00000032,-0.00000010,-0.00000052,0.00000121,-0.00000065,0.00000169
 ,0.00000828,-0.00001051,0.00001911,-0.00008208,0.00002026,0.00007588,-
 0.00000388,-0.00000374,0.00000721,-0.00000322,-0.00000196,-0.00000026,
 -0.00000054,0.00000063,-0.00000104,0.00000135,0.00000068,-0.00000039,0
 .00000555,-0.00000434,0.00000236,-0.00002784,0.00020059,-0.00029652,0.
 00019971,-0.00036700,0.00039676,-0.00015922,-0.00000233,0.00002098,-0.
 00265655,-0.00135922,-0.00249747,-0.00023388,-0.00008020,0.00013772,0.
 00336985,0.00224262,0.00428356,0.20434274,0.06512338,-0.22549625,-0.24
 122853,-0.07345931,0.24448861,0.00000741,0.00001296,-0.00001427,-0.000
 02846,-0.00003313,0.00001141,0.00004507,0.00001885,0.00000375,-0.00002
 696,-0.00000289,-0.00001414,-0.00000425,-0.00000159,0.00000980,-0.0000
 3458,-0.00000045,-0.00000534,-0.00001391,-0.00002120,-0.00002297,0.000
 10793,-0.00004537,-0.00006045,-0.00006462,0.00001458,0.00004250,0.0000
 6056,0.00002079,0.00000955,-0.00001722,-0.00000940,-0.00000291,-0.0000
 0747,-0.00001342,-0.00000234,0.00000651,0.00000061,-0.00000246,-0.0000
 0271,0.00000588,-0.00000213,0.00000047,0.00000055,0.00000094,0.0000023
 7,-0.00000182,-0.00000317,0.00000635,0.00000180,0.00000221,0.00000264,
 0.00000659,0.00000592,0.00000566,0.00000126,-0.00000358,-0.00000379,-0
 .00000098,-0.00000004,-0.00003208,0.00003567,-0.00001125,-0.00020573,0
 .00005803,0.00006397,-0.00001108,0.00000099,-0.00000351,0.00000427,0.0
 0000087,0.00000918,-0.00000167,0.00000212,0.00000316,0.00000621,-0.000
 00001,-0.00000301,-0.00000676,0.00000548,0.00000131,0.00028441,-0.0001
 0256,0.00014273,-0.00027645,0.00015415,-0.00022932,-0.00002901,0.00000
 188,-0.00005230,-0.00088379,-0.00133437,0.00049212,-0.00037840,-0.0002
 5882,-0.00018208,0.00124702,0.00271148,-0.00227166,-0.12497030,0.02704
 660,-0.18062980,0.01190383,-0.00699654,0.03770854,0.11618037,-0.000004
 13,-0.00000565,0.00000778,0.00001708,0.00002581,-0.00000521,-0.0000151
 6,-0.00002393,0.00000247,0.00000768,0.00000283,0.00000899,0.00000234,0
 .00000173,-0.00000420,0.00002502,-0.00000969,-0.00000794,-0.00001117,0
 .00000937,0.00001184,-0.00004694,0.00001477,0.00003175,0.00005687,0.00
 000675,-0.00001824,-0.00004762,-0.00001390,0.00000273,0.00001245,0.000
 01326,0.00000709,-0.00000510,0.00001865,-0.00000431,-0.00000441,-0.000
 00371,-0.00000070,0.00000124,-0.00000506,0.00000051,-0.00000004,0.0000
 0032,0.00000003,-0.00000069,-0.00000033,0.00000091,-0.00000302,-0.0000
 0087,-0.00000014,-0.00000086,-0.00000472,-0.00000365,-0.00000309,-0.00
 000024,0.00000156,0.00000254,0.00000336,-0.00000071,0.00002800,-0.0000
 0062,0.00000641,0.00009497,-0.00000713,-0.00003242,0.00000226,0.000003
 50,-0.00000273,0.00000001,0.00000446,-0.00000367,-0.00000049,-0.000005
 98,-0.00000533,-0.00000360,-0.00000073,0.00000183,0.00000816,0.0000017
 6,-0.00000345,-0.00011076,-0.00001429,-0.00005994,0.00005964,-0.000040
 75,0.00008633,0.00002490,0.00002275,0.00003326,-0.00284547,-0.00179308
 ,0.00015610,-0.00025466,0.00013215,-0.00044615,0.00358901,0.00248131,-
 0.00156309,0.01650553,-0.02510273,0.07034645,0.00447724,-0.00142822,0.
 00774983,-0.02130789,0.03357327,0.00001038,0.00001917,-0.00001258,-0.0
 0005965,-0.00004439,0.00003295,0.00006271,0.00002721,-0.00002886,-0.00
 002913,0.00000369,-0.00001727,-0.00000907,-0.00000035,0.00001345,-0.00
 000121,-0.00004357,-0.00005864,-0.00013066,-0.00007082,-0.00003865,0.0
 0039174,-0.00010736,-0.00021707,-0.00002468,0.00009184,0.00010781,0.00
 005704,0.00002689,0.00000421,0.00000798,0.00001541,0.00001519,0.000008
 93,-0.00002028,0.00001864,0.00001051,-0.00000901,-0.00000800,-0.000004
 21,0.00001050,-0.00000133,-0.00000032,-0.00000144,-0.00000489,0.000004
 81,-0.00000303,-0.00000490,0.00000746,0.00000296,0.00000141,0.00000346
 ,0.00000618,0.00000793,0.00001111,0.00000186,-0.00000653,-0.00000237,-
 0.00000397,0.00000469,-0.00004637,0.00003350,0.00005979,-0.00082170,0.
 00024659,0.00041694,-0.00004319,-0.00000358,0.00000411,-0.00000261,-0.
 00000353,0.00001841,-0.00000618,0.00000365,0.00000010,0.00001592,0.000
 00162,-0.00000572,0.00001197,-0.00000828,0.00000953,0.00117431,-0.0004
 8496,0.00034752,-0.00116154,0.00066250,-0.00079480,-0.00014605,0.00000
 625,-0.00017443,0.00441551,0.00205367,0.00112863,-0.00019357,-0.000415
 06,0.00008016,-0.00677884,-0.00378086,-0.00161834,-0.12963021,0.074151
 24,-0.38753366,-0.01341970,0.00386047,-0.02083017,0.14252007,-0.074306
 99,0.40841149,-0.00000785,-0.00001423,0.00001788,0.00002427,0.00003403
 ,-0.00000618,-0.00005625,-0.00001526,-0.00002103,0.00003791,0.00000641
 ,0.00001749,0.00000410,0.00000222,-0.00001096,0.00004547,-0.00000168,-
 0.00000026,0.00000239,0.00001455,0.00002645,-0.00008319,0.00004366,0.0
 0004330,0.00005582,-0.00002096,-0.00003366,-0.00006049,-0.00000621,-0.
 00000929,0.00002346,0.00001024,0.00000355,0.00001895,0.00000975,0.0000
 1436,-0.00000610,-0.00000255,0.00000197,0.00000302,-0.00000517,0.00000
 353,-0.00000097,-0.00000162,-0.00000326,-0.00000220,0.00000240,0.00000
 401,-0.00000801,-0.00000210,-0.00000386,-0.00000333,-0.00000866,-0.000
 00690,-0.00000504,-0.00000161,0.00000382,0.00000733,-0.00000004,0.0000
 0325,0.00002108,-0.00003515,0.00002540,0.00015023,-0.00005269,-0.00003
 061,0.00000988,-0.00000321,0.00000837,-0.00001029,-0.00000487,-0.00000
 812,0.00000106,-0.00000019,-0.00000438,-0.00000273,0.00000127,0.000002
 88,0.00001156,-0.00001475,0.00000460,-0.00025838,0.00013068,-0.0001946
 7,0.00029257,-0.00019286,0.00028544,0.00001060,-0.00001098,0.00006924,
 -0.00045777,-0.00017118,-0.00052764,-0.00002411,0.00009440,0.00013900,
 0.00053817,0.00036037,0.00041650,0.00015621,0.00089715,-0.00744425,-0.
 00120965,0.00012886,-0.00107396,-0.00235668,0.00079669,0.00151252,0.20
 188016,0.00000354,0.00000380,-0.00000683,-0.00001477,-0.00002749,0.000
 00313,0.00000720,0.00003048,-0.00000286,-0.00000296,-0.00000441,-0.000
 00893,-0.00000173,-0.00000218,0.00000282,-0.00002895,0.00001723,0.0000
 1790,0.00002994,-0.00000264,-0.00000898,0.00000863,-0.00000322,-0.0000
 1309,-0.00006263,-0.00001662,0.00000750,0.00004898,0.00000833,-0.00000
 669,-0.00001631,-0.00001633,-0.00001133,0.00000832,-0.00002410,0.00000
 566,0.00000438,0.00000613,0.00000211,-0.00000083,0.00000553,-0.0000002
 1,0.00000006,-0.00000064,-0.00000011,-0.00000003,0.00000134,-0.0000001
 9,0.00000234,0.00000059,-0.00000039,0.00000027,0.00000523,0.00000367,0
 .00000251,-0.00000022,-0.00000114,-0.00000325,-0.00000523,0.00000035,-
 0.00002256,-0.00000852,-0.00001188,-0.00001793,-0.00002315,-0.00000141
 ,0.00000278,-0.00000543,0.00000462,-0.00000089,-0.00000669,0.00000205,
 0.00000159,0.00000836,0.00000773,0.00000308,0.00000060,-0.00000167,-0.
 00001180,-0.00000210,0.00000304,0.00000327,0.00012431,0.00000445,0.000
 04427,-0.00011614,0.00003702,-0.00002403,-0.00004189,-0.00002533,0.000
 37725,0.00055455,-0.00011610,0.00009803,-0.00009937,0.00020529,-0.0007
 5397,-0.00069702,-0.00002398,0.00107340,0.00500378,0.00321678,0.000119
 23,-0.00030343,-0.00020253,0.00065795,-0.01025336,-0.00165781,-0.12008
 693,0.68083692,-0.00000609,-0.00001154,0.00000628,0.00003925,0.0000253
 8,-0.00002427,-0.00003581,-0.00001619,0.00002595,0.00001460,-0.0000042
 9,0.00000849,0.00000565,-0.00000015,-0.00000814,-0.00000162,0.00002728
 ,0.00003760,0.00008210,0.00004244,0.00001953,-0.00024046,0.00006520,0.
 00013372,0.00002186,-0.00005131,-0.00006771,-0.00003655,-0.00002220,-0
 .00000279,-0.00000533,-0.00000983,-0.00000951,-0.00000879,0.00001199,-
 0.00001678,-0.00000683,0.00000713,0.00000569,0.00000239,-0.00000662,0.
 00000027,0.00000020,0.00000125,0.00000412,-0.00000307,0.00000191,0.000
 00274,-0.00000392,-0.00000171,-0.00000025,-0.00000196,-0.00000267,-0.0
 0000436,-0.00000732,-0.00000101,0.00000414,0.00000048,0.00000271,-0.00
 000485,0.00003135,-0.00001878,-0.00003791,0.00049589,-0.00014743,-0.00
 025144,0.00002617,0.00000210,-0.00000359,0.00000416,0.00000303,-0.0000
 1249,0.00000458,-0.00000219,0.00000151,-0.00001192,-0.00000141,0.00000
 352,-0.00000726,0.00000783,-0.00000905,-0.00068095,0.00028395,-0.00018
 426,0.00066610,-0.00038516,0.00045216,0.00008272,-0.00000660,0.0000924
 3,-0.00190056,-0.00082146,-0.00051070,0.00011461,0.00022772,-0.0000275
 5,0.00270330,0.00153361,0.00062928,-0.00700584,0.00254338,-0.01188403,
 -0.00092701,-0.00027915,0.00034011,0.00148884,-0.00117791,-0.00483020,
 0.21165434,0.11686979,0.32905406,0.00000191,0.00000385,-0.00000554,-0.
 00000375,-0.00000622,0.,0.00001998,-0.00000140,0.00001192,-0.00001483,
 -0.00000255,-0.00000497,-0.00000101,-0.00000051,0.00000320,-0.00001248
 ,-0.00000186,-0.00000135,-0.00000204,-0.00000231,-0.00000695,0.0000150
 4,-0.00001050,-0.00000489,-0.00000525,0.00000873,0.00000726,0.00001050
 ,-0.00000126,0.00000304,-0.00000610,-0.00000069,0.00000113,-0.00001067
 ,0.00000219,-0.00000883,0.00000099,0.00000035,-0.00000095,-0.00000084,
 0.00000060,-0.00000128,0.00000036,0.00000082,0.00000169,0.00000061,-0.
 00000117,-0.00000142,0.00000261,0.00000062,0.00000185,0.00000113,0.000
 00258,0.00000185,0.00000100,0.00000064,-0.00000118,-0.00000256,0.00000
 112,-0.00000191,-0.00000039,0.00001037,-0.00000798,-0.00002053,0.00001
 509,-0.00000326,-0.00000288,0.00000253,-0.00000485,0.00000511,0.000004
 17,0.00000203,-0.00000066,-0.00000203,0.00000019,-0.00000059,-0.000000
 86,-0.00000065,-0.00000275,0.00000603,-0.00000295,0.00005590,-0.000058
 43,0.00006294,-0.00008039,0.00007843,-0.00008814,0.00000653,0.00000922
 ,-0.00001593,-0.00002365,-0.00015562,0.00021432,-0.00001299,0.00001355
 ,-0.00014066,0.00013900,0.00017876,-0.00009069,0.00021808,-0.00013386,
 -0.00011580,0.00002050,-0.00012371,-0.00015938,-0.00061712,0.00055716,
 0.00096169,-0.14040254,0.22638471,-0.08830029,0.13605712,-0.00000186,-
 0.00000213,0.00000360,0.00000725,0.00001430,-0.00000074,-0.00000461,-0
 .00001579,0.00000021,0.00000222,0.00000285,0.00000491,0.00000080,0.000
 00111,-0.00000154,0.00001403,-0.00000715,-0.00000737,-0.00001110,0.000
 00310,0.00000638,-0.00000924,0.00000468,0.00000860,0.00002524,0.000002
 35,-0.00000521,-0.00002194,-0.00000253,0.00000276,0.00000750,0.0000070
 7,0.00000468,-0.00000301,0.00001278,-0.00000153,-0.00000206,-0.0000032
 1,-0.00000112,0.00000039,-0.00000277,0.00000015,-0.00000002,0.00000036
 ,-0.00000008,-0.00000004,-0.00000072,0.00000012,-0.00000130,-0.0000002
 4,0.00000011,-0.00000015,-0.00000292,-0.00000204,-0.00000123,0.0000000
 9,0.00000056,0.00000178,0.00000253,0.00000026,0.00000810,0.00000133,0.
 00000429,0.00002101,0.00000507,-0.00000470,-0.00000039,0.00000278,-0.0
 0000183,-0.00000001,0.00000299,-0.00000098,-0.00000095,-0.00000430,-0.
 00000443,-0.00000143,-0.00000014,0.00000086,0.00000454,0.00000016,-0.0
 0000061,-0.00002784,-0.00003793,-0.00001498,0.00001166,0.00002883,0.00
 000983,0.00001240,0.00001674,0.00001389,-0.00019257,-0.00024848,-0.000
 02805,-0.00003608,0.00007391,-0.00007135,0.00035962,0.00031410,0.00012
 000,-0.00082368,-0.00018531,-0.00191082,0.00003968,0.00002987,0.000096
 95,0.00109202,0.00004035,0.00309269,0.19135913,-0.37555487,0.09158285,
 -0.21215473,0.40108193,0.00000040,0.00000103,0.00000051,-0.00000633,-0
 .00000023,0.00000593,0.00000305,0.00000044,-0.00000851,-0.00000008,0.0
 0000206,0.00000054,-0.00000077,0.00000034,0.00000081,0.00000395,-0.000
 00606,-0.00000787,-0.00001462,-0.00000405,0.00000077,0.00003409,-0.000
 00767,-0.00001852,0.00000123,0.00000630,0.00000996,0.00000081,0.000003
 53,-0.00000106,0.00000207,0.00000317,0.00000315,0.00000270,-0.00000012
 ,0.00000533,0.00000093,-0.00000244,-0.00000136,-0.00000014,0.00000066,
 0.00000025,-0.00000010,-0.00000030,-0.00000129,0.00000048,-0.00000037,
 -0.00000027,-0.00000004,0.00000021,-0.00000024,0.00000014,-0.00000057,
 0.00000018,0.00000117,-0.00000002,-0.00000069,0.00000045,-0.00000045,0
 .00000137,-0.00000246,0.00000057,0.00000602,-0.00006576,0.00002180,0.0
 0003749,-0.00000403,0.00000008,0.00000124,-0.00000192,-0.00000073,0.00
 000217,-0.00000114,-0.00000012,-0.00000134,0.00000271,0.00000021,-0.00
 000053,0.00000138,-0.00000241,0.00000222,0.00007895,-0.00005042,0.0000
 0455,-0.00007347,0.00005754,-0.00004332,-0.00000732,0.00000774,-0.0000
 0008,0.00004001,-0.00013936,0.00001722,-0.00010093,0.00000950,-0.00003
 928,0.00006051,0.00018359,-0.00002724,-0.00043908,-0.00100252,-0.00265
 702,-0.00033925,0.00035706,-0.00027095,0.00046531,0.00248747,0.0043055
 5,-0.10119041,0.13454721,-0.07792154,0.08735585,-0.10806822,0.06977927
 ,0.00000336,0.00000572,-0.00000883,-0.00000772,-0.00001685,-0.00000030
 ,0.00002233,0.00001008,0.00001444,-0.00001657,-0.00000439,-0.00000864,
 -0.00000139,-0.00000153,0.00000447,-0.00002962,0.00001080,0.00001239,0
 .00002467,0.00000286,-0.00000908,-0.00000816,-0.00000728,0.00000440,-0
 .00003964,-0.00000693,0.00000386,0.00003507,-0.00000016,0.00000147,-0.
 00001727,-0.00001117,-0.00000595,-0.00000903,-0.00000672,-0.00000863,0
 .00000281,0.00000363,0.00000056,-0.00000124,0.00000233,-0.00000186,0.0
 0000058,0.00000099,0.00000228,0.00000049,-0.00000066,-0.00000161,0.000
 00363,0.00000092,0.00000182,0.00000138,0.00000461,0.00000328,0.0000016
 1,0.00000055,-0.00000140,-0.00000417,-0.00000047,-0.00000258,-0.000009
 72,0.00000972,-0.00002555,0.00003009,-0.00001212,-0.00003814,0.0000014
 4,0.00000125,-0.00000346,0.00000573,0.00000131,0.00000186,0.00000066,0
 .00000127,0.00000385,-0.00000040,-0.00000079,-0.00000115,-0.00001140,0
 .00000888,-0.00000397,-0.00002663,0.00002816,0.00004590,0.00002379,-0.
 00002552,-0.00001850,0.00000591,-0.00000266,-0.00001677,-0.00012750,0.
 00000534,0.00004357,0.00002407,0.00000320,-0.00000823,0.00019210,0.000
 01962,0.00000328,-0.00012560,0.00043534,-0.00060713,-0.00001714,0.0001
 7146,-0.00005929,0.00010194,-0.00160374,0.00132313,-0.05833864,-0.1078
 3218,-0.11824700,0.00466769,0.02032692,0.01419166,0.05364248,-0.000000
 67,0.00000033,0.00000199,0.00000319,0.00000921,-0.00000016,0.00000238,
 -0.00001311,0.00000115,-0.00000167,0.00000218,0.00000266,0.00000023,0.
 00000107,0.,0.00001290,-0.00001148,-0.00001254,-0.00002453,-0.00000480
 ,-0.00000077,0.00002651,-0.00000962,-0.00001062,0.00002703,0.00001667,
 0.00000476,-0.00001821,-0.00000150,0.00000702,0.00000803,0.00000847,0.
 00000551,-0.00000476,0.00001023,-0.00000303,-0.00000134,-0.00000344,-0
 .00000145,-0.00000009,-0.00000203,-0.00000020,0.00000003,0.00000027,-0
 .00000002,0.00000050,-0.00000095,-0.00000040,-0.00000038,-0.00000008,0
 .00000040,0.00000025,-0.00000199,-0.00000111,-0.00000044,0.00000037,0.
 00000014,0.00000130,0.00000284,0.00000003,0.00000677,0.00001296,0.0000
 0866,-0.00005708,0.00003164,0.00002969,-0.00000464,0.00000238,-0.00000
 235,0.00000090,0.00000328,0.00000018,-0.00000092,-0.00000388,-0.000003
 40,-0.00000072,-0.00000016,0.00000047,0.00000717,0.00000266,-0.0000017
 4,0.00009213,-0.00009815,0.00003188,-0.00011385,0.00010687,-0.00008781
 ,-0.00000087,0.00002278,-0.00000307,0.00019033,-0.00001957,0.00013896,
 -0.00002373,-0.00000673,-0.00004711,-0.00020419,-0.00006951,-0.0000939
 0,0.00112986,-0.00132743,0.00225021,0.00005378,0.00022430,0.00005950,-
 0.00172066,0.00235860,-0.00335261,-0.07323892,-0.29939214,-0.21027193,
 -0.01462381,-0.02558079,-0.02840445,0.08847820,0.32373025,0.00000107,0
 .00000191,-0.00000079,-0.00000810,-0.00000441,0.00000609,0.00000556,0.
 00000318,-0.00000798,-0.00000151,0.00000144,-0.00000064,-0.00000111,0.
 00000027,0.00000152,-0.00000008,-0.00000383,-0.00000529,-0.00001170,-0
 .00000651,-0.00000200,0.00003832,-0.00001006,-0.00002211,-0.00001279,0
 .00000531,0.00001057,0.00001026,0.00000785,0.00000202,-0.00000070,0.00
 000083,0.00000068,0.00000275,-0.00000235,0.00000521,0.00000151,-0.0000
 0166,-0.00000132,-0.00000042,0.00000141,0.00000031,-0.00000005,-0.0000
 0051,-0.00000119,0.00000062,-0.00000040,-0.00000035,0.00000048,0.00000
 024,-0.00000021,0.00000031,0.00000011,0.00000057,0.00000160,0.00000019
 ,-0.00000085,0.00000075,-0.00000053,0.00000187,-0.00000924,-0.00000018
 ,0.00000778,-0.00007366,0.00001785,0.00003658,-0.00000360,-0.00000046,
 0.00000125,-0.00000175,-0.00000078,0.00000273,-0.00000105,0.00000047,-
 0.00000095,0.00000303,0.00000059,-0.00000066,0.00000049,-0.00000269,0.
 00000387,0.00008071,-0.00001430,0.00000963,-0.00005878,0.00002276,-0.0
 0003822,-0.00001343,-0.00000612,-0.00000965,0.00013349,0.00004116,0.00
 003950,-0.00002022,-0.00001715,0.00000351,-0.00015545,-0.00005722,-0.0
 0006442,-0.00026317,0.00144843,-0.00108234,-0.00024785,-0.00021584,-0.
 00036037,0.00053541,-0.00329657,0.00119753,-0.10368847,-0.25283967,-0.
 23501018,0.00034090,0.01517185,0.00681658,0.10341586,0.23975544,0.2284
 6171\\-0.00000032,0.00000008,0.00000110,-0.00000052,-0.00000088,-0.000
 00023,0.00000008,0.00000027,0.00000042,-0.00000008,0.00000008,0.000000
 26,0.00000036,-0.00000038,-0.00000013,0.00000147,-0.00000146,-0.000001
 29,-0.00000058,0.00000018,0.00000016,-0.00000053,0.00000158,0.00000263
 ,-0.00000033,-0.00000081,-0.00000122,-0.00000122,0.00000009,0.00000101
 ,0.00000101,0.00000182,0.00000182,0.00000025,-0.00000049,-0.00000027,0
 .00000017,0.00000051,0.00000039,-0.00000011,0.00000011,0.00000012,-0.0
 0000029,-0.00000025,0.00000017,-0.00000009,-0.00000009,0.00000088,-0.0
 0000032,0.00000011,0.00000043,-0.00000006,-0.00000023,0.00000006,0.000
 00002,-0.00000027,0.00000013,-0.00000125,-0.00000141,-0.00000008,0.000
 00001,0.00000004,0.00000052,0.00000262,-0.00000240,-0.00000304,0.00000
 020,-0.00000005,-0.00000025,0.00000027,-0.00000039,-0.00000004,0.00000
 016,0.,-0.00000011,0.00000015,-0.00000059,0.,0.00000019,-0.00000014,0.
 00000019,-0.00000559,0.00000293,0.00000257,0.00000038,0.00000186,-0.00
 000263,0.00000241,-0.00000075,0.00000007,0.00000018,-0.00000032,0.0000
 0004,0.00000082,0.00000046,-0.00000002,0.00000035,0.00000072,0.0000003
 8,-0.00000163,-0.00000204,-0.00000343,0.00000074,0.00000160,0.00000145
 ,0.00000049,0.00000027,-0.00000047,0.00000180,-0.00000053,0.00000266,-
 0.00000054,0.00000101,-0.00000195,-0.00000069,-0.00000023,-0.00000229\
 \\@


 There are more things in heaven and earth, Horatio,
 than are dreamt of in your philosophy.
                   -- Hamlet, Act I, Scene 5
 Job cpu time:       0 days 21 hours 41 minutes 29.1 seconds.
 Elapsed time:       0 days  0 hours 46 minutes 31.8 seconds.
 File lengths (MBytes):  RWF=   1240 Int=      0 D2E=      0 Chk=     32 Scr=      8
 Normal termination of Gaussian 16 at Fri Jan 27 21:22:54 2023.
