 Entering Gaussian System, Link 0=g16
 Input=NicPySa4hYbaa.gjf
 Output=NicPySa4hYbaa.log
 Initial command:
 /sw/contrib/gaussian/g16/A03/g16/l1.exe "/gscratch/scrubbed/gds001/Gau-19900.inp" -scrdir="/gscratch/scrubbed/gds001/"
 Entering Link 1 = /sw/contrib/gaussian/g16/A03/g16/l1.exe PID=     19901.
  
 Copyright (c) 1988,1990,1992,1993,1995,1998,2003,2009,2016,
            Gaussian, Inc.  All Rights Reserved.
  
 This is part of the Gaussian(R) 16 program.  It is based on
 the Gaussian(R) 09 system (copyright 2009, Gaussian, Inc.),
 the Gaussian(R) 03 system (copyright 2003, Gaussian, Inc.),
 the Gaussian(R) 98 system (copyright 1998, Gaussian, Inc.),
 the Gaussian(R) 94 system (copyright 1995, Gaussian, Inc.),
 the Gaussian 92(TM) system (copyright 1992, Gaussian, Inc.),
 the Gaussian 90(TM) system (copyright 1990, Gaussian, Inc.),
 the Gaussian 88(TM) system (copyright 1988, Gaussian, Inc.),
 the Gaussian 86(TM) system (copyright 1986, Carnegie Mellon
 University), and the Gaussian 82(TM) system (copyright 1983,
 Carnegie Mellon University). Gaussian is a federally registered
 trademark of Gaussian, Inc.
  
 This software contains proprietary and confidential information,
 including trade secrets, belonging to Gaussian, Inc.
  
 This software is provided under written license and may be
 used, copied, transmitted, or stored only in accord with that
 written license.
  
 The following legend is applicable only to US Government
 contracts under FAR:
  
                    RESTRICTED RIGHTS LEGEND
  
 Use, reproduction and disclosure by the US Government is
 subject to restrictions as set forth in subparagraphs (a)
 and (c) of the Commercial Computer Software - Restricted
 Rights clause in FAR 52.227-19.
  
 Gaussian, Inc.
 340 Quinnipiac St., Bldg. 40, Wallingford CT 06492
  
  
 ---------------------------------------------------------------
 Warning -- This program may not be used in any manner that
 competes with the business of Gaussian, Inc. or will provide
 assistance to any competitor of Gaussian, Inc.  The licensee
 of this program is prohibited from giving any competitor of
 Gaussian, Inc. access to this program.  By using this program,
 the user acknowledges that Gaussian, Inc. is engaged in the
 business of creating and licensing software in the field of
 computational chemistry and represents and warrants to the
 licensee that it is not a competitor of Gaussian, Inc. and that
 it will not use this program in any manner prohibited above.
 ---------------------------------------------------------------
  

 Cite this work as:
 Gaussian 16, Revision A.03,
 M. J. Frisch, G. W. Trucks, H. B. Schlegel, G. E. Scuseria, 
 M. A. Robb, J. R. Cheeseman, G. Scalmani, V. Barone, 
 G. A. Petersson, H. Nakatsuji, X. Li, M. Caricato, A. V. Marenich, 
 J. Bloino, B. G. Janesko, R. Gomperts, B. Mennucci, H. P. Hratchian, 
 J. V. Ortiz, A. F. Izmaylov, J. L. Sonnenberg, D. Williams-Young, 
 F. Ding, F. Lipparini, F. Egidi, J. Goings, B. Peng, A. Petrone, 
 T. Henderson, D. Ranasinghe, V. G. Zakrzewski, J. Gao, N. Rega, 
 G. Zheng, W. Liang, M. Hada, M. Ehara, K. Toyota, R. Fukuda, 
 J. Hasegawa, M. Ishida, T. Nakajima, Y. Honda, O. Kitao, H. Nakai, 
 T. Vreven, K. Throssell, J. A. Montgomery, Jr., J. E. Peralta, 
 F. Ogliaro, M. J. Bearpark, J. J. Heyd, E. N. Brothers, K. N. Kudin, 
 V. N. Staroverov, T. A. Keith, R. Kobayashi, J. Normand, 
 K. Raghavachari, A. P. Rendell, J. C. Burant, S. S. Iyengar, 
 J. Tomasi, M. Cossi, J. M. Millam, M. Klene, C. Adamo, R. Cammi, 
 J. W. Ochterski, R. L. Martin, K. Morokuma, O. Farkas, 
 J. B. Foresman, and D. J. Fox, Gaussian, Inc., Wallingford CT, 2016.
 
 ******************************************
 Gaussian 16:  ES64L-G16RevA.03 25-Dec-2016
                27-Jan-2023 
 ******************************************
 %nprocshared=28
 Will use up to   28 processors via shared memory.
 %mem=41GB
 -----------------------------
 # wB97XD/aug-cc-pVDZ opt freq
 -----------------------------
 1/18=20,19=15,26=3,38=1/1,3;
 2/9=110,12=2,17=6,18=5,40=1/2;
 3/5=16,7=10,11=2,25=1,30=1,71=1,74=-58/1,2,3;
 4//1;
 5/5=2,38=5/2;
 6/7=2,8=2,9=2,10=2,28=1/1;
 7//1,2,3,16;
 1/18=20,19=15,26=3/3(2);
 2/9=110/2;
 99//99;
 2/9=110/2;
 3/5=16,7=10,11=2,25=1,30=1,71=1,74=-58/1,2,3;
 4/5=5,16=3,69=1/1;
 5/5=2,38=5/2;
 7//1,2,3,16;
 1/18=20,19=15,26=3/3(-5);
 2/9=110/2;
 6/7=2,8=2,9=2,10=2,19=2,28=1/1;
 99/9=1/99;
 ----
 blah
 ----
 Symbolic Z-matrix:
 Charge =  1 Multiplicity = 1
 C                    -1.26092   2.23638  -0.69947 
 C                    -1.40077   0.89896  -0.315 
 C                    -0.29302   0.27691   0.24289 
 N                     0.85772   0.94715   0.40859 
 C                     1.00806   2.23144   0.0528 
 C                    -0.05555   2.91081  -0.51386 
 C                    -2.71401   0.15819  -0.45922 
 N                    -2.51841  -1.28568  -0.42257 
 C                    -3.69071  -1.87014   0.22369 
 C                    -3.97106  -0.89369   1.35731 
 C                    -3.70861   0.47093   0.69872 
 O                     2.96322  -0.28879   1.44233 
 O                     4.77295  -1.46773  -0.08955 
 H                    -3.46657  -2.88842   0.56392 
 H                    -4.98899  -0.97774   1.75161 
 H                    -3.26901  -1.06991   2.18209 
 H                    -4.63376   0.88312   0.27993 
 H                    -3.30989   1.21005   1.40282 
 H                    -4.55445  -1.92278  -0.46919 
 H                    -3.16401   0.47776  -1.41934 
 H                    -0.31999  -0.76481   0.55388 
 H                     1.98506   2.67354   0.23144 
 H                     0.06306   3.95078  -0.80858 
 H                    -2.1064    2.75651  -1.15148 
 C                    -2.18348  -1.8697   -1.70767 
 H                     1.68087   0.44403   0.83265 
 H                     3.65888  -0.74021   0.90592 
 H                     3.20106  -0.39124   2.36565 
 H                     5.68353  -1.13771  -0.20991 
 H                     4.81138  -2.41792  -0.21745 
 O                     7.3215   -0.49205  -0.43924 
 H                     8.05914  -0.61508   0.16402 
 H                     7.71122  -0.3212   -1.30071 
 H                    -1.25948  -1.42299  -2.09996 
 H                    -2.98382  -1.72153  -2.45869 
 H                    -2.01399  -2.94661  -1.59025 
 O                     9.44339  -0.74257   1.27337 
 H                     10.31908  -0.33391   1.38447 
 H                     9.24075  -1.05523   2.1726 
 
 Add virtual bond connecting atoms H26        and O12        Dist= 3.02D+00.
 Add virtual bond connecting atoms H27        and O13        Dist= 3.14D+00.
 Add virtual bond connecting atoms O31        and H29        Dist= 3.36D+00.
 Add virtual bond connecting atoms O37        and H32        Dist= 3.36D+00.

 GradGradGradGradGradGradGradGradGradGradGradGradGradGradGradGradGradGrad
 Berny optimization.
 Initialization pass.
                           ----------------------------
                           !    Initial Parameters    !
                           ! (Angstroms and Degrees)  !
 --------------------------                            --------------------------
 ! Name  Definition              Value          Derivative Info.                !
 --------------------------------------------------------------------------------
 ! R1    R(1,2)                  1.3986         estimate D2E/DX2                !
 ! R2    R(1,6)                  1.3936         estimate D2E/DX2                !
 ! R3    R(1,24)                 1.0907         estimate D2E/DX2                !
 ! R4    R(2,3)                  1.3876         estimate D2E/DX2                !
 ! R5    R(2,7)                  1.5146         estimate D2E/DX2                !
 ! R6    R(3,4)                  1.342          estimate D2E/DX2                !
 ! R7    R(3,21)                 1.0875         estimate D2E/DX2                !
 ! R8    R(4,5)                  1.3411         estimate D2E/DX2                !
 ! R9    R(4,26)                 1.0538         estimate D2E/DX2                !
 ! R10   R(5,6)                  1.3834         estimate D2E/DX2                !
 ! R11   R(5,22)                 1.0871         estimate D2E/DX2                !
 ! R12   R(6,23)                 1.0874         estimate D2E/DX2                !
 ! R13   R(7,8)                  1.4575         estimate D2E/DX2                !
 ! R14   R(7,11)                 1.5582         estimate D2E/DX2                !
 ! R15   R(7,20)                 1.1075         estimate D2E/DX2                !
 ! R16   R(8,9)                  1.4607         estimate D2E/DX2                !
 ! R17   R(8,25)                 1.4508         estimate D2E/DX2                !
 ! R18   R(9,10)                 1.5222         estimate D2E/DX2                !
 ! R19   R(9,14)                 1.0968         estimate D2E/DX2                !
 ! R20   R(9,19)                 1.1086         estimate D2E/DX2                !
 ! R21   R(10,11)                1.5378         estimate D2E/DX2                !
 ! R22   R(10,15)                1.0949         estimate D2E/DX2                !
 ! R23   R(10,16)                1.0973         estimate D2E/DX2                !
 ! R24   R(11,17)                1.096          estimate D2E/DX2                !
 ! R25   R(11,18)                1.0959         estimate D2E/DX2                !
 ! R26   R(12,26)                1.5979         estimate D2E/DX2                !
 ! R27   R(12,27)                0.9877         estimate D2E/DX2                !
 ! R28   R(12,28)                0.9589         estimate D2E/DX2                !
 ! R29   R(13,27)                1.6617         estimate D2E/DX2                !
 ! R30   R(13,29)                0.976          estimate D2E/DX2                !
 ! R31   R(13,30)                0.9595         estimate D2E/DX2                !
 ! R32   R(25,34)                1.0987         estimate D2E/DX2                !
 ! R33   R(25,35)                1.1075         estimate D2E/DX2                !
 ! R34   R(25,36)                1.0965         estimate D2E/DX2                !
 ! R35   R(29,31)                1.7755         estimate D2E/DX2                !
 ! R36   R(31,32)                0.9608         estimate D2E/DX2                !
 ! R37   R(31,33)                0.9608         estimate D2E/DX2                !
 ! R38   R(32,37)                1.7785         estimate D2E/DX2                !
 ! R39   R(37,38)                0.9727         estimate D2E/DX2                !
 ! R40   R(37,39)                0.9734         estimate D2E/DX2                !
 ! A1    A(2,1,6)              120.8399         estimate D2E/DX2                !
 ! A2    A(2,1,24)             119.4993         estimate D2E/DX2                !
 ! A3    A(6,1,24)             119.6607         estimate D2E/DX2                !
 ! A4    A(1,2,3)              117.3481         estimate D2E/DX2                !
 ! A5    A(1,2,7)              121.8844         estimate D2E/DX2                !
 ! A6    A(3,2,7)              120.745          estimate D2E/DX2                !
 ! A7    A(2,3,4)              120.6852         estimate D2E/DX2                !
 ! A8    A(2,3,21)             121.643          estimate D2E/DX2                !
 ! A9    A(4,3,21)             117.6705         estimate D2E/DX2                !
 ! A10   A(3,4,5)              122.7968         estimate D2E/DX2                !
 ! A11   A(3,4,26)             118.7535         estimate D2E/DX2                !
 ! A12   A(5,4,26)             118.4493         estimate D2E/DX2                !
 ! A13   A(4,5,6)              119.5206         estimate D2E/DX2                !
 ! A14   A(4,5,22)             116.5252         estimate D2E/DX2                !
 ! A15   A(6,5,22)             123.9536         estimate D2E/DX2                !
 ! A16   A(1,6,5)              118.8073         estimate D2E/DX2                !
 ! A17   A(1,6,23)             121.4034         estimate D2E/DX2                !
 ! A18   A(5,6,23)             119.7886         estimate D2E/DX2                !
 ! A19   A(2,7,8)              111.4534         estimate D2E/DX2                !
 ! A20   A(2,7,11)             112.6139         estimate D2E/DX2                !
 ! A21   A(2,7,20)             107.0813         estimate D2E/DX2                !
 ! A22   A(8,7,11)             105.415          estimate D2E/DX2                !
 ! A23   A(8,7,20)             111.2348         estimate D2E/DX2                !
 ! A24   A(11,7,20)            109.0858         estimate D2E/DX2                !
 ! A25   A(7,8,9)              107.4458         estimate D2E/DX2                !
 ! A26   A(7,8,25)             114.0477         estimate D2E/DX2                !
 ! A27   A(9,8,25)             114.5904         estimate D2E/DX2                !
 ! A28   A(8,9,10)             102.7464         estimate D2E/DX2                !
 ! A29   A(8,9,14)             110.1651         estimate D2E/DX2                !
 ! A30   A(8,9,19)             111.5797         estimate D2E/DX2                !
 ! A31   A(10,9,14)            113.7147         estimate D2E/DX2                !
 ! A32   A(10,9,19)            110.6361         estimate D2E/DX2                !
 ! A33   A(14,9,19)            108.0015         estimate D2E/DX2                !
 ! A34   A(9,10,11)            102.6418         estimate D2E/DX2                !
 ! A35   A(9,10,15)            112.9659         estimate D2E/DX2                !
 ! A36   A(9,10,16)            109.8098         estimate D2E/DX2                !
 ! A37   A(11,10,15)           112.3975         estimate D2E/DX2                !
 ! A38   A(11,10,16)           110.8065         estimate D2E/DX2                !
 ! A39   A(15,10,16)           108.1681         estimate D2E/DX2                !
 ! A40   A(7,11,10)            104.424          estimate D2E/DX2                !
 ! A41   A(7,11,17)            109.2896         estimate D2E/DX2                !
 ! A42   A(7,11,18)            112.3695         estimate D2E/DX2                !
 ! A43   A(10,11,17)           110.6911         estimate D2E/DX2                !
 ! A44   A(10,11,18)           112.6698         estimate D2E/DX2                !
 ! A45   A(17,11,18)           107.3953         estimate D2E/DX2                !
 ! A46   A(26,12,27)           124.5873         estimate D2E/DX2                !
 ! A47   A(26,12,28)           127.9833         estimate D2E/DX2                !
 ! A48   A(27,12,28)           107.4223         estimate D2E/DX2                !
 ! A49   A(27,13,29)           123.4579         estimate D2E/DX2                !
 ! A50   A(27,13,30)           122.7009         estimate D2E/DX2                !
 ! A51   A(29,13,30)           106.3222         estimate D2E/DX2                !
 ! A52   A(8,25,34)            110.2887         estimate D2E/DX2                !
 ! A53   A(8,25,35)            112.3336         estimate D2E/DX2                !
 ! A54   A(8,25,36)            109.646          estimate D2E/DX2                !
 ! A55   A(34,25,35)           108.1332         estimate D2E/DX2                !
 ! A56   A(34,25,36)           107.9115         estimate D2E/DX2                !
 ! A57   A(35,25,36)           108.4043         estimate D2E/DX2                !
 ! A58   A(29,31,32)           125.4919         estimate D2E/DX2                !
 ! A59   A(29,31,33)           123.6865         estimate D2E/DX2                !
 ! A60   A(32,31,33)           105.9212         estimate D2E/DX2                !
 ! A61   A(32,37,38)           137.8862         estimate D2E/DX2                !
 ! A62   A(32,37,39)           115.9277         estimate D2E/DX2                !
 ! A63   A(38,37,39)           102.5245         estimate D2E/DX2                !
 ! A64   L(4,26,12,36,-1)      181.0431         estimate D2E/DX2                !
 ! A65   L(12,27,13,25,-1)     177.0068         estimate D2E/DX2                !
 ! A66   L(13,29,31,22,-1)     178.4338         estimate D2E/DX2                !
 ! A67   L(31,32,37,28,-1)     180.5762         estimate D2E/DX2                !
 ! A68   L(4,26,12,36,-2)      178.098          estimate D2E/DX2                !
 ! A69   L(12,27,13,25,-2)     177.3562         estimate D2E/DX2                !
 ! A70   L(13,29,31,22,-2)     180.4296         estimate D2E/DX2                !
 ! A71   L(31,32,37,28,-2)     183.6321         estimate D2E/DX2                !
 ! D1    D(6,1,2,3)             -0.5526         estimate D2E/DX2                !
 ! D2    D(6,1,2,7)            177.7341         estimate D2E/DX2                !
 ! D3    D(24,1,2,3)           179.3607         estimate D2E/DX2                !
 ! D4    D(24,1,2,7)            -2.3525         estimate D2E/DX2                !
 ! D5    D(2,1,6,5)              0.3457         estimate D2E/DX2                !
 ! D6    D(2,1,6,23)          -179.9472         estimate D2E/DX2                !
 ! D7    D(24,1,6,5)          -179.5676         estimate D2E/DX2                !
 ! D8    D(24,1,6,23)            0.1396         estimate D2E/DX2                !
 ! D9    D(1,2,3,4)              0.4103         estimate D2E/DX2                !
 ! D10   D(1,2,3,21)          -179.1574         estimate D2E/DX2                !
 ! D11   D(7,2,3,4)           -177.8971         estimate D2E/DX2                !
 ! D12   D(7,2,3,21)             2.5352         estimate D2E/DX2                !
 ! D13   D(1,2,7,8)            161.0847         estimate D2E/DX2                !
 ! D14   D(1,2,7,11)           -80.6814         estimate D2E/DX2                !
 ! D15   D(1,2,7,20)            39.2235         estimate D2E/DX2                !
 ! D16   D(3,2,7,8)            -20.6859         estimate D2E/DX2                !
 ! D17   D(3,2,7,11)            97.548          estimate D2E/DX2                !
 ! D18   D(3,2,7,20)          -142.5471         estimate D2E/DX2                !
 ! D19   D(2,3,4,5)             -0.0567         estimate D2E/DX2                !
 ! D20   D(2,3,4,26)          -179.8107         estimate D2E/DX2                !
 ! D21   D(21,3,4,5)           179.5277         estimate D2E/DX2                !
 ! D22   D(21,3,4,26)           -0.2263         estimate D2E/DX2                !
 ! D23   D(3,4,5,6)             -0.167          estimate D2E/DX2                !
 ! D24   D(3,4,5,22)          -179.8889         estimate D2E/DX2                !
 ! D25   D(26,4,5,6)           179.5878         estimate D2E/DX2                !
 ! D26   D(26,4,5,22)           -0.1341         estimate D2E/DX2                !
 ! D27   D(3,4,12,27)           92.4231         estimate D2E/DX2                !
 ! D28   D(3,4,12,28)          -87.4203         estimate D2E/DX2                !
 ! D29   D(5,4,12,27)          -86.5895         estimate D2E/DX2                !
 ! D30   D(5,4,12,28)           93.5672         estimate D2E/DX2                !
 ! D31   D(4,5,6,1)              0.0199         estimate D2E/DX2                !
 ! D32   D(4,5,6,23)          -179.6921         estimate D2E/DX2                !
 ! D33   D(22,5,6,1)           179.7199         estimate D2E/DX2                !
 ! D34   D(22,5,6,23)            0.008          estimate D2E/DX2                !
 ! D35   D(2,7,8,9)            146.4259         estimate D2E/DX2                !
 ! D36   D(2,7,8,25)           -85.4125         estimate D2E/DX2                !
 ! D37   D(11,7,8,9)            23.9521         estimate D2E/DX2                !
 ! D38   D(11,7,8,25)          152.1137         estimate D2E/DX2                !
 ! D39   D(20,7,8,9)           -94.1493         estimate D2E/DX2                !
 ! D40   D(20,7,8,25)           34.0123         estimate D2E/DX2                !
 ! D41   D(2,7,11,10)         -119.8813         estimate D2E/DX2                !
 ! D42   D(2,7,11,17)          121.6585         estimate D2E/DX2                !
 ! D43   D(2,7,11,18)            2.5439         estimate D2E/DX2                !
 ! D44   D(8,7,11,10)            1.8437         estimate D2E/DX2                !
 ! D45   D(8,7,11,17)         -116.6164         estimate D2E/DX2                !
 ! D46   D(8,7,11,18)          124.269          estimate D2E/DX2                !
 ! D47   D(20,7,11,10)         121.3792         estimate D2E/DX2                !
 ! D48   D(20,7,11,17)           2.9191         estimate D2E/DX2                !
 ! D49   D(20,7,11,18)        -116.1955         estimate D2E/DX2                !
 ! D50   D(7,8,9,10)           -40.4958         estimate D2E/DX2                !
 ! D51   D(7,8,9,14)          -161.9854         estimate D2E/DX2                !
 ! D52   D(7,8,9,19)            78.0619         estimate D2E/DX2                !
 ! D53   D(25,8,9,10)         -168.3435         estimate D2E/DX2                !
 ! D54   D(25,8,9,14)           70.167          estimate D2E/DX2                !
 ! D55   D(25,8,9,19)          -49.7858         estimate D2E/DX2                !
 ! D56   D(7,8,25,34)           59.0766         estimate D2E/DX2                !
 ! D57   D(7,8,25,35)          -61.6268         estimate D2E/DX2                !
 ! D58   D(7,8,25,36)          177.7707         estimate D2E/DX2                !
 ! D59   D(9,8,25,34)         -176.5037         estimate D2E/DX2                !
 ! D60   D(9,8,25,35)           62.7928         estimate D2E/DX2                !
 ! D61   D(9,8,25,36)          -57.8096         estimate D2E/DX2                !
 ! D62   D(8,9,10,11)           39.9285         estimate D2E/DX2                !
 ! D63   D(8,9,10,15)          161.2045         estimate D2E/DX2                !
 ! D64   D(8,9,10,16)          -77.9585         estimate D2E/DX2                !
 ! D65   D(14,9,10,11)         158.9672         estimate D2E/DX2                !
 ! D66   D(14,9,10,15)         -79.7568         estimate D2E/DX2                !
 ! D67   D(14,9,10,16)          41.0803         estimate D2E/DX2                !
 ! D68   D(19,9,10,11)         -79.2895         estimate D2E/DX2                !
 ! D69   D(19,9,10,15)          41.9866         estimate D2E/DX2                !
 ! D70   D(19,9,10,16)         162.8236         estimate D2E/DX2                !
 ! D71   D(9,10,11,7)          -25.3145         estimate D2E/DX2                !
 ! D72   D(9,10,11,17)          92.1859         estimate D2E/DX2                !
 ! D73   D(9,10,11,18)        -147.5431         estimate D2E/DX2                !
 ! D74   D(15,10,11,7)        -146.9787         estimate D2E/DX2                !
 ! D75   D(15,10,11,17)        -29.4782         estimate D2E/DX2                !
 ! D76   D(15,10,11,18)         90.7928         estimate D2E/DX2                !
 ! D77   D(16,10,11,7)          91.8649         estimate D2E/DX2                !
 ! D78   D(16,10,11,17)       -150.6347         estimate D2E/DX2                !
 ! D79   D(16,10,11,18)        -30.3636         estimate D2E/DX2                !
 ! D80   D(26,12,13,29)        110.8113         estimate D2E/DX2                !
 ! D81   D(26,12,13,30)       -101.8152         estimate D2E/DX2                !
 ! D82   D(28,12,13,29)        -70.0356         estimate D2E/DX2                !
 ! D83   D(28,12,13,30)         77.3379         estimate D2E/DX2                !
 ! D84   D(27,13,31,32)         79.6043         estimate D2E/DX2                !
 ! D85   D(27,13,31,33)       -128.0463         estimate D2E/DX2                !
 ! D86   D(30,13,31,32)        -71.3086         estimate D2E/DX2                !
 ! D87   D(30,13,31,33)         81.0408         estimate D2E/DX2                !
 ! D88   D(29,31,37,38)       -165.9872         estimate D2E/DX2                !
 ! D89   D(29,31,37,39)        -13.3901         estimate D2E/DX2                !
 ! D90   D(33,31,37,38)         36.531          estimate D2E/DX2                !
 ! D91   D(33,31,37,39)       -170.8719         estimate D2E/DX2                !
 --------------------------------------------------------------------------------
 Trust Radius=3.00D-01 FncErr=1.00D-07 GrdErr=1.00D-06 EigMax=2.50D+02 EigMin=1.00D-04
 Number of steps in this run=    212 maximum allowed number of steps=    234.
 GradGradGradGradGradGradGradGradGradGradGradGradGradGradGradGradGradGrad

                          Input orientation:                          
 ---------------------------------------------------------------------
 Center     Atomic      Atomic             Coordinates (Angstroms)
 Number     Number       Type             X           Y           Z
 ---------------------------------------------------------------------
      1          6           0       -1.260918    2.236382   -0.699465
      2          6           0       -1.400772    0.898962   -0.314999
      3          6           0       -0.293021    0.276907    0.242892
      4          7           0        0.857715    0.947147    0.408586
      5          6           0        1.008065    2.231439    0.052799
      6          6           0       -0.055547    2.910807   -0.513855
      7          6           0       -2.714008    0.158191   -0.459220
      8          7           0       -2.518408   -1.285678   -0.422572
      9          6           0       -3.690711   -1.870138    0.223692
     10          6           0       -3.971055   -0.893692    1.357313
     11          6           0       -3.708613    0.470931    0.698716
     12          8           0        2.963221   -0.288786    1.442330
     13          8           0        4.772949   -1.467731   -0.089550
     14          1           0       -3.466565   -2.888417    0.563917
     15          1           0       -4.988988   -0.977743    1.751612
     16          1           0       -3.269009   -1.069912    2.182086
     17          1           0       -4.633763    0.883124    0.279925
     18          1           0       -3.309888    1.210054    1.402815
     19          1           0       -4.554451   -1.922775   -0.469187
     20          1           0       -3.164008    0.477760   -1.419337
     21          1           0       -0.319991   -0.764813    0.553883
     22          1           0        1.985055    2.673544    0.231439
     23          1           0        0.063061    3.950783   -0.808576
     24          1           0       -2.106400    2.756511   -1.151480
     25          6           0       -2.183481   -1.869696   -1.707668
     26          1           0        1.680867    0.444028    0.832646
     27          1           0        3.658882   -0.740205    0.905916
     28          1           0        3.201059   -0.391242    2.365648
     29          1           0        5.683529   -1.137712   -0.209906
     30          1           0        4.811383   -2.417915   -0.217454
     31          8           0        7.321503   -0.492046   -0.439239
     32          1           0        8.059139   -0.615077    0.164019
     33          1           0        7.711216   -0.321200   -1.300711
     34          1           0       -1.259476   -1.422992   -2.099961
     35          1           0       -2.983824   -1.721530   -2.458691
     36          1           0       -2.013993   -2.946610   -1.590254
     37          8           0        9.443394   -0.742569    1.273368
     38          1           0       10.319077   -0.333910    1.384466
     39          1           0        9.240753   -1.055234    2.172596
 ---------------------------------------------------------------------
                    Distance matrix (angstroms):
                    1          2          3          4          5
     1  C    0.000000
     2  C    1.398594   0.000000
     3  C    2.380001   1.387554   0.000000
     4  N    2.716341   2.372058   1.341965   0.000000
     5  C    2.390441   2.777277   2.355665   1.341117   0.000000
     6  C    1.393635   2.428311   2.750725   2.353913   1.383441
     7  C    2.547168   1.514639   2.523536   3.759354   4.291194
     8  N    3.750048   2.456285   2.799440   4.132135   5.003209
     9  C    4.860002   3.633445   4.019262   5.353453   6.239442
    10  C    4.623045   3.551984   4.017483   5.254121   6.021614
    11  C    3.326100   2.556748   3.451332   4.600251   5.075790
    12  O    5.367225   4.852153   3.515931   2.651285   3.479219
    13  O    7.106335   6.615655   5.368271   4.626968   5.280007
    14  H    5.720540   4.402753   4.493742   5.782307   6.818833
    15  H    5.498807   4.546229   5.089449   6.300227   7.010668
    16  H    4.823624   3.688117   3.798802   4.923787   5.807421
    17  H    3.763854   3.287311   4.383025   5.493358   5.805150
    18  H    3.109857   2.586965   3.364175   4.292613   4.637940
    19  H    5.310271   4.234580   4.848241   6.188576   6.962151
    20  H    2.689371   2.122728   3.323539   4.442509   4.759072
    21  H    3.385764   2.165916   1.087485   2.083005   3.315470
    22  H    3.405001   3.861549   3.306604   2.069474   1.087142
    23  H    2.168870   3.420532   3.837935   3.336883   2.142695
    24  H    1.090730   2.155945   3.373582   3.807044   3.380219
    25  C    4.327525   3.196502   3.462142   4.654246   5.486758
    26  H    3.770145   3.319722   2.066875   1.053819   2.062926
    27  H    5.970071   5.456886   4.134205   3.307723   4.072506
    28  H    6.017355   5.479721   4.142597   3.333562   4.127584
    29  H    7.736247   7.372002   6.158354   5.293170   5.768896
    30  H    7.666006   7.042873   5.790417   5.229442   6.012883
    31  O    9.009439   8.833370   7.683591   6.676125   6.893401
    32  H    9.784676   9.592272   8.400026   7.372982   7.604779
    33  H    9.348899   9.246013   8.173632   7.176411   7.299328
    34  H    3.918215   2.932154   3.051664   4.048810   4.809468
    35  H    4.661368   3.737439   4.304965   5.486396   6.153757
    36  H    5.312630   4.097650   4.088182   5.234827   6.216482
    37  O   11.284880  11.082124   9.843728   8.793001   9.027141
    38  H   12.043482  11.906428  10.690786   9.597438   9.749323
    39  H   11.374030  11.101759   9.817902   8.797533   9.114434
                    6          7          8          9         10
     6  C    0.000000
     7  C    3.827178   0.000000
     8  N    4.866673   1.457518   0.000000
     9  C    6.051101   2.352538   1.460666   0.000000
    10  C    5.771194   2.446716   2.330628   1.522214   0.000000
    11  C    4.557216   1.558160   2.399906   2.388843   1.537798
    12  O    4.814251   6.003883   5.875365   6.946982   6.961129
    13  O    6.531922   7.670385   7.301228   8.479009   8.881472
    14  H    6.813783   3.300753   2.107352   1.096762   2.205202
    15  H    6.677724   3.369519   3.305399   2.194637   1.094862
    16  H    5.782781   2.965259   2.719228   2.157198   1.097348
    17  H    5.069679   2.181129   3.109973   2.910835   2.181060
    18  H    4.142091   2.220059   3.191733   3.320081   2.205665
    19  H    6.603457   2.778084   2.133902   1.108557   2.176112
    20  H    4.049956   1.107452   2.126042   2.913689   3.200311
    21  H    3.836688   2.758556   2.461260   3.562657   3.740639
    22  H    2.185363   5.374496   6.031944   7.270449   7.033350
    23  H    1.087418   4.713588   5.850941   7.002821   6.665891
    24  H    2.153223   2.756751   4.127996   5.080061   4.805722
    25  C    5.367169   2.439756   1.450767   2.449876   3.679961
    26  H    3.303513   4.589722   4.711833   5.880480   5.831723
    27  H    5.398391   6.579091   6.342029   7.467175   7.644819
    28  H    5.458988   6.577976   6.425456   7.366926   7.260056
    29  H    7.029928   8.500597   8.206028   9.412801   9.784003
    30  H    7.222890   7.957781   7.419560   8.531135   9.051760
    31  O    8.124398  10.056574   9.871878  11.117890  11.441625
    32  H    8.873528  10.818829  10.615003  11.816840  12.092442
    33  H    8.449119  10.470111  10.312447  11.607194  11.994511
    34  H    4.769381   2.703301   2.101761   3.392670   4.425558
    35  H    5.815130   2.757542   2.133626   2.777940   4.027633
    36  H    6.269249   3.377728   2.092035   2.694545   4.090564
    37  O   10.333015  12.313231  12.093630  13.224142  13.415563
    38  H   11.034702  13.172040  12.998934  14.141483  14.301118
    39  H   10.457901  12.301023  12.044329  13.102864  13.237925
                   11         12         13         14         15
    11  C    0.000000
    12  O    6.755997   0.000000
    13  O    8.735941   2.647958   0.000000
    14  H    3.370753   6.990840   8.386594   0.000000
    15  H    2.201501   7.987988   9.946124   2.716444   0.000000
    16  H    2.183537   6.324404   8.366103   2.442224   1.775424
    17  H    1.095989   7.774235   9.703054   3.958222   2.398932
    18  H    1.095920   6.449805   8.644648   4.186378   2.779837
    19  H    2.794507   7.927119   9.346207   1.784170   2.452316
    20  H    2.186959   6.805855   8.279405   3.918671   3.937507
    21  H    3.609820   3.434446   5.181326   3.796146   4.824876
    22  H    6.122721   3.346411   5.002554   7.795262   8.017487
    23  H    5.348535   5.608159   7.215285   7.817714   7.507871
    24  H    3.348759   6.457766   8.142319   6.054572   5.539125
    25  C    3.687173   6.237813   7.153447   2.800749   4.542364
    26  H    5.391211   1.597862   3.750499   6.137871   6.881344
    27  H    7.469255   0.987655   1.661744   7.450085   8.692369
    28  H    7.159998   0.958947   3.107678   7.344340   8.233948
    29  H    9.572129   3.294030   0.975989   9.348154  10.852454
    30  H    9.042960   3.271663   0.959524   8.328045  10.099435
    31  O   11.130396   4.751446   2.751249  11.096456  12.513350
    32  H   11.829848   5.263927   3.404462  11.754567  13.149357
    33  H   11.620571   5.483501   3.378588  11.619390  13.078337
    34  H    4.173465   5.627203   6.358766   3.756988   5.379788
    35  H    3.911703   7.255209   8.114479   3.275794   4.722346
    36  H    4.448675   6.405720   7.106460   2.598808   4.888262
    37  O   13.220366   6.498239   4.918990  13.106297  14.442218
    38  H   14.067484   7.356222   5.849599  14.044313  15.325997
    39  H   13.122026   6.366171   5.024811  12.939256  14.236178
                   16         17         18         19         20
    16  H    0.000000
    17  H    3.048790   0.000000
    18  H    2.409809   1.766468   0.000000
    19  H    3.067407   2.905259   3.855898   0.000000
    20  H    3.921296   2.282979   2.919260   2.932351   0.000000
    21  H    3.382431   4.625946   3.682427   4.507571   3.677773
    22  H    6.739709   6.856873   5.616969   8.023850   5.836041
    23  H    6.727119   5.714501   4.876334   7.478990   4.780051
    24  H    5.206326   3.456308   3.219369   5.324866   2.526458
    25  C    4.116821   4.187174   4.519818   2.675472   2.560296
    26  H    5.349231   6.353964   5.081292   6.795272   5.342788
    27  H    7.052162   8.473194   7.253563   8.411196   7.310408
    28  H    6.508154   8.207234   6.773745   8.398203   7.456229
    29  H    9.266831  10.524744   9.433686  10.271309   9.074766
    30  H    8.536254  10.017736   9.041154   9.382291   8.569499
    31  O   10.925393  12.055566  10.923222  11.961863  10.575777
    32  H   11.515486  12.781541  11.581040  12.696995  11.386849
    33  H   11.543647  12.503892  11.450700  12.397704  10.905178
    34  H    4.743292   4.729465   4.838033   3.710265   2.775491
    35  H    4.694970   4.123898   4.859190   2.542734   2.439180
    36  H    4.396318   5.002762   5.283527   2.959553   3.616360
    37  O   12.749043  14.205497  12.902546  14.155177  12.949380
    38  H   13.631360  15.042892  13.716153  15.072570  13.795423
    39  H   12.509774  14.136535  12.776646  14.072643  13.005005
                   21         22         23         24         25
    21  H    0.000000
    22  H    4.152048   0.000000
    23  H    4.923400   2.531211   0.000000
    24  H    4.301075   4.319647   2.500086   0.000000
    25  C    3.131769   6.463579   6.303435   4.660159   0.000000
    26  H    2.354238   2.329103   4.196217   4.860836   5.171044
    27  H    3.994492   3.861386   6.154249   7.049708   6.499214
    28  H    3.977416   3.927649   6.227031   7.102652   6.911657
    29  H    6.063388   5.329087   7.605317   8.759825   8.041700
    30  H    5.445981   5.840598   7.965946   8.689235   7.172824
    31  O    7.710585   6.240869   8.518223   9.997288   9.687701
    32  H    8.389531   6.907537   9.259065  10.790567  10.487542
    33  H    8.254490   6.641152   8.774184  10.289808  10.023397
    34  H    2.891145   5.722239   5.682802   4.368654   1.098737
    35  H    4.133632   7.158438   6.646918   4.746738   1.107492
    36  H    3.496742   7.134219   7.245633   5.720721   1.096474
    37  O    9.789884   8.269357  10.693581  12.309394  12.055754
    38  H   10.680137   8.934773  11.329338  13.052747  12.970501
    39  H    9.701154   8.385525  10.870953  12.423235  12.092680
                   26         27         28         29         30
    26  H    0.000000
    27  H    2.306582   0.000000
    28  H    2.314898   1.569138   0.000000
    29  H    4.428331   2.345691   3.654224   0.000000
    30  H    4.369618   2.324850   3.656906   1.549069   0.000000
    31  O    5.857534   3.909708   4.985540   1.775510   3.171571
    32  H    6.500086   4.464116   5.338372   2.460994   3.734122
    33  H    6.442196   4.633161   5.812797   2.442962   3.738809
    34  H    4.553193   5.804459   6.395510   7.201320   6.433431
    35  H    6.105889   7.510601   7.955922   8.973343   8.140844
    36  H    5.569458   6.578799   7.026794   8.026787   6.982110
    37  O    7.865054   5.796171   6.346909   4.061136   5.146344
    38  H    8.690706   6.689715   7.185554   4.967537   6.102780
    39  H    7.822731   5.732452   6.079149   4.282168   5.214265
                   31         32         33         34         35
    31  O    0.000000
    32  H    0.960814   0.000000
    33  H    0.960832   1.533900   0.000000
    34  H    8.789645   9.623664   9.073371   0.000000
    35  H   10.573059  11.403941  10.848305   1.786390   0.000000
    36  H    9.721173  10.487207  10.077515   1.774967   1.787617
    37  O    2.738285   1.778502   3.131114  11.242497  13.012393
    38  H    3.512315   2.583770   3.743164  12.140438  13.916268
    39  H    3.289739   2.371567   3.865508  11.342169  13.089425
                   36         37         38         39
    36  H    0.000000
    37  O   12.013736   0.000000
    38  H   12.952983   0.972710   0.000000
    39  H   12.016890   0.973362   1.517972   0.000000
 Stoichiometry    C10H23N2O4(1+)
 Framework group  C1[X(C10H23N2O4)]
 Deg. of freedom   111
 Full point group                 C1      NOp   1
 Largest Abelian subgroup         C1      NOp   1
 Largest concise Abelian subgroup C1      NOp   1
                         Standard orientation:                         
 ---------------------------------------------------------------------
 Center     Atomic      Atomic             Coordinates (Angstroms)
 Number     Number       Type             X           Y           Z
 ---------------------------------------------------------------------
      1          6           0        2.112786    2.249576    0.613754
      2          6           0        2.187867    0.895980    0.269942
      3          6           0        1.031283    0.293626   -0.204179
      4          7           0       -0.104735    0.996751   -0.330461
      5          6           0       -0.193599    2.296672   -0.012808
      6          6           0        0.921270    2.958074    0.470434
      7          6           0        3.482580    0.116142    0.368425
      8          7           0        3.238874   -1.320634    0.393793
      9          6           0        4.353895   -1.966149   -0.294381
     10          6           0        4.601865   -1.038547   -1.475568
     11          6           0        4.420613    0.355629   -0.852477
     12          8           0       -2.303296   -0.200779   -1.203137
     13          8           0       -4.061784   -1.265095    0.466184
     14          1           0        4.078470   -2.987070   -0.585495
     15          1           0        5.592992   -1.170482   -1.921644
     16          1           0        3.849610   -1.218396   -2.253989
     17          1           0        5.380463    0.749905   -0.499738
     18          1           0        4.007238    1.083793   -1.559540
     19          1           0        5.252788   -2.024847    0.351718
     20          1           0        3.995473    0.452325    1.290581
     21          1           0        1.007329   -0.758287   -0.479004
     22          1           0       -1.164296    2.765565   -0.153400
     23          1           0        0.852813    4.010821    0.734090
     24          1           0        2.998460    2.755499    1.000167
     25          6           0        2.957511   -1.849298    1.715184
     26          1           0       -0.966019    0.507998   -0.690802
     27          1           0       -2.982128   -0.609902   -0.613842
     28          1           0       -2.595428   -0.326093   -2.107867
     29          1           0       -4.953142   -0.900358    0.624304
     30          1           0       -4.123585   -2.208572    0.629645
     31          8           0       -6.554148   -0.191867    0.919694
     32          1           0       -7.327855   -0.309917    0.362373
     33          1           0       -6.889513    0.021072    1.794557
     34          1           0        2.071677   -1.358396    2.141254
     35          1           0        3.802844   -1.703305    2.415638
     36          1           0        2.747169   -2.923149    1.645504
     37          8           0       -8.775204   -0.427414   -0.664488
     38          1           0       -9.642114    0.006890   -0.742028
     39          1           0       -8.633193   -0.776903   -1.561775
 ---------------------------------------------------------------------
 Rotational constants (GHZ):           0.7729452           0.1200550           0.1119001
 Standard basis: Aug-CC-pVDZ (5D, 7F)
 There are   607 symmetry adapted cartesian basis functions of A   symmetry.
 There are   575 symmetry adapted basis functions of A   symmetry.
   575 basis functions,   941 primitive gaussians,   607 cartesian basis functions
    64 alpha electrons       64 beta electrons
       nuclear repulsion energy      1096.2025342895 Hartrees.
 NAtoms=   39 NActive=   39 NUniq=   39 SFac= 1.00D+00 NAtFMM=   60 NAOKFM=F Big=F
 Integral buffers will be    131072 words long.
 Raffenetti 2 integral format.
 Two-electron integral symmetry is turned on.
 Nuclear repulsion after empirical dispersion term =     1096.1789875316 Hartrees.
 One-electron integrals computed using PRISM.
 NBasis=   575 RedAO= T EigKep=  2.46D-06  NBF=   575
 NBsUse=   575 1.00D-06 EigRej= -1.00D+00 NBFU=   575
 ExpMin= 2.97D-02 ExpMax= 1.17D+04 ExpMxC= 4.01D+02 IAcc=3 IRadAn=         5 AccDes= 0.00D+00
 Harris functional with IExCor= 4639 and IRadAn=       5 diagonalized for initial guess.
 HarFok:  IExCor= 4639 AccDes= 0.00D+00 IRadAn=         5 IDoV= 1 UseB2=F ITyADJ=14
 ICtDFT=  3500011 ScaDFX=  1.000000  1.000000  1.000000  1.000000
 FoFCou: FMM=F IPFlag=           0 FMFlag=      100000 FMFlg1=           0
         NFxFlg=           0 DoJE=T BraDBF=F KetDBF=T FulRan=T
         wScrn=  0.000000 ICntrl=       500 IOpCl=  0 I1Cent=   200000004 NGrid=           0
         NMat0=    1 NMatS0=      1 NMatT0=    0 NMatD0=    1 NMtDS0=    0 NMtDT0=    0
 Petite list used in FoFCou.
 Requested convergence on RMS density matrix=1.00D-08 within 128 cycles.
 Requested convergence on MAX density matrix=1.00D-06.
 Requested convergence on             energy=1.00D-06.
 No special actions if energy rises.
 SCF Done:  E(RwB97XD) =  -805.020663224     A.U. after   14 cycles
            NFock= 14  Conv=0.66D-08     -V/T= 2.0063

 **********************************************************************

            Population analysis using the SCF density.

 **********************************************************************

 Orbital symmetries:
       Occupied  (A) (A) (A) (A) (A) (A) (A) (A) (A) (A) (A) (A)
                 (A) (A) (A) (A) (A) (A) (A) (A) (A) (A) (A) (A)
                 (A) (A) (A) (A) (A) (A) (A) (A) (A) (A) (A) (A)
                 (A) (A) (A) (A) (A) (A) (A) (A) (A) (A) (A) (A)
                 (A) (A) (A) (A) (A) (A) (A) (A) (A) (A) (A) (A)
                 (A) (A) (A) (A)
       Virtual   (A) (A) (A) (A) (A) (A) (A) (A) (A) (A) (A) (A)
                 (A) (A) (A) (A) (A) (A) (A) (A) (A) (A) (A) (A)
                 (A) (A) (A) (A) (A) (A) (A) (A) (A) (A) (A) (A)
                 (A) (A) (A) (A) (A) (A) (A) (A) (A) (A) (A) (A)
                 (A) (A) (A) (A) (A) (A) (A) (A) (A) (A) (A) (A)
                 (A) (A) (A) (A) (A) (A) (A) (A) (A) (A) (A) (A)
                 (A) (A) (A) (A) (A) (A) (A) (A) (A) (A) (A) (A)
                 (A) (A) (A) (A) (A) (A) (A) (A) (A) (A) (A) (A)
                 (A) (A) (A) (A) (A) (A) (A) (A) (A) (A) (A) (A)
                 (A) (A) (A) (A) (A) (A) (A) (A) (A) (A) (A) (A)
                 (A) (A) (A) (A) (A) (A) (A) (A) (A) (A) (A) (A)
                 (A) (A) (A) (A) (A) (A) (A) (A) (A) (A) (A) (A)
                 (A) (A) (A) (A) (A) (A) (A) (A) (A) (A) (A) (A)
                 (A) (A) (A) (A) (A) (A) (A) (A) (A) (A) (A) (A)
                 (A) (A) (A) (A) (A) (A) (A) (A) (A) (A) (A) (A)
                 (A) (A) (A) (A) (A) (A) (A) (A) (A) (A) (A) (A)
                 (A) (A) (A) (A) (A) (A) (A) (A) (A) (A) (A) (A)
                 (A) (A) (A) (A) (A) (A) (A) (A) (A) (A) (A) (A)
                 (A) (A) (A) (A) (A) (A) (A) (A) (A) (A) (A) (A)
                 (A) (A) (A) (A) (A) (A) (A) (A) (A) (A) (A) (A)
                 (A) (A) (A) (A) (A) (A) (A) (A) (A) (A) (A) (A)
                 (A) (A) (A) (A) (A) (A) (A) (A) (A) (A) (A) (A)
                 (A) (A) (A) (A) (A) (A) (A) (A) (A) (A) (A) (A)
                 (A) (A) (A) (A) (A) (A) (A) (A) (A) (A) (A) (A)
                 (A) (A) (A) (A) (A) (A) (A) (A) (A) (A) (A) (A)
                 (A) (A) (A) (A) (A) (A) (A) (A) (A) (A) (A) (A)
                 (A) (A) (A) (A) (A) (A) (A) (A) (A) (A) (A) (A)
                 (A) (A) (A) (A) (A) (A) (A) (A) (A) (A) (A) (A)
                 (A) (A) (A) (A) (A) (A) (A) (A) (A) (A) (A) (A)
                 (A) (A) (A) (A) (A) (A) (A) (A) (A) (A) (A) (A)
                 (A) (A) (A) (A) (A) (A) (A) (A) (A) (A) (A) (A)
                 (A) (A) (A) (A) (A) (A) (A) (A) (A) (A) (A) (A)
                 (A) (A) (A) (A) (A) (A) (A) (A) (A) (A) (A) (A)
                 (A) (A) (A) (A) (A) (A) (A) (A) (A) (A) (A) (A)
                 (A) (A) (A) (A) (A) (A) (A) (A) (A) (A) (A) (A)
                 (A) (A) (A) (A) (A) (A) (A) (A) (A) (A) (A) (A)
                 (A) (A) (A) (A) (A) (A) (A) (A) (A) (A) (A) (A)
                 (A) (A) (A) (A) (A) (A) (A) (A) (A) (A) (A) (A)
                 (A) (A) (A) (A) (A) (A) (A) (A) (A) (A) (A) (A)
                 (A) (A) (A) (A) (A) (A) (A) (A) (A) (A) (A) (A)
                 (A) (A) (A) (A) (A) (A) (A) (A) (A) (A) (A) (A)
                 (A) (A) (A) (A) (A) (A) (A) (A) (A) (A) (A) (A)
                 (A) (A) (A) (A) (A) (A) (A)
 The electronic state is 1-A.
 Alpha  occ. eigenvalues --  -19.38786 -19.38468 -19.36796 -19.35770 -14.66581
 Alpha  occ. eigenvalues --  -14.54614 -10.50054 -10.49296 -10.46729 -10.45977
 Alpha  occ. eigenvalues --  -10.45896 -10.44631 -10.41063 -10.41059 -10.40086
 Alpha  occ. eigenvalues --  -10.38844  -1.24869  -1.22956  -1.22658  -1.21100
 Alpha  occ. eigenvalues --   -1.19877  -1.15038  -1.07132  -1.03424  -0.98773
 Alpha  occ. eigenvalues --   -0.94418  -0.89564  -0.88138  -0.86883  -0.81413
 Alpha  occ. eigenvalues --   -0.78100  -0.77172  -0.74253  -0.73334  -0.72659
 Alpha  occ. eigenvalues --   -0.72611  -0.72197  -0.71300  -0.69669  -0.68415
 Alpha  occ. eigenvalues --   -0.67947  -0.66597  -0.63465  -0.63101  -0.62578
 Alpha  occ. eigenvalues --   -0.61636  -0.61219  -0.60071  -0.59182  -0.57453
 Alpha  occ. eigenvalues --   -0.56475  -0.55743  -0.54926  -0.54692  -0.53876
 Alpha  occ. eigenvalues --   -0.52330  -0.51959  -0.51873  -0.51563  -0.50699
 Alpha  occ. eigenvalues --   -0.50338  -0.49127  -0.47929  -0.40570
 Alpha virt. eigenvalues --   -0.13094  -0.09534  -0.05968  -0.04853  -0.04168
 Alpha virt. eigenvalues --   -0.03807  -0.03464  -0.02702  -0.02339  -0.02179
 Alpha virt. eigenvalues --   -0.02066  -0.01369  -0.00907  -0.00540  -0.00149
 Alpha virt. eigenvalues --   -0.00054   0.00452   0.00552   0.01402   0.01475
 Alpha virt. eigenvalues --    0.02004   0.02443   0.02485   0.02887   0.03345
 Alpha virt. eigenvalues --    0.03670   0.04146   0.04345   0.04522   0.04813
 Alpha virt. eigenvalues --    0.05011   0.05249   0.05869   0.05912   0.06110
 Alpha virt. eigenvalues --    0.06581   0.06930   0.07245   0.07588   0.07956
 Alpha virt. eigenvalues --    0.08148   0.08417   0.08610   0.08946   0.09234
 Alpha virt. eigenvalues --    0.09447   0.09803   0.10056   0.10242   0.10485
 Alpha virt. eigenvalues --    0.10732   0.10850   0.11237   0.11632   0.11946
 Alpha virt. eigenvalues --    0.12010   0.12667   0.12833   0.13028   0.13503
 Alpha virt. eigenvalues --    0.13555   0.13629   0.13834   0.14168   0.14609
 Alpha virt. eigenvalues --    0.15298   0.15776   0.15895   0.15955   0.16122
 Alpha virt. eigenvalues --    0.16555   0.16773   0.16865   0.17310   0.17594
 Alpha virt. eigenvalues --    0.17772   0.18012   0.18297   0.18559   0.18698
 Alpha virt. eigenvalues --    0.18988   0.19508   0.19843   0.19961   0.20138
 Alpha virt. eigenvalues --    0.21184   0.21446   0.21538   0.22043   0.22204
 Alpha virt. eigenvalues --    0.22296   0.22690   0.22801   0.23130   0.23566
 Alpha virt. eigenvalues --    0.23952   0.24203   0.24556   0.24853   0.24942
 Alpha virt. eigenvalues --    0.25272   0.25766   0.26037   0.26564   0.26903
 Alpha virt. eigenvalues --    0.27018   0.27583   0.27909   0.28576   0.28969
 Alpha virt. eigenvalues --    0.29139   0.29553   0.29622   0.29888   0.30340
 Alpha virt. eigenvalues --    0.30485   0.30794   0.30996   0.31427   0.31768
 Alpha virt. eigenvalues --    0.32218   0.33094   0.33244   0.33760   0.33894
 Alpha virt. eigenvalues --    0.34123   0.34869   0.35038   0.35731   0.36083
 Alpha virt. eigenvalues --    0.36268   0.36448   0.36757   0.37034   0.37787
 Alpha virt. eigenvalues --    0.37811   0.38420   0.39259   0.39534   0.39782
 Alpha virt. eigenvalues --    0.40362   0.40571   0.41563   0.41911   0.42154
 Alpha virt. eigenvalues --    0.42511   0.42882   0.43414   0.43630   0.44149
 Alpha virt. eigenvalues --    0.44315   0.44810   0.45021   0.45121   0.45613
 Alpha virt. eigenvalues --    0.45894   0.46065   0.46721   0.46808   0.47238
 Alpha virt. eigenvalues --    0.47508   0.47608   0.48977   0.49307   0.49514
 Alpha virt. eigenvalues --    0.49771   0.50318   0.50423   0.50741   0.51027
 Alpha virt. eigenvalues --    0.51235   0.51358   0.51599   0.52003   0.52179
 Alpha virt. eigenvalues --    0.52558   0.53036   0.53357   0.53802   0.53880
 Alpha virt. eigenvalues --    0.54427   0.54648   0.55300   0.55782   0.56359
 Alpha virt. eigenvalues --    0.56606   0.57031   0.57423   0.57916   0.58196
 Alpha virt. eigenvalues --    0.58634   0.58682   0.59157   0.59610   0.59787
 Alpha virt. eigenvalues --    0.60389   0.60922   0.61345   0.62719   0.62821
 Alpha virt. eigenvalues --    0.63098   0.63382   0.64341   0.64485   0.65004
 Alpha virt. eigenvalues --    0.65268   0.65699   0.66068   0.66958   0.67592
 Alpha virt. eigenvalues --    0.68087   0.68183   0.68877   0.69204   0.69628
 Alpha virt. eigenvalues --    0.70203   0.70674   0.70867   0.71512   0.71741
 Alpha virt. eigenvalues --    0.71992   0.72288   0.72621   0.73958   0.74408
 Alpha virt. eigenvalues --    0.74658   0.75056   0.75422   0.76185   0.76468
 Alpha virt. eigenvalues --    0.76753   0.77549   0.77807   0.78679   0.78940
 Alpha virt. eigenvalues --    0.79411   0.79749   0.80182   0.80750   0.81227
 Alpha virt. eigenvalues --    0.81322   0.82313   0.82414   0.83012   0.85009
 Alpha virt. eigenvalues --    0.85367   0.86043   0.86325   0.86425   0.87008
 Alpha virt. eigenvalues --    0.87622   0.88324   0.88696   0.89664   0.90303
 Alpha virt. eigenvalues --    0.91394   0.92920   0.93108   0.94136   0.95345
 Alpha virt. eigenvalues --    0.95698   0.96304   0.96566   0.97375   0.97552
 Alpha virt. eigenvalues --    0.98722   0.98818   0.99288   1.00094   1.00787
 Alpha virt. eigenvalues --    1.01905   1.02266   1.03080   1.03616   1.04264
 Alpha virt. eigenvalues --    1.04374   1.05616   1.05758   1.07955   1.08140
 Alpha virt. eigenvalues --    1.09434   1.10119   1.10569   1.11511   1.11882
 Alpha virt. eigenvalues --    1.12210   1.13130   1.14444   1.15192   1.16816
 Alpha virt. eigenvalues --    1.17237   1.18067   1.18897   1.19483   1.20007
 Alpha virt. eigenvalues --    1.21086   1.22270   1.23408   1.23712   1.24692
 Alpha virt. eigenvalues --    1.26266   1.26805   1.28275   1.28409   1.30405
 Alpha virt. eigenvalues --    1.30918   1.32104   1.33255   1.33447   1.34595
 Alpha virt. eigenvalues --    1.35353   1.35635   1.36148   1.36851   1.37592
 Alpha virt. eigenvalues --    1.38284   1.39232   1.40568   1.40827   1.41848
 Alpha virt. eigenvalues --    1.42508   1.43080   1.44555   1.45985   1.46265
 Alpha virt. eigenvalues --    1.46521   1.47898   1.48969   1.50465   1.51101
 Alpha virt. eigenvalues --    1.51598   1.53209   1.53779   1.54883   1.56579
 Alpha virt. eigenvalues --    1.57980   1.58482   1.59300   1.60953   1.61988
 Alpha virt. eigenvalues --    1.62311   1.63532   1.64240   1.64459   1.64688
 Alpha virt. eigenvalues --    1.65990   1.67369   1.68439   1.69305   1.70071
 Alpha virt. eigenvalues --    1.71658   1.71888   1.72589   1.73472   1.73543
 Alpha virt. eigenvalues --    1.74086   1.75357   1.75447   1.76279   1.77480
 Alpha virt. eigenvalues --    1.77580   1.78241   1.78998   1.79143   1.80176
 Alpha virt. eigenvalues --    1.80995   1.81875   1.82693   1.83543   1.83769
 Alpha virt. eigenvalues --    1.84239   1.85620   1.86356   1.86981   1.87094
 Alpha virt. eigenvalues --    1.88233   1.89130   1.89448   1.90515   1.90902
 Alpha virt. eigenvalues --    1.92128   1.93217   1.93711   1.95013   1.95399
 Alpha virt. eigenvalues --    1.95467   1.96686   1.97744   1.97976   1.98374
 Alpha virt. eigenvalues --    1.98900   2.00866   2.02661   2.03876   2.05422
 Alpha virt. eigenvalues --    2.05748   2.06470   2.07195   2.08521   2.09323
 Alpha virt. eigenvalues --    2.09895   2.10226   2.11504   2.12221   2.12641
 Alpha virt. eigenvalues --    2.13263   2.14827   2.16463   2.17286   2.18525
 Alpha virt. eigenvalues --    2.19321   2.20012   2.20595   2.21586   2.22652
 Alpha virt. eigenvalues --    2.22915   2.24079   2.24695   2.25620   2.26970
 Alpha virt. eigenvalues --    2.27513   2.27997   2.28868   2.30325   2.30754
 Alpha virt. eigenvalues --    2.32322   2.34006   2.34603   2.35941   2.36863
 Alpha virt. eigenvalues --    2.37612   2.39858   2.41410   2.42403   2.43685
 Alpha virt. eigenvalues --    2.44188   2.44901   2.47599   2.48850   2.49146
 Alpha virt. eigenvalues --    2.50834   2.52230   2.53941   2.54528   2.56825
 Alpha virt. eigenvalues --    2.57033   2.57213   2.57690   2.58698   2.58970
 Alpha virt. eigenvalues --    2.61202   2.63259   2.64238   2.65105   2.66510
 Alpha virt. eigenvalues --    2.67528   2.68054   2.68842   2.69969   2.71070
 Alpha virt. eigenvalues --    2.71880   2.74015   2.74995   2.75055   2.77667
 Alpha virt. eigenvalues --    2.78857   2.80267   2.80925   2.81348   2.82603
 Alpha virt. eigenvalues --    2.84255   2.84867   2.85228   2.86050   2.87800
 Alpha virt. eigenvalues --    2.89953   2.91052   2.97567   3.02844   3.04378
 Alpha virt. eigenvalues --    3.11325   3.15342   3.16693   3.21837   3.25560
 Alpha virt. eigenvalues --    3.29679   3.32921   3.33833   3.34973   3.35524
 Alpha virt. eigenvalues --    3.40179   3.41982   3.43439   3.45598   3.47516
 Alpha virt. eigenvalues --    3.49117   3.51330   3.52193   3.56481   3.62443
 Alpha virt. eigenvalues --    3.65203   3.76973   3.77562   3.81439   3.82873
 Alpha virt. eigenvalues --    3.90711   4.04176   4.06181   4.09081   4.19369
 Alpha virt. eigenvalues --    4.54971
          Condensed to atoms (all electrons):
               1          2          3          4          5          6
     1  C   21.777641  -9.932472  -1.898751   0.173814   1.649871  -4.112863
     2  C   -9.932472  20.369760  -2.783644  -0.032054  -1.867719   1.831611
     3  C   -1.898751  -2.783644  15.713438  -1.570623  -0.621304  -1.010038
     4  N    0.173814  -0.032054  -1.570623   7.785645   0.404026   0.037350
     5  C    1.649871  -1.867719  -0.621304   0.404026   9.800198  -2.669022
     6  C   -4.112863   1.831611  -1.010038   0.037350  -2.669022  11.823617
     7  C   -0.205784  -4.452289  -3.011559   0.705181  -0.190319  -0.425550
     8  N   -0.326261   0.856825   0.903635  -0.145145  -0.018869   0.014312
     9  C    0.091672  -0.202501  -0.304440   0.055249  -0.002660  -0.010396
    10  C   -0.259051   0.451658   0.126150  -0.069629  -0.024141   0.056857
    11  C   -0.443491   0.421645  -0.412506   0.056255  -0.220955   0.355236
    12  O    0.055858  -0.117603   0.077162  -0.184952   0.055150  -0.060299
    13  O   -0.000871   0.003167  -0.008242   0.002072   0.007910   0.001437
    14  H    0.011756  -0.203184  -0.055586   0.010599  -0.001096  -0.000593
    15  H   -0.000077  -0.060913  -0.006899  -0.003856  -0.005570   0.008447
    16  H   -0.014889   0.151484   0.083116  -0.005588   0.014187  -0.010585
    17  H   -0.064580   0.245310   0.102560  -0.009983   0.014398  -0.020870
    18  H    0.149655  -0.535387  -0.103413   0.029401  -0.022716   0.038196
    19  H   -0.008963   0.208705   0.017577  -0.001090   0.002486   0.001658
    20  H   -0.063789   0.533831  -0.060442   0.006740  -0.040762   0.069604
    21  H   -0.106244  -0.274672  -0.957952   0.011352  -0.078588   0.062942
    22  H    0.015249   0.125735   0.194090  -0.053557  -0.852082   0.305884
    23  H    0.696193  -0.249152   0.015310  -0.032098   0.460734  -1.139309
    24  H   -2.244477   1.114982   0.252260  -0.093667  -0.203220   0.768052
    25  C   -0.089534  -0.038243   0.174455  -0.015378  -0.018898  -0.023948
    26  H    0.107730  -0.494798   0.469691  -0.074625  -0.267600  -0.219346
    27  H    0.008481  -0.008075   0.009324   0.003038  -0.004948  -0.004973
    28  H   -0.005285   0.008828  -0.001392   0.000561  -0.011169   0.011761
    29  H   -0.001144   0.000611   0.002139  -0.000060  -0.002226   0.000664
    30  H   -0.000263   0.000646  -0.002863   0.000897   0.000758   0.000632
    31  O    0.000013   0.000102   0.000000   0.000156   0.000611   0.000200
    32  H    0.000054   0.000011  -0.000128   0.000025   0.000102  -0.000033
    33  H    0.000006  -0.000023   0.000073  -0.000038  -0.000084   0.000039
    34  H   -0.175532   0.203204  -0.084267  -0.004487  -0.043984   0.049569
    35  H    0.043791   0.011002   0.080749  -0.006607   0.005510  -0.006542
    36  H    0.031499  -0.018858  -0.034086   0.009303   0.005982  -0.008027
    37  O   -0.000000   0.000001  -0.000001  -0.000001  -0.000010  -0.000003
    38  H   -0.000000   0.000000  -0.000001  -0.000001   0.000000   0.000001
    39  H   -0.000002   0.000001   0.000002   0.000009  -0.000011  -0.000006
               7          8          9         10         11         12
     1  C   -0.205784  -0.326261   0.091672  -0.259051  -0.443491   0.055858
     2  C   -4.452289   0.856825  -0.202501   0.451658   0.421645  -0.117603
     3  C   -3.011559   0.903635  -0.304440   0.126150  -0.412506   0.077162
     4  N    0.705181  -0.145145   0.055249  -0.069629   0.056255  -0.184952
     5  C   -0.190319  -0.018869  -0.002660  -0.024141  -0.220955   0.055150
     6  C   -0.425550   0.014312  -0.010396   0.056857   0.355236  -0.060299
     7  C   17.967089  -2.637930   0.053780  -0.968467  -0.247496   0.000895
     8  N   -2.637930   9.389554   0.034867   0.078789  -0.396685   0.002629
     9  C    0.053780   0.034867   5.473278   0.243787  -0.029412   0.000297
    10  C   -0.968467   0.078789   0.243787   5.635006   0.040332  -0.000587
    11  C   -0.247496  -0.396685  -0.029412   0.040332   6.060331  -0.001116
    12  O    0.000895   0.002629   0.000297  -0.000587  -0.001116   7.994417
    13  O    0.000307   0.000090  -0.000005  -0.000018   0.000039  -0.045310
    14  H    0.494656  -0.650971   0.023073  -0.059106   0.072474   0.000024
    15  H    0.070067  -0.004154   0.075576  -0.218429   0.252806   0.000003
    16  H   -0.146177   0.072856  -0.061007  -0.102925  -0.034964  -0.000331
    17  H    0.280005   0.141187  -0.191239   0.102406  -0.674952  -0.000061
    18  H   -0.087694   0.019297   0.154524   0.165605  -0.102693   0.000389
    19  H   -0.406702   0.389194  -0.299133   0.007595  -0.040104  -0.000038
    20  H   -1.507362  -0.197350  -0.045514   0.103231   0.364573   0.000117
    21  H    0.684830  -0.400093   0.028659   0.030732   0.039830  -0.001164
    22  H    0.005400   0.003210  -0.000753   0.000350   0.005612  -0.001558
    23  H   -0.007964  -0.002313  -0.000802   0.000117  -0.014664  -0.001349
    24  H   -0.469185   0.055872  -0.018417   0.025849   0.061788   0.001082
    25  C   -0.333053   0.462660  -0.237948  -0.006088  -0.019780  -0.000412
    26  H   -0.093040   0.018862   0.003720   0.006370  -0.037463   0.018989
    27  H   -0.000342   0.000655   0.000368   0.000159  -0.000243   0.317518
    28  H    0.001094  -0.000118  -0.000252  -0.000041   0.000887   0.364860
    29  H   -0.000029   0.000017  -0.000038  -0.000015   0.000030   0.001898
    30  H    0.000240  -0.000146   0.000021   0.000003   0.000004   0.001254
    31  O    0.000001   0.000000   0.000000   0.000000   0.000000   0.000556
    32  H   -0.000001   0.000000   0.000000   0.000000  -0.000000   0.000014
    33  H    0.000004  -0.000000   0.000000   0.000000   0.000000   0.000003
    34  H    0.092554  -0.075588  -0.131650  -0.026498   0.061153   0.000334
    35  H   -0.108331   0.158053   0.057747   0.044846  -0.048169   0.000061
    36  H   -0.015998  -0.336493   0.076042   0.005841  -0.004216  -0.000155
    37  O    0.000000  -0.000000   0.000000  -0.000000   0.000000   0.000088
    38  H    0.000000  -0.000000   0.000000  -0.000000   0.000000   0.000001
    39  H   -0.000000   0.000000   0.000000   0.000000  -0.000000   0.000019
              13         14         15         16         17         18
     1  C   -0.000871   0.011756  -0.000077  -0.014889  -0.064580   0.149655
     2  C    0.003167  -0.203184  -0.060913   0.151484   0.245310  -0.535387
     3  C   -0.008242  -0.055586  -0.006899   0.083116   0.102560  -0.103413
     4  N    0.002072   0.010599  -0.003856  -0.005588  -0.009983   0.029401
     5  C    0.007910  -0.001096  -0.005570   0.014187   0.014398  -0.022716
     6  C    0.001437  -0.000593   0.008447  -0.010585  -0.020870   0.038196
     7  C    0.000307   0.494656   0.070067  -0.146177   0.280005  -0.087694
     8  N    0.000090  -0.650971  -0.004154   0.072856   0.141187   0.019297
     9  C   -0.000005   0.023073   0.075576  -0.061007  -0.191239   0.154524
    10  C   -0.000018  -0.059106  -0.218429  -0.102925   0.102406   0.165605
    11  C    0.000039   0.072474   0.252806  -0.034964  -0.674952  -0.102693
    12  O   -0.045310   0.000024   0.000003  -0.000331  -0.000061   0.000389
    13  O    7.794522   0.000011  -0.000001  -0.000036   0.000002   0.000019
    14  H    0.000011   2.399700   0.013673  -0.205753  -0.019154   0.013438
    15  H   -0.000001   0.013673   1.812145  -0.396719  -0.222886   0.051450
    16  H   -0.000036  -0.205753  -0.396719   2.038063   0.159960  -0.247550
    17  H    0.000002  -0.019154  -0.222886   0.159960   2.169183  -0.450801
    18  H    0.000019   0.013438   0.051450  -0.247550  -0.450801   2.278381
    19  H   -0.000003  -0.384375  -0.147589   0.146691   0.065739  -0.017982
    20  H    0.000002   0.034933   0.027978  -0.038162  -0.252638   0.100594
    21  H    0.003207   0.016723   0.011262  -0.026517  -0.010948   0.022149
    22  H    0.002513  -0.000112  -0.000103   0.000366   0.001056  -0.000155
    23  H    0.000009  -0.000055   0.000089   0.000133  -0.001504  -0.002946
    24  H   -0.000039  -0.002167   0.001590   0.002809   0.000392  -0.010084
    25  C    0.000005  -0.023454   0.007464  -0.008722   0.000199   0.003041
    26  H   -0.017559  -0.002414  -0.000098   0.003301   0.000554   0.000661
    27  H   -0.004682  -0.000040   0.000012   0.000012  -0.000005   0.000015
    28  H    0.005311   0.000084   0.000011  -0.000113   0.000002   0.000042
    29  H    0.315601   0.000003   0.000001  -0.000022  -0.000001   0.000007
    30  H    0.362859   0.000004  -0.000002   0.000006   0.000001  -0.000001
    31  O   -0.036572   0.000000  -0.000000   0.000000   0.000000  -0.000000
    32  H    0.000616   0.000000  -0.000000   0.000000  -0.000000  -0.000000
    33  H    0.002038   0.000000  -0.000000   0.000000   0.000000   0.000000
    34  H    0.000082  -0.008937  -0.001036  -0.001839  -0.000242  -0.000317
    35  H    0.000010   0.019583   0.006353  -0.003773   0.000909   0.000486
    36  H   -0.000059   0.019171  -0.004096   0.006816   0.000565   0.000655
    37  O    0.000779  -0.000000  -0.000000   0.000000   0.000000  -0.000000
    38  H   -0.000097   0.000000  -0.000000  -0.000000   0.000000   0.000000
    39  H    0.000468  -0.000000   0.000000   0.000000  -0.000000  -0.000000
              19         20         21         22         23         24
     1  C   -0.008963  -0.063789  -0.106244   0.015249   0.696193  -2.244477
     2  C    0.208705   0.533831  -0.274672   0.125735  -0.249152   1.114982
     3  C    0.017577  -0.060442  -0.957952   0.194090   0.015310   0.252260
     4  N   -0.001090   0.006740   0.011352  -0.053557  -0.032098  -0.093667
     5  C    0.002486  -0.040762  -0.078588  -0.852082   0.460734  -0.203220
     6  C    0.001658   0.069604   0.062942   0.305884  -1.139309   0.768052
     7  C   -0.406702  -1.507362   0.684830   0.005400  -0.007964  -0.469185
     8  N    0.389194  -0.197350  -0.400093   0.003210  -0.002313   0.055872
     9  C   -0.299133  -0.045514   0.028659  -0.000753  -0.000802  -0.018417
    10  C    0.007595   0.103231   0.030732   0.000350   0.000117   0.025849
    11  C   -0.040104   0.364573   0.039830   0.005612  -0.014664   0.061788
    12  O   -0.000038   0.000117  -0.001164  -0.001558  -0.001349   0.001082
    13  O   -0.000003   0.000002   0.003207   0.002513   0.000009  -0.000039
    14  H   -0.384375   0.034933   0.016723  -0.000112  -0.000055  -0.002167
    15  H   -0.147589   0.027978   0.011262  -0.000103   0.000089   0.001590
    16  H    0.146691  -0.038162  -0.026517   0.000366   0.000133   0.002809
    17  H    0.065739  -0.252638  -0.010948   0.001056  -0.001504   0.000392
    18  H   -0.017982   0.100594   0.022149  -0.000155  -0.002946  -0.010084
    19  H    1.959648  -0.052868   0.002561   0.000103  -0.000028   0.000680
    20  H   -0.052868   2.447849   0.046587  -0.000828   0.000030  -0.042594
    21  H    0.002561   0.046587   3.024783   0.011911  -0.001287  -0.023265
    22  H    0.000103  -0.000828   0.011911   2.175216  -0.120253  -0.012756
    23  H   -0.000028   0.000030  -0.001287  -0.120253   2.078055  -0.131675
    24  H    0.000680  -0.042594  -0.023265  -0.012756  -0.131675   2.818002
    25  C    0.007137   0.086863  -0.073592  -0.000487   0.002749   0.006731
    26  H    0.000104  -0.007260  -0.074994  -0.155178   0.012332   0.012968
    27  H    0.000003  -0.000054   0.000109   0.000892  -0.000114   0.000117
    28  H   -0.000016   0.000081   0.003833   0.006677  -0.000224  -0.000154
    29  H   -0.000003   0.000005   0.000886  -0.000588   0.000028  -0.000018
    30  H    0.000001  -0.000002  -0.000638   0.000066   0.000004  -0.000009
    31  O    0.000000  -0.000000  -0.000055  -0.000063   0.000010  -0.000001
    32  H    0.000000  -0.000000   0.000001  -0.000041   0.000000   0.000001
    33  H    0.000000   0.000000  -0.000029   0.000034  -0.000003   0.000001
    34  H   -0.000010   0.019765   0.011065   0.000400   0.000427  -0.004471
    35  H    0.007788  -0.004111   0.001622   0.000097  -0.000093   0.003046
    36  H   -0.003504   0.015071  -0.001985  -0.000096   0.000084   0.001611
    37  O    0.000000   0.000000  -0.000006   0.000037  -0.000000  -0.000000
    38  H   -0.000000   0.000000   0.000000   0.000003  -0.000000  -0.000000
    39  H    0.000000  -0.000000  -0.000003   0.000000   0.000000  -0.000000
              25         26         27         28         29         30
     1  C   -0.089534   0.107730   0.008481  -0.005285  -0.001144  -0.000263
     2  C   -0.038243  -0.494798  -0.008075   0.008828   0.000611   0.000646
     3  C    0.174455   0.469691   0.009324  -0.001392   0.002139  -0.002863
     4  N   -0.015378  -0.074625   0.003038   0.000561  -0.000060   0.000897
     5  C   -0.018898  -0.267600  -0.004948  -0.011169  -0.002226   0.000758
     6  C   -0.023948  -0.219346  -0.004973   0.011761   0.000664   0.000632
     7  C   -0.333053  -0.093040  -0.000342   0.001094  -0.000029   0.000240
     8  N    0.462660   0.018862   0.000655  -0.000118   0.000017  -0.000146
     9  C   -0.237948   0.003720   0.000368  -0.000252  -0.000038   0.000021
    10  C   -0.006088   0.006370   0.000159  -0.000041  -0.000015   0.000003
    11  C   -0.019780  -0.037463  -0.000243   0.000887   0.000030   0.000004
    12  O   -0.000412   0.018989   0.317518   0.364860   0.001898   0.001254
    13  O    0.000005  -0.017559  -0.004682   0.005311   0.315601   0.362859
    14  H   -0.023454  -0.002414  -0.000040   0.000084   0.000003   0.000004
    15  H    0.007464  -0.000098   0.000012   0.000011   0.000001  -0.000002
    16  H   -0.008722   0.003301   0.000012  -0.000113  -0.000022   0.000006
    17  H    0.000199   0.000554  -0.000005   0.000002  -0.000001   0.000001
    18  H    0.003041   0.000661   0.000015   0.000042   0.000007  -0.000001
    19  H    0.007137   0.000104   0.000003  -0.000016  -0.000003   0.000001
    20  H    0.086863  -0.007260  -0.000054   0.000081   0.000005  -0.000002
    21  H   -0.073592  -0.074994   0.000109   0.003833   0.000886  -0.000638
    22  H   -0.000487  -0.155178   0.000892   0.006677  -0.000588   0.000066
    23  H    0.002749   0.012332  -0.000114  -0.000224   0.000028   0.000004
    24  H    0.006731   0.012968   0.000117  -0.000154  -0.000018  -0.000009
    25  C    4.577614  -0.002933  -0.000608   0.000436   0.000005   0.000039
    26  H   -0.002933   1.708590  -0.002220  -0.017417   0.000452   0.001933
    27  H   -0.000608  -0.002220   0.509552  -0.111905  -0.004036  -0.005057
    28  H    0.000436  -0.017417  -0.111905   0.611333   0.000091  -0.000374
    29  H    0.000005   0.000452  -0.004036   0.000091   0.533549  -0.108605
    30  H    0.000039   0.001933  -0.005057  -0.000374  -0.108605   0.617703
    31  O   -0.000001  -0.001501  -0.002045   0.000677   0.025921   0.000576
    32  H    0.000002   0.000169   0.000044  -0.000000  -0.003980  -0.000127
    33  H   -0.000001  -0.000037   0.000891  -0.000104  -0.005885  -0.000549
    34  H    0.340973  -0.015004  -0.000621   0.000365   0.000066  -0.000046
    35  H    0.051591   0.003130   0.000139  -0.000050   0.000001  -0.000012
    36  H    0.377500   0.002036  -0.000142  -0.000048  -0.000020   0.000048
    37  O   -0.000000   0.000044   0.000098  -0.000039  -0.001504   0.000245
    38  H    0.000000  -0.000007  -0.000056   0.000007   0.000796  -0.000063
    39  H   -0.000000   0.000061   0.000191  -0.000077  -0.000736   0.000052
              31         32         33         34         35         36
     1  C    0.000013   0.000054   0.000006  -0.175532   0.043791   0.031499
     2  C    0.000102   0.000011  -0.000023   0.203204   0.011002  -0.018858
     3  C    0.000000  -0.000128   0.000073  -0.084267   0.080749  -0.034086
     4  N    0.000156   0.000025  -0.000038  -0.004487  -0.006607   0.009303
     5  C    0.000611   0.000102  -0.000084  -0.043984   0.005510   0.005982
     6  C    0.000200  -0.000033   0.000039   0.049569  -0.006542  -0.008027
     7  C    0.000001  -0.000001   0.000004   0.092554  -0.108331  -0.015998
     8  N    0.000000   0.000000  -0.000000  -0.075588   0.158053  -0.336493
     9  C    0.000000   0.000000   0.000000  -0.131650   0.057747   0.076042
    10  C    0.000000   0.000000   0.000000  -0.026498   0.044846   0.005841
    11  C    0.000000  -0.000000   0.000000   0.061153  -0.048169  -0.004216
    12  O    0.000556   0.000014   0.000003   0.000334   0.000061  -0.000155
    13  O   -0.036572   0.000616   0.002038   0.000082   0.000010  -0.000059
    14  H    0.000000   0.000000   0.000000  -0.008937   0.019583   0.019171
    15  H   -0.000000  -0.000000  -0.000000  -0.001036   0.006353  -0.004096
    16  H    0.000000   0.000000   0.000000  -0.001839  -0.003773   0.006816
    17  H    0.000000  -0.000000   0.000000  -0.000242   0.000909   0.000565
    18  H   -0.000000  -0.000000   0.000000  -0.000317   0.000486   0.000655
    19  H    0.000000   0.000000   0.000000  -0.000010   0.007788  -0.003504
    20  H   -0.000000  -0.000000   0.000000   0.019765  -0.004111   0.015071
    21  H   -0.000055   0.000001  -0.000029   0.011065   0.001622  -0.001985
    22  H   -0.000063  -0.000041   0.000034   0.000400   0.000097  -0.000096
    23  H    0.000010   0.000000  -0.000003   0.000427  -0.000093   0.000084
    24  H   -0.000001   0.000001   0.000001  -0.004471   0.003046   0.001611
    25  C   -0.000001   0.000002  -0.000001   0.340973   0.051591   0.377500
    26  H   -0.001501   0.000169  -0.000037  -0.015004   0.003130   0.002036
    27  H   -0.002045   0.000044   0.000891  -0.000621   0.000139  -0.000142
    28  H    0.000677  -0.000000  -0.000104   0.000365  -0.000050  -0.000048
    29  H    0.025921  -0.003980  -0.005885   0.000066   0.000001  -0.000020
    30  H    0.000576  -0.000127  -0.000549  -0.000046  -0.000012   0.000048
    31  O    7.671826   0.327898   0.375430   0.000017  -0.000000  -0.000002
    32  H    0.327898   0.564179  -0.102678  -0.000002   0.000000   0.000000
    33  H    0.375430  -0.102678   0.613323   0.000003  -0.000000  -0.000000
    34  H    0.000017  -0.000002   0.000003   1.995805  -0.417770  -0.496864
    35  H   -0.000000   0.000000  -0.000000  -0.417770   1.576993  -0.310226
    36  H   -0.000002   0.000000  -0.000000  -0.496864  -0.310226   1.898993
    37  O   -0.038574   0.006758   0.000609   0.000000  -0.000000   0.000000
    38  H    0.001207  -0.001791  -0.000415  -0.000000   0.000000  -0.000000
    39  H    0.001876  -0.003674  -0.000312   0.000000  -0.000000   0.000000
              37         38         39
     1  C   -0.000000  -0.000000  -0.000002
     2  C    0.000001   0.000000   0.000001
     3  C   -0.000001  -0.000001   0.000002
     4  N   -0.000001  -0.000001   0.000009
     5  C   -0.000010   0.000000  -0.000011
     6  C   -0.000003   0.000001  -0.000006
     7  C    0.000000   0.000000  -0.000000
     8  N   -0.000000  -0.000000   0.000000
     9  C    0.000000   0.000000   0.000000
    10  C   -0.000000  -0.000000   0.000000
    11  C    0.000000   0.000000  -0.000000
    12  O    0.000088   0.000001   0.000019
    13  O    0.000779  -0.000097   0.000468
    14  H   -0.000000   0.000000  -0.000000
    15  H   -0.000000  -0.000000   0.000000
    16  H    0.000000  -0.000000   0.000000
    17  H    0.000000   0.000000  -0.000000
    18  H   -0.000000   0.000000  -0.000000
    19  H    0.000000  -0.000000   0.000000
    20  H    0.000000   0.000000  -0.000000
    21  H   -0.000006   0.000000  -0.000003
    22  H    0.000037   0.000003   0.000000
    23  H   -0.000000  -0.000000   0.000000
    24  H   -0.000000  -0.000000  -0.000000
    25  C   -0.000000   0.000000  -0.000000
    26  H    0.000044  -0.000007   0.000061
    27  H    0.000098  -0.000056   0.000191
    28  H   -0.000039   0.000007  -0.000077
    29  H   -0.001504   0.000796  -0.000736
    30  H    0.000245  -0.000063   0.000052
    31  O   -0.038574   0.001207   0.001876
    32  H    0.006758  -0.001791  -0.003674
    33  H    0.000609  -0.000415  -0.000312
    34  H    0.000000  -0.000000   0.000000
    35  H   -0.000000   0.000000  -0.000000
    36  H    0.000000  -0.000000   0.000000
    37  O    7.659063   0.351242   0.352159
    38  H    0.351242   0.550495  -0.070472
    39  H    0.352159  -0.070472   0.578650
 Mulliken charges:
               1
     1  C    1.141041
     2  C    0.732468
     3  C    0.706405
     4  N    0.011768
     5  C    0.746030
     6  C    0.284333
     7  C    0.959172
     8  N   -0.410447
     9  C    1.163504
    10  C    0.609311
    11  C    0.935916
    12  O   -0.478686
    13  O   -0.389583
    14  H   -0.512909
    15  H   -0.266497
    16  H   -0.374126
    17  H   -0.364562
    18  H   -0.446265
    19  H   -0.455262
    20  H   -0.544118
    21  H   -0.983011
    22  H   -0.656292
    23  H   -0.560470
    24  H   -0.871634
    25  C    0.793620
    26  H    0.111797
    27  H    0.298550
    28  H    0.131837
    29  H    0.246139
    30  H    0.130765
    31  O   -0.328266
    32  H    0.212580
    33  H    0.117703
    34  H   -0.286619
    35  H   -0.167821
    36  H   -0.216343
    37  O   -0.330984
    38  H    0.169151
    39  H    0.141805
 Sum of Mulliken charges =   1.00000
 Mulliken charges with hydrogens summed into heavy atoms:
               1
     1  C    0.269407
     2  C    0.732468
     3  C   -0.276606
     4  N    0.123564
     5  C    0.089738
     6  C   -0.276137
     7  C    0.415053
     8  N   -0.410447
     9  C    0.195333
    10  C   -0.031312
    11  C    0.125089
    12  O   -0.048299
    13  O   -0.012679
    25  C    0.122837
    31  O    0.002017
    37  O   -0.020028
 Electronic spatial extent (au):  <R**2>=           9581.1261
 Charge=              1.0000 electrons
 Dipole moment (field-independent basis, Debye):
    X=             -5.4435    Y=              2.3808    Z=             -1.3682  Tot=              6.0968
 Quadrupole moment (field-independent basis, Debye-Ang):
   XX=             32.5745   YY=            -73.7683   ZZ=            -84.9660
   XY=              6.3067   XZ=             13.7259   YZ=              3.7012
 Traceless Quadrupole moment (field-independent basis, Debye-Ang):
   XX=             74.6277   YY=            -31.7150   ZZ=            -42.9127
   XY=              6.3067   XZ=             13.7259   YZ=              3.7012
 Octapole moment (field-independent basis, Debye-Ang**2):
  XXX=           -937.1067  YYY=             22.0718  ZZZ=            -15.6360  XYY=            -22.4200
  XXY=            -30.3940  XXZ=           -103.6117  XZZ=            -90.3620  YZZ=            -11.8572
  YYZ=             14.0446  XYZ=             -6.3249
 Hexadecapole moment (field-independent basis, Debye-Ang**3):
 XXXX=            -70.6502 YYYY=          -1113.0184 ZZZZ=           -513.9259 XXXY=             13.1818
 XXXZ=            960.1890 YYYX=             98.4293 YYYZ=             28.5525 ZZZX=             44.6865
 ZZZY=              8.5217 XXYY=          -1725.1788 XXZZ=          -1201.2650 YYZZ=           -316.4216
 XXYZ=            134.6204 YYXZ=             26.8637 ZZXY=             33.4627
 N-N= 1.096178987532D+03 E-N=-4.057351224578D+03  KE= 7.999812478379D+02
 Calling FoFJK, ICntrl=      2127 FMM=F ISym2X=0 I1Cent= 0 IOpClX= 0 NMat=1 NMatS=1 NMatT=0.
 ***** Axes restored to original set *****
 -------------------------------------------------------------------
 Center     Atomic                   Forces (Hartrees/Bohr)
 Number     Number              X              Y              Z
 -------------------------------------------------------------------
      1        6          -0.000002317    0.000038511   -0.000018884
[...]
 -0.00035951,0.00062170,-0.00007219,-0.00002337,0.00000683,0.00012536,0
 .00006395,0.00003963,0.00002694,-0.00012693,0.00005321,-0.00010974,-0.
 00002806,-0.00005372,-0.00267285,0.00440722,-0.00369064,-0.01083257,-0
 .00021963,-0.01645459,-0.00074184,-0.00027353,0.00082847,-0.00005523,0
 .00011787,0.00012846,0.00005107,0.00018495,0.00019751,0.00001524,0.000
 02151,0.00000485,0.00002603,0.00001465,-0.00000423,0.00031641,-0.00009
 943,-0.00004699,0.00006352,-0.00001533,0.00006701,-0.00002300,-0.00007
 289,0.00005030,0.00004600,-0.00002757,0.00001694,-0.00004986,0.0000116
 2,0.00006770,0.00034571,-0.00001788,0.00054231,0.00072135,0.00019891,0
 .00172160,0.00012884,-0.00003588,-0.00000133,0.00000561,-0.00001092,-0
 .00001178,-0.00000257,-0.00000270,-0.00001111,-0.00000176,-0.00001913,
 0.00001146,0.03202848,-0.05807278,0.02815855,0.00001309,0.00000194,0.0
 0000998,-0.00001557,-0.00000720,0.00000413,-0.00000466,-0.00000753,-0.
 00000515,-0.00002003,-0.00001216,-0.00000025,-0.00001368,-0.00000529,0
 .00000132,0.00001360,0.00000699,0.00000210,-0.00000556,0.00000067,-0.0
 0000403,-0.00000123,-0.00000147,0.00000082,-0.00886211,0.00186500,-0.0
 0722793,-0.03390088,0.05594972,-0.00020276,0.00000867,-0.00005714,0.00
 001094,-0.00044216,0.00036776,-0.00004799,0.00011903,0.00002955,-0.000
 14851,-0.00015543,0.00005339,-0.00002393,-0.00005016,-0.00005473,-0.00
 003598,-0.00005691,0.00004354,-0.00001214,0.00520873,-0.00000727,-0.01
 682339,-0.00607315,-0.03739605,-0.00499583,-0.00122886,0.00177696,0.00
 042305,0.00005725,0.00034448,0.00000345,0.00038473,0.00042320,-0.00010
 339,0.00006336,0.00001872,-0.00002132,0.00001830,0.00004173,0.00029738
 ,0.00021225,-0.00008951,0.00018406,-0.00018368,-0.00003180,0.00008928,
 0.00021291,0.00029667,0.00007935,-0.00007930,-0.00003044,-0.00000843,-
 0.00001715,0.00007458,0.00196806,0.00040453,0.00042821,0.00036045,-0.0
 0178512,0.00101251,0.00045986,0.00006113,-0.00006527,-0.00000160,-0.00
 001733,-0.00000064,-0.00002006,-0.00001390,-0.00001560,0.00003056,-0.0
 0000064,-0.00000287,-0.11345396,0.02868546,-0.14505647,0.00012926,-0.0
 0008546,0.00005247,0.00005056,-0.00002968,-0.00006302,0.00001290,0.000
 00109,0.00000009,0.00000744,0.00000065,-0.00000240,-0.00000965,-0.0000
 0461,-0.00001149,-0.00000849,0.00000440,0.00000519,0.00000449,-0.00000
 274,-0.00000004,0.00000121,-0.00000281,-0.00000361,0.00818650,-0.00177
 234,0.00835690,0.12786939,-0.02439830,0.17223363,0.00006725,0.00018910
 ,-0.00004106,0.00005684,0.00005154,0.00013722,0.00010443,-0.00002726,0
 .00011545,0.00001737,0.00009437,-0.00006756,0.00003053,-0.00006961,0.0
 0005253,-0.00006621,0.00001037,-0.00003909,0.00001944,0.00042481,0.000
 97376,-0.00095314,0.00673983,0.00028913,0.00037428,0.00116850,-0.00054
 997,-0.00002274,0.00003877,0.00000275,0.00011932,0.00024330,0.00021006
 ,-0.00001600,0.00007055,0.00000212,0.00003307,0.00003313,0.00000722,0.
 00016011,-0.00014373,0.00025793,-0.00000350,-0.00000888,0.00000526,-0.
 00001040,-0.00004740,-0.00003920,0.00002047,-0.00000735,-0.00001576,-0
 .00007812,0.00005294,0.00010538,-0.00015189,0.00008694,-0.00018627,-0.
 00004606,-0.00033552,0.00016973,-0.00002741,-0.00012658,-0.00000926,0.
 00000180,0.00000410,0.00000880,-0.00000289,0.00000028,-0.00000216,-0.0
 0001106,0.00000104,0.00000358,-0.04931891,0.02182689,-0.00398568,0.000
 06959,-0.00007407,0.00002908,-0.00000571,-0.00002348,-0.00001325,-0.00
 000521,-0.00001077,-0.00000695,-0.00002777,-0.00001965,-0.00000046,-0.
 00002591,-0.00001179,-0.00000358,0.00001584,0.00001394,0.00000410,-0.0
 0000570,-0.00000053,-0.00000527,-0.00000009,-0.00000421,0.00000027,0.0
 0355673,-0.02726419,0.00397755,-0.00176128,0.02337957,-0.00424954,0.04
 789072,-0.00012398,0.00000302,-0.00000244,0.00050596,0.00022934,0.0000
 4783,-0.00001708,-0.00008076,0.00009395,-0.00015942,0.00006184,-0.0000
 7336,-0.00002926,-0.00004521,0.00001531,-0.00000854,0.00000362,-0.0000
 0635,0.00159806,0.00081045,-0.00285705,-0.00011947,-0.01626295,-0.0005
 2701,-0.00077733,0.00059595,0.00090708,-0.00006238,0.00005649,-0.00014
 786,-0.00033996,-0.00065547,0.00019320,-0.00008169,0.00011747,-0.00001
 383,0.00000460,0.00003664,0.00002304,0.00051155,0.00015367,-0.00053368
 ,0.00000995,0.00006497,0.00000181,-0.00000689,0.00001528,-0.00000197,0
 .00007984,-0.00004199,-0.00011938,0.00020710,0.00001851,-0.00020891,0.
 00027199,-0.00009886,0.00009293,-0.00021398,0.00035902,0.00001434,0.00
 005441,-0.00015295,-0.00003314,0.00000421,0.00000158,0.00000009,-0.000
 01365,-0.00000513,-0.00000592,0.00000580,0.00003617,-0.00000228,0.0236
 3259,-0.30948347,0.04414807,0.00016233,-0.00015138,0.00008040,0.000024
 99,-0.00003796,-0.00004217,-0.00000796,-0.00001340,0.00000161,-0.00001
 002,-0.00001267,-0.00000037,-0.00002116,-0.00001339,-0.00000530,-0.000
 00014,0.00001524,0.00000193,0.00000251,-0.00000453,0.00000049,0.000002
 64,-0.00000604,-0.00000098,0.00170496,-0.00813495,0.00158996,-0.000535
 29,-0.00354289,0.00095691,-0.02625430,0.33616445,-0.00019965,-0.000103
 59,-0.00000320,0.00039393,0.00008278,0.00003617,-0.00002240,-0.0000128
 7,0.00000812,-0.00006579,-0.00000780,-0.00000923,-0.00002972,0.0000245
 2,-0.00004056,0.00003081,-0.00002998,0.00005226,0.00244857,-0.00126657
 ,-0.00483779,0.00157043,-0.03604752,0.00191323,-0.00019633,-0.00122007
 ,0.00159809,-0.00046360,-0.00010983,0.00028037,0.00000222,-0.00158264,
 0.00000393,0.00001869,0.00001073,-0.00000900,0.00001037,-0.00000410,-0
 .00001052,0.00002287,0.00047548,-0.00018743,-0.00001651,0.00009058,0.0
 0001353,-0.00000290,0.00002216,-0.00002034,0.00014920,-0.00014025,-0.0
 0019857,0.00029032,-0.00017384,-0.00023082,0.00010980,0.00029231,-0.00
 033677,0.00029691,-0.00034043,0.00012414,0.00003797,-0.00001887,0.0000
 2078,-0.00000026,-0.00000087,-0.00000308,-0.00001064,-0.00001040,-0.00
 001007,0.00001433,-0.00000076,-0.00001942,-0.00427239,0.05376112,-0.05
 649506,-0.00000166,-0.00001913,0.00000280,-0.00001804,0.00000485,0.000
 01269,-0.00000753,-0.00000532,0.00000003,-0.00000416,-0.00000144,0.000
 00013,0.00000057,0.00000329,0.00000615,0.00000437,-0.00000151,-0.00000
 095,-0.00000192,0.00000121,-0.00000036,-0.00000084,0.00000150,0.000000
 74,-0.00242698,0.01049577,-0.00198811,-0.00052213,0.01941768,-0.002670
 24,0.00286130,-0.04358607,0.06299778,0.00001232,-0.00000335,0.00000263
 ,0.00003282,0.00001699,-0.00000781,0.00004724,0.00004217,-0.00000388,-
 0.00017876,0.00013036,-0.00009408,0.00003460,-0.00007646,0.00003990,-0
 .00006243,-0.00000801,-0.00001088,0.00002624,0.00003668,0.00002506,-0.
 00006454,-0.00002287,-0.00001112,0.00004338,0.00001078,-0.00001469,-0.
 00000291,0.00000758,0.00000412,0.00000616,-0.00001838,-0.00001078,-0.0
 0060398,0.00014424,0.00016841,-0.00132008,-0.00060711,-0.00006202,0.00
 000209,-0.00000501,0.00000188,-0.00000816,-0.00000370,0.00000323,0.000
 00295,0.00000033,-0.00000546,-0.00001021,0.00000017,0.00000057,0.00000
 633,-0.00000536,-0.00000548,-0.00001591,0.00000039,-0.00000825,-0.0000
 1238,-0.00000799,-0.00000480,0.00003246,0.00000853,0.00000200,0.000029
 66,-0.00003436,0.00000016,0.00000304,-0.00000518,-0.00000101,-0.000003
 53,-0.00000047,-0.00000208,0.00002284,0.00000790,0.00001893,0.00038699
 ,-0.00022905,0.00016347,0.00057838,-0.00011983,-0.00037270,0.00012683,
 0.00003120,-0.00007071,0.00171487,0.00105441,0.00011655,0.00006561,0.0
 0016340,0.00014982,-0.00746176,0.00330065,-0.00916740,-0.00155061,0.00
 086470,0.00056459,-0.00172641,-0.00001750,-0.00015511,-0.00000652,-0.0
 0000534,0.00001108,-0.00001537,0.00000550,-0.00000507,0.00000559,-0.00
 000090,0.00000202,0.40126018,-0.00001859,-0.00001705,0.00000114,-0.000
 03128,0.00002770,-0.00001442,0.00002755,-0.00001620,0.00001284,-0.0000
 0273,-0.00001079,0.00000419,-0.00005511,0.00000217,-0.00001763,0.00004
 622,0.00000411,0.00001201,-0.00001057,-0.00003214,-0.00000700,0.000012
 16,0.00002866,0.00000114,-0.00001009,-0.00000786,0.00000987,0.00000454
 ,-0.00000449,0.00000168,-0.00000177,0.00000626,0.00000521,0.00007638,0
 .00015868,-0.00005935,0.00056758,0.00071898,-0.00020075,0.00000099,0.0
 0000592,-0.00000125,0.00000201,0.00000155,-0.00000135,-0.00000190,-0.0
 0000116,-0.00000044,0.00000217,0.00000073,-0.00000238,-0.00000057,0.00
 000329,0.00000439,0.00000448,0.00000057,0.00000053,0.00000331,0.000005
 97,-0.00000251,-0.00000186,-0.00000960,0.00000134,-0.00002008,-0.00000
 307,-0.00000082,-0.00000855,0.00000237,-0.00000277,0.00000013,-0.00000
 178,0.00000053,-0.00000009,-0.00001122,-0.00000825,-0.00000869,-0.0000
 2950,0.00000648,-0.00006920,-0.00008587,0.00007173,-0.00001012,-0.0001
 1911,0.00002436,-0.00109122,-0.00101527,0.00018138,0.00017903,-0.00013
 178,0.00013602,0.00362425,0.00385089,0.00395978,0.00033065,-0.00908526
 ,-0.00278317,0.00001893,-0.00013224,-0.00042364,0.00000330,-0.00000386
 ,-0.00000167,0.00000077,0.00000117,0.00000239,0.00000294,0.00000610,-0
 .00000104,-0.12380848,0.54869338,0.00001222,0.00000596,0.00000037,0.00
 002588,-0.00000728,0.00000543,-0.00000054,0.00001708,-0.00001246,-0.00
 003659,0.00003738,-0.00000953,0.00003077,-0.00002202,0.00001565,-0.000
 03628,-0.00000110,-0.00000030,0.00000859,0.00001923,0.00000558,-0.0000
 3247,-0.00001165,0.00002081,0.00002288,0.00001249,-0.00001639,-0.00000
 984,0.00000642,-0.00000377,0.00000258,-0.00001147,-0.00000912,-0.00035
 284,0.00009928,0.00042867,-0.00142031,-0.00070886,0.00045344,-0.000000
 67,-0.00000487,-0.00000107,-0.00000536,-0.00000179,0.00000252,0.000005
 36,-0.00000109,0.00000113,-0.00000416,-0.00000069,0.00000272,0.0000030
 3,0.00000093,-0.00000317,-0.00000651,-0.00000091,0.00000060,-0.0000025
 4,-0.00000502,0.00000212,0.00001072,0.00000330,-0.00001161,0.00002144,
 -0.00001913,-0.00003055,0.00000689,-0.00000653,-0.00000792,0.00000075,
 -0.00000081,-0.00000468,0.00001755,0.00000005,-0.00001223,0.00008679,-
 0.00004349,-0.00000987,0.00057664,-0.00016119,-0.00060033,-0.00007185,
 0.00002053,-0.00013249,0.00201490,0.00125506,-0.00023071,0.00008797,0.
 00015156,-0.00007117,-0.00860044,0.00336275,-0.00309126,0.00047398,-0.
 00222150,-0.00669536,-0.00000122,-0.00047996,0.00069982,-0.00000782,-0
 .00000629,0.00000468,-0.00000281,0.00000162,0.00000242,0.00000313,0.00
 000035,-0.00000080,0.14124577,0.27884046,0.26103552,-0.00000433,0.0000
 0013,-0.00000095,-0.00000913,-0.00000328,0.00000146,-0.00000998,-0.000
 01093,-0.00000010,0.00004568,-0.00003254,0.00002892,-0.00001380,0.0000
 1827,-0.00001143,0.00001887,0.00000359,0.00000528,-0.00000793,-0.00001
 108,-0.00000822,0.00001570,0.00000790,0.00000875,-0.00001063,-0.000001
 51,0.00000207,-0.00000121,-0.00000147,-0.00000215,-0.00000190,0.000003
 93,0.00000175,0.00008224,0.00002839,0.00008877,-0.00006152,0.00000729,
 0.00010424,-0.00000081,0.00000118,-0.00000098,0.00000184,0.00000099,-0
 .00000065,0.00000010,-0.00000065,0.00000213,0.00000281,-0.00000013,0.0
 0000037,-0.00000154,0.00000254,0.00000156,0.00000439,-0.00000029,0.000
 00321,0.00000389,0.00000218,0.00000197,-0.00000775,-0.00000309,-0.0000
 0372,-0.00000720,0.00000399,-0.00001115,-0.00000100,0.00000050,-0.0000
 0237,0.00000149,-0.00000017,-0.00000035,-0.00000350,-0.00000343,-0.000
 01038,-0.00009759,0.00005326,-0.00005507,0.00001891,-0.00004234,-0.000
 08340,-0.00006827,-0.00003446,-0.00001966,0.00011017,0.00002118,-0.000
 07253,0.00001144,-0.00000381,-0.00001779,-0.00081157,0.00121801,-0.000
 62154,0.00130545,-0.00321523,0.00076872,-0.00019019,0.00008848,-0.0001
 0665,0.00000083,-0.00000007,-0.00000259,0.00000445,-0.00000139,0.00000
 260,-0.00000091,0.00000102,-0.00000080,-0.14432983,-0.15214971,-0.1747
 9062,0.13359618,0.00000757,0.00000851,-0.00000073,0.00001074,-0.000015
 81,0.00000830,-0.00002162,0.00000025,-0.00000490,0.00002888,-0.0000157
 9,0.00001120,0.00002187,0.00001098,0.00000211,-0.00001319,-0.00000025,
 -0.00000527,0.00000161,0.00000990,0.00000057,0.00000296,-0.00001039,-0
 .00000073,-0.00000092,0.00000175,-0.00000198,-0.00000110,0.00000093,-0
 .00000125,0.00000015,0.00000007,-0.00000047,0.00008154,-0.00009830,-0.
 00003038,0.00016368,-0.00001492,0.00002035,-0.00000055,-0.00000208,0.0
 0000036,0.00000026,-0.00000011,0.00000014,0.00000028,0.00000061,0.0000
 0072,0.00000037,-0.00000027,0.00000092,-0.00000075,-0.00000103,-0.0000
 0142,-0.00000009,-0.00000021,0.00000048,0.,-0.00000159,0.00000161,-0.0
 0000368,0.00000317,-0.00000023,0.00000445,0.00001037,0.00000477,0.0000
 0405,0.00000026,0.00000289,0.00000043,0.00000120,0.00000045,-0.0000035
 5,0.00000395,0.00000294,-0.00005786,0.00005087,-0.00002523,-0.00009831
 ,0.00006215,0.00006969,-0.00001073,0.00004579,0.00000406,-0.00014550,-
 0.00005473,-0.00002309,-0.00003516,0.00000246,-0.00003971,0.00203580,-
 0.00171405,0.00120244,-0.00303007,0.00296034,-0.00151852,0.00010615,0.
 00025746,0.00011954,-0.00000043,0.00000261,-0.00000062,0.00000140,-0.0
 0000104,-0.00000080,-0.00000189,-0.00000268,0.00000023,-0.10849335,-0.
 22876880,-0.20059290,0.13028100,0.24771572,-0.00000298,-0.00000236,0.0
 0000005,-0.00000588,0.00000419,-0.00000268,0.00000555,-0.00000117,0.00
 000406,-0.00000209,-0.00000111,-0.00000528,-0.00000756,-0.00000015,-0.
 00000160,0.00000701,-0.00000178,-0.00000056,-0.00000037,-0.00000282,0.
 00000081,0.00000556,0.00000111,-0.00000930,-0.00000416,-0.00000300,0.0
 0000461,0.00000335,-0.00000171,0.00000194,-0.00000020,0.00000253,0.000
 00243,0.00006099,-0.00002523,-0.00010764,0.00023473,0.00006466,-0.0000
 8373,0.00000041,0.00000114,0.00000065,0.00000131,0.00000033,-0.0000005
 3,-0.00000188,0.00000068,-0.00000094,0.00000048,0.00000023,-0.00000093
 ,-0.00000063,-0.00000114,0.00000062,0.00000077,0.00000030,-0.00000117,
 -0.00000032,0.00000089,-0.00000134,-0.00000084,0.00000016,0.00000434,-
 0.00000509,0.00000166,0.00001100,-0.00000265,0.00000160,0.00000316,-0.
 00000069,0.00000015,0.00000171,-0.00000385,0.00000151,0.00000666,0.000
 00276,-0.00000349,0.00001682,-0.00012284,0.00003945,0.00012771,0.00002
 029,0.00000742,0.00004389,-0.00029234,-0.00010798,0.00001518,-0.000030
 18,-0.00002037,0.00000706,-0.00000727,0.00085454,-0.00000119,-0.000055
 82,-0.00174114,-0.00068633,-0.00027713,-0.00017153,-0.00021832,0.00000
 221,0.00000176,-0.00000064,-0.00000065,-0.00000015,-0.00000149,-0.0000
 0074,-0.00000045,0.00000047,-0.14605900,-0.22271242,-0.22008541,0.1539
 8920,0.22455115,0.22506287,0.00000010,0.00000500,-0.00000138,-0.000002
 93,-0.00001073,0.00000516,-0.00001689,-0.00000606,-0.00000270,0.000046
 68,-0.00003013,0.00002450,0.00000220,0.00001897,-0.00000699,0.00000684
 ,0.00000034,0.00000133,-0.00000526,-0.00000293,-0.00000610,0.00001591,
 0.00000032,0.00000444,-0.00001044,-0.00000099,0.00000132,-0.00000088,-
 0.00000100,-0.00000175,-0.00000159,0.00000339,0.00000140,0.00011360,-0
 .00007797,-0.00000800,0.00008088,-0.00016779,0.00009168,-0.00000104,0.
 ,-0.00000035,0.00000190,0.00000065,-0.00000062,-0.00000016,0.00000006,
 0.00000187,0.00000237,-0.00000031,0.00000053,-0.00000151,0.00000104,0.
 00000059,0.00000373,-0.00000036,0.00000269,0.00000277,0.00000081,0.000
 00219,-0.00000838,0.00000005,-0.00000167,-0.00000236,0.00000653,-0.000
 00163,0.00000044,0.00000055,0.,0.00000082,0.00000022,0.00000023,-0.000
 00628,0.00000028,-0.00000489,-0.00009411,0.00006380,-0.00004536,-0.000
 10007,0.00005177,0.00005275,-0.00002608,0.00002632,0.00000401,0.000057
 65,0.00022220,-0.00007889,-0.00011236,0.00001782,-0.00009593,-0.000210
 47,-0.00027399,-0.00105515,0.00029832,0.00083249,0.00264043,-0.0002434
 0,0.00008498,-0.00018660,0.00000097,0.00000229,-0.00000273,0.00000458,
 -0.00000207,0.00000122,-0.00000247,-0.00000111,-0.00000045,-0.24706718
 ,0.27239324,0.04072505,0.01041616,-0.02083443,-0.00744946,0.23685797,0
 .00000716,0.00000701,-0.00000056,0.00001275,-0.00001149,0.00000594,-0.
 00001053,0.00000828,-0.00000524,-0.00000140,0.00000624,-0.00000313,0.0
 0001922,-0.00000271,0.00000774,-0.00001794,-0.00000071,-0.00000540,0.0
 0000451,0.00001471,0.00000251,-0.00000384,-0.00001372,-0.00000148,0.00
 000341,0.00000358,-0.00000412,-0.00000171,0.00000175,-0.00000043,0.000
 00055,-0.00000239,-0.00000206,-0.00003715,-0.00006286,0.00000722,-0.00
 017847,-0.00024310,0.00001904,-0.00000042,-0.00000270,0.00000078,-0.00
 000063,-0.00000058,0.00000046,0.00000061,0.00000063,0.00000018,-0.0000
 0072,-0.00000033,0.00000103,0.00000004,-0.00000170,-0.00000186,-0.0000
 0174,-0.00000025,-0.00000021,-0.00000136,-0.00000260,0.00000126,0.0000
 0097,0.00000472,0.00000012,0.00000680,0.00000118,-0.00000002,0.0000029
 9,-0.00000069,0.00000105,0.00000008,0.00000099,-0.00000014,-0.00000092
 ,0.00000602,0.00000429,0.00001057,0.00000651,0.00000173,0.00002708,0.0
 0003840,-0.00000975,0.00001829,0.00004461,-0.00000505,0.00036041,0.000
 30900,0.00002425,-0.00005881,0.00007491,-0.00003931,-0.00114798,0.0001
 4644,-0.00089726,0.00173688,-0.00068504,0.00156948,0.00015910,-0.00005
 117,0.00006411,-0.00000124,0.00000220,0.00000049,-0.00000009,-0.000000
 74,-0.00000129,-0.00000170,-0.00000311,0.00000068,0.22764673,-0.314031
 42,-0.07952591,0.02377175,-0.02044730,-0.00073749,-0.25232324,0.334887
 42,-0.00000088,-0.00000138,-0.00000007,-0.00000188,0.00000325,-0.00000
 227,0.00000589,0.00000166,0.00000262,-0.00001589,0.00000926,-0.0000111
 8,0.00000005,-0.00000500,0.00000241,-0.00000119,-0.00000113,-0.0000018
 6,0.00000209,0.00000129,0.00000246,0.00000076,-0.00000139,-0.00000994,
 -0.00000091,-0.00000275,0.00000309,0.00000255,-0.00000073,0.00000190,-
 0.00000003,0.00000036,0.00000084,-0.00000112,0.00000214,-0.00006696,-0
 .00002281,-0.00009410,-0.00012051,0.00000044,0.00000072,0.00000086,0.0
 0000060,-0.00000016,-0.00000029,-0.00000142,0.00000032,-0.00000124,-0.
 00000029,0.00000026,-0.00000062,0.,-0.00000129,-0.00000006,-0.00000049
 ,0.00000043,-0.00000146,-0.00000140,0.00000017,-0.00000142,0.00000161,
 0.00000061,0.00000415,0.00000017,-0.00000040,0.00000690,-0.00000120,0.
 00000101,0.00000240,-0.00000096,0.00000029,0.00000126,-0.00000262,0.00
 000230,0.00000843,0.00003282,-0.00002042,0.00002487,-0.00004486,0.0000
 1725,0.00007189,0.00002340,-0.00000684,0.00002129,0.00008633,0.0001538
 6,0.00003214,-0.00007420,0.00000425,0.00006127,-0.00169592,-0.00037355
 ,-0.00248408,0.00236377,0.00122079,0.00403723,-0.00040524,0.00035250,0
 .00002541,0.00000176,0.00000192,0.00000038,-0.00000183,0.00000025,-0.0
 0000193,-0.00000058,-0.00000080,0.00000092,0.01355212,-0.05703659,-0.0
 3164128,0.02081212,-0.02375668,-0.00410696,-0.03461076,0.07952832,0.03
 413940\\0.00000233,0.00000239,0.00000062,0.00000247,-0.00000506,0.0000
 0272,-0.00000776,-0.00000338,-0.00000255,0.00001216,0.00001173,-0.0000
 0241,-0.00000033,-0.00000703,0.00000332,-0.00000425,0.00000002,-0.0000
 0124,-0.00000388,0.00000287,0.00000211,0.00000026,-0.00000205,-0.00000
 066,0.00000156,0.00000125,-0.00000091,-0.00000111,-0.00000050,0.000000
 94,0.00000161,-0.00000053,-0.00000180,-0.00000839,0.00000323,-0.000000
 12,0.00000662,0.00000176,0.00000493,0.00000028,-0.00000025,0.00000052,
 0.00000023,-0.00000017,0.00000026,0.00000047,-0.00000011,0.00000005,-0
 .00000059,-0.00000125,0.00000015,-0.00000066,0.,0.00000036,0.00000017,
 -0.00000079,0.00000013,0.00000171,-0.00000064,-0.00000045,0.00000079,0
 .00000010,0.00000073,-0.00000059,0.00000090,-0.00000058,-0.00000006,0.
 00000002,0.00000017,-0.00000028,0.00000038,0.00000026,-0.00000036,0.00
 000005,-0.00000006,-0.00000722,0.00000006,-0.00000078,0.00001004,-0.00
 000640,-0.00000320,0.00000447,-0.00000082,0.00000034,-0.00000973,-0.00
 000392,-0.00000310,-0.00000330,0.00000289,0.00000069,0.00001500,0.0000
 0169,0.00000834,-0.00001282,0.00000221,-0.00000993,-0.00000172,0.00000
 050,-0.00000096,0.00000005,-0.00000007,-0.00000022,0.00000010,-0.00000
 034,-0.00000003,0.00000024,-0.00000028,-0.00000001,0.00000255,0.000001
 45,0.00000350,0.00000021,-0.00000276,-0.00000146,-0.00000026,0.0000028
 1,0.00000034\\\@


 WHEN HAVING A MEETING OF THE MINDS,
 MAKE SURE YOU HAVE THE EQUIPMENT FOR IT.
 Job cpu time:       0 days 22 hours 13 minutes 22.2 seconds.
 Elapsed time:       0 days  0 hours 47 minutes 39.8 seconds.
 File lengths (MBytes):  RWF=   1240 Int=      0 D2E=      0 Chk=     32 Scr=      8
 Normal termination of Gaussian 16 at Fri Jan 27 15:28:20 2023.
