 Entering Gaussian System, Link 0=g16
 Input=NicPyrNa4h8wB07XDaVDZ130K.gjf
 Output=NicPyrNa4h8wB07XDaVDZ130K.log
 Initial command:
 /sw/contrib/gaussian/g16/A03/g16/l1.exe "/gscratch/scrubbed/gds001/Gau-6642.inp" -scrdir="/gscratch/scrubbed/gds001/"
 Entering Link 1 = /sw/contrib/gaussian/g16/A03/g16/l1.exe PID=      6643.
  
 Copyright (c) 1988,1990,1992,1993,1995,1998,2003,2009,2016,
            Gaussian, Inc.  All Rights Reserved.
  
 This is part of the Gaussian(R) 16 program.  It is based on
 the Gaussian(R) 09 system (copyright 2009, Gaussian, Inc.),
 the Gaussian(R) 03 system (copyright 2003, Gaussian, Inc.),
 the Gaussian(R) 98 system (copyright 1998, Gaussian, Inc.),
 the Gaussian(R) 94 system (copyright 1995, Gaussian, Inc.),
 the Gaussian 92(TM) system (copyright 1992, Gaussian, Inc.),
 the Gaussian 90(TM) system (copyright 1990, Gaussian, Inc.),
 the Gaussian 88(TM) system (copyright 1988, Gaussian, Inc.),
 the Gaussian 86(TM) system (copyright 1986, Carnegie Mellon
 University), and the Gaussian 82(TM) system (copyright 1983,
 Carnegie Mellon University). Gaussian is a federally registered
 trademark of Gaussian, Inc.
  
 This software contains proprietary and confidential information,
 including trade secrets, belonging to Gaussian, Inc.
  
 This software is provided under written license and may be
 used, copied, transmitted, or stored only in accord with that
 written license.
  
 The following legend is applicable only to US Government
 contracts under FAR:
  
                    RESTRICTED RIGHTS LEGEND
  
 Use, reproduction and disclosure by the US Government is
 subject to restrictions as set forth in subparagraphs (a)
 and (c) of the Commercial Computer Software - Restricted
 Rights clause in FAR 52.227-19.
  
 Gaussian, Inc.
 340 Quinnipiac St., Bldg. 40, Wallingford CT 06492
  
  
 ---------------------------------------------------------------
 Warning -- This program may not be used in any manner that
 competes with the business of Gaussian, Inc. or will provide
 assistance to any competitor of Gaussian, Inc.  The licensee
 of this program is prohibited from giving any competitor of
 Gaussian, Inc. access to this program.  By using this program,
 the user acknowledges that Gaussian, Inc. is engaged in the
 business of creating and licensing software in the field of
 computational chemistry and represents and warrants to the
 licensee that it is not a competitor of Gaussian, Inc. and that
 it will not use this program in any manner prohibited above.
 ---------------------------------------------------------------
  

 Cite this work as:
 Gaussian 16, Revision A.03,
 M. J. Frisch, G. W. Trucks, H. B. Schlegel, G. E. Scuseria, 
 M. A. Robb, J. R. Cheeseman, G. Scalmani, V. Barone, 
 G. A. Petersson, H. Nakatsuji, X. Li, M. Caricato, A. V. Marenich, 
 J. Bloino, B. G. Janesko, R. Gomperts, B. Mennucci, H. P. Hratchian, 
 J. V. Ortiz, A. F. Izmaylov, J. L. Sonnenberg, D. Williams-Young, 
 F. Ding, F. Lipparini, F. Egidi, J. Goings, B. Peng, A. Petrone, 
 T. Henderson, D. Ranasinghe, V. G. Zakrzewski, J. Gao, N. Rega, 
 G. Zheng, W. Liang, M. Hada, M. Ehara, K. Toyota, R. Fukuda, 
 J. Hasegawa, M. Ishida, T. Nakajima, Y. Honda, O. Kitao, H. Nakai, 
 T. Vreven, K. Throssell, J. A. Montgomery, Jr., J. E. Peralta, 
 F. Ogliaro, M. J. Bearpark, J. J. Heyd, E. N. Brothers, K. N. Kudin, 
 V. N. Staroverov, T. A. Keith, R. Kobayashi, J. Normand, 
 K. Raghavachari, A. P. Rendell, J. C. Burant, S. S. Iyengar, 
 J. Tomasi, M. Cossi, J. M. Millam, M. Klene, C. Adamo, R. Cammi, 
 J. W. Ochterski, R. L. Martin, K. Morokuma, O. Farkas, 
 J. B. Foresman, and D. J. Fox, Gaussian, Inc., Wallingford CT, 2016.
 
 ******************************************
 Gaussian 16:  ES64L-G16RevA.03 25-Dec-2016
                27-Aug-2020 
 ******************************************
 %nprocshared=28
 Will use up to   28 processors via shared memory.
 %mem=41GB
 %chk=NicPyrNa4h8.chk
 -----------------------------------------
 # wB97XD/aug-cc-pVDZ Temperature=130 Freq
 -----------------------------------------
 1/10=4,30=1,38=1,112=130000/1,3;
 2/12=2,17=6,18=5,40=1/2;
 3/5=16,7=10,11=2,25=1,30=1,71=2,74=-58,140=1/1,2,3;
 4//1;
 5/5=2,38=5,98=1/2;
 8/6=4,10=90,11=11/1;
 11/6=1,8=1,9=11,15=111,16=1/1,2,10;
 10/6=1/2;
 6/7=2,8=2,9=2,10=2,28=1/1;
 7/8=1,10=1,25=1/1,2,3,16;
 1/10=4,30=1/3;
 99//99;
 ----------------------------
 p-Pyr Nicotine, N anti, 4H2O
 ----------------------------
 Symbolic Z-matrix:
 Charge =  1 Multiplicity = 1
 N                    -0.926    -1.44433   0.69631 
 C                    -0.16449  -1.60805  -0.60081 
 C                    -1.14494  -1.02643  -1.6173 
 C                    -2.51599  -1.52821  -1.14139 
 C                    -2.37325  -1.71033   0.37999 
 C                     1.19723  -0.97229  -0.49546 
 C                     1.30732   0.41486  -0.42296 
 N                     2.45016   1.06268  -0.1936 
 C                     3.56829   0.33581  -0.08799 
 C                     3.57913  -1.05289  -0.20108 
 C                     2.37081  -1.71839  -0.38883 
 O                    -0.99501   1.05926   1.71502 
 O                    -3.0426    1.63689   0.02258 
 O                     0.89893   3.12946   0.84173 
 H                    -2.60794  -2.72869   0.70637 
 H                    -2.76383  -2.48586  -1.6125 
 H                    -3.30806  -0.81323  -1.37798 
 H                    -1.10909   0.06956  -1.59773 
 H                    -0.89523  -1.35299  -2.63116 
 H                    -2.97195  -1.00253   0.96013 
 H                    -0.06199  -2.6917   -0.7544 
 H                     0.42433   1.04125  -0.53825 
 H                     4.49082   0.8865    0.09675 
 H                     4.51667  -1.59989  -0.1233 
 H                     2.345    -2.80747  -0.44861 
 C                    -0.40235  -2.23558   1.8297 
 H                    -0.8556   -0.43387   0.99276 
 H                    -0.33031   1.76149   1.63317 
 H                    -1.80605   1.41259   1.29831 
 H                     1.69138   2.64821   0.51742 
 H                     1.21389   3.90152   1.31834 
 H                    -2.46564   2.19367  -0.53747 
 H                    -3.85046   2.13753   0.16073 
 O                    -0.96267   2.89015  -1.19571 
 H                    -0.31597   3.20808  -0.53829 
 H                    -0.8961    3.47517  -1.95378 
 H                    -0.44751  -3.30087   1.57903 
 H                    -1.01598  -2.02928   2.71138 
 H                     0.63072  -1.93485   2.02802 
 

 GradGradGradGradGradGradGradGradGradGradGradGradGradGradGradGradGradGrad
 Berny optimization.
 Initialization pass.
 Trust Radius=3.00D-01 FncErr=1.00D-07 GrdErr=1.00D-07 EigMax=2.50D+02 EigMin=1.00D-04
 Number of steps in this run=      2 maximum allowed number of steps=      2.
 GradGradGradGradGradGradGradGradGradGradGradGradGradGradGradGradGradGrad

                          Input orientation:                          
 ---------------------------------------------------------------------
 Center     Atomic      Atomic             Coordinates (Angstroms)
 Number     Number       Type             X           Y           Z
 ---------------------------------------------------------------------
      1          7           0       -0.925998   -1.444326    0.696313
      2          6           0       -0.164488   -1.608050   -0.600811
      3          6           0       -1.144941   -1.026429   -1.617301
      4          6           0       -2.515985   -1.528209   -1.141385
      5          6           0       -2.373253   -1.710327    0.379992
      6          6           0        1.197227   -0.972287   -0.495461
      7          6           0        1.307318    0.414864   -0.422961
      8          7           0        2.450161    1.062680   -0.193604
      9          6           0        3.568294    0.335806   -0.087994
     10          6           0        3.579134   -1.052888   -0.201079
     11          6           0        2.370806   -1.718386   -0.388834
     12          8           0       -0.995011    1.059258    1.715018
     13          8           0       -3.042601    1.636892    0.022576
     14          8           0        0.898930    3.129462    0.841732
     15          1           0       -2.607938   -2.728694    0.706371
     16          1           0       -2.763826   -2.485862   -1.612495
     17          1           0       -3.308056   -0.813231   -1.377976
     18          1           0       -1.109086    0.069560   -1.597730
     19          1           0       -0.895227   -1.352994   -2.631162
     20          1           0       -2.971954   -1.002525    0.960126
     21          1           0       -0.061988   -2.691703   -0.754396
     22          1           0        0.424328    1.041254   -0.538245
     23          1           0        4.490815    0.886499    0.096746
     24          1           0        4.516672   -1.599888   -0.123298
     25          1           0        2.344997   -2.807474   -0.448607
     26          6           0       -0.402348   -2.235575    1.829697
     27          1           0       -0.855597   -0.433873    0.992761
     28          1           0       -0.330313    1.761491    1.633169
     29          1           0       -1.806053    1.412587    1.298311
     30          1           0        1.691379    2.648214    0.517419
     31          1           0        1.213889    3.901520    1.318342
     32          1           0       -2.465642    2.193669   -0.537471
     33          1           0       -3.850455    2.137531    0.160730
     34          8           0       -0.962672    2.890147   -1.195714
     35          1           0       -0.315968    3.208077   -0.538292
     36          1           0       -0.896101    3.475167   -1.953778
     37          1           0       -0.447507   -3.300874    1.579027
     38          1           0       -1.015981   -2.029275    2.711379
     39          1           0        0.630715   -1.934845    2.028024
 ---------------------------------------------------------------------
                    Distance matrix (angstroms):
                    1          2          3          4          5
     1  N    0.000000
     2  C    1.513021   0.000000
     3  C    2.361225   1.527358   0.000000
     4  C    2.431508   2.414153   1.535591   0.000000
     5  C    1.505112   2.418900   2.442467   1.538872   0.000000
     6  C    2.480167   1.506506   2.597539   3.809752   3.749593
     7  C    3.114011   2.507992   3.085020   4.348484   4.325248
     8  N    4.298311   3.759655   4.395003   5.680986   5.593201
     9  C    4.897210   4.239719   5.138973   6.450011   6.301401
    10  C    4.610287   3.805614   4.931863   6.185514   6.016708
    11  C    3.481604   2.546532   3.787930   4.948053   4.805960
    12  O    2.703785   3.628686   3.934072   4.143354   3.369339
    13  O    3.798399   4.381985   3.658359   3.413209   3.432149
    14  O    4.926565   5.065156   5.243633   6.106414   5.860371
    15  H    2.116276   2.989150   3.230715   2.205407   1.094839
    16  H    3.129377   2.924144   2.179623   1.095659   2.173478
    17  H    3.221049   3.334328   2.186732   1.092953   2.183824
    18  H    2.754633   2.168061   1.096750   2.177265   2.945760
    19  H    3.328870   2.172869   1.094037   2.208391   3.373321
    20  H    2.109673   3.268800   3.159379   2.213730   1.093610
    21  H    2.099290   1.099272   2.165763   2.743279   2.755337
    22  H    3.086361   2.714669   2.811099   3.951121   4.029990
    23  H    5.927402   5.327401   6.193464   7.513922   7.344329
    24  H    5.506235   4.705459   5.883431   7.106328   6.909165
    25  H    3.724033   2.785552   4.088720   5.074013   4.914488
    26  C    1.478122   2.521455   3.727636   3.714183   2.502398
    27  H    1.055392   2.096615   2.692075   2.917026   2.075596
    28  H    3.392610   4.046229   4.359091   4.826742   4.218717
    29  H    3.049402   3.927550   3.858324   3.886438   3.304182
    30  H    4.861229   4.776030   5.109280   6.155977   5.961292
    31  H    5.791727   5.994867   6.202158   7.031655   6.726137
    32  H    4.138567   4.444366   3.644079   3.770891   4.011416
    33  H    4.654997   5.309960   4.526792   4.112659   4.127495
    34  O    4.729563   4.607036   3.943415   4.683759   5.063294
    35  H    4.851932   4.818914   4.447752   5.257014   5.409840
    36  H    5.587959   5.310826   4.521007   5.321445   5.875186
    37  H    2.110665   2.774427   3.984473   3.849881   2.770564
    38  H    2.100179   3.445733   4.445200   4.164717   2.716483
    39  H    2.106518   2.765848   4.155306   4.484666   3.433692
                    6          7          8          9         10
     6  C    0.000000
     7  C    1.393400   0.000000
     8  N    2.408745   1.333552   0.000000
     9  C    2.738448   2.287021   1.337804   0.000000
    10  C    2.401383   2.713794   2.397971   1.393333   0.000000
    11  C    1.394748   2.383889   2.789039   2.396703   1.392191
    12  O    3.717432   3.207322   3.938535   4.959636   5.390305
    13  O    5.005229   4.540226   5.526924   6.738619   7.150686
    14  O    4.324513   3.022461   2.783851   3.974218   5.075727
    15  H    4.359891   5.146511   6.385048   6.940318   6.473921
    16  H    4.385044   5.138425   6.464601   7.098004   6.654221
    17  H    4.593659   4.870518   6.170806   7.090030   6.991131
    18  H    2.760348   2.708934   3.952986   4.922202   5.018957
    19  H    3.014054   3.585063   4.792577   5.407658   5.100517
    20  H    4.416075   4.715304   5.915699   6.757553   6.653397
    21  H    2.146872   3.411100   4.552007   4.773767   4.031085
    22  H    2.157209   1.088727   2.055051   3.253445   3.801567
    23  H    3.827991   3.259937   2.068722   1.090154   2.163581
    24  H    3.398691   3.801181   3.371154   2.155824   1.088226
    25  H    2.165059   3.385395   3.879971   3.392154   2.159383
    26  C    3.092070   3.875855   4.807186   5.104462   4.623310
    27  H    2.592061   2.720813   3.817744   4.618576   4.634142
    28  H    3.786553   2.953457   3.399481   4.493786   5.154510
    29  H    4.233785   3.694768   4.523671   5.653751   6.109581
    30  H    3.791852   2.453502   1.896107   3.039172   4.216398
    31  H    5.200399   3.898414   3.445774   4.498369   5.696418
    32  H    4.841658   4.172827   5.055937   6.329460   6.869688
    33  H    5.964952   5.469086   6.401454   7.638450   8.093730
    34  O    4.480392   3.446306   3.998911   5.318022   6.096296
    35  H    4.446014   3.232707   3.517529   4.851824   5.782850
    36  H    5.127237   4.069878   4.485061   5.767804   6.603254
    37  H    3.525758   4.571004   5.529856   5.668426   4.943284
    38  H    4.037244   4.603870   5.478435   5.869044   5.527280
    39  H    2.759607   3.462117   4.151045   4.273495   3.799990
                   11         12         13         14         15
    11  C    0.000000
    12  O    4.844608   0.000000
    13  O    6.382172   2.718574   0.000000
    14  O    5.213669   2.938603   4.293536   0.000000
    15  H    5.196931   4.238807   4.440141   6.828941   0.000000
    16  H    5.333930   5.173869   4.443903   7.139389   2.336752
    17  H    5.834996   4.292203   2.834628   6.178241   2.916105
    18  H    4.094854   3.459308   2.969916   4.398421   3.922456
    19  H    3.978507   4.971740   4.537947   5.947470   3.995630
    20  H    5.556729   2.954508   2.801877   5.663133   1.782290
    21  H    2.645651   4.586747   5.312671   6.112033   2.935485
    22  H    3.380342   2.663089   3.562148   2.547586   4.995619
    23  H    3.393472   5.722144   7.571060   4.299712   7.989591
    24  H    2.165477   6.389766   8.224393   6.032088   7.261034
    25  H    1.091032   5.548742   7.000044   6.245262   5.086428
    26  C    3.588836   3.349675   5.023208   5.608299   2.523818
    27  H    3.737440   1.664491   3.164224   3.974737   2.901538
    28  H    4.847070   0.970389   3.156904   2.002188   5.119403
    29  H    5.485946   0.977893   1.790772   3.236210   4.259533
    30  H    4.511110   3.343010   4.866026   0.982219   6.887015
    31  H    5.986339   3.621470   4.992520   0.960432   7.677279
    32  H    6.222339   2.919478   0.978026   3.754764   5.079080
    33  H    7.339905   3.425207   0.960393   4.899423   5.051902
    34  O    5.744711   3.438831   2.716797   2.770202   6.155989
    35  H    5.613478   3.186837   3.196517   1.840278   6.484409
    36  H    6.332039   4.393912   3.448578   3.340138   6.963811
    37  H    3.784129   4.396476   5.791251   6.611030   2.399246
    38  H    4.601989   3.245337   4.977713   5.811629   2.653973
    39  H    2.985963   3.421346   5.502034   5.208304   3.586898
                   16         17         18         19         20
    16  H    0.000000
    17  H    1.774508   0.000000
    18  H    3.044432   2.379723   0.000000
    19  H    2.410961   2.771924   1.771264   0.000000
    20  H    2.976909   2.369708   3.340998   4.163289   0.000000
    21  H    2.842294   3.801903   3.071189   2.451261   3.776349
    22  H    4.874309   4.251465   2.101917   3.442957   4.237556
    23  H    8.180718   8.117036   5.907413   6.439430   7.746403
    24  H    7.483870   7.963631   6.050633   5.969840   7.590136
    25  H    5.249585   6.066114   4.639881   4.168706   5.788984
    26  C    4.181855   4.555806   4.190511   4.573963   2.979839
    27  H    3.826141   3.432035   2.651103   3.738873   2.191665
    28  H    5.873357   4.956122   3.729320   5.310712   3.882144
    29  H    4.958631   3.791146   3.267497   4.890685   2.703046
    30  H    7.123491   6.369339   4.354987   5.710846   5.938902
    31  H    8.075312   7.067319   5.346364   6.903396   6.457496
    32  H    4.810676   3.233815   2.734270   4.407784   3.565782
    33  H    5.069601   3.371766   3.857951   5.358339   3.357194
    34  O    5.685010   4.387374   2.852852   4.479878   4.882392
    35  H    6.290220   5.082182   3.406132   5.051635   5.198912
    36  H    6.256096   4.953729   3.430786   4.875448   5.731468
    37  H    4.026834   4.807804   4.678600   4.660513   3.469622
    38  H    4.686077   4.843056   4.793975   5.386528   2.819031
    39  H    5.007984   5.326610   4.493399   4.937111   3.871544
                   21         22         23         24         25
    21  H    0.000000
    22  H    3.770702   0.000000
    23  H    5.852861   4.118674   0.000000
    24  H    4.749155   4.888261   2.496239   0.000000
    25  H    2.429092   4.302291   4.306667   2.506045   0.000000
    26  C    2.646022   4.126518   6.057517   5.330576   3.614643
    27  H    2.963135   2.481569   5.579458   5.609497   4.237372
    28  H    5.059980   2.408996   5.135122   6.154454   5.689158
    29  H    4.909233   2.912975   6.432035   7.146526   6.171860
    30  H    5.762510   2.302643   3.334284   5.141903   5.578974
    31  H    7.028136   3.500206   4.617455   6.576640   7.029375
    32  H    5.448988   3.111268   7.106562   7.957093   6.939854
    33  H    6.205759   4.468127   8.434806   9.168303   7.950345
    34  O    5.671247   2.403006   5.951939   7.164754   6.630364
    35  H    5.909197   2.289795   5.375701   6.829580   6.578422
    36  H    6.337551   3.109855   6.318601   7.642313   7.227851
    37  H    2.442248   4.908871   6.642159   5.516732   3.486090
    38  H    3.655203   4.697094   6.757429   6.231374   4.678384
    39  H    2.965558   3.935162   5.156568   4.454329   3.135912
                   26         27         28         29         30
    26  C    0.000000
    27  H    2.037652   0.000000
    28  H    4.002543   2.346416   0.000000
    29  H    3.944850   2.099081   1.552956   0.000000
    30  H    5.473314   4.026450   2.473543   3.790593   0.000000
    31  H    6.366918   4.815019   2.657706   3.913469   1.562130
    32  H    5.429445   3.440615   3.075400   2.101248   4.312798
    33  H    5.813686   4.034051   3.834173   2.449329   5.576733
    34  O    5.978302   3.981205   3.110679   3.019046   3.168177
    35  H    5.937018   3.987370   2.609226   2.969385   2.336111
    36  H    6.868118   4.895337   4.015344   3.957061   3.672291
    37  H    1.095325   2.954647   5.064011   4.913366   6.410421
    38  H    1.093832   2.350463   4.000323   3.803602   5.832852
    39  H    1.094071   2.352405   3.839581   4.204238   4.940786
                   31         32         33         34         35
    31  H    0.000000
    32  H    4.460913   0.000000
    33  H    5.486283   1.551884   0.000000
    34  O    3.475740   1.782494   3.278058   0.000000
    35  H    2.503680   2.376999   3.758630   0.975453   0.000000
    36  H    3.916708   2.472169   3.871514   0.959865   1.552898
    37  H    7.396126   6.224342   6.570226   6.803920   6.845932
    38  H    6.487465   5.521757   5.648214   6.282430   6.203244
    39  H    5.908206   5.763143   6.336554   6.017634   5.825104
                   36         37         38         39
    36  H    0.000000
    37  H    7.654847   0.000000
    38  H    7.216436   1.795090   0.000000
    39  H    6.888697   1.797275   1.785357   0.000000
 Stoichiometry    C10H23N2O4(1+)
 Framework group  C1[X(C10H23N2O4)]
 Deg. of freedom   111
 Full point group                 C1      NOp   1
 Largest Abelian subgroup         C1      NOp   1
 Largest concise Abelian subgroup C1      NOp   1
                         Standard orientation:                         
 ---------------------------------------------------------------------
 Center     Atomic      Atomic             Coordinates (Angstroms)
 Number     Number       Type             X           Y           Z
 ---------------------------------------------------------------------
      1          7           0       -0.925998   -1.444326    0.696313
      2          6           0       -0.164488   -1.608050   -0.600811
      3          6           0       -1.144941   -1.026429   -1.617301
      4          6           0       -2.515985   -1.528209   -1.141385
      5          6           0       -2.373253   -1.710327    0.379992
      6          6           0        1.197227   -0.972287   -0.495461
      7          6           0        1.307318    0.414864   -0.422961
      8          7           0        2.450161    1.062680   -0.193604
      9          6           0        3.568294    0.335806   -0.087994
     10          6           0        3.579134   -1.052888   -0.201079
     11          6           0        2.370806   -1.718386   -0.388834
     12          8           0       -0.995011    1.059258    1.715018
     13          8           0       -3.042601    1.636892    0.022576
     14          8           0        0.898930    3.129462    0.841732
     15          1           0       -2.607938   -2.728694    0.706371
     16          1           0       -2.763826   -2.485862   -1.612495
     17          1           0       -3.308056   -0.813231   -1.377976
     18          1           0       -1.109086    0.069560   -1.597730
     19          1           0       -0.895227   -1.352994   -2.631162
     20          1           0       -2.971954   -1.002525    0.960126
     21          1           0       -0.061988   -2.691703   -0.754396
     22          1           0        0.424328    1.041254   -0.538245
     23          1           0        4.490815    0.886499    0.096746
     24          1           0        4.516672   -1.599888   -0.123298
     25          1           0        2.344997   -2.807474   -0.448607
     26          6           0       -0.402348   -2.235575    1.829697
     27          1           0       -0.855597   -0.433873    0.992761
     28          1           0       -0.330313    1.761491    1.633169
     29          1           0       -1.806053    1.412587    1.298311
     30          1           0        1.691379    2.648214    0.517419
     31          1           0        1.213889    3.901520    1.318342
     32          1           0       -2.465642    2.193669   -0.537471
     33          1           0       -3.850455    2.137531    0.160730
     34          8           0       -0.962672    2.890147   -1.195714
     35          1           0       -0.315968    3.208077   -0.538292
     36          1           0       -0.896101    3.475167   -1.953778
     37          1           0       -0.447507   -3.300874    1.579027
     38          1           0       -1.015981   -2.029275    2.711379
     39          1           0        0.630715   -1.934845    2.028024
 ---------------------------------------------------------------------
 Rotational constants (GHZ):           0.5190208           0.4185040           0.2941986
 Standard basis: Aug-CC-pVDZ (5D, 7F)
 There are   607 symmetry adapted cartesian basis functions of A   symmetry.
 There are   575 symmetry adapted basis functions of A   symmetry.
   575 basis functions,   941 primitive gaussians,   607 cartesian basis functions
    64 alpha electrons       64 beta electrons
       nuclear repulsion energy      1279.6118280533 Hartrees.
 NAtoms=   39 NActive=   39 NUniq=   39 SFac= 1.00D+00 NAtFMM=   60 NAOKFM=F Big=F
 Integral buffers will be    131072 words long.
 Raffenetti 2 integral format.
 Two-electron integral symmetry is turned on.
 Nuclear repulsion after empirical dispersion term =     1279.5775940684 Hartrees.
 One-electron integrals computed using PRISM.
 NBasis=   575 RedAO= T EigKep=  1.85D-06  NBF=   575
 NBsUse=   575 1.00D-06 EigRej= -1.00D+00 NBFU=   575
 ExpMin= 2.97D-02 ExpMax= 1.17D+04 ExpMxC= 4.01D+02 IAcc=3 IRadAn=         5 AccDes= 0.00D+00
 Harris functional with IExCor= 4639 and IRadAn=       5 diagonalized for initial guess.
 HarFok:  IExCor= 4639 AccDes= 0.00D+00 IRadAn=         5 IDoV= 1 UseB2=F ITyADJ=14
 ICtDFT=  3500011 ScaDFX=  1.000000  1.000000  1.000000  1.000000
 FoFCou: FMM=F IPFlag=           0 FMFlag=      100000 FMFlg1=           0
         NFxFlg=           0 DoJE=T BraDBF=F KetDBF=T FulRan=T
         wScrn=  0.000000 ICntrl=       500 IOpCl=  0 I1Cent=   200000004 NGrid=           0
         NMat0=    1 NMatS0=      1 NMatT0=    0 NMatD0=    1 NMtDS0=    0 NMtDT0=    0
 Petite list used in FoFCou.
 Requested convergence on RMS density matrix=1.00D-08 within 128 cycles.
 Requested convergence on MAX density matrix=1.00D-06.
 Requested convergence on             energy=1.00D-06.
 No special actions if energy rises.
 SCF Done:  E(RwB97XD) =  -805.042734775     A.U. after   15 cycles
            NFock= 15  Conv=0.32D-08     -V/T= 2.0063
 DoSCS=F DFT=T ScalE2(SS,OS)=  1.000000  1.000000
 Range of M.O.s used for correlation:     1   575
 NBasis=   575 NAE=    64 NBE=    64 NFC=     0 NFV=     0
 NROrb=    575 NOA=    64 NOB=    64 NVA=   511 NVB=   511

 **** Warning!!: The largest alpha MO coefficient is  0.12166932D+03

 Symmetrizing basis deriv contribution to polar:
 IMax=3 JMax=2 DiffMx= 0.00D+00
 G2DrvN: will do    40 centers at a time, making    1 passes.
 Calling FoFCou, ICntrl=  3107 FMM=F I1Cent=   0 AccDes= 0.00D+00.
 End of G2Drv F.D. properties file   721 does not exist.
 End of G2Drv F.D. properties file   722 does not exist.
 End of G2Drv F.D. properties file   788 does not exist.
          IDoAtm=111111111111111111111111111111111111111
          Differentiating once with respect to electric field.
                with respect to dipole field.
          Differentiating once with respect to nuclear coordinates.
 CalDSu exits because no D1Ps are significant.
          There are   120 degrees of freedom in the 1st order CPHF.  IDoFFX=6 NUNeed=     3.
    117 vectors produced by pass  0 Test12= 3.27D-14 1.00D-09 XBig12= 7.64D+01 4.12D+00.
 AX will form   117 AO Fock derivatives at one time.
    117 vectors produced by pass  1 Test12= 3.27D-14 1.00D-09 XBig12= 1.24D+01 8.15D-01.
    117 vectors produced by pass  2 Test12= 3.27D-14 1.00D-09 XBig12= 2.14D-01 7.81D-02.
    117 vectors produced by pass  3 Test12= 3.27D-14 1.00D-09 XBig12= 1.75D-03 4.96D-03.
    117 vectors produced by pass  4 Test12= 3.27D-14 1.00D-09 XBig12= 1.50D-05 3.84D-04.
    117 vectors produced by pass  5 Test12= 3.27D-14 1.00D-09 XBig12= 1.09D-07 2.58D-05.
    111 vectors produced by pass  6 Test12= 3.27D-14 1.00D-09 XBig12= 6.06D-10 1.92D-06.
     42 vectors produced by pass  7 Test12= 3.27D-14 1.00D-09 XBig12= 2.72D-12 1.11D-07.
      3 vectors produced by pass  8 Test12= 3.27D-14 1.00D-09 XBig12= 1.68D-14 6.50D-09.
      3 vectors produced by pass  9 Test12= 3.27D-14 1.00D-09 XBig12= 1.78D-15 2.96D-09.
 InvSVY:  IOpt=1 It=  1 EMax= 1.42D-14
 Solved reduced A of dimension   861 with   120 vectors.
 Isotropic polarizability for W=    0.000000      159.37 Bohr**3.
 End of Minotr F.D. properties file   721 does not exist.
 End of Minotr F.D. properties file   722 does not exist.
 End of Minotr F.D. properties file   788 does not exist.

 **********************************************************************

            Population analysis using the SCF density.

 **********************************************************************

 Orbital symmetries:
       Occupied  (A) (A) (A) (A) (A) (A) (A) (A) (A) (A) (A) (A)
                 (A) (A) (A) (A) (A) (A) (A) (A) (A) (A) (A) (A)
                 (A) (A) (A) (A) (A) (A) (A) (A) (A) (A) (A) (A)
                 (A) (A) (A) (A) (A) (A) (A) (A) (A) (A) (A) (A)
                 (A) (A) (A) (A) (A) (A) (A) (A) (A) (A) (A) (A)
                 (A) (A) (A) (A)
       Virtual   (A) (A) (A) (A) (A) (A) (A) (A) (A) (A) (A) (A)
                 (A) (A) (A) (A) (A) (A) (A) (A) (A) (A) (A) (A)
                 (A) (A) (A) (A) (A) (A) (A) (A) (A) (A) (A) (A)
                 (A) (A) (A) (A) (A) (A) (A) (A) (A) (A) (A) (A)
                 (A) (A) (A) (A) (A) (A) (A) (A) (A) (A) (A) (A)
                 (A) (A) (A) (A) (A) (A) (A) (A) (A) (A) (A) (A)
                 (A) (A) (A) (A) (A) (A) (A) (A) (A) (A) (A) (A)
                 (A) (A) (A) (A) (A) (A) (A) (A) (A) (A) (A) (A)
                 (A) (A) (A) (A) (A) (A) (A) (A) (A) (A) (A) (A)
                 (A) (A) (A) (A) (A) (A) (A) (A) (A) (A) (A) (A)
                 (A) (A) (A) (A) (A) (A) (A) (A) (A) (A) (A) (A)
                 (A) (A) (A) (A) (A) (A) (A) (A) (A) (A) (A) (A)
                 (A) (A) (A) (A) (A) (A) (A) (A) (A) (A) (A) (A)
                 (A) (A) (A) (A) (A) (A) (A) (A) (A) (A) (A) (A)
                 (A) (A) (A) (A) (A) (A) (A) (A) (A) (A) (A) (A)
                 (A) (A) (A) (A) (A) (A) (A) (A) (A) (A) (A) (A)
                 (A) (A) (A) (A) (A) (A) (A) (A) (A) (A) (A) (A)
                 (A) (A) (A) (A) (A) (A) (A) (A) (A) (A) (A) (A)
                 (A) (A) (A) (A) (A) (A) (A) (A) (A) (A) (A) (A)
                 (A) (A) (A) (A) (A) (A) (A) (A) (A) (A) (A) (A)
                 (A) (A) (A) (A) (A) (A) (A) (A) (A) (A) (A) (A)
                 (A) (A) (A) (A) (A) (A) (A) (A) (A) (A) (A) (A)
                 (A) (A) (A) (A) (A) (A) (A) (A) (A) (A) (A) (A)
                 (A) (A) (A) (A) (A) (A) (A) (A) (A) (A) (A) (A)
                 (A) (A) (A) (A) (A) (A) (A) (A) (A) (A) (A) (A)
                 (A) (A) (A) (A) (A) (A) (A) (A) (A) (A) (A) (A)
                 (A) (A) (A) (A) (A) (A) (A) (A) (A) (A) (A) (A)
                 (A) (A) (A) (A) (A) (A) (A) (A) (A) (A) (A) (A)
                 (A) (A) (A) (A) (A) (A) (A) (A) (A) (A) (A) (A)
                 (A) (A) (A) (A) (A) (A) (A) (A) (A) (A) (A) (A)
                 (A) (A) (A) (A) (A) (A) (A) (A) (A) (A) (A) (A)
                 (A) (A) (A) (A) (A) (A) (A) (A) (A) (A) (A) (A)
                 (A) (A) (A) (A) (A) (A) (A) (A) (A) (A) (A) (A)
                 (A) (A) (A) (A) (A) (A) (A) (A) (A) (A) (A) (A)
                 (A) (A) (A) (A) (A) (A) (A) (A) (A) (A) (A) (A)
                 (A) (A) (A) (A) (A) (A) (A) (A) (A) (A) (A) (A)
                 (A) (A) (A) (A) (A) (A) (A) (A) (A) (A) (A) (A)
                 (A) (A) (A) (A) (A) (A) (A) (A) (A) (A) (A) (A)
                 (A) (A) (A) (A) (A) (A) (A) (A) (A) (A) (A) (A)
                 (A) (A) (A) (A) (A) (A) (A) (A) (A) (A) (A) (A)
                 (A) (A) (A) (A) (A) (A) (A) (A) (A) (A) (A) (A)
                 (A) (A) (A) (A) (A) (A) (A) (A) (A) (A) (A) (A)
                 (A) (A) (A) (A) (A) (A) (A)
 The electronic state is 1-A.
 Alpha  occ. eigenvalues --  -19.40293 -19.39428 -19.38866 -19.38523 -14.67853
 Alpha  occ. eigenvalues --  -14.58594 -10.49220 -10.47431 -10.47319 -10.46302
 Alpha  occ. eigenvalues --  -10.46288 -10.45099 -10.44991 -10.43498 -10.43154
 Alpha  occ. eigenvalues --  -10.42704  -1.25021  -1.24517  -1.23786  -1.23030
 Alpha  occ. eigenvalues --   -1.21990  -1.18254  -1.06178  -1.03937  -1.01112
 Alpha  occ. eigenvalues --   -0.96449  -0.93737  -0.88161  -0.85826  -0.84358
 Alpha  occ. eigenvalues --   -0.82715  -0.77780  -0.75901  -0.75167  -0.74381
 Alpha  occ. eigenvalues --   -0.74115  -0.73530  -0.72779  -0.71193  -0.69785
 Alpha  occ. eigenvalues --   -0.67957  -0.66307  -0.65124  -0.64316  -0.63456
 Alpha  occ. eigenvalues --   -0.62618  -0.62059  -0.61912  -0.61271  -0.60713
 Alpha  occ. eigenvalues --   -0.60315  -0.59484  -0.58280  -0.57227  -0.57052
 Alpha  occ. eigenvalues --   -0.56204  -0.54532  -0.53751  -0.52883  -0.52018
 Alpha  occ. eigenvalues --   -0.51843  -0.49872  -0.48067  -0.46664
 Alpha virt. eigenvalues --   -0.09689  -0.08557  -0.06429  -0.05783  -0.04870
 Alpha virt. eigenvalues --   -0.04562  -0.03699  -0.03154  -0.03052  -0.02675
 Alpha virt. eigenvalues --   -0.02186  -0.01669  -0.01163  -0.00782  -0.00520
 Alpha virt. eigenvalues --   -0.00295   0.00421   0.00702   0.00822   0.01335
 Alpha virt. eigenvalues --    0.01626   0.01942   0.02447   0.02664   0.03066
 Alpha virt. eigenvalues --    0.03263   0.03638   0.03970   0.04331   0.04419
 Alpha virt. eigenvalues --    0.04984   0.05392   0.05420   0.05683   0.05851
 Alpha virt. eigenvalues --    0.05934   0.06249   0.06493   0.06913   0.07151
 Alpha virt. eigenvalues --    0.07384   0.07570   0.07697   0.08112   0.08245
 Alpha virt. eigenvalues --    0.08372   0.08734   0.09115   0.09672   0.09875
 Alpha virt. eigenvalues --    0.10232   0.10544   0.10849   0.10978   0.11389
 Alpha virt. eigenvalues --    0.11477   0.11971   0.12244   0.12739   0.13362
 Alpha virt. eigenvalues --    0.13462   0.13686   0.13768   0.14409   0.14709
 Alpha virt. eigenvalues --    0.15054   0.15372   0.15531   0.16084   0.16532
 Alpha virt. eigenvalues --    0.16607   0.17028   0.17164   0.17470   0.17508
 Alpha virt. eigenvalues --    0.18176   0.18323   0.18518   0.18930   0.19205
 Alpha virt. eigenvalues --    0.19356   0.19549   0.19801   0.20422   0.20672
 Alpha virt. eigenvalues --    0.20838   0.21150   0.21474   0.21677   0.21968
 Alpha virt. eigenvalues --    0.22357   0.22662   0.22799   0.23732   0.23902
 Alpha virt. eigenvalues --    0.24094   0.24280   0.24473   0.24649   0.25336
 Alpha virt. eigenvalues --    0.25555   0.25807   0.26053   0.26262   0.26665
 Alpha virt. eigenvalues --    0.27399   0.27988   0.28021   0.28412   0.29066
 Alpha virt. eigenvalues --    0.29189   0.29876   0.30046   0.30589   0.30886
 Alpha virt. eigenvalues --    0.31214   0.31450   0.32297   0.32609   0.32746
 Alpha virt. eigenvalues --    0.33108   0.33556   0.34037   0.34406   0.35048
 Alpha virt. eigenvalues --    0.35350   0.35721   0.36002   0.36514   0.37825
 Alpha virt. eigenvalues --    0.38080   0.38274   0.38412   0.39621   0.39642
 Alpha virt. eigenvalues --    0.40006   0.40175   0.41047   0.41254   0.41833
 Alpha virt. eigenvalues --    0.42351   0.42500   0.43086   0.43471   0.44005
 Alpha virt. eigenvalues --    0.44420   0.44640   0.45221   0.45849   0.46260
 Alpha virt. eigenvalues --    0.46562   0.46922   0.47362   0.47778   0.47934
 Alpha virt. eigenvalues --    0.48595   0.48830   0.49081   0.49180   0.49734
 Alpha virt. eigenvalues --    0.50148   0.50296   0.50774   0.51261   0.51804
 Alpha virt. eigenvalues --    0.52043   0.52535   0.52993   0.53259   0.53440
 Alpha virt. eigenvalues --    0.53935   0.54941   0.55111   0.55368   0.55540
 Alpha virt. eigenvalues --    0.55899   0.56006   0.56369   0.56429   0.57550
 Alpha virt. eigenvalues --    0.57989   0.58346   0.58421   0.59098   0.59422
 Alpha virt. eigenvalues --    0.59752   0.60095   0.60454   0.60751   0.61168
 Alpha virt. eigenvalues --    0.61299   0.61497   0.62142   0.62668   0.63078
 Alpha virt. eigenvalues --    0.63275   0.63660   0.64650   0.64943   0.65421
 Alpha virt. eigenvalues --    0.65683   0.66190   0.66413   0.67073   0.67473
 Alpha virt. eigenvalues --    0.67890   0.68322   0.68831   0.69326   0.69620
 Alpha virt. eigenvalues --    0.70207   0.70593   0.71034   0.71390   0.71725
 Alpha virt. eigenvalues --    0.72109   0.72507   0.73070   0.73859   0.73968
 Alpha virt. eigenvalues --    0.74664   0.75407   0.75728   0.76494   0.76715
 Alpha virt. eigenvalues --    0.77053   0.77483   0.78289   0.78515   0.78700
 Alpha virt. eigenvalues --    0.79253   0.80346   0.81048   0.81166   0.82218
 Alpha virt. eigenvalues --    0.82988   0.83357   0.84046   0.84919   0.85033
 Alpha virt. eigenvalues --    0.85996   0.86393   0.87147   0.87993   0.88585
 Alpha virt. eigenvalues --    0.88882   0.90052   0.90328   0.90672   0.91333
 Alpha virt. eigenvalues --    0.92198   0.93366   0.93812   0.94234   0.95200
 Alpha virt. eigenvalues --    0.95941   0.96820   0.97092   0.97564   0.99004
 Alpha virt. eigenvalues --    0.99740   1.00045   1.00935   1.01664   1.02480
 Alpha virt. eigenvalues --    1.03103   1.03923   1.04547   1.05529   1.06357
 Alpha virt. eigenvalues --    1.06865   1.08276   1.08294   1.09226   1.09442
 Alpha virt. eigenvalues --    1.11059   1.11403   1.11789   1.12308   1.13784
 Alpha virt. eigenvalues --    1.14341   1.15264   1.15746   1.16216   1.17643
 Alpha virt. eigenvalues --    1.18556   1.19488   1.20499   1.20822   1.21476
 Alpha virt. eigenvalues --    1.21786   1.23057   1.23824   1.24597   1.25000
 Alpha virt. eigenvalues --    1.26563   1.26789   1.28437   1.29249   1.31792
 Alpha virt. eigenvalues --    1.32699   1.33289   1.34120   1.34458   1.35374
 Alpha virt. eigenvalues --    1.36567   1.37663   1.37774   1.38889   1.40081
 Alpha virt. eigenvalues --    1.41055   1.41586   1.42337   1.42536   1.43246
 Alpha virt. eigenvalues --    1.44152   1.44825   1.45917   1.46560   1.47656
 Alpha virt. eigenvalues --    1.48468   1.49107   1.50493   1.51143   1.51498
 Alpha virt. eigenvalues --    1.52780   1.53333   1.54440   1.54791   1.55565
 Alpha virt. eigenvalues --    1.57235   1.57948   1.59114   1.59613   1.60860
 Alpha virt. eigenvalues --    1.61582   1.61678   1.62951   1.63497   1.64340
 Alpha virt. eigenvalues --    1.64809   1.65100   1.66528   1.66767   1.67103
 Alpha virt. eigenvalues --    1.68104   1.68754   1.69743   1.71339   1.73038
 Alpha virt. eigenvalues --    1.73607   1.74560   1.74934   1.75214   1.76564
 Alpha virt. eigenvalues --    1.77056   1.78131   1.78811   1.80209   1.80845
 Alpha virt. eigenvalues --    1.81254   1.82168   1.82824   1.83848   1.84414
 Alpha virt. eigenvalues --    1.84862   1.85647   1.86428   1.86892   1.87213
 Alpha virt. eigenvalues --    1.88283   1.89306   1.89441   1.90294   1.90901
 Alpha virt. eigenvalues --    1.92606   1.92890   1.94162   1.94860   1.95455
 Alpha virt. eigenvalues --    1.96260   1.96874   1.97466   1.98746   1.99868
 Alpha virt. eigenvalues --    2.00244   2.00765   2.01339   2.02291   2.02801
 Alpha virt. eigenvalues --    2.03122   2.04179   2.05098   2.06286   2.06609
 Alpha virt. eigenvalues --    2.08171   2.09369   2.10005   2.11105   2.12260
 Alpha virt. eigenvalues --    2.13543   2.14106   2.15041   2.16765   2.17882
 Alpha virt. eigenvalues --    2.18256   2.18502   2.19977   2.20651   2.21850
 Alpha virt. eigenvalues --    2.22346   2.23613   2.24311   2.24398   2.25816
 Alpha virt. eigenvalues --    2.27222   2.27375   2.29084   2.30516   2.30658
 Alpha virt. eigenvalues --    2.31401   2.31631   2.33560   2.34297   2.35550
 Alpha virt. eigenvalues --    2.36231   2.37941   2.38556   2.40141   2.40506
 Alpha virt. eigenvalues --    2.41746   2.41935   2.43306   2.45486   2.45816
 Alpha virt. eigenvalues --    2.47650   2.50774   2.51332   2.52583   2.53213
 Alpha virt. eigenvalues --    2.53893   2.54691   2.55656   2.58564   2.58957
 Alpha virt. eigenvalues --    2.59647   2.60211   2.61153   2.62521   2.63124
 Alpha virt. eigenvalues --    2.63545   2.66128   2.66597   2.68369   2.69039
 Alpha virt. eigenvalues --    2.69638   2.71115   2.71177   2.72877   2.74437
 Alpha virt. eigenvalues --    2.75427   2.76623   2.77277   2.78539   2.80234
 Alpha virt. eigenvalues --    2.81652   2.82892   2.84581   2.86260   2.87205
 Alpha virt. eigenvalues --    2.88385   2.90264   2.92457   2.93182   2.96786
 Alpha virt. eigenvalues --    2.97889   2.99961   3.05667   3.07805   3.12654
 Alpha virt. eigenvalues --    3.16133   3.18574   3.25167   3.26811   3.35514
 Alpha virt. eigenvalues --    3.37002   3.39365   3.40133   3.42494   3.47805
 Alpha virt. eigenvalues --    3.48824   3.49281   3.50311   3.53768   3.54913
 Alpha virt. eigenvalues --    3.56463   3.58743   3.60590   3.63415   3.72038
 Alpha virt. eigenvalues --    3.78470   3.82774   3.85130   3.86924   3.91658
 Alpha virt. eigenvalues --    3.98984   4.00766   4.05269   4.10512   4.27596
 Alpha virt. eigenvalues --    4.33213
          Condensed to atoms (all electrons):
               1          2          3          4          5          6
     1  N   11.620475  -0.508828  -1.118156   0.032426  -0.285153   0.304348
     2  C   -0.508828  25.310815  -2.455676   0.189554  -0.393467  -6.172870
     3  C   -1.118156  -2.455676   9.823198  -1.034308   0.626456   0.455584
     4  C    0.032426   0.189554  -1.034308   6.712638  -0.390697   0.086850
     5  C   -0.285153  -0.393467   0.626456  -0.390697   5.754091  -0.103384
     6  C    0.304348  -6.172870   0.455584   0.086850  -0.103384  23.113030
     7  C   -0.772769  -2.807490  -0.205888  -0.079000  -0.067240  -4.738655
     8  N   -0.000758   0.671448  -0.138749   0.007609   0.007117   0.053563
     9  C    0.124570  -0.692993  -0.069187  -0.024171  -0.025267  -1.613472
    10  C   -0.071007   0.194357  -0.142563  -0.013433   0.018076   0.021909
    11  C   -0.233443  -3.235391  -0.288169  -0.104743  -0.042730  -9.127460
    12  O   -0.461002   0.172487  -0.083021  -0.005101  -0.012915  -0.093353
    13  O   -0.103598   0.096516  -0.053986   0.029223  -0.030893  -0.030267
    14  O    0.012253  -0.020626   0.002811   0.004387  -0.004422  -0.013797
    15  H   -0.154929   0.093033   0.184522  -0.157606   0.005020   0.046230
    16  H   -0.004715  -0.185251   0.137967  -0.096116   0.119647   0.035770
    17  H   -0.080702   0.319695   0.078552  -0.563899   0.338925  -0.107736
    18  H   -0.479854  -0.635549  -0.158337   0.141676   0.045021   0.308588
    19  H    0.371289   0.336363  -1.129123   0.214596  -0.152214   0.096968
    20  H   -0.506556   0.025395   0.058428   0.291928  -0.443872  -0.080226
    21  H   -0.508311  -4.433392   0.663987  -0.166146   0.132506   1.776995
    22  H    0.089340  -0.590152   0.048346   0.081909  -0.028141  -0.585674
    23  H    0.002635  -0.036195   0.007546  -0.000416  -0.000378  -0.311010
    24  H   -0.001151   0.043010   0.008005   0.000202  -0.000394   0.226929
    25  H   -0.025505   0.171963  -0.068246   0.000971   0.004330   1.196734
    26  C    1.072753  -0.261855  -0.226728  -0.061884  -0.144118   0.109189
    27  H   -0.307355   0.013288  -0.055083   0.014770  -0.093268   0.058902
    28  H    0.051512   0.001866   0.008303  -0.000026   0.003434  -0.009948
    29  H   -0.021444  -0.020030  -0.006468   0.016885   0.004913   0.019819
    30  H   -0.000383   0.025335  -0.009834  -0.002365  -0.001021  -0.053013
    31  H   -0.000565  -0.001784   0.001263   0.000327   0.000094   0.011949
    32  H   -0.000978   0.000742  -0.009645   0.004268   0.003979   0.008030
    33  H    0.016521  -0.007477   0.016246  -0.013628   0.003164  -0.001232
    34  O    0.006159  -0.040600  -0.099337   0.026424  -0.003075   0.014644
    35  H    0.005046   0.004507   0.023110  -0.007046   0.003355  -0.003195
    36  H   -0.001090   0.009889  -0.003493   0.002507  -0.001238   0.000566
    37  H   -0.421303  -0.157773   0.015668  -0.061747   0.121301   0.086805
    38  H   -0.090970   0.041189  -0.072024   0.033784   0.062784  -0.033486
    39  H    0.016426  -0.092520   0.161818  -0.024265  -0.089825   0.180486
               7          8          9         10         11         12
     1  N   -0.772769  -0.000758   0.124570  -0.071007  -0.233443  -0.461002
     2  C   -2.807490   0.671448  -0.692993   0.194357  -3.235391   0.172487
     3  C   -0.205888  -0.138749  -0.069187  -0.142563  -0.288169  -0.083021
     4  C   -0.079000   0.007609  -0.024171  -0.013433  -0.104743  -0.005101
     5  C   -0.067240   0.007117  -0.025267   0.018076  -0.042730  -0.012915
     6  C   -4.738655   0.053563  -1.613472   0.021909  -9.127460  -0.093353
     7  C   16.422213  -0.214224  -1.043683  -0.061639  -0.408881   0.037327
     8  N   -0.214224   7.646832   0.184485   0.312143  -0.711096  -0.008469
     9  C   -1.043683   0.184485   9.988121  -2.291733   1.485694   0.003863
    10  C   -0.061639   0.312143  -2.291733  10.757653  -2.923280  -0.001339
    11  C   -0.408881  -0.711096   1.485694  -2.923280  22.375130   0.000222
    12  O    0.037327  -0.008469   0.003863  -0.001339   0.000222   8.583908
    13  O   -0.001602   0.001206   0.000138  -0.000310  -0.002400  -0.094643
    14  O   -0.223934  -0.012221   0.051440  -0.006723   0.010026  -0.106529
    15  H   -0.011890  -0.000510  -0.002739   0.004377   0.006464  -0.012221
    16  H    0.018861  -0.001102   0.003012  -0.006941   0.009655  -0.002302
    17  H   -0.040493   0.002601  -0.004121   0.003152   0.000204   0.003220
    18  H   -0.097291  -0.027793  -0.003476  -0.046461   0.025016   0.013587
    19  H    0.189728  -0.008194   0.010939  -0.002872  -0.043883  -0.000862
    20  H    0.029290   0.001446   0.000326  -0.001813   0.004795   0.078404
    21  H    0.256918  -0.022095   0.010308   0.016029  -0.026865   0.013122
    22  H   -1.243927  -0.237661  -0.043721   0.120581  -0.167614  -0.025135
    23  H    0.453500  -0.276690  -0.345695  -0.007847   0.274108  -0.000270
    24  H   -0.145868  -0.055627   0.300281  -1.101567   0.435852   0.000279
    25  H   -0.122285   0.018911  -0.222484   0.539996  -2.336169  -0.000882
    26  C   -0.024303  -0.000125  -0.020620   0.108977  -0.003399  -0.073292
    27  H   -0.085285  -0.001761   0.013094  -0.020826  -0.258530   0.209171
    28  H    0.053197  -0.006640  -0.009184   0.002211  -0.004455   0.169978
    29  H   -0.021705   0.005689   0.000060   0.001352   0.003104   0.277866
    30  H   -0.011753   0.130927   0.075158  -0.052894   0.032343  -0.003602
    31  H    0.035025  -0.015377  -0.011378   0.007998  -0.008513   0.008586
    32  H   -0.008525   0.002137  -0.001384   0.000606   0.002470  -0.014049
    33  H    0.003469  -0.000079   0.000390  -0.000093  -0.000579   0.006595
    34  O    0.028990   0.014756  -0.010905   0.007260   0.009914   0.009895
    35  H    0.046660  -0.027470   0.001418  -0.006541  -0.004929   0.003416
    36  H   -0.015360   0.002298  -0.000310   0.000371   0.000402  -0.000488
    37  H    0.093816  -0.003016   0.012841  -0.015228   0.141652  -0.015943
    38  H    0.032823  -0.001930  -0.003787   0.015040  -0.026737   0.021745
    39  H   -0.097943   0.007225  -0.030014   0.012294  -0.042920   0.003432
              13         14         15         16         17         18
     1  N   -0.103598   0.012253  -0.154929  -0.004715  -0.080702  -0.479854
     2  C    0.096516  -0.020626   0.093033  -0.185251   0.319695  -0.635549
     3  C   -0.053986   0.002811   0.184522   0.137967   0.078552  -0.158337
     4  C    0.029223   0.004387  -0.157606  -0.096116  -0.563899   0.141676
     5  C   -0.030893  -0.004422   0.005020   0.119647   0.338925   0.045021
     6  C   -0.030267  -0.013797   0.046230   0.035770  -0.107736   0.308588
     7  C   -0.001602  -0.223934  -0.011890   0.018861  -0.040493  -0.097291
     8  N    0.001206  -0.012221  -0.000510  -0.001102   0.002601  -0.027793
     9  C    0.000138   0.051440  -0.002739   0.003012  -0.004121  -0.003476
    10  C   -0.000310  -0.006723   0.004377  -0.006941   0.003152  -0.046461
    11  C   -0.002400   0.010026   0.006464   0.009655   0.000204   0.025016
    12  O   -0.094643  -0.106529  -0.012221  -0.002302   0.003220   0.013587
    13  O    7.962198   0.001019  -0.002013  -0.003300   0.010399   0.014872
    14  O    0.001019   8.334546  -0.000436   0.000222   0.000892  -0.016588
    15  H   -0.002013  -0.000436   2.342108  -0.363886   0.145592  -0.037409
    16  H   -0.003300   0.000222  -0.363886   2.156289  -0.654912   0.200236
    17  H    0.010399   0.000892   0.145592  -0.654912   2.262199  -0.247220
    18  H    0.014872  -0.016588  -0.037409   0.200236  -0.247220   3.056578
    19  H    0.001729  -0.000059   0.021708  -0.233776   0.077114  -0.670518
    20  H    0.032848  -0.000450  -0.765915   0.192441  -0.290383   0.093185
    21  H    0.002579  -0.000983  -0.024333   0.024187   0.000793   0.288781
    22  H    0.004671   0.225333  -0.007784   0.002812   0.005730  -0.351160
    23  H   -0.000025   0.003850  -0.000013   0.000092  -0.000150   0.000875
    24  H   -0.000006  -0.000375  -0.000242  -0.000014   0.000045   0.004404
    25  H   -0.000275  -0.000321   0.000691   0.002413  -0.001619  -0.013004
    26  C   -0.019056   0.002293   0.111036  -0.032452   0.016016  -0.133285
    27  H    0.021793  -0.006719  -0.049965  -0.023676   0.020027   0.156684
    28  H    0.000419  -0.004410  -0.001643   0.002138  -0.002699   0.010940
    29  H    0.042630   0.007210   0.000323  -0.005714   0.007280   0.006044
    30  H   -0.000306   0.260472  -0.000388   0.000300  -0.000799   0.009339
    31  H    0.000109   0.254166   0.000096  -0.000045   0.000111  -0.000914
    32  H    0.305469   0.000261  -0.001567   0.002894   0.000243  -0.013469
    33  H    0.317652   0.000117   0.000534  -0.000212  -0.001101   0.005722
    34  O   -0.033438  -0.051989   0.000282  -0.000033   0.006473   0.019278
    35  H    0.004222  -0.010407   0.000189  -0.000232  -0.000356   0.008640
    36  H    0.000126  -0.002630  -0.000033  -0.000024  -0.000262   0.003443
    37  H    0.000628   0.000171   0.014465   0.017352  -0.010952  -0.008105
    38  H   -0.000362   0.000127  -0.015195  -0.001012   0.001845  -0.012418
    39  H   -0.001642   0.002823   0.034024  -0.008424   0.004525   0.010662
              19         20         21         22         23         24
     1  N    0.371289  -0.506556  -0.508311   0.089340   0.002635  -0.001151
     2  C    0.336363   0.025395  -4.433392  -0.590152  -0.036195   0.043010
     3  C   -1.129123   0.058428   0.663987   0.048346   0.007546   0.008005
     4  C    0.214596   0.291928  -0.166146   0.081909  -0.000416   0.000202
     5  C   -0.152214  -0.443872   0.132506  -0.028141  -0.000378  -0.000394
     6  C    0.096968  -0.080226   1.776995  -0.585674  -0.311010   0.226929
     7  C    0.189728   0.029290   0.256918  -1.243927   0.453500  -0.145868
     8  N   -0.008194   0.001446  -0.022095  -0.237661  -0.276690  -0.055627
     9  C    0.010939   0.000326   0.010308  -0.043721  -0.345695   0.300281
    10  C   -0.002872  -0.001813   0.016029   0.120581  -0.007847  -1.101567
    11  C   -0.043883   0.004795  -0.026865  -0.167614   0.274108   0.435852
    12  O   -0.000862   0.078404   0.013122  -0.025135  -0.000270   0.000279
    13  O    0.001729   0.032848   0.002579   0.004671  -0.000025  -0.000006
    14  O   -0.000059  -0.000450  -0.000983   0.225333   0.003850  -0.000375
    15  H    0.021708  -0.765915  -0.024333  -0.007784  -0.000013  -0.000242
    16  H   -0.233776   0.192441   0.024187   0.002812   0.000092  -0.000014
    17  H    0.077114  -0.290383   0.000793   0.005730  -0.000150   0.000045
    18  H   -0.670518   0.093185   0.288781  -0.351160   0.000875   0.004404
    19  H    2.473572  -0.037676  -0.226331   0.087300   0.000781  -0.001847
    20  H   -0.037676   2.842681   0.050441  -0.009746   0.000097   0.000039
    21  H   -0.226331   0.050441   4.329179  -0.003165   0.000281  -0.000785
    22  H    0.087300  -0.009746  -0.003165   5.350665   0.011222  -0.029096
    23  H    0.000781   0.000097   0.000281   0.011222   1.942297  -0.109408
    24  H   -0.001847   0.000039  -0.000785  -0.029096  -0.109408   2.178912
    25  H    0.007155  -0.001294  -0.122970  -0.008233  -0.002875  -0.141190
    26  C    0.074152  -0.199712  -0.190022   0.057875   0.000962  -0.010298
    27  H    0.002799   0.105631   0.133228  -0.161592  -0.004374   0.006685
    28  H   -0.002898   0.001068   0.001047  -0.053905   0.000484   0.000013
    29  H    0.002583  -0.002280  -0.000151   0.005887  -0.000281   0.000145
    30  H   -0.002043   0.001104  -0.000522  -0.167635  -0.033654   0.006416
    31  H    0.000115  -0.000321   0.000070  -0.001519   0.002096  -0.000321
    32  H    0.000723   0.003156  -0.001220   0.028287  -0.000221  -0.000038
    33  H    0.000454  -0.003356  -0.000270  -0.010219   0.000020  -0.000001
    34  O    0.006127  -0.003149  -0.000730  -0.131871  -0.000032   0.000165
    35  H    0.000005  -0.000269   0.000274  -0.039791   0.001219   0.000237
    36  H    0.000190  -0.000037   0.000203   0.007969   0.000023  -0.000016
    37  H    0.004920   0.029908   0.003472   0.031557   0.000294   0.000592
    38  H    0.001376  -0.023851   0.004412   0.022341   0.000493  -0.001368
    39  H    0.003980  -0.025964   0.014394  -0.041179  -0.002871  -0.002580
              25         26         27         28         29         30
     1  N   -0.025505   1.072753  -0.307355   0.051512  -0.021444  -0.000383
     2  C    0.171963  -0.261855   0.013288   0.001866  -0.020030   0.025335
     3  C   -0.068246  -0.226728  -0.055083   0.008303  -0.006468  -0.009834
     4  C    0.000971  -0.061884   0.014770  -0.000026   0.016885  -0.002365
     5  C    0.004330  -0.144118  -0.093268   0.003434   0.004913  -0.001021
     6  C    1.196734   0.109189   0.058902  -0.009948   0.019819  -0.053013
     7  C   -0.122285  -0.024303  -0.085285   0.053197  -0.021705  -0.011753
     8  N    0.018911  -0.000125  -0.001761  -0.006640   0.005689   0.130927
     9  C   -0.222484  -0.020620   0.013094  -0.009184   0.000060   0.075158
    10  C    0.539996   0.108977  -0.020826   0.002211   0.001352  -0.052894
    11  C   -2.336169  -0.003399  -0.258530  -0.004455   0.003104   0.032343
    12  O   -0.000882  -0.073292   0.209171   0.169978   0.277866  -0.003602
    13  O   -0.000275  -0.019056   0.021793   0.000419   0.042630  -0.000306
    14  O   -0.000321   0.002293  -0.006719  -0.004410   0.007210   0.260472
    15  H    0.000691   0.111036  -0.049965  -0.001643   0.000323  -0.000388
    16  H    0.002413  -0.032452  -0.023676   0.002138  -0.005714   0.000300
    17  H   -0.001619   0.016016   0.020027  -0.002699   0.007280  -0.000799
    18  H   -0.013004  -0.133285   0.156684   0.010940   0.006044   0.009339
    19  H    0.007155   0.074152   0.002799  -0.002898   0.002583  -0.002043
    20  H   -0.001294  -0.199712   0.105631   0.001068  -0.002280   0.001104
    21  H   -0.122970  -0.190022   0.133228   0.001047  -0.000151  -0.000522
    22  H   -0.008233   0.057875  -0.161592  -0.053905   0.005887  -0.167635
    23  H   -0.002875   0.000962  -0.004374   0.000484  -0.000281  -0.033654
    24  H   -0.141190  -0.010298   0.006685   0.000013   0.000145   0.006416
    25  H    2.955357   0.065969  -0.003659   0.000389  -0.000803  -0.001682
    26  C    0.065969   4.716908  -0.634846   0.005005   0.002345   0.000479
    27  H   -0.003659  -0.634846   2.158649  -0.032431   0.005777  -0.008707
    28  H    0.000389   0.005005  -0.032431   0.566335  -0.079523   0.005597
    29  H   -0.000803   0.002345   0.005777  -0.079523   0.453553  -0.002351
    30  H   -0.001682   0.000479  -0.008707   0.005597  -0.002351   0.574016
    31  H   -0.000064  -0.000376   0.002593   0.004341  -0.000049  -0.142413
    32  H    0.000160   0.004132  -0.022068   0.003236  -0.001991   0.000986
    33  H    0.000004   0.000318   0.009944   0.001166  -0.005275  -0.000141
    34  O    0.000722   0.004170  -0.001400   0.002585   0.009434   0.008300
    35  H   -0.000472  -0.002249   0.012691   0.012819  -0.004095   0.001623
    36  H    0.000083  -0.000087   0.000567  -0.001147   0.001109   0.001230
    37  H    0.014036   0.230503  -0.247985   0.001647   0.001881   0.000336
    38  H    0.003132   0.168399   0.051544  -0.001413  -0.003700  -0.001157
    39  H   -0.016582   0.190469  -0.022889  -0.000584   0.001167   0.002548
              31         32         33         34         35         36
     1  N   -0.000565  -0.000978   0.016521   0.006159   0.005046  -0.001090
     2  C   -0.001784   0.000742  -0.007477  -0.040600   0.004507   0.009889
     3  C    0.001263  -0.009645   0.016246  -0.099337   0.023110  -0.003493
     4  C    0.000327   0.004268  -0.013628   0.026424  -0.007046   0.002507
     5  C    0.000094   0.003979   0.003164  -0.003075   0.003355  -0.001238
     6  C    0.011949   0.008030  -0.001232   0.014644  -0.003195   0.000566
     7  C    0.035025  -0.008525   0.003469   0.028990   0.046660  -0.015360
     8  N   -0.015377   0.002137  -0.000079   0.014756  -0.027470   0.002298
     9  C   -0.011378  -0.001384   0.000390  -0.010905   0.001418  -0.000310
    10  C    0.007998   0.000606  -0.000093   0.007260  -0.006541   0.000371
    11  C   -0.008513   0.002470  -0.000579   0.009914  -0.004929   0.000402
    12  O    0.008586  -0.014049   0.006595   0.009895   0.003416  -0.000488
    13  O    0.000109   0.305469   0.317652  -0.033438   0.004222   0.000126
    14  O    0.254166   0.000261   0.000117  -0.051989  -0.010407  -0.002630
    15  H    0.000096  -0.001567   0.000534   0.000282   0.000189  -0.000033
    16  H   -0.000045   0.002894  -0.000212  -0.000033  -0.000232  -0.000024
    17  H    0.000111   0.000243  -0.001101   0.006473  -0.000356  -0.000262
    18  H   -0.000914  -0.013469   0.005722   0.019278   0.008640   0.003443
    19  H    0.000115   0.000723   0.000454   0.006127   0.000005   0.000190
    20  H   -0.000321   0.003156  -0.003356  -0.003149  -0.000269  -0.000037
    21  H    0.000070  -0.001220  -0.000270  -0.000730   0.000274   0.000203
    22  H   -0.001519   0.028287  -0.010219  -0.131871  -0.039791   0.007969
    23  H    0.002096  -0.000221   0.000020  -0.000032   0.001219   0.000023
    24  H   -0.000321  -0.000038  -0.000001   0.000165   0.000237  -0.000016
    25  H   -0.000064   0.000160   0.000004   0.000722  -0.000472   0.000083
    26  C   -0.000376   0.004132   0.000318   0.004170  -0.002249  -0.000087
    27  H    0.002593  -0.022068   0.009944  -0.001400   0.012691   0.000567
    28  H    0.004341   0.003236   0.001166   0.002585   0.012819  -0.001147
    29  H   -0.000049  -0.001991  -0.005275   0.009434  -0.004095   0.001109
    30  H   -0.142413   0.000986  -0.000141   0.008300   0.001623   0.001230
    31  H    0.570204  -0.000573   0.000038   0.004287   0.004479  -0.000120
    32  H   -0.000573   0.507428  -0.108633  -0.005005  -0.001960  -0.000968
    33  H    0.000038  -0.108633   0.590052  -0.002712   0.003205   0.000006
    34  O    0.004287  -0.005005  -0.002712   8.109198   0.287145   0.316314
    35  H    0.004479  -0.001960   0.003205   0.287145   0.521597  -0.101442
    36  H   -0.000120  -0.000968   0.000006   0.316314  -0.101442   0.536099
    37  H   -0.000109   0.001679  -0.000393   0.000168  -0.000528  -0.000035
    38  H    0.000191  -0.000146   0.000185   0.000509  -0.000698   0.000030
    39  H   -0.000455  -0.000547   0.000043  -0.000631   0.000890  -0.000084
              37         38         39
     1  N   -0.421303  -0.090970   0.016426
     2  C   -0.157773   0.041189  -0.092520
     3  C    0.015668  -0.072024   0.161818
     4  C   -0.061747   0.033784  -0.024265
     5  C    0.121301   0.062784  -0.089825
     6  C    0.086805  -0.033486   0.180486
     7  C    0.093816   0.032823  -0.097943
     8  N   -0.003016  -0.001930   0.007225
     9  C    0.012841  -0.003787  -0.030014
    10  C   -0.015228   0.015040   0.012294
    11  C    0.141652  -0.026737  -0.042920
    12  O   -0.015943   0.021745   0.003432
    13  O    0.000628  -0.000362  -0.001642
    14  O    0.000171   0.000127   0.002823
    15  H    0.014465  -0.015195   0.034024
    16  H    0.017352  -0.001012  -0.008424
    17  H   -0.010952   0.001845   0.004525
    18  H   -0.008105  -0.012418   0.010662
    19  H    0.004920   0.001376   0.003980
    20  H    0.029908  -0.023851  -0.025964
    21  H    0.003472   0.004412   0.014394
    22  H    0.031557   0.022341  -0.041179
    23  H    0.000294   0.000493  -0.002871
    24  H    0.000592  -0.001368  -0.002580
    25  H    0.014036   0.003132  -0.016582
    26  C    0.230503   0.168399   0.190469
    27  H   -0.247985   0.051544  -0.022889
    28  H    0.001647  -0.001413  -0.000584
    29  H    0.001881  -0.003700   0.001167
    30  H    0.000336  -0.001157   0.002548
    31  H   -0.000109   0.000191  -0.000455
    32  H    0.001679  -0.000146  -0.000547
    33  H   -0.000393   0.000185   0.000043
    34  O    0.000168   0.000509  -0.000631
    35  H   -0.000528  -0.000698   0.000890
    36  H   -0.000035   0.000030  -0.000084
    37  H    2.045213  -0.368668  -0.395709
    38  H   -0.368668   1.857296  -0.545559
    39  H   -0.395709  -0.545559   1.901630
 Mulliken charges:
               1
     1  N   -0.565226
     2  C    1.028465
     3  C    1.106212
     4  C    0.913662
     5  C    1.059496
     6  C    0.864891
     7  C    0.849815
     8  N   -0.298805
     9  C    0.204186
    10  C    0.630727
    11  C    1.185133
    12  O   -0.601685
    13  O   -0.472324
    14  O   -0.690800
    15  H   -0.399977
    16  H   -0.302149
    17  H   -0.298231
    18  H   -0.470719
    19  H   -0.474369
    20  H   -0.445740
    21  H   -0.994915
    22  H   -1.242907
    23  H   -0.570471
    24  H   -0.610017
    25  H   -0.892404
    26  C    1.096761
    27  H    0.044583
    28  H    0.301177
    29  H    0.298805
    30  H    0.360156
    31  H    0.276762
    32  H    0.312102
    33  H    0.179558
    34  O   -0.508291
    35  H    0.264933
    36  H    0.245439
    37  H   -0.163414
    38  H   -0.114766
    39  H   -0.105651
 Sum of Mulliken charges =   1.00000
 Mulliken charges with hydrogens summed into heavy atoms:
               1
     1  N   -0.520643
     2  C    0.033550
     3  C    0.161123
     4  C    0.313282
     5  C    0.213779
     6  C    0.864891
     7  C   -0.393092
     8  N   -0.298805
     9  C   -0.366285
    10  C    0.020709
    11  C    0.292729
    12  O   -0.001703
    13  O    0.019336
    14  O   -0.053882
    26  C    0.712931
    34  O    0.002080
 APT charges:
               1
     1  N   -0.502745
     2  C    0.364065
     3  C    0.019853
     4  C    0.056384
     5  C    0.246590
     6  C   -0.122293
     7  C    0.109143
     8  N   -0.437566
     9  C    0.203574
    10  C   -0.137845
    11  C    0.110392
    12  O   -0.758651
    13  O   -0.661584
    14  O   -0.725064
    15  H    0.005993
    16  H   -0.005463
    17  H    0.023772
    18  H    0.021089
    19  H    0.021968
    20  H    0.024822
    21  H   -0.018498
    22  H    0.095553
    23  H    0.053259
    24  H    0.068066
    25  H    0.058841
    26  C    0.203847
    27  H    0.407249
    28  H    0.353554
    29  H    0.406324
    30  H    0.450609
    31  H    0.284807
    32  H    0.407291
    33  H    0.272867
    34  O   -0.676556
    35  H    0.394144
    36  H    0.275266
    37  H    0.028094
    38  H    0.043169
    39  H    0.035678
 Sum of APT charges =   1.00000
 APT charges with hydrogens summed into heavy atoms:
               1
     1  N   -0.095495
     2  C    0.345567
     3  C    0.062911
     4  C    0.074693
     5  C    0.277405
     6  C   -0.122293
     7  C    0.204696
     8  N   -0.437566
     9  C    0.256833
    10  C   -0.069779
    11  C    0.169233
    12  O    0.001227
    13  O    0.018574
    14  O    0.010353
    26  C    0.310788
    34  O   -0.007146
 Electronic spatial extent (au):  <R**2>=           4116.9849
 Charge=              1.0000 electrons
 Dipole moment (field-independent basis, Debye):
    X=             -0.5597    Y=             -1.2557    Z=              0.2568  Tot=              1.3986
 Quadrupole moment (field-independent basis, Debye-Ang):
   XX=            -62.6665   YY=            -54.7342   ZZ=            -90.0623
   XY=             -0.3068   XZ=              3.1338   YZ=             -2.9555
 Traceless Quadrupole moment (field-independent basis, Debye-Ang):
   XX=              6.4878   YY=             14.4201   ZZ=            -20.9080
   XY=             -0.3068   XZ=              3.1338   YZ=             -2.9555
 Octapole moment (field-independent basis, Debye-Ang**2):
  XXX=             -3.8472  YYY=             96.0390  ZZZ=              0.0705  XYY=            -14.7400
  XXY=             20.8005  XXZ=             10.3162  XZZ=            -18.3685  YZZ=             16.6224
  YYZ=              9.9111  XYZ=             15.3863
 Hexadecapole moment (field-independent basis, Debye-Ang**3):
 XXXX=          -1954.1011 YYYY=          -1377.7078 ZZZZ=           -658.4775 XXXY=           -137.7917
 XXXZ=             -0.9416 YYYX=              2.5165 YYYZ=             -6.9030 ZZZX=             28.9551
 ZZZY=            -46.6489 XXYY=           -571.3090 XXZZ=           -552.5877 YYZZ=           -317.8063
 XXYZ=             21.7287 YYXZ=             43.6513 ZZXY=             11.6172
 N-N= 1.279577594068D+03 E-N=-4.422022419331D+03  KE= 8.000417508637D+02
  Exact polarizability: 186.987   3.292 163.575   4.890   0.888 127.535
 Approx polarizability: 191.613   1.552 183.936   5.797   2.352 145.866
 Calling FoFJK, ICntrl=    100127 FMM=F ISym2X=0 I1Cent= 0 IOpClX= 0 NMat=1 NMatS=1 NMatT=0.
 Full mass-weighted force constant matrix:
 Low frequencies ---   -7.6722   -0.0004    0.0003    0.0006    4.0665    8.1946
 Low frequencies ---   35.4895   53.0333   63.8501
 Diagonal vibrational polarizability:
       81.6582437      98.1448499      97.2238156
 Harmonic frequencies (cm**-1), IR intensities (KM/Mole), Raman scattering
 activities (A**4/AMU), depolarization ratios for plane and unpolarized
 incident light, reduced masses (AMU), force constants (mDyne/A),
 and normal coordinates:
                      1                      2                      3
                      A                      A                      A
 Frequencies --     35.4310                52.9909                63.8252
 Red. masses --      5.1923                 4.3591                 3.6065
 Frc consts  --      0.0038                 0.0072                 0.0087
 IR Inten    --      1.2854                 1.6644                 0.0229
  Atom  AN      X      Y      Z        X      Y      Z        X      Y      Z
     1   7    -0.01   0.02  -0.06    -0.01  -0.05  -0.01    -0.05   0.08  -0.03
     2   6     0.02   0.03  -0.04    -0.03  -0.00  -0.03     0.02  -0.06   0.03
     3   6     0.05   0.07  -0.05    -0.07  -0.02  -0.00     0.08  -0.17  -0.09
     4   6     0.03   0.09  -0.09    -0.03  -0.11   0.01     0.05  -0.11  -0.11
     5   6    -0.00   0.06  -0.09    -0.02  -0.03   0.01    -0.03   0.03  -0.08
     6   6     0.03  -0.00   0.00    -0.04   0.03  -0.03     0.01  -0.04   0.02
     7   6     0.05  -0.00  -0.04    -0.04   0.03  -0.18    -0.01  -0.03  -0.03
     8   7     0.05  -0.02   0.00    -0.05   0.04  -0.15    -0.01  -0.01  -0.08
     9   6     0.03  -0.04   0.09    -0.06   0.05   0.05     0.00   0.01  -0.08
    10   6     0.01  -0.04   0.14    -0.07   0.03   0.21     0.02   0.01  -0.03
    11   6     0.01  -0.02   0.09    -0.06   0.03   0.17     0.03  -0.01   0.02
    12   8     0.12   0.00   0.02     0.15  -0.05  -0.03     0.02   0.05   0.02
    13   8    -0.10   0.00   0.29     0.12  -0.03   0.00    -0.04  -0.03   0.06
    14   8    -0.00   0.04  -0.19     0.06   0.01  -0.02     0.06  -0.03   0.07
    15   1    -0.03   0.06  -0.12    -0.05  -0.00   0.08    -0.03   0.06  -0.00
    16   1     0.01   0.11  -0.11     0.06  -0.16   0.04     0.06  -0.15  -0.03
    17   1     0.05   0.12  -0.08    -0.09  -0.20  -0.04     0.07  -0.12  -0.21
    18   1     0.08   0.06  -0.04    -0.14  -0.02   0.04     0.09  -0.17  -0.21
    19   1     0.06   0.07  -0.05    -0.06   0.03  -0.02     0.13  -0.29  -0.04
    20   1    -0.00   0.06  -0.09     0.01   0.02  -0.03    -0.06   0.08  -0.18
    21   1    -0.00   0.03  -0.06     0.00   0.00  -0.06     0.04  -0.07   0.15
    22   1     0.07   0.01  -0.10    -0.01   0.04  -0.32    -0.02  -0.04  -0.03
    23   1     0.03  -0.05   0.13    -0.08   0.06   0.07    -0.00   0.04  -0.13
    24   1    -0.01  -0.06   0.22    -0.08   0.03   0.37     0.03   0.03  -0.03
    25   1    -0.01  -0.02   0.12    -0.06   0.02   0.29     0.04  -0.02   0.06
    26   6    -0.05  -0.00  -0.06     0.01  -0.10  -0.05    -0.10   0.20   0.08
    27   1     0.02   0.02  -0.04     0.02  -0.06   0.02    -0.06   0.10  -0.11
    28   1     0.10   0.01  -0.05     0.16  -0.06  -0.05     0.03   0.05   0.00
    29   1     0.06   0.01   0.14     0.15  -0.04  -0.02     0.00   0.06   0.07
    30   1     0.02   0.04  -0.14     0.02   0.02  -0.10     0.03  -0.04  -0.00
    31   1    -0.03   0.09  -0.25     0.10  -0.03   0.02     0.11  -0.06   0.08
    32   1    -0.15  -0.05   0.20     0.09   0.03   0.03    -0.04   0.00   0.09
    33   1    -0.07   0.03   0.35     0.11  -0.07   0.05    -0.07  -0.06   0.03
    34   8    -0.17  -0.17  -0.02     0.01   0.18   0.04    -0.04   0.06   0.15
    35   1    -0.12  -0.12  -0.10     0.02   0.13   0.05    -0.01   0.02   0.15
    36   1    -0.25  -0.21  -0.06    -0.04   0.25   0.10    -0.05   0.09   0.18
    37   1    -0.06   0.00  -0.08     0.00  -0.09  -0.09    -0.09   0.17   0.20
    38   1    -0.07  -0.01  -0.07     0.02  -0.14  -0.03    -0.15   0.30   0.03
    39   1    -0.05  -0.02  -0.02     0.01  -0.11  -0.05    -0.12   0.22   0.10
                      4                      5                      6
                      A                      A                      A
 Frequencies --     72.3865                78.8061                88.7494
 Red. masses --      4.7412                 5.0619                 4.3179
 Frc consts  --      0.0146                 0.0185                 0.0200
 IR Inten    --      3.0511                 1.4967                 2.7439
  Atom  AN      X      Y      Z        X      Y      Z        X      Y      Z
     1   7    -0.06  -0.01  -0.00     0.03  -0.07   0.01    -0.02  -0.06   0.04
     2   6    -0.02  -0.02   0.02     0.04  -0.07   0.02     0.02  -0.02   0.06
     3   6     0.01  -0.05  -0.03     0.04  -0.10  -0.00     0.05   0.01   0.05
     4   6     0.01  -0.08  -0.07     0.05  -0.10  -0.00     0.06  -0.07  -0.03
     5   6    -0.07   0.07  -0.05     0.02   0.01   0.01    -0.03   0.04  -0.01
     6   6    -0.03   0.02   0.04     0.03  -0.03   0.01     0.02  -0.02   0.08
     7   6    -0.08   0.02   0.09    -0.01  -0.03  -0.02     0.03  -0.02   0.14
     8   7    -0.09   0.05   0.05    -0.03   0.01  -0.04     0.04  -0.03   0.09
     9   6    -0.06   0.09  -0.04    -0.01   0.05  -0.03     0.05  -0.04  -0.03
    10   6    -0.02   0.09  -0.09     0.03   0.05   0.00     0.04  -0.03  -0.09
    11   6    -0.00   0.05  -0.05     0.05   0.01   0.03     0.03  -0.02  -0.04
    12   8     0.10  -0.04   0.19    -0.07  -0.07  -0.10    -0.02   0.00  -0.01
    13   8     0.21  -0.01   0.08    -0.08   0.40   0.13    -0.00  -0.02  -0.03
    14   8    -0.03   0.08  -0.02    -0.07  -0.06   0.04     0.05   0.11  -0.17
    15   1    -0.17   0.12   0.05    -0.07   0.05   0.10    -0.14   0.09   0.06
    16   1     0.10  -0.14  -0.00     0.08  -0.14   0.06     0.19  -0.12   0.00
    17   1    -0.02  -0.16  -0.19     0.03  -0.14  -0.07     0.01  -0.16  -0.14
    18   1    -0.01  -0.05  -0.04     0.03  -0.10  -0.03     0.01   0.02   0.12
    19   1     0.06  -0.07  -0.01     0.05  -0.12   0.01     0.10   0.08   0.04
    20   1    -0.04   0.18  -0.16     0.06   0.10  -0.05     0.00   0.14  -0.11
    21   1     0.01  -0.02   0.05     0.07  -0.07   0.03     0.02  -0.01   0.02
    22   1    -0.11  -0.01   0.14    -0.03  -0.05  -0.03     0.02  -0.02   0.23
    23   1    -0.07   0.11  -0.08    -0.02   0.08  -0.05     0.06  -0.04  -0.08
    24   1     0.01   0.12  -0.15     0.05   0.08   0.01     0.05  -0.04  -0.19
    25   1     0.04   0.05  -0.09     0.08   0.00   0.05     0.03  -0.02  -0.10
    26   6    -0.14  -0.07  -0.01     0.00  -0.11  -0.00    -0.09  -0.16   0.00
    27   1    -0.01  -0.03   0.04     0.05  -0.07   0.02     0.02  -0.08   0.09
    28   1     0.10  -0.04   0.19    -0.05  -0.08  -0.05    -0.03   0.01   0.01
    29   1     0.12  -0.01   0.17    -0.06  -0.00  -0.07    -0.01  -0.01  -0.05
    30   1    -0.04   0.06  -0.00    -0.06  -0.03   0.02     0.04   0.06  -0.10
    31   1    -0.03   0.12  -0.08    -0.08  -0.08   0.08     0.06   0.13  -0.22
    32   1     0.21  -0.07   0.02    -0.07   0.32   0.06    -0.03   0.06   0.01
    33   1     0.21   0.00   0.02     0.01   0.52   0.23    -0.02  -0.06   0.02
    34   8     0.14  -0.13  -0.12     0.03   0.03  -0.07    -0.16   0.24   0.03
    35   1     0.08  -0.03  -0.11     0.02   0.01  -0.05    -0.05   0.13  -0.02
    36   1     0.11  -0.17  -0.15     0.10   0.01  -0.08    -0.22   0.30   0.07
    37   1    -0.21  -0.06  -0.03    -0.06  -0.10  -0.01    -0.18  -0.14  -0.06
    38   1    -0.13  -0.04  -0.01     0.03  -0.08   0.01    -0.08  -0.17   0.01
    39   1    -0.11  -0.15   0.01     0.02  -0.17  -0.02    -0.07  -0.26   0.03
                      7                      8                      9
                      A                      A                      A
 Frequencies --     96.8138               106.7421               117.1978
 Red. masses --      3.5408                 3.0757                 3.5915
 Frc consts  --      0.0196                 0.0206                 0.0291
 IR Inten    --      0.5296                 1.1318                 4.7390
  Atom  AN      X      Y      Z        X      Y      Z        X      Y      Z
     1   7     0.02   0.00  -0.05    -0.04  -0.03   0.03     0.05   0.07   0.00
     2   6    -0.00  -0.06  -0.05     0.02  -0.02   0.06     0.01   0.02  -0.02
     3   6    -0.01  -0.11  -0.07     0.08   0.02   0.02    -0.00   0.01  -0.01
     4   6    -0.04   0.04   0.02    -0.00   0.20  -0.01     0.03  -0.02   0.02
     5   6     0.04  -0.11  -0.01    -0.01  -0.07  -0.04     0.01   0.21   0.05
     6   6    -0.01  -0.05  -0.06     0.02  -0.01   0.08     0.02  -0.01  -0.04
     7   6    -0.05  -0.05   0.04     0.02  -0.01  -0.02     0.04  -0.01  -0.04
     8   7    -0.07  -0.04   0.14     0.02   0.02  -0.13     0.04  -0.03   0.01
     9   6    -0.06  -0.02   0.14     0.03   0.03  -0.14     0.03  -0.04   0.03
    10   6    -0.02  -0.01   0.01     0.03   0.02  -0.00     0.02  -0.04   0.00
    11   6     0.01  -0.03  -0.09     0.02  -0.00   0.11     0.01  -0.03  -0.03
    12   8     0.05  -0.03   0.04    -0.03  -0.07   0.07     0.06   0.01   0.05
    13   8     0.11   0.05   0.06     0.07  -0.01   0.00     0.05  -0.05  -0.00
    14   8    -0.05   0.04  -0.07    -0.07  -0.09  -0.00    -0.18  -0.17   0.09
    15   1     0.18  -0.18  -0.12     0.08  -0.16  -0.24    -0.15   0.30   0.23
    16   1    -0.23   0.12  -0.04    -0.22   0.33  -0.15     0.12  -0.11   0.15
    17   1     0.05   0.18   0.14     0.14   0.40   0.13    -0.03  -0.12  -0.10
    18   1     0.07  -0.11  -0.19     0.19   0.02  -0.04    -0.02   0.01  -0.01
    19   1    -0.06  -0.23  -0.04     0.08  -0.05   0.04    -0.01   0.00  -0.01
    20   1    -0.01  -0.26   0.11    -0.07  -0.24   0.10     0.11   0.40  -0.08
    21   1     0.00  -0.07   0.01     0.01  -0.02   0.06    -0.02   0.01   0.01
    22   1    -0.06  -0.06   0.06     0.01  -0.02  -0.01     0.05  -0.00  -0.05
    23   1    -0.08  -0.02   0.23     0.04   0.05  -0.25     0.03  -0.06   0.08
    24   1    -0.01   0.01   0.00     0.03   0.03  -0.00     0.01  -0.05   0.02
    25   1     0.03  -0.02  -0.17     0.03  -0.01   0.19    -0.00  -0.03  -0.04
    26   6     0.09   0.14   0.02    -0.08  -0.02   0.05     0.01   0.02  -0.02
    27   1    -0.02   0.02  -0.11    -0.06  -0.03   0.04     0.12   0.06   0.02
    28   1     0.03  -0.02   0.03    -0.01  -0.10   0.03     0.05   0.02  -0.02
    29   1     0.04  -0.02   0.05    -0.01  -0.06   0.03     0.05  -0.01   0.05
    30   1    -0.05  -0.02  -0.01    -0.05  -0.01  -0.04    -0.12  -0.07   0.10
    31   1    -0.04   0.04  -0.09    -0.11  -0.10   0.04    -0.27  -0.19   0.19
    32   1     0.07   0.08   0.04     0.05   0.01  -0.01    -0.01  -0.04  -0.04
    33   1     0.10   0.03   0.08     0.06  -0.04   0.01     0.02  -0.10  -0.01
    34   8    -0.04   0.15  -0.07    -0.04   0.07  -0.07    -0.11   0.08  -0.13
    35   1    -0.00   0.09  -0.08    -0.03   0.02  -0.05    -0.12   0.02  -0.10
    36   1    -0.11   0.22  -0.02    -0.06   0.14  -0.02    -0.15   0.19  -0.05
    37   1     0.19   0.11   0.10    -0.02  -0.02   0.04    -0.14   0.02   0.00
    38   1     0.07   0.16  -0.00    -0.15  -0.06   0.01     0.09   0.11   0.02
    39   1     0.06   0.25  -0.01    -0.11   0.02   0.13     0.06  -0.11  -0.08
                     10                     11                     12
                      A                      A                      A
 Frequencies --    127.9020               154.0542               179.0913
 Red. masses --      2.8985                 5.0488                 5.1105
 Frc consts  --      0.0279                 0.0706                 0.0966
 IR Inten    --      1.7165                 4.7421                11.3135
  Atom  AN      X      Y      Z        X      Y      Z        X      Y      Z
     1   7     0.04  -0.02   0.01     0.07   0.03  -0.03     0.02  -0.01  -0.01
     2   6     0.02  -0.09  -0.00     0.02  -0.01  -0.05     0.01  -0.03  -0.01
     3   6     0.04  -0.11  -0.04     0.00  -0.05  -0.06     0.01  -0.06  -0.03
     4   6    -0.03   0.17   0.06     0.00   0.02   0.02    -0.00   0.00   0.00
     5   6     0.01   0.15   0.05     0.04   0.12   0.03     0.01  -0.00  -0.00
     6   6     0.01  -0.06  -0.02     0.02  -0.02  -0.07     0.01  -0.04  -0.01
     7   6    -0.06  -0.05  -0.00     0.01  -0.02  -0.09     0.06  -0.03  -0.06
     8   7    -0.09   0.00   0.02     0.00  -0.01  -0.07     0.08  -0.05  -0.09
     9   6    -0.06   0.06   0.03    -0.00  -0.01   0.01     0.05  -0.11  -0.07
    10   6     0.01   0.06   0.01     0.00  -0.01   0.08    -0.00  -0.12   0.01
    11   6     0.05   0.00  -0.01     0.02  -0.02   0.02    -0.03  -0.08   0.04
    12   8     0.07   0.02  -0.10    -0.29  -0.07   0.30    -0.00   0.01   0.00
    13   8    -0.04  -0.05  -0.05     0.01   0.03  -0.05     0.01   0.00   0.01
    14   8     0.02   0.03   0.01     0.04   0.02  -0.14    -0.18   0.39   0.17
    15   1    -0.10   0.17   0.05    -0.05   0.17   0.12     0.01  -0.00  -0.00
    16   1    -0.27   0.23   0.08    -0.04  -0.01   0.10    -0.06   0.01   0.01
    17   1     0.11   0.35   0.10     0.02   0.03  -0.01     0.03   0.04   0.01
    18   1     0.20  -0.11  -0.21     0.03  -0.05  -0.14     0.04  -0.06  -0.08
    19   1    -0.03  -0.29   0.00    -0.04  -0.13  -0.04    -0.00  -0.11  -0.01
    20   1     0.11   0.21   0.07     0.11   0.22  -0.01     0.02  -0.00   0.01
    21   1     0.02  -0.09   0.05     0.01  -0.02  -0.01     0.01  -0.03   0.01
    22   1    -0.08  -0.09  -0.00     0.01  -0.02  -0.11     0.07  -0.00  -0.08
    23   1    -0.09   0.11   0.05    -0.01   0.00   0.04     0.08  -0.15  -0.12
    24   1     0.04   0.11   0.01    -0.00  -0.01   0.17    -0.02  -0.15   0.04
    25   1     0.11   0.00  -0.02     0.02  -0.02   0.06    -0.08  -0.09   0.09
[...]
 014443,0.00004240,-0.00020110,-0.00020393,-0.00001962,0.00008157,-0.00
 003033,0.00001964,-0.00000038,0.00000932,0.00000166,-0.00011666,-0.000
 02177,-0.00005952,-0.00097375,0.00029980,-0.00007458,0.00188750,-0.000
 29931,0.00029670,-0.00041102,-0.00032407,-0.00048515,-0.00002460,0.000
 19212,-0.00002629,-0.00017029,-0.00008891,0.00000441,0.00024682,0.0002
 1133,0.00002292,0.00034958,0.00029110,-0.00113908,-0.00011224,-0.00016
 410,0.00050057,0.00297453,-0.00900831,-0.00020978,0.00001572,0.0000124
 8,0.00000668,0.00001267,0.00001193,0.00000072,0.00003369,0.00001493,-0
 .00000122,-0.00021020,0.00017732,-0.00014424,-0.00000080,0.00002752,-0
 .00000332,-0.00000586,-0.00000294,-0.00000071,0.00003472,0.00002863,0.
 00001828,0.00068130,-0.00292853,-0.00010245,-0.00006616,0.00003763,-0.
 00001646,-0.00000420,0.00000786,0.00000564,-0.00007341,0.00006175,-0.0
 0000440,0.00003598,-0.00003729,0.00006027,-0.00008268,-0.00041143,-0.0
 0004276,0.00055675,0.00029419,0.00161106,-0.00092313,0.00004692,0.0002
 3722,0.00057985,0.00107566,0.00267726,-0.00262324,0.00090164,-0.002535
 19,0.00019986,-0.00029116,-0.00144408,0.00003352,0.00004093,0.00024716
 ,-0.12678654,-0.08630029,-0.10342067,0.10480858,0.08851354,-0.00019553
 ,-0.00057011,-0.00035727,0.00015079,0.00005471,0.00030512,-0.00005299,
 -0.00028767,-0.00002023,-0.00001826,0.00006087,0.00003606,0.00026695,0
 .00002313,0.00016058,-0.00035733,0.00003936,-0.00003202,0.00098506,0.0
 0025467,-0.00019696,0.00067918,-0.00138011,-0.00163665,-0.00064788,0.0
 0003269,-0.00002270,-0.00002833,-0.00028470,0.00011952,0.00012836,-0.0
 0000516,0.00008602,-0.00205035,-0.00225976,-0.00048122,0.00178513,0.00
 208642,-0.00408026,0.00479540,-0.00192646,-0.00277310,-0.00005356,0.00
 001633,-0.00003514,0.00002033,0.00005770,-0.00005332,-0.00010185,-0.00
 008426,-0.00002012,0.00006765,-0.00026451,0.00009174,0.00000480,0.0000
 0335,-0.00002251,0.00002969,-0.00004028,0.00004654,-0.00004518,0.00001
 593,-0.00011716,0.00025466,-0.00040350,0.00137709,-0.00001431,0.000059
 77,-0.00000302,-0.00000626,-0.00006303,0.00000238,-0.00001987,-0.00000
 574,-0.00000656,0.00003240,-0.00002792,0.00000858,0.00005219,0.0011896
 4,0.00066988,0.00148316,0.00301860,-0.00178647,0.00204078,0.00012042,0
 .00118312,-0.00171477,0.00402375,0.00504834,0.00130444,-0.00213859,-0.
 00007189,-0.00414281,-0.00291033,0.00591952,-0.00009371,0.00016297,0.0
 0009247,-0.17814840,-0.06591782,-0.22915845,0.19640390,0.08107275,0.24
 679472,-0.00005682,-0.00002604,-0.00000761,0.00006408,0.00003246,-0.00
 002057,-0.00003194,-0.00000829,-0.00001497,0.00003247,-0.00003268,0.00
 000081,0.00002628,0.00001802,0.00003175,-0.00010471,0.00007629,-0.0000
 3467,0.00007535,0.00032832,-0.00005097,-0.00007233,-0.00013238,0.00021
 870,-0.00014282,0.00004112,-0.00002732,-0.00001035,-0.00005682,-0.0000
 2967,0.00003629,0.00003659,0.00001362,-0.00001456,-0.00005431,0.000098
 28,-0.00346989,-0.00096382,0.00064585,-0.00143951,-0.00094007,-0.00067
 159,0.00000046,-0.00000594,-0.00000569,-0.00001048,-0.00000757,0.00000
 050,-0.00002026,-0.00000802,0.00004108,0.00007628,-0.00002134,0.000045
 43,0.00002473,0.00000809,0.00000850,-0.00000229,0.00000821,-0.00000703
 ,-0.00000011,-0.00000383,-0.00000017,0.00014634,-0.00018052,-0.0001280
 1,-0.00001276,0.00001148,-0.00000536,-0.00000087,-0.00000640,-0.000006
 43,-0.00000850,-0.00000326,-0.00000408,-0.00000431,0.00001203,-0.00000
 639,0.00000383,0.00006872,-0.00000331,-0.00004220,-0.00002202,0.000019
 20,0.00009386,0.00011799,-0.00022404,0.00003613,0.00007842,-0.00039436
 ,-0.00026627,0.00010386,-0.00040022,0.00510774,0.00007844,0.00114841,-
 0.00032269,-0.00053898,0.00049733,-0.03098265,-0.05165708,0.03198878,0
 .00411903,0.02013076,-0.02277709,0.02717393,-0.00001360,-0.00000013,-0
 .00007565,0.00004468,0.00007604,0.00012075,-0.00000714,-0.00010226,-0.
 00016045,-0.00003107,0.00003837,-0.00000762,0.00000834,0.00001163,0.00
 003415,0.00010466,-0.00005559,0.00000005,-0.00015711,-0.00010983,-0.00
 005641,0.00009736,0.00005685,-0.00007437,0.00011132,0.00004513,0.00004
 726,-0.00002974,0.00000187,0.00000436,0.00000611,-0.00005406,0.0000058
 9,0.00005814,-0.00000349,0.00010741,-0.00003484,0.00072096,-0.00030435
 ,-0.00115042,-0.00027787,-0.00101094,-0.00000552,0.00000406,-0.0000212
 5,0.00001721,0.00002692,-0.00001727,-0.00003224,-0.00001426,0.00003334
 ,-0.00003681,0.00000875,0.00035621,0.00000173,-0.00014085,-0.00001483,
 -0.00000004,0.00000265,-0.00001530,-0.00001805,0.00001553,-0.00003690,
 -0.00027478,0.00000666,0.00018233,-0.00000318,-0.00000220,-0.00000175,
 -0.00000083,0.00000520,0.00000051,0.00001005,-0.00000207,0.00000388,0.
 00002123,-0.00003341,0.00001205,-0.00001452,0.00011905,0.00003172,-0.0
 0007137,-0.00016414,0.00004533,0.00002706,-0.00005530,-0.00013929,0.00
 000327,-0.00007923,0.00004248,-0.00019291,0.00025220,-0.00018959,0.000
 51014,-0.00112864,0.00043850,-0.00012535,-0.00007422,0.00011637,-0.032
 14690,-0.21757434,0.26954042,-0.00018545,0.00771324,-0.01380557,0.0335
 1514,0.21076198,-0.00004746,-0.00009627,-0.00008274,0.00006944,0.00003
 534,0.00006142,-0.00002704,0.00001293,-0.00004117,-0.00001689,-0.00000
 194,-0.00002647,0.00002994,0.00003172,0.00003131,0.00017862,-0.0001194
 2,-0.00002842,-0.00007477,-0.00009868,0.00009592,0.00029395,-0.0001267
 4,-0.00008611,-0.00006867,-0.00004126,-0.00000887,0.00005350,-0.000019
 03,0.00000851,-0.00003994,-0.00005420,-0.00000376,-0.00002756,-0.00022
 089,0.00013442,-0.00085536,-0.00086702,0.00068551,-0.00013220,-0.00091
 844,0.00032705,0.00000231,-0.00001416,-0.00001350,0.00000237,-0.000027
 92,0.00000621,-0.00000131,0.00002722,0.00005083,0.00002364,0.00011252,
 0.00021339,0.00001353,-0.00012221,-0.00000529,0.00000477,0.00002221,-0
 .00002156,-0.00000516,-0.00001727,0.00000384,-0.00027909,0.00045419,-0
 .00011490,0.00001896,0.00000089,0.00001146,0.00000173,-0.00001359,0.00
 000596,0.00001466,-0.00001986,0.00000435,-0.00000629,0.00000929,-0.000
 02980,0.00000412,0.00025274,0.00005413,0.00011142,0.00009823,-0.000054
 33,-0.00006516,0.00004326,-0.00011366,-0.00040976,0.00026081,-0.000018
 10,-0.00031993,0.00014243,-0.00028561,0.00159606,0.00128015,-0.0013578
 6,0.00014376,0.00017690,0.00006346,0.00227919,0.23213676,-0.34567765,0
 .00745936,0.02286608,-0.02103027,-0.00992301,-0.25519849,0.36725044,-0
 .00172847,0.01546052,0.00127098,-0.00005508,-0.00096376,0.00043147,0.0
 0011541,0.00002692,0.00020035,-0.00001294,-0.00015361,0.00005495,0.001
 59467,0.00229608,0.00034220,-0.00016514,0.00001374,0.00011133,-0.00003
 592,0.00002532,0.00002778,0.00006119,0.00011317,0.00000979,0.00003068,
 -0.00000357,-0.00000338,-0.00000281,0.00008763,-0.00003621,0.00015756,
 -0.00029204,-0.00008225,0.00017504,0.00043905,0.00034190,-0.00005362,-
 0.00001594,-0.00000323,0.00000576,0.00001339,0.00003104,-0.00065487,-0
 .00032740,-0.00006729,0.00001299,-0.00000740,-0.00003316,-0.00001993,-
 0.00002527,0.00006583,-0.00008164,-0.00003390,0.00002199,-0.00003225,-
 0.00003865,0.00000176,-0.00009823,-0.00019652,-0.00000185,0.00019069,-
 0.00016595,0.00016453,-0.00000723,0.00000232,0.00001470,0.00000213,0.0
 0001459,0.00000715,-0.00000684,-0.00001232,0.00000174,-0.00007584,0.00
 009287,0.00013039,-0.05024315,-0.01719228,-0.00415394,-0.00075942,0.00
 033124,-0.00233416,-0.00010598,0.00005634,-0.00002058,0.00005240,-0.00
 006864,0.00000691,0.00001814,-0.00001393,-0.00003124,0.00000007,0.0000
 0536,-0.00001025,0.00002188,-0.00000757,-0.00000319,0.00001017,0.00001
 230,-0.00000213,-0.00001146,0.00001053,-0.00000327,-0.00000168,-0.0000
 0860,-0.00000207,0.00000320,-0.00000090,0.00000206,0.04819484,0.000627
 52,-0.02202662,-0.00091147,0.00036487,0.00028016,-0.00176596,-0.000045
 72,0.00045578,0.00006696,0.00003778,0.00023818,-0.00003879,-0.00160811
 ,0.00043328,-0.00062426,-0.00010047,0.00002470,0.00008964,0.00011659,-
 0.00003800,0.00001729,-0.00000867,0.00011245,0.00003279,0.00000996,-0.
 00000286,-0.00000886,-0.00003973,0.00004338,-0.00000401,0.00008729,-0.
 00024015,-0.00006806,-0.00000402,-0.00081056,-0.00042970,0.00011730,-0
 .00000163,0.00008269,-0.00007324,-0.00003069,0.00005539,0.00088620,0.0
 0041439,0.00010867,0.00003162,0.00000010,0.00006800,0.00000190,0.00003
 447,-0.00005106,-0.00013314,0.00008528,-0.00014495,0.00007081,-0.00000
 947,0.00005367,-0.00000644,0.00021687,-0.00014546,-0.00039644,0.000420
 66,0.00090509,-0.00001179,0.00004105,-0.00002976,-0.00000134,0.0000120
 9,0.00000109,-0.00000269,-0.00000031,-0.00000227,-0.00006830,0.0000753
 0,0.00006787,-0.01218295,-0.30646247,-0.06394493,0.00125576,0.00158375
 ,0.00352815,0.00015570,0.00006295,-0.00009218,-0.00022090,0.00010019,-
 0.00006405,0.00004361,-0.00004134,-0.00003524,0.00000235,0.00000850,0.
 00000089,0.00000108,0.00001880,-0.00004193,-0.00001143,-0.00000832,0.0
 0001154,-0.00000523,-0.00000272,0.00004821,0.00000170,0.00001684,-0.00
 003632,-0.00000236,-0.00000443,-0.00000850,0.01141400,0.33259071,-0.00
 130660,0.03480260,0.00114073,-0.00080908,0.00216671,0.00248312,-0.0000
 4188,-0.00014180,-0.00010611,0.00015399,0.00001437,0.00015200,0.002018
 98,0.00066210,0.00056062,0.00009671,-0.00031285,-0.00012663,-0.0000863
 1,0.00013159,0.00001713,-0.00003413,-0.00007276,0.00000736,0.00004616,
 -0.00001758,-0.00001390,0.00003867,0.00000056,0.00003188,-0.00003299,0
 .00001533,0.00005117,0.00026747,0.00075452,0.00084298,0.00001282,0.000
 00269,0.00003646,0.00002812,-0.00003233,0.00002121,-0.00011278,-0.0004
 6281,0.00035694,-0.00003660,0.00001292,-0.00003165,0.00002325,0.000000
 63,0.00002068,0.00005021,-0.00014572,0.00003361,-0.00000916,-0.0000716
 3,-0.00002129,-0.00009963,-0.00015338,0.00003430,0.00013865,-0.0006058
 9,-0.00042732,-0.00001657,-0.00004530,0.00001319,0.00000116,-0.0000074
 8,-0.00000332,0.00000058,-0.00000177,0.00000046,0.00004888,-0.00000783
 ,-0.00001454,-0.00327916,-0.07461489,-0.06693242,-0.00203550,0.0006134
 2,-0.00501836,-0.00009677,0.00008776,0.00008691,-0.00000430,-0.0001244
 2,-0.00010379,-0.00001678,0.00003026,-0.00000542,0.00000111,0.00001221
 ,-0.00000595,-0.00000967,-0.00001364,0.00000096,-0.00000314,0.00001429
 ,-0.00001165,0.00002564,0.00000192,0.00000889,-0.00002094,0.00000269,-
 0.00001929,-0.00000375,0.00000412,-0.00000174,0.00710618,0.06553588,0.
 07129940,0.00779214,-0.00208238,-0.01649519,-0.00177463,0.00150264,-0.
 00112720,0.00042583,-0.00001189,-0.00096670,0.00011873,-0.00002993,0.0
 0017336,0.00130603,-0.00050235,-0.00090443,-0.00000165,-0.00006779,0.0
 0005844,0.00013152,0.00031683,0.00006220,-0.00010079,-0.00012529,-0.00
 007010,0.00007040,-0.00002091,0.00002521,0.00014732,0.00004366,0.00005
 952,0.00001504,-0.00005582,0.00005090,-0.00026131,0.00010301,-0.000256
 88,-0.00010613,-0.00003114,-0.00003993,0.00006487,-0.00001672,-0.00008
 051,-0.00002264,-0.00012962,-0.00017722,-0.00000792,-0.00000623,0.0000
 3695,-0.00001603,0.00000292,0.00001364,0.00000099,0.00001573,0.0000076
 1,-0.00015775,0.00015460,-0.00020539,0.00017531,0.00028754,0.00022084,
 -0.00010350,-0.00003111,0.00001498,-0.00000863,-0.00001847,0.00000539,
 -0.00000362,-0.00001063,-0.00000673,0.00000270,0.00000121,0.00000161,0
 .00003463,-0.00007758,-0.00009180,-0.14286944,0.03211735,0.13426350,0.
 00034729,-0.00050704,0.00071640,-0.00006396,-0.00005761,0.00008801,0.0
 0018799,0.00007560,0.00003191,-0.00006466,0.00008594,0.00005875,0.0000
 0073,-0.00000795,0.00001617,0.00002149,-0.00000782,0.00001726,0.000013
 23,0.00001721,-0.00001565,0.00000347,-0.00000866,-0.00001961,-0.000001
 99,0.00000432,0.00002655,-0.00000213,0.00000182,0.00000214,0.00141194,
 -0.00147977,-0.00357765,0.14646210,-0.01238661,0.00160562,0.02114622,0
 .00252488,-0.00234314,0.00099567,-0.00053302,0.00063483,0.00126119,-0.
 00023151,-0.00020109,-0.00003510,-0.00076482,0.00064557,-0.00013418,0.
 00027890,0.00027863,0.00006667,-0.00001552,0.00005878,-0.00002359,0.00
 002234,-0.00003527,-0.00005034,-0.00004510,0.00001839,0.00000917,-0.00
 005727,0.00000394,-0.00000820,0.00009060,-0.00023176,-0.00006054,0.000
 11972,0.00013483,-0.00046522,-0.00012868,-0.00001290,-0.00017688,0.000
 09723,0.00005425,-0.00010469,0.00014205,-0.00028079,-0.00039534,0.0000
 3152,0.00001076,-0.00001269,0.00003835,0.00001537,0.00001543,-0.000072
 62,0.00000171,-0.00007990,0.00029295,-0.00020874,0.00025412,0.00009367
 ,-0.00000597,-0.00015309,-0.00005791,0.00036131,0.00031489,-0.00000403
 ,0.00002415,0.00003100,-0.00000105,0.00000697,0.00000250,-0.00001442,-
 0.00001047,-0.00000637,-0.00006573,0.00002940,0.00004825,0.03585171,-0
 .06133614,-0.04992444,-0.00080099,0.00099463,0.00074815,-0.00018295,-0
 .00005963,0.00001930,0.00021674,0.00000326,0.00019780,-0.00005611,0.00
 006371,0.00005669,-0.00000184,-0.00001565,0.00000524,-0.00001595,-0.00
 000360,0.00006465,0.00002053,0.00000338,0.00000761,0.00000729,-0.00001
 500,-0.00007391,0.00000778,-0.00000953,0.00006238,0.00000324,0.0000059
 8,0.00001362,0.01750169,-0.00274295,-0.02379978,-0.03637223,0.06096192
 ,0.01441003,-0.00267805,-0.02645754,-0.00379426,0.00290415,-0.00057529
 ,0.00097130,-0.00026000,-0.00111544,0.00014792,-0.00002592,-0.00012282
 ,0.00145404,0.00005256,0.00080556,-0.00037416,-0.00027635,0.00012958,0
 .00012188,0.00012138,0.00006102,-0.00005479,0.00001658,0.00002986,0.00
 007519,-0.00003443,-0.00003910,0.00008737,0.00004171,0.00009131,-0.000
 01316,0.00005804,0.00007556,-0.00011614,0.00002342,0.00024141,-0.00001
 210,-0.00004444,0.00009449,-0.00004241,-0.00001856,0.00003105,-0.00028
 046,-0.00040796,-0.00013108,-0.00003018,-0.00000867,0.00007152,-0.0000
 4102,-0.00003362,0.00007604,-0.00005726,0.00002813,-0.00003146,-0.0003
 6708,0.00018498,-0.00023655,-0.00041949,0.00020824,-0.00018359,-0.0000
 9383,0.00008866,0.00024263,0.00000678,-0.00002829,-0.00002323,0.000000
 88,-0.00000549,-0.00000420,0.00001303,0.00000925,-0.00000458,-0.000015
 65,-0.00003199,-0.00005710,0.12433002,-0.04239618,-0.22511613,0.000363
 92,-0.00081687,-0.00032899,0.00005371,0.00004713,0.00004259,-0.0000238
 4,0.00005650,-0.00005586,0.00001995,-0.00002577,-0.00002027,-0.0000009
 0,0.00000224,0.00000408,0.00005325,0.00000162,-0.00004771,-0.00000225,
 0.00000980,-0.00000117,-0.00003178,0.00001138,0.00003793,0.00000314,0.
 00000172,-0.00002010,0.00000077,-0.00000604,-0.00000403,0.00315387,-0.
 00028570,-0.00312203,-0.13542606,0.04238970,0.24869909,-0.01095041,-0.
 00129913,-0.00290172,-0.00038437,-0.00021714,0.00075294,-0.00019272,-0
 .00007344,-0.00000703,-0.00047156,0.00011915,0.00022874,0.00135295,0.0
 0085219,-0.00139742,0.00035766,-0.00047596,0.00089121,0.00016447,0.000
 29801,0.00012526,-0.00015748,0.00004227,-0.00005093,0.00005975,-0.0001
 6013,-0.00006735,0.00000896,0.00013160,0.00004208,-0.00030405,-0.00016
 920,0.00054391,0.00037836,0.00011852,0.00035311,0.00011174,0.00005642,
 0.00008843,-0.00003186,-0.00002222,0.00007126,0.00019183,0.00025822,0.
 00007036,-0.00002566,0.00001063,-0.00009363,0.00001110,-0.00001865,-0.
 00020060,0.00001690,0.00000271,0.00001483,0.00005259,0.00000979,-0.000
 02156,-0.00007252,-0.00005024,0.00005725,0.00006867,0.00000440,-0.0001
 8561,-0.00001337,0.00001037,-0.00001129,-0.00000102,-0.00000199,0.0000
 0164,-0.00000923,0.00000110,0.00000408,0.00003492,-0.00001040,-0.00002
 381,-0.29816322,-0.07352722,-0.04763322,-0.00039310,-0.00049828,-0.000
 61571,-0.00000338,0.00013566,-0.00007048,-0.00022414,-0.00008623,-0.00
 009970,0.00004353,-0.00002809,-0.00004267,-0.00000016,0.00001374,-0.00
 001264,-0.00003980,-0.00000906,-0.00002274,-0.00000412,-0.00001154,0.0
 0000076,0.00002977,0.00001130,0.00003930,-0.00002080,0.00000664,-0.000
 04086,-0.00000153,-0.00000554,-0.00000595,0.00209374,0.00117670,0.0015
 7479,-0.01316694,-0.00553281,-0.00407025,0.31965453,0.02370650,0.00389
 012,0.00557908,-0.00007872,0.00047679,-0.00059433,0.00010023,-0.000016
 91,-0.00024769,0.00102378,0.00030492,0.00007606,-0.00105538,-0.0019770
 4,0.00331494,0.00010901,-0.00014962,0.00044307,0.00021503,0.00013047,0
 .00004449,-0.00021097,-0.00016917,-0.00014481,0.00001210,-0.00010732,0
 .00000217,0.00013255,0.00007496,0.00011506,-0.00043925,0.00018459,0.00
 020595,-0.00052780,0.00002275,-0.00031745,-0.00011381,-0.00003550,-0.0
 0010240,0.00001945,0.00005853,-0.00009829,0.00023399,0.00037088,-0.000
 03556,0.00005988,-0.00003997,0.00022503,0.00002336,0.00004405,0.000213
 80,0.00000861,-0.00001238,0.00002011,-0.00003586,-0.00000266,-0.000006
 44,0.00006654,0.00018339,-0.00015648,-0.00015642,-0.00010841,0.0001330
 5,0.00001003,-0.00001434,0.00002715,-0.00000041,-0.00001625,-0.0000052
 8,0.00002020,0.00000990,-0.00001724,0.00006847,-0.00016186,-0.00021884
 ,-0.08174654,-0.07485601,-0.01498755,0.00083768,0.00106593,-0.00004397
 ,0.00005573,-0.00016788,0.00005745,0.00019385,0.00010482,0.00014631,-0
 .00004109,0.00000945,0.00006339,0.00000156,-0.00002261,0.00001002,0.00
 002463,0.00001333,0.00002923,0.00000514,0.00000592,-0.00000271,-0.0000
 3149,-0.00001388,-0.00004970,0.00002926,-0.00000922,0.00005640,0.00000
 253,0.00000323,0.00000863,-0.02838879,-0.00484736,-0.00423472,0.006928
 57,0.00159523,0.00112715,0.07893785,0.07417910,-0.03002999,-0.00630088
 ,-0.00871071,-0.00103355,-0.00057822,0.00105679,-0.00023104,-0.0000512
 2,0.00019155,-0.00120699,0.00007410,-0.00012044,0.00103699,0.00299112,
 -0.00265026,-0.00013574,0.00015634,-0.00072228,0.00010140,0.00056874,0
 .00005554,-0.00015966,-0.00026688,-0.00008267,0.00004501,0.00000100,-0
 .00001255,0.00016631,-0.00007590,0.00004101,0.00060880,0.00006755,-0.0
 0030333,0.00001667,0.00031208,-0.00006358,0.00002874,0.00007109,-0.000
 03309,0.00015362,-0.00010703,-0.00013621,0.00016054,-0.00001611,-0.000
 19846,-0.00005098,0.00003952,-0.00016323,0.00000552,-0.00004583,-0.000
 35281,0.00001392,0.00000766,0.00001152,0.00005973,-0.00000462,-0.00001
 087,-0.00056505,0.00014815,-0.00028257,0.00010467,-0.00012553,-0.00014
 333,-0.00003290,-0.00004525,0.00000391,-0.00001233,-0.00002434,0.00000
 535,-0.00001670,0.,0.00001758,0.00004983,-0.00010688,-0.00008981,-0.03
 841977,-0.01106960,-0.05603705,0.00007562,-0.00100991,0.00045065,-0.00
 011370,-0.00001109,0.00014721,0.00003524,-0.00000859,-0.00002224,-0.00
 013589,0.00022244,0.00012623,-0.00000010,0.00000166,0.00003144,-0.0000
 8211,-0.00003558,0.00004812,-0.00000014,-0.00000605,-0.00000934,0.0001
 1368,-0.00003313,-0.00001195,-0.00005114,0.00003369,0.00000304,-0.0000
 1270,0.00000894,-0.00000235,-0.00671071,-0.00194035,-0.00123458,0.0235
 0973,0.00779401,0.00696454,0.05271519,0.00936492,0.06223922\\-0.000003
 45,-0.00000430,0.00000068,0.00000207,0.00000043,-0.00000097,0.,0.00000
 053,-0.00000105,0.00000056,0.00000056,-0.00000079,-0.00000177,0.000000
 66,0.00000290,-0.00000074,-0.00000099,-0.00000104,-0.00000049,-0.00000
 018,0.00000004,0.00000239,-0.00000155,0.00000114,-0.00000084,0.0000000
 6,-0.00000049,0.00000047,-0.00000109,0.00000056,-0.00000018,-0.0000006
 4,0.00000035,0.00000134,0.00000162,0.00000084,0.00000041,-0.00000071,-
 0.00000020,0.00000113,-0.00000037,-0.00000027,-0.00000034,0.00000128,-
 0.00000051,-0.00000042,0.00000110,0.00000013,0.00000023,-0.00000008,-0
 .00000038,0.00000021,-0.00000096,0.,-0.00000007,0.00000007,0.,0.000000
 04,0.00000223,-0.00000063,-0.00000090,-0.00000016,0.00000003,0.0000003
 5,0.00000075,-0.00000056,0.00000049,-0.00000103,0.00000036,-0.00000078
 ,-0.00000082,0.00000053,-0.00000066,-0.00000033,0.00000041,0.00000044,
 0.00000218,-0.00000003,-0.00000106,0.00000042,-0.00000090,-0.00000061,
 -0.00000085,-0.00000081,0.00000036,0.00000089,-0.00000032,0.00000024,0
 .00000019,-0.00000002,0.00000085,-0.00000004,-0.00000017,0.00000051,0.
 00000154,-0.00000032,0.00000006,0.00000109,-0.00000048,0.00000076,-0.0
 0000192,-0.00000005,0.00000045,0.00000101,-0.00000084,0.00000154,0.000
 00042,0.00000048,-0.00000106,-0.00000171,0.00000017,-0.00000182,0.0000
 0081,0.00000170,0.00000028,-0.00000010,0.00000051\\\@


 BE LIKE A POSTAGE STAMP.  STICK TO ONE THING UNTIL
 YOU GET THERE -- JOSH BILLINGS
 Job cpu time:       1 days 14 hours  9 minutes 59.7 seconds.
 Elapsed time:       0 days  1 hours 21 minutes 55.2 seconds.
 File lengths (MBytes):  RWF=   1232 Int=      0 D2E=      0 Chk=     28 Scr=      8
 Normal termination of Gaussian 16 at Thu Aug 27 14:00:05 2020.
