 Entering Gaussian System, Link 0=g16
 Input=NicPyWa4h3bLMidDon.gjf
 Output=NicPyWa4h3bLMidDon.log
 Initial command:
 /sw/contrib/gaussian/g16/A03/g16/l1.exe "/gscratch/scrubbed/gds001/Gau-10582.inp" -scrdir="/gscratch/scrubbed/gds001/"
 Entering Link 1 = /sw/contrib/gaussian/g16/A03/g16/l1.exe PID=     10583.
  
 Copyright (c) 1988,1990,1992,1993,1995,1998,2003,2009,2016,
            Gaussian, Inc.  All Rights Reserved.
  
 This is part of the Gaussian(R) 16 program.  It is based on
 the Gaussian(R) 09 system (copyright 2009, Gaussian, Inc.),
 the Gaussian(R) 03 system (copyright 2003, Gaussian, Inc.),
 the Gaussian(R) 98 system (copyright 1998, Gaussian, Inc.),
 the Gaussian(R) 94 system (copyright 1995, Gaussian, Inc.),
 the Gaussian 92(TM) system (copyright 1992, Gaussian, Inc.),
 the Gaussian 90(TM) system (copyright 1990, Gaussian, Inc.),
 the Gaussian 88(TM) system (copyright 1988, Gaussian, Inc.),
 the Gaussian 86(TM) system (copyright 1986, Carnegie Mellon
 University), and the Gaussian 82(TM) system (copyright 1983,
 Carnegie Mellon University). Gaussian is a federally registered
 trademark of Gaussian, Inc.
  
 This software contains proprietary and confidential information,
 including trade secrets, belonging to Gaussian, Inc.
  
 This software is provided under written license and may be
 used, copied, transmitted, or stored only in accord with that
 written license.
  
 The following legend is applicable only to US Government
 contracts under FAR:
  
                    RESTRICTED RIGHTS LEGEND
  
 Use, reproduction and disclosure by the US Government is
 subject to restrictions as set forth in subparagraphs (a)
 and (c) of the Commercial Computer Software - Restricted
 Rights clause in FAR 52.227-19.
  
 Gaussian, Inc.
 340 Quinnipiac St., Bldg. 40, Wallingford CT 06492
  
  
 ---------------------------------------------------------------
 Warning -- This program may not be used in any manner that
 competes with the business of Gaussian, Inc. or will provide
 assistance to any competitor of Gaussian, Inc.  The licensee
 of this program is prohibited from giving any competitor of
 Gaussian, Inc. access to this program.  By using this program,
 the user acknowledges that Gaussian, Inc. is engaged in the
 business of creating and licensing software in the field of
 computational chemistry and represents and warrants to the
 licensee that it is not a competitor of Gaussian, Inc. and that
 it will not use this program in any manner prohibited above.
 ---------------------------------------------------------------
  

 Cite this work as:
 Gaussian 16, Revision A.03,
 M. J. Frisch, G. W. Trucks, H. B. Schlegel, G. E. Scuseria, 
 M. A. Robb, J. R. Cheeseman, G. Scalmani, V. Barone, 
 G. A. Petersson, H. Nakatsuji, X. Li, M. Caricato, A. V. Marenich, 
 J. Bloino, B. G. Janesko, R. Gomperts, B. Mennucci, H. P. Hratchian, 
 J. V. Ortiz, A. F. Izmaylov, J. L. Sonnenberg, D. Williams-Young, 
 F. Ding, F. Lipparini, F. Egidi, J. Goings, B. Peng, A. Petrone, 
 T. Henderson, D. Ranasinghe, V. G. Zakrzewski, J. Gao, N. Rega, 
 G. Zheng, W. Liang, M. Hada, M. Ehara, K. Toyota, R. Fukuda, 
 J. Hasegawa, M. Ishida, T. Nakajima, Y. Honda, O. Kitao, H. Nakai, 
 T. Vreven, K. Throssell, J. A. Montgomery, Jr., J. E. Peralta, 
 F. Ogliaro, M. J. Bearpark, J. J. Heyd, E. N. Brothers, K. N. Kudin, 
 V. N. Staroverov, T. A. Keith, R. Kobayashi, J. Normand, 
 K. Raghavachari, A. P. Rendell, J. C. Burant, S. S. Iyengar, 
 J. Tomasi, M. Cossi, J. M. Millam, M. Klene, C. Adamo, R. Cammi, 
 J. W. Ochterski, R. L. Martin, K. Morokuma, O. Farkas, 
 J. B. Foresman, and D. J. Fox, Gaussian, Inc., Wallingford CT, 2016.
 
 ******************************************
 Gaussian 16:  ES64L-G16RevA.03 25-Dec-2016
                30-Jan-2023 
 ******************************************
 %nprocshared=28
 Will use up to   28 processors via shared memory.
 %mem=41GB
 -----------------------------
 # wB97XD/aug-cc-pVDZ opt freq
 -----------------------------
 1/18=20,19=15,26=3,38=1/1,3;
 2/9=110,12=2,17=6,18=5,40=1/2;
 3/5=16,7=10,11=2,25=1,30=1,71=1,74=-58/1,2,3;
 4//1;
 5/5=2,38=5/2;
 6/7=2,8=2,9=2,10=2,28=1/1;
 7//1,2,3,16;
 1/18=20,19=15,26=3/3(2);
 2/9=110/2;
 99//99;
 2/9=110/2;
 3/5=16,7=10,11=2,25=1,30=1,71=1,74=-58/1,2,3;
 4/5=5,16=3,69=1/1;
 5/5=2,38=5/2;
 7//1,2,3,16;
 1/18=20,19=15,26=3/3(-5);
 2/9=110/2;
 6/7=2,8=2,9=2,10=2,19=2,28=1/1;
 99/9=1/99;
 ----
 blah
 ----
 Symbolic Z-matrix:
 Charge =  1 Multiplicity = 1
 N                    -1.93672  -0.20152   0.58176 
 C                    -1.37072  -0.91871  -0.5745 
 C                    -1.67281  -0.00616  -1.78904 
 C                    -2.71138   1.0124   -1.26964 
 C                    -3.16132   0.42397   0.06344 
 C                     0.0895   -1.24388  -0.35522 
 C                     1.03352  -0.22517  -0.30707 
 N                     2.3239   -0.4975   -0.07816 
 C                     2.78403  -1.74593   0.1057 
 C                     1.90166  -2.80713   0.05962 
 C                     0.54783  -2.54855  -0.1692 
 O                     3.5299    1.85914  -0.11413 
 O                    -0.40745   1.90858   1.59934 
 H                    -3.53383   1.17132   0.77423 
 H                    -3.54608   1.15289  -1.96315 
 H                    -2.24052   1.98902  -1.10582 
 H                    -2.06496  -0.60909  -2.61466 
 H                    -0.77188   0.49413  -2.16089 
 H                    -3.95238  -0.3349   -0.08334 
 H                    -1.90825  -1.87704  -0.70201 
 H                     0.79626   0.82705  -0.45523 
 H                     3.85106  -1.85412   0.28261 
 H                     2.26734  -3.82091   0.20382 
 H                    -0.16053  -3.37693  -0.20255 
 C                    -2.16592  -1.06208   1.73655 
 H                     2.96818   0.33508  -0.04051 
 H                    -0.97786   1.17605   1.25657 
 H                    -0.80868   2.23589   2.40678 
 H                     2.76888   2.47878  -0.13336 
 H                     4.24836   2.28951   0.35376 
 O                     1.12513   3.03833  -0.27621 
 H                     0.88113   3.89552  -0.63138 
 H                     0.51902   2.84383   0.46999 
 H                    -2.62168  -0.47736   2.54421 
 H                    -1.21261  -1.46155   2.10489 
 H                    -2.83819  -1.90504   1.49496 
 O                     1.38858   1.81401  -2.9005 
 H                     1.3536    2.20364  -2.01288 
 H                     1.73878   2.46687  -3.52662 
 
 Add virtual bond connecting atoms H26        and O12        Dist= 3.07D+00.
 Add virtual bond connecting atoms H33        and O13        Dist= 3.28D+00.
 Add virtual bond connecting atoms H27        and N1         Dist= 3.42D+00.
 Add virtual bond connecting atoms O31        and H29        Dist= 3.29D+00.
 Add virtual bond connecting atoms H38        and O31        Dist= 3.67D+00.

 GradGradGradGradGradGradGradGradGradGradGradGradGradGradGradGradGradGrad
 Berny optimization.
 Initialization pass.
                           ----------------------------
                           !    Initial Parameters    !
                           ! (Angstroms and Degrees)  !
 --------------------------                            --------------------------
 ! Name  Definition              Value          Derivative Info.                !
 --------------------------------------------------------------------------------
 ! R1    R(1,2)                  1.4737         estimate D2E/DX2                !
 ! R2    R(1,5)                  1.4695         estimate D2E/DX2                !
 ! R3    R(1,25)                 1.4583         estimate D2E/DX2                !
 ! R4    R(1,27)                 1.809          estimate D2E/DX2                !
 ! R5    R(2,3)                  1.5489         estimate D2E/DX2                !
 ! R6    R(2,6)                  1.512          estimate D2E/DX2                !
 ! R7    R(2,20)                 1.1062         estimate D2E/DX2                !
 ! R8    R(3,4)                  1.5446         estimate D2E/DX2                !
 ! R9    R(3,17)                 1.095          estimate D2E/DX2                !
 ! R10   R(3,18)                 1.0955         estimate D2E/DX2                !
 ! R11   R(4,5)                  1.5251         estimate D2E/DX2                !
 ! R12   R(4,15)                 1.0943         estimate D2E/DX2                !
 ! R13   R(4,16)                 1.0965         estimate D2E/DX2                !
 ! R14   R(5,14)                 1.0966         estimate D2E/DX2                !
 ! R15   R(5,19)                 1.106          estimate D2E/DX2                !
 ! R16   R(6,7)                  1.3897         estimate D2E/DX2                !
 ! R17   R(6,11)                 1.3953         estimate D2E/DX2                !
 ! R18   R(7,8)                  1.3385         estimate D2E/DX2                !
 ! R19   R(7,21)                 1.0888         estimate D2E/DX2                !
 ! R20   R(8,9)                  1.3432         estimate D2E/DX2                !
 ! R21   R(8,26)                 1.0534         estimate D2E/DX2                !
 ! R22   R(9,10)                 1.3809         estimate D2E/DX2                !
 ! R23   R(9,22)                 1.087          estimate D2E/DX2                !
 ! R24   R(10,11)                1.3972         estimate D2E/DX2                !
 ! R25   R(10,23)                1.0873         estimate D2E/DX2                !
 ! R26   R(11,24)                1.0905         estimate D2E/DX2                !
 ! R27   R(12,26)                1.6259         estimate D2E/DX2                !
 ! R28   R(12,29)                0.9816         estimate D2E/DX2                !
 ! R29   R(12,30)                0.9593         estimate D2E/DX2                !
 ! R30   R(13,27)                0.9897         estimate D2E/DX2                !
 ! R31   R(13,28)                0.9592         estimate D2E/DX2                !
 ! R32   R(13,33)                1.7345         estimate D2E/DX2                !
 ! R33   R(25,34)                1.0963         estimate D2E/DX2                !
 ! R34   R(25,35)                1.0973         estimate D2E/DX2                !
 ! R35   R(25,36)                1.1049         estimate D2E/DX2                !
 ! R36   R(29,31)                1.7422         estimate D2E/DX2                !
 ! R37   R(31,32)                0.9594         estimate D2E/DX2                !
 ! R38   R(31,33)                0.9808         estimate D2E/DX2                !
 ! R39   R(31,38)                1.9403         estimate D2E/DX2                !
 ! R40   R(37,38)                0.97           estimate D2E/DX2                !
 ! R41   R(37,39)                0.97           estimate D2E/DX2                !
 ! A1    A(2,1,5)              104.5046         estimate D2E/DX2                !
 ! A2    A(2,1,25)             113.2346         estimate D2E/DX2                !
 ! A3    A(2,1,27)             117.3685         estimate D2E/DX2                !
 ! A4    A(5,1,25)             113.547          estimate D2E/DX2                !
 ! A5    A(5,1,27)             104.4271         estimate D2E/DX2                !
 ! A6    A(25,1,27)            103.7271         estimate D2E/DX2                !
 ! A7    A(1,2,3)              104.6912         estimate D2E/DX2                !
 ! A8    A(1,2,6)              111.2108         estimate D2E/DX2                !
 ! A9    A(1,2,20)             108.9921         estimate D2E/DX2                !
 ! A10   A(3,2,6)              115.3911         estimate D2E/DX2                !
 ! A11   A(3,2,20)             108.981          estimate D2E/DX2                !
 ! A12   A(6,2,20)             107.4396         estimate D2E/DX2                !
 ! A13   A(2,3,4)              104.8309         estimate D2E/DX2                !
 ! A14   A(2,3,17)             109.6746         estimate D2E/DX2                !
 ! A15   A(2,3,18)             112.0118         estimate D2E/DX2                !
 ! A16   A(4,3,17)             112.0764         estimate D2E/DX2                !
 ! A17   A(4,3,18)             111.4655         estimate D2E/DX2                !
 ! A18   A(17,3,18)            106.8605         estimate D2E/DX2                !
 ! A19   A(3,4,5)              103.7611         estimate D2E/DX2                !
 ! A20   A(3,4,15)             112.6083         estimate D2E/DX2                !
 ! A21   A(3,4,16)             110.4156         estimate D2E/DX2                !
 ! A22   A(5,4,15)             112.2394         estimate D2E/DX2                !
 ! A23   A(5,4,16)             109.862          estimate D2E/DX2                !
 ! A24   A(15,4,16)            107.9325         estimate D2E/DX2                !
 ! A25   A(1,5,4)              103.102          estimate D2E/DX2                !
 ! A26   A(1,5,14)             110.1534         estimate D2E/DX2                !
 ! A27   A(1,5,19)             110.5361         estimate D2E/DX2                !
 ! A28   A(4,5,14)             113.8192         estimate D2E/DX2                !
 ! A29   A(4,5,19)             111.0854         estimate D2E/DX2                !
 ! A30   A(14,5,19)            108.0999         estimate D2E/DX2                !
 ! A31   A(2,6,7)              120.2262         estimate D2E/DX2                !
 ! A32   A(2,6,11)             122.5257         estimate D2E/DX2                !
 ! A33   A(7,6,11)             117.2372         estimate D2E/DX2                !
 ! A34   A(6,7,8)              120.7735         estimate D2E/DX2                !
 ! A35   A(6,7,21)             123.7583         estimate D2E/DX2                !
 ! A36   A(8,7,21)             115.4666         estimate D2E/DX2                !
 ! A37   A(7,8,9)              122.8724         estimate D2E/DX2                !
 ! A38   A(7,8,26)             115.78           estimate D2E/DX2                !
 ! A39   A(9,8,26)             121.3452         estimate D2E/DX2                !
 ! A40   A(8,9,10)             119.3944         estimate D2E/DX2                !
 ! A41   A(8,9,22)             116.8127         estimate D2E/DX2                !
 ! A42   A(10,9,22)            123.7927         estimate D2E/DX2                !
 ! A43   A(9,10,11)            118.8429         estimate D2E/DX2                !
 ! A44   A(9,10,23)            119.8145         estimate D2E/DX2                !
 ! A45   A(11,10,23)           121.3424         estimate D2E/DX2                !
 ! A46   A(6,11,10)            120.8759         estimate D2E/DX2                !
 ! A47   A(6,11,24)            119.5286         estimate D2E/DX2                !
 ! A48   A(10,11,24)           119.5954         estimate D2E/DX2                !
 ! A49   A(26,12,29)           108.9506         estimate D2E/DX2                !
 ! A50   A(26,12,30)           131.0833         estimate D2E/DX2                !
 ! A51   A(29,12,30)           107.8784         estimate D2E/DX2                !
 ! A52   A(27,13,28)           107.6397         estimate D2E/DX2                !
 ! A53   A(27,13,33)           118.7807         estimate D2E/DX2                !
 ! A54   A(28,13,33)           125.9813         estimate D2E/DX2                !
 ! A55   A(1,25,34)            109.5106         estimate D2E/DX2                !
 ! A56   A(1,25,35)            110.1269         estimate D2E/DX2                !
 ! A57   A(1,25,36)            111.8812         estimate D2E/DX2                !
 ! A58   A(34,25,35)           107.9404         estimate D2E/DX2                !
 ! A59   A(34,25,36)           108.3628         estimate D2E/DX2                !
 ! A60   A(35,25,36)           108.9203         estimate D2E/DX2                !
 ! A61   A(8,26,12)            161.8975         estimate D2E/DX2                !
 ! A62   A(12,29,31)           159.3631         estimate D2E/DX2                !
 ! A63   A(29,31,32)           123.8657         estimate D2E/DX2                !
 ! A64   A(29,31,33)           117.1911         estimate D2E/DX2                !
 ! A65   A(29,31,38)            79.871          estimate D2E/DX2                !
 ! A66   A(32,31,33)           107.557          estimate D2E/DX2                !
 ! A67   A(32,31,38)            94.7582         estimate D2E/DX2                !
 ! A68   A(33,31,38)           131.9433         estimate D2E/DX2                !
 ! A69   A(13,33,31)           158.806          estimate D2E/DX2                !
 ! A70   A(38,37,39)           109.471          estimate D2E/DX2                !
 ! A71   L(1,27,13,7,-1)       176.703          estimate D2E/DX2                !
 ! A72   L(31,38,37,1,-1)      178.1367         estimate D2E/DX2                !
 ! A73   L(1,27,13,7,-2)       180.0804         estimate D2E/DX2                !
 ! A74   L(31,38,37,1,-2)      174.9794         estimate D2E/DX2                !
 ! D1    D(5,1,2,3)             36.439          estimate D2E/DX2                !
 ! D2    D(5,1,2,6)            161.6964         estimate D2E/DX2                !
 ! D3    D(5,1,2,20)           -80.0382         estimate D2E/DX2                !
 ! D4    D(25,1,2,3)           160.5046         estimate D2E/DX2                !
 ! D5    D(25,1,2,6)           -74.2381         estimate D2E/DX2                !
 ! D6    D(25,1,2,20)           44.0273         estimate D2E/DX2                !
 ! D7    D(27,1,2,3)           -78.6297         estimate D2E/DX2                !
 ! D8    D(27,1,2,6)            46.6276         estimate D2E/DX2                !
 ! D9    D(27,1,2,20)          164.8931         estimate D2E/DX2                !
 ! D10   D(2,1,5,4)            -44.8781         estimate D2E/DX2                !
 ! D11   D(2,1,5,14)          -166.6883         estimate D2E/DX2                !
 ! D12   D(2,1,5,19)            73.9136         estimate D2E/DX2                !
 ! D13   D(25,1,5,4)          -168.7431         estimate D2E/DX2                !
 ! D14   D(25,1,5,14)           69.4468         estimate D2E/DX2                !
 ! D15   D(25,1,5,19)          -49.9514         estimate D2E/DX2                !
 ! D16   D(27,1,5,4)            78.9609         estimate D2E/DX2                !
 ! D17   D(27,1,5,14)          -42.8492         estimate D2E/DX2                !
 ! D18   D(27,1,5,19)         -162.2474         estimate D2E/DX2                !
 ! D19   D(2,1,13,28)         -173.185          estimate D2E/DX2                !
 ! D20   D(2,1,13,33)           34.1828         estimate D2E/DX2                !
 ! D21   D(5,1,13,28)           71.7366         estimate D2E/DX2                !
 ! D22   D(5,1,13,33)          -80.8957         estimate D2E/DX2                !
 ! D23   D(25,1,13,28)         -47.9375         estimate D2E/DX2                !
 ! D24   D(25,1,13,33)         159.4303         estimate D2E/DX2                !
 ! D25   D(2,1,25,34)         -177.8211         estimate D2E/DX2                !
 ! D26   D(2,1,25,35)           63.6306         estimate D2E/DX2                !
 ! D27   D(2,1,25,36)          -57.6572         estimate D2E/DX2                !
 ! D28   D(5,1,25,34)          -58.8471         estimate D2E/DX2                !
 ! D29   D(5,1,25,35)         -177.3954         estimate D2E/DX2                !
 ! D30   D(5,1,25,36)           61.3167         estimate D2E/DX2                !
 ! D31   D(27,1,25,34)          53.8724         estimate D2E/DX2                !
 ! D32   D(27,1,25,35)         -64.6759         estimate D2E/DX2                !
 ! D33   D(27,1,25,36)         174.0363         estimate D2E/DX2                !
 ! D34   D(1,2,3,4)            -13.8429         estimate D2E/DX2                !
 ! D35   D(1,2,3,17)          -134.3454         estimate D2E/DX2                !
 ! D36   D(1,2,3,18)           107.1787         estimate D2E/DX2                !
 ! D37   D(6,2,3,4)           -136.4221         estimate D2E/DX2                !
 ! D38   D(6,2,3,17)           103.0754         estimate D2E/DX2                !
 ! D39   D(6,2,3,18)           -15.4005         estimate D2E/DX2                !
 ! D40   D(20,2,3,4)           102.642          estimate D2E/DX2                !
 ! D41   D(20,2,3,17)          -17.8605         estimate D2E/DX2                !
 ! D42   D(20,2,3,18)         -136.3365         estimate D2E/DX2                !
 ! D43   D(1,2,6,7)            -67.7376         estimate D2E/DX2                !
 ! D44   D(1,2,6,11)           111.0313         estimate D2E/DX2                !
 ! D45   D(3,2,6,7)             51.2966         estimate D2E/DX2                !
 ! D46   D(3,2,6,11)          -129.9344         estimate D2E/DX2                !
 ! D47   D(20,2,6,7)           173.0649         estimate D2E/DX2                !
 ! D48   D(20,2,6,11)           -8.1662         estimate D2E/DX2                !
 ! D49   D(2,3,4,5)            -12.6664         estimate D2E/DX2                !
 ! D50   D(2,3,4,15)          -134.273          estimate D2E/DX2                !
 ! D51   D(2,3,4,16)           105.0047         estimate D2E/DX2                !
 ! D52   D(17,3,4,5)           106.2301         estimate D2E/DX2                !
 ! D53   D(17,3,4,15)          -15.3765         estimate D2E/DX2                !
 ! D54   D(17,3,4,16)         -136.0988         estimate D2E/DX2                !
 ! D55   D(18,3,4,5)          -134.0476         estimate D2E/DX2                !
 ! D56   D(18,3,4,15)          104.3458         estimate D2E/DX2                !
 ! D57   D(18,3,4,16)          -16.3765         estimate D2E/DX2                !
 ! D58   D(3,4,5,1)             34.8549         estimate D2E/DX2                !
 ! D59   D(3,4,5,14)           154.1576         estimate D2E/DX2                !
 ! D60   D(3,4,5,19)           -83.5539         estimate D2E/DX2                !
 ! D61   D(15,4,5,1)           156.7077         estimate D2E/DX2                !
 ! D62   D(15,4,5,14)          -83.9896         estimate D2E/DX2                !
 ! D63   D(15,4,5,19)           38.2989         estimate D2E/DX2                !
 ! D64   D(16,4,5,1)           -83.2002         estimate D2E/DX2                !
 ! D65   D(16,4,5,14)           36.1025         estimate D2E/DX2                !
 ! D66   D(16,4,5,19)          158.391          estimate D2E/DX2                !
 ! D67   D(2,6,7,8)            178.2133         estimate D2E/DX2                !
 ! D68   D(2,6,7,21)            -2.277          estimate D2E/DX2                !
 ! D69   D(11,6,7,8)            -0.6193         estimate D2E/DX2                !
 ! D70   D(11,6,7,21)          178.8904         estimate D2E/DX2                !
 ! D71   D(2,6,11,10)         -178.5995         estimate D2E/DX2                !
 ! D72   D(2,6,11,24)            1.3756         estimate D2E/DX2                !
 ! D73   D(7,6,11,10)            0.2042         estimate D2E/DX2                !
 ! D74   D(7,6,11,24)         -179.8207         estimate D2E/DX2                !
 ! D75   D(6,7,8,9)              0.528          estimate D2E/DX2                !
 ! D76   D(6,7,8,26)          -178.9161         estimate D2E/DX2                !
 ! D77   D(21,7,8,9)          -179.0205         estimate D2E/DX2                !
 ! D78   D(21,7,8,26)            1.5354         estimate D2E/DX2                !
 ! D79   D(7,8,9,10)             0.0144         estimate D2E/DX2                !
 ! D80   D(7,8,9,22)           179.8845         estimate D2E/DX2                !
 ! D81   D(26,8,9,10)          179.4283         estimate D2E/DX2                !
 ! D82   D(26,8,9,22)           -0.7016         estimate D2E/DX2                !
 ! D83   D(7,8,26,12)           -4.837          estimate D2E/DX2                !
 ! D84   D(9,8,26,12)          175.7096         estimate D2E/DX2                !
 ! D85   D(8,9,10,11)           -0.4259         estimate D2E/DX2                !
 ! D86   D(8,9,10,23)          179.7712         estimate D2E/DX2                !
 ! D87   D(22,9,10,11)         179.7135         estimate D2E/DX2                !
 ! D88   D(22,9,10,23)          -0.0894         estimate D2E/DX2                !
 ! D89   D(9,10,11,6)            0.309          estimate D2E/DX2                !
 ! D90   D(9,10,11,24)        -179.6661         estimate D2E/DX2                !
 ! D91   D(23,10,11,6)        -179.8912         estimate D2E/DX2                !
 ! D92   D(23,10,11,24)          0.1337         estimate D2E/DX2                !
 ! D93   D(29,12,26,8)          14.4051         estimate D2E/DX2                !
 ! D94   D(30,12,26,8)         151.2908         estimate D2E/DX2                !
 ! D95   D(26,12,29,31)        -12.765          estimate D2E/DX2                !
 ! D96   D(30,12,29,31)       -159.993          estimate D2E/DX2                !
 ! D97   D(27,13,33,31)        -48.6242         estimate D2E/DX2                !
 ! D98   D(28,13,33,31)        165.6774         estimate D2E/DX2                !
 ! D99   D(12,29,31,32)       -147.5519         estimate D2E/DX2                !
 ! D100  D(12,29,31,33)         73.5804         estimate D2E/DX2                !
 ! D101  D(12,29,31,38)        -58.6069         estimate D2E/DX2                !
 ! D102  D(29,31,33,13)        -62.4638         estimate D2E/DX2                !
 ! D103  D(32,31,33,13)        152.488          estimate D2E/DX2                !
 ! D104  D(38,31,33,13)         38.8295         estimate D2E/DX2                !
 ! D105  D(29,31,37,39)        -88.5969         estimate D2E/DX2                !
 ! D106  D(32,31,37,39)         35.1044         estimate D2E/DX2                !
 ! D107  D(33,31,37,39)        152.4376         estimate D2E/DX2                !
 --------------------------------------------------------------------------------
 Trust Radius=3.00D-01 FncErr=1.00D-07 GrdErr=1.00D-06 EigMax=2.50D+02 EigMin=1.00D-04
 Number of steps in this run=    232 maximum allowed number of steps=    234.
 GradGradGradGradGradGradGradGradGradGradGradGradGradGradGradGradGradGrad

                          Input orientation:                          
 ---------------------------------------------------------------------
 Center     Atomic      Atomic             Coordinates (Angstroms)
 Number     Number       Type             X           Y           Z
 ---------------------------------------------------------------------
      1          7           0       -1.936715   -0.201518    0.581763
      2          6           0       -1.370718   -0.918705   -0.574503
      3          6           0       -1.672810   -0.006157   -1.789040
      4          6           0       -2.711382    1.012402   -1.269639
      5          6           0       -3.161320    0.423973    0.063436
      6          6           0        0.089497   -1.243883   -0.355216
      7          6           0        1.033524   -0.225166   -0.307073
      8          7           0        2.323896   -0.497500   -0.078159
      9          6           0        2.784029   -1.745927    0.105698
     10          6           0        1.901660   -2.807126    0.059620
     11          6           0        0.547830   -2.548553   -0.169196
     12          8           0        3.529900    1.859135   -0.114126
     13          8           0       -0.407445    1.908577    1.599336
     14          1           0       -3.533832    1.171322    0.774230
     15          1           0       -3.546083    1.152887   -1.963154
     16          1           0       -2.240520    1.989023   -1.105823
     17          1           0       -2.064962   -0.609087   -2.614656
     18          1           0       -0.771883    0.494126   -2.160889
     19          1           0       -3.952377   -0.334895   -0.083344
     20          1           0       -1.908249   -1.877035   -0.702013
     21          1           0        0.796259    0.827051   -0.455226
     22          1           0        3.851055   -1.854122    0.282614
     23          1           0        2.267337   -3.820910    0.203824
     24          1           0       -0.160530   -3.376926   -0.202551
     25          6           0       -2.165921   -1.062079    1.736549
     26          1           0        2.968179    0.335076   -0.040509
     27          1           0       -0.977858    1.176050    1.256566
     28          1           0       -0.808675    2.235893    2.406783
     29          1           0        2.768875    2.478775   -0.133361
     30          1           0        4.248360    2.289513    0.353757
     31          8           0        1.125126    3.038326   -0.276206
     32          1           0        0.881126    3.895520   -0.631378
     33          1           0        0.519021    2.843832    0.469993
     34          1           0       -2.621680   -0.477363    2.544213
     35          1           0       -1.212612   -1.461546    2.104895
     36          1           0       -2.838191   -1.905035    1.494957
     37          8           0        1.388576    1.814008   -2.900501
     38          1           0        1.353596    2.203636   -2.012883
     39          1           0        1.738780    2.466874   -3.526620
 ---------------------------------------------------------------------
                    Distance matrix (angstroms):
                    1          2          3          4          5
     1  N    0.000000
     2  C    1.473656   0.000000
     3  C    2.393432   1.548904   0.000000
     4  C    2.345506   2.451483   1.544627   0.000000
     5  C    1.469544   2.327231   2.415024   1.525051   0.000000
     6  C    2.463735   1.511971   2.587188   3.711053   3.677611
     7  C    3.100469   2.516524   3.093289   4.059856   4.260912
     8  N    4.321563   3.751526   4.375179   5.390126   5.563880
     9  C    4.989716   4.290559   5.145896   6.300752   6.329094
    10  C    4.668506   3.831019   4.903041   6.134809   6.006145
    11  C    3.499354   2.549805   3.744184   4.951145   4.758973
    12  O    5.883403   5.651938   5.775192   6.403575   6.845703
    13  O    2.797610   3.694184   4.092487   3.787119   3.485235
    14  H    2.114832   3.296416   3.379381   2.208864   1.096596
    15  H    3.301678   3.309389   2.209717   1.094269   2.187790
    16  H    2.781854   3.081191   2.183993   1.096511   2.159727
    17  H    3.224849   2.177168   1.094966   2.203669   3.072685
    18  H    3.059885   2.207106   1.095547   2.196496   3.265265
    19  H    2.126746   2.692032   2.865989   2.182332   1.105982
    20  H    2.110983   1.106162   2.176521   3.052223   2.729604
    21  H    3.098782   2.785261   2.927387   3.605713   4.011722
    22  H    6.026514   5.373692   6.182217   7.327484   7.376392
    23  H    5.560296   4.718478   5.835118   7.093634   6.892681
    24  H    3.721988   2.765096   4.020699   5.187651   4.849982
    25  C    1.458297   2.448237   3.713207   3.692989   2.449179
    26  H    4.973242   4.547872   4.971175   5.850380   6.131025
    27  H    1.808994   2.809831   3.340103   3.068159   2.599362
    28  H    3.247175   4.376694   4.835126   4.316631   3.782759
    29  H    5.462412   5.373426   5.352077   5.785723   6.279184
    30  H    6.671760   6.536694   6.702383   7.259782   7.646429
    31  O    4.539556   4.687890   4.402952   4.450851   5.032278
    32  H    5.118365   5.315148   4.804774   4.650361   5.373618
    33  H    3.913731   4.338061   4.246150   4.100727   4.423338
    34  H    2.096778   3.389112   4.460882   4.095475   2.694044
    35  H    2.105214   2.738402   4.182424   4.444571   3.394142
    36  H    2.132734   2.721946   3.968436   4.021257   2.752806
    37  O    5.219777   4.526775   3.731010   4.484634   5.605237
    38  H    4.831470   4.386324   3.753988   4.300639   5.278519
    39  H    6.124409   5.463160   4.557851   5.197441   6.408816
                    6          7          8          9         10
     6  C    0.000000
     7  C    1.389708   0.000000
     8  N    2.372001   1.338517   0.000000
     9  C    2.779387   2.355284   1.343166   0.000000
    10  C    2.428941   2.748571   2.351944   1.380884   0.000000
    11  C    1.395291   2.377611   2.714685   2.391728   1.397166
    12  O    4.639312   3.257826   2.647540   3.687969   4.945235
    13  O    3.742356   3.203693   4.007920   5.076599   5.471796
    14  H    4.498597   4.896952   6.150164   6.990897   6.773720
    15  H    4.641919   5.061071   6.382291   7.263167   7.032156
    16  H    4.055129   4.032369   5.298376   6.376812   6.443521
    17  H    3.185864   3.882390   5.070340   5.674984   5.264714
    18  H    2.650114   2.685798   3.860691   4.774910   4.793408
    19  H    4.151737   4.992124   6.278381   6.885195   6.356266
    20  H    2.124180   3.396863   4.494815   4.763093   3.995067
    21  H    2.190498   1.088763   2.056767   3.299406   3.833304
    22  H    3.863747   3.307523   2.074318   1.086991   2.181303
    23  H    3.420026   3.835712   3.335831   2.140597   1.087324
    24  H    2.153066   3.371985   3.805120   3.380178   2.155466
    25  C    3.081468   3.887578   4.875487   5.256361   4.733127
    26  H    3.298327   2.031703   1.053423   2.094245   3.319777
    27  H    3.097283   2.907582   3.934951   4.900433   5.058655
    28  H    4.532570   4.100673   4.843488   5.835872   6.187660
    29  H    4.592001   3.217595   3.009862   4.231487   5.360042
    30  H    5.503060   4.134668   3.414316   4.300067   5.618652
    31  O    4.406369   3.264923   3.738762   5.078079   5.906360
    32  H    5.207341   4.136236   4.656851   5.999187   6.815015
    33  H    4.192240   3.207381   3.836997   5.131166   5.832103
    34  H    4.042861   4.642623   5.597853   6.064429   5.662297
    35  H    2.791955   3.520135   4.266380   4.477812   3.961367
    36  H    3.525850   4.589058   5.577006   5.793506   5.033900
    37  O    4.185306   3.318157   3.766100   4.863914   5.511847
    38  H    4.028795   2.985182   3.461325   4.704633   5.450080
    39  H    5.152441   4.255578   4.584949   5.659856   6.379868
                   11         12         13         14         15
    11  C    0.000000
    12  O    5.321982   0.000000
    13  O    4.889403   4.294308   0.000000
    14  H    5.602454   7.152522   3.316420   0.000000
    15  H    5.803367   7.347600   4.807645   2.737473   0.000000
    16  H    5.407565   5.856456   3.268719   2.424024   1.771619
    17  H    4.070440   6.606607   5.181093   4.100242   2.392222
    18  H    3.868640   4.955585   4.033953   4.086793   2.858190
    19  H    5.015926   7.797383   4.520080   1.783060   2.431513
    20  H    2.601375   6.624050   4.677550   3.756900   3.667888
    21  H    3.396797   2.941826   2.615306   4.514396   4.608248
    22  H    3.405534   3.748176   5.833222   7.995721   8.294771
    23  H    2.171345   5.827355   6.475255   7.674719   7.951748
    24  H    1.090453   6.406514   5.589661   5.746288   5.922913
    25  C    3.633994   6.663397   3.454832   2.790218   4.527552
    26  H    3.766957   1.625948   4.069378   6.606001   6.841125
    27  H    4.270034   4.760807   0.989676   2.601091   4.118606
    28  H    5.600598   5.031914   0.959214   3.350376   5.269028
    29  H    5.496213   0.981572   3.662837   6.500559   6.707072
    30  H    6.113451   0.959335   4.834573   7.873351   8.210563
    31  O    5.617645   2.683226   2.672595   5.127866   5.312332
    32  H    6.469218   3.380890   3.253374   5.374834   5.375485
    33  H    5.430213   3.221213   1.734490   4.394937   5.030365
    34  H    4.658134   7.097036   3.389445   2.585154   4.881454
    35  H    3.074448   6.200193   3.501659   3.753762   5.369299
    36  H    3.827357   7.570384   4.523611   3.235326   4.670174
    37  O    5.215249   3.514426   4.845944   6.176310   5.066218
    38  H    5.160595   2.908652   4.029448   5.720194   5.011327
    39  H    6.151842   3.901611   5.585105   6.926485   5.665753
                   16         17         18         19         20
    16  H    0.000000
    17  H    3.009580   0.000000
    18  H    2.346226   1.759272   0.000000
    19  H    3.062109   3.169394   3.888317   0.000000
    20  H    3.901265   2.300099   3.007000   2.634275   0.000000
    21  H    3.315944   3.861634   2.340768   4.902852   3.832408
    22  H    7.335176   6.703995   5.732062   7.958362   5.842910
    23  H    7.469355   6.085101   5.783447   7.135798   4.694114
    24  H    5.825433   4.135945   4.381082   4.862743   2.356620
    25  C    4.170596   4.375886   4.422119   2.651836   2.584015
    26  H    5.567852   5.731508   4.302252   6.953042   5.395421
    27  H    2.799307   4.399417   3.490909   3.595285   3.744728
    28  H    3.801253   5.906523   4.888633   4.763669   5.271608
    29  H    5.126361   6.249616   4.537253   7.286595   6.416536
    30  H    6.657795   7.554561   5.894888   8.621523   7.508569
    31  O    3.621723   5.380393   3.691020   6.098922   5.791671
    32  H    3.688428   5.736228   4.079378   6.446666   6.411552
    33  H    3.290739   5.302328   3.756207   5.513972   5.436159
    34  H    4.421663   5.190493   5.148157   2.948747   3.606390
    35  H    4.824078   4.871073   4.713365   3.682940   2.921519
    36  H    4.720694   4.377931   4.836405   2.489535   2.385844
    37  O    4.052387   4.228478   2.637556   6.409364   5.415368
    38  H    3.713016   4.467671   2.731665   6.190364   5.386083
    39  H    4.682246   4.976109   3.472806   7.217709   6.336305
                   21         22         23         24         25
    21  H    0.000000
    22  H    4.130965   0.000000
    23  H    4.919549   2.526386   0.000000
    24  H    4.318879   4.318232   2.501360   0.000000
    25  C    4.140918   6.240614   5.441890   3.624944   0.000000
    26  H    2.265230   2.382534   4.221741   4.857369   5.609720
    27  H    2.489884   5.783505   6.050551   4.850427   2.578972
    28  H    3.570958   6.553884   7.141410   6.223540   3.628767
    29  H    2.592875   4.485326   6.328607   6.547934   6.355031
    30  H    3.835394   4.163247   6.425278   7.201133   7.368058
    31  O    2.242753   5.628412   6.970236   6.543225   5.629875
    32  H    3.074692   6.535613   7.884316   7.359172   6.282465
    33  H    2.236134   5.762667   6.895378   6.293801   4.906039
    34  H    4.730797   6.993325   6.368612   4.691422   1.096326
    35  H    3.978374   5.395882   4.614186   3.178028   1.097292
    36  H    4.947397   6.798410   5.603929   3.495406   1.104938
    37  O    2.702646   5.445292   6.493178   6.051815   6.512186
    38  H    2.152186   5.288857   6.484124   6.059088   6.091809
    39  H    3.607052   6.135387   7.330198   6.986187   7.443194
                   26         27         28         29         30
    26  H    0.000000
    27  H    4.238024   0.000000
    28  H    4.885383   1.573178   0.000000
    29  H    2.154945   4.203213   4.394336   0.000000
    30  H    2.369416   5.419245   5.458149   1.569070   0.000000
    31  O    3.280237   3.200001   3.403221   1.742244   3.272944
    32  H    4.169134   3.796797   3.852300   2.412215   3.858499
    33  H    3.542999   2.375045   2.425597   2.357784   3.772102
    34  H    6.211873   2.663449   3.266134   6.705687   7.723416
    35  H    5.030867   2.780591   3.731669   6.032260   6.852674
    36  H    6.410124   3.607042   4.700813   7.301260   8.313590
    37  O    3.586355   4.825786   5.759615   3.162943   4.358287
    38  H    3.160483   4.144986   4.920356   2.368822   3.740056
    39  H    4.267195   5.650240   6.461281   3.546187   4.624583
                   31         32         33         34         35
    31  O    0.000000
    32  H    0.959409   0.000000
    33  H    0.980818   1.565307   0.000000
    34  H    5.861176   6.440197   5.019634   0.000000
    35  H    5.602099   6.369387   4.920136   1.774004   0.000000
    36  H    6.578884   7.211176   5.905350   1.784954   1.791986
    37  O    2.907798   3.120756   3.630000   7.139850   6.522992
    38  H    1.940349   2.234783   2.696487   6.614960   6.080714
    39  H    3.356832   3.340513   4.195572   8.033502   7.473764
                   36         37         38         39
    36  H    0.000000
    37  O    7.142611   0.000000
    38  H    6.837923   0.970000   0.000000
    39  H    8.079510   0.970000   1.584001   0.000000
 Stoichiometry    C10H23N2O4(1+)
 Framework group  C1[X(C10H23N2O4)]
 Deg. of freedom   111
 Full point group                 C1      NOp   1
 Largest Abelian subgroup         C1      NOp   1
 Largest concise Abelian subgroup C1      NOp   1
                         Standard orientation:                         
 ---------------------------------------------------------------------
 Center     Atomic      Atomic             Coordinates (Angstroms)
 Number     Number       Type             X           Y           Z
 ---------------------------------------------------------------------
      1          7           0       -2.158862    0.102847   -0.536781
      2          6           0       -1.588517    0.664708    0.700426
      3          6           0       -1.579360   -0.517591    1.701020
      4          6           0       -2.482500   -1.590470    1.053608
      5          6           0       -3.185462   -0.840992   -0.073294
      6          6           0       -0.243612    1.305086    0.441191
      7          6           0        0.848649    0.520845    0.090165
      8          7           0        2.035441    1.079503   -0.176397
      9          6           0        2.248165    2.404235   -0.113707
     10          6           0        1.208619    3.241632    0.239781
     11          6           0       -0.042586    2.683873    0.514484
     12          8           0        3.624180   -0.954715   -0.765747
     13          8           0       -0.424458   -1.416852   -2.120757
     14          1           0       -3.507374   -1.485205   -0.900268
     15          1           0       -3.190098   -2.029024    1.763819
     16          1           0       -1.874082   -2.402589    0.638126
     17          1           0       -1.966179   -0.183903    2.669510
     18          1           0       -0.567414   -0.898573    1.877209
     19          1           0       -4.071504   -0.296504    0.303082
     20          1           0       -2.263371    1.453745    1.081984
     21          1           0        0.815707   -0.565054    0.018463
     22          1           0        3.251169    2.751410   -0.348231
     23          1           0        1.374186    4.314789    0.296288
     24          1           0       -0.873516    3.334277    0.789472
     25          6           0       -2.671205    1.119877   -1.447707
     26          1           0        2.803932    0.413499   -0.451281
     27          1           0       -1.066471   -0.894817   -1.577841
     28          1           0       -0.858439   -1.643896   -2.945501
     29          1           0        2.989150   -1.700964   -0.823475
     30          1           0        4.343748   -1.132543   -1.374781
     31          8           0        1.495862   -2.586245   -0.675884
     32          1           0        1.447926   -3.528621   -0.502407
     33          1           0        0.779271   -2.364934   -1.307962
     34          1           0       -3.114239    0.635322   -2.325692
     35          1           0       -1.852722    1.763531   -1.793894
     36          1           0       -3.444075    1.748748   -0.970128
     37          8           0        1.861478   -1.896426    2.125145
     38          1           0        1.786518   -2.095749    1.178809
     39          1           0        2.392176   -2.582697    2.559070
 ---------------------------------------------------------------------
 Rotational constants (GHZ):           0.5083980           0.3889402           0.2990577
 Standard basis: Aug-CC-pVDZ (5D, 7F)
 There are   607 symmetry adapted cartesian basis functions of A   symmetry.
 There are   575 symmetry adapted basis functions of A   symmetry.
   575 basis functions,   941 primitive gaussians,   607 cartesian basis functions
    64 alpha electrons       64 beta electrons
       nuclear repulsion energy      1267.3394708495 Hartrees.
 NAtoms=   39 NActive=   39 NUniq=   39 SFac= 1.00D+00 NAtFMM=   60 NAOKFM=F Big=F
 Integral buffers will be    131072 words long.
 Raffenetti 2 integral format.
 Two-electron integral symmetry is turned on.
 Nuclear repulsion after empirical dispersion term =     1267.3067976509 Hartrees.
 One-electron integrals computed using PRISM.
 NBasis=   575 RedAO= T EigKep=  1.25D-06  NBF=   575
 NBsUse=   575 1.00D-06 EigRej= -1.00D+00 NBFU=   575
 ExpMin= 2.97D-02 ExpMax= 1.17D+04 ExpMxC= 4.01D+02 IAcc=3 IRadAn=         5 AccDes= 0.00D+00
 Harris functional with IExCor= 4639 and IRadAn=       5 diagonalized for initial guess.
 HarFok:  IExCor= 4639 AccDes= 0.00D+00 IRadAn=         5 IDoV= 1 UseB2=F ITyADJ=14
 ICtDFT=  3500011 ScaDFX=  1.000000  1.000000  1.000000  1.000000
 FoFCou: FMM=F IPFlag=           0 FMFlag=      100000 FMFlg1=           0
         NFxFlg=           0 DoJE=T BraDBF=F KetDBF=T FulRan=T
         wScrn=  0.000000 ICntrl=       500 IOpCl=  0 I1Cent=   200000004 NGrid=           0
         NMat0=    1 NMatS0=      1 NMatT0=    0 NMatD0=    1 NMtDS0=    0 NMtDT0=    0
 Petite list used in FoFCou.
 Requested convergence on RMS density matrix=1.00D-08 within 128 cycles.
 Requested convergence on MAX density matrix=1.00D-06.
 Requested convergence on             energy=1.00D-06.
 No special actions if energy rises.
 SCF Done:  E(RwB97XD) =  -805.026068622     A.U. after   15 cycles
            NFock= 15  Conv=0.35D-08     -V/T= 2.0062

 **********************************************************************

            Population analysis using the SCF density.

 **********************************************************************

 Orbital symmetries:
       Occupied  (A) (A) (A) (A) (A) (A) (A) (A) (A) (A) (A) (A)
                 (A) (A) (A) (A) (A) (A) (A) (A) (A) (A) (A) (A)
                 (A) (A) (A) (A) (A) (A) (A) (A) (A) (A) (A) (A)
                 (A) (A) (A) (A) (A) (A) (A) (A) (A) (A) (A) (A)
                 (A) (A) (A) (A) (A) (A) (A) (A) (A) (A) (A) (A)
                 (A) (A) (A) (A)
       Virtual   (A) (A) (A) (A) (A) (A) (A) (A) (A) (A) (A) (A)
                 (A) (A) (A) (A) (A) (A) (A) (A) (A) (A) (A) (A)
                 (A) (A) (A) (A) (A) (A) (A) (A) (A) (A) (A) (A)
                 (A) (A) (A) (A) (A) (A) (A) (A) (A) (A) (A) (A)
                 (A) (A) (A) (A) (A) (A) (A) (A) (A) (A) (A) (A)
                 (A) (A) (A) (A) (A) (A) (A) (A) (A) (A) (A) (A)
                 (A) (A) (A) (A) (A) (A) (A) (A) (A) (A) (A) (A)
                 (A) (A) (A) (A) (A) (A) (A) (A) (A) (A) (A) (A)
                 (A) (A) (A) (A) (A) (A) (A) (A) (A) (A) (A) (A)
                 (A) (A) (A) (A) (A) (A) (A) (A) (A) (A) (A) (A)
                 (A) (A) (A) (A) (A) (A) (A) (A) (A) (A) (A) (A)
                 (A) (A) (A) (A) (A) (A) (A) (A) (A) (A) (A) (A)
                 (A) (A) (A) (A) (A) (A) (A) (A) (A) (A) (A) (A)
                 (A) (A) (A) (A) (A) (A) (A) (A) (A) (A) (A) (A)
                 (A) (A) (A) (A) (A) (A) (A) (A) (A) (A) (A) (A)
                 (A) (A) (A) (A) (A) (A) (A) (A) (A) (A) (A) (A)
                 (A) (A) (A) (A) (A) (A) (A) (A) (A) (A) (A) (A)
                 (A) (A) (A) (A) (A) (A) (A) (A) (A) (A) (A) (A)
                 (A) (A) (A) (A) (A) (A) (A) (A) (A) (A) (A) (A)
                 (A) (A) (A) (A) (A) (A) (A) (A) (A) (A) (A) (A)
                 (A) (A) (A) (A) (A) (A) (A) (A) (A) (A) (A) (A)
                 (A) (A) (A) (A) (A) (A) (A) (A) (A) (A) (A) (A)
                 (A) (A) (A) (A) (A) (A) (A) (A) (A) (A) (A) (A)
                 (A) (A) (A) (A) (A) (A) (A) (A) (A) (A) (A) (A)
                 (A) (A) (A) (A) (A) (A) (A) (A) (A) (A) (A) (A)
                 (A) (A) (A) (A) (A) (A) (A) (A) (A) (A) (A) (A)
                 (A) (A) (A) (A) (A) (A) (A) (A) (A) (A) (A) (A)
                 (A) (A) (A) (A) (A) (A) (A) (A) (A) (A) (A) (A)
                 (A) (A) (A) (A) (A) (A) (A) (A) (A) (A) (A) (A)
                 (A) (A) (A) (A) (A) (A) (A) (A) (A) (A) (A) (A)
                 (A) (A) (A) (A) (A) (A) (A) (A) (A) (A) (A) (A)
                 (A) (A) (A) (A) (A) (A) (A) (A) (A) (A) (A) (A)
                 (A) (A) (A) (A) (A) (A) (A) (A) (A) (A) (A) (A)
                 (A) (A) (A) (A) (A) (A) (A) (A) (A) (A) (A) (A)
                 (A) (A) (A) (A) (A) (A) (A) (A) (A) (A) (A) (A)
                 (A) (A) (A) (A) (A) (A) (A) (A) (A) (A) (A) (A)
                 (A) (A) (A) (A) (A) (A) (A) (A) (A) (A) (A) (A)
                 (A) (A) (A) (A) (A) (A) (A) (A) (A) (A) (A) (A)
                 (A) (A) (A) (A) (A) (A) (A) (A) (A) (A) (A) (A)
                 (A) (A) (A) (A) (A) (A) (A) (A) (A) (A) (A) (A)
                 (A) (A) (A) (A) (A) (A) (A) (A) (A) (A) (A) (A)
                 (A) (A) (A) (A) (A) (A) (A) (A) (A) (A) (A) (A)
                 (A) (A) (A) (A) (A) (A) (A)
 The electronic state is 1-A.
 Alpha  occ. eigenvalues --  -19.41335 -19.40182 -19.38974 -19.36449 -14.67700
 Alpha  occ. eigenvalues --  -14.58239 -10.51101 -10.50730 -10.47815 -10.47145
 Alpha  occ. eigenvalues --  -10.46881 -10.46316 -10.43480 -10.43357 -10.40855
 Alpha  occ. eigenvalues --  -10.40358  -1.26422  -1.25780  -1.24134  -1.22946
 Alpha  occ. eigenvalues --   -1.20193  -1.17477  -1.08295  -1.04776  -1.00430
 Alpha  occ. eigenvalues --   -0.95987  -0.90671  -0.89786  -0.88844  -0.82697
 Alpha  occ. eigenvalues --   -0.79850  -0.79436  -0.77299  -0.76364  -0.74806
 Alpha  occ. eigenvalues --   -0.74488  -0.73944  -0.72155  -0.70959  -0.69553
 Alpha  occ. eigenvalues --   -0.68807  -0.68034  -0.65675  -0.64872  -0.64462
 Alpha  occ. eigenvalues --   -0.63796  -0.61878  -0.61792  -0.59579  -0.59473
 Alpha  occ. eigenvalues --   -0.58652  -0.57169  -0.56781  -0.56202  -0.55552
 Alpha  occ. eigenvalues --   -0.54403  -0.53926  -0.53640  -0.53114  -0.52547
 Alpha  occ. eigenvalues --   -0.51948  -0.49533  -0.49137  -0.44648
 Alpha virt. eigenvalues --   -0.13811  -0.10977  -0.06814  -0.05631  -0.05131
 Alpha virt. eigenvalues --   -0.04515  -0.03656  -0.03345  -0.02789  -0.02544
 Alpha virt. eigenvalues --   -0.02002  -0.01599  -0.01210  -0.00753  -0.00403
 Alpha virt. eigenvalues --    0.00086   0.00517   0.00711   0.01195   0.01475
 Alpha virt. eigenvalues --    0.01773   0.02161   0.02454   0.02708   0.03011
 Alpha virt. eigenvalues --    0.03397   0.03689   0.03914   0.04385   0.04524
 Alpha virt. eigenvalues --    0.04555   0.05188   0.05443   0.05678   0.06171
 Alpha virt. eigenvalues --    0.06316   0.06543   0.06820   0.07044   0.07132
 Alpha virt. eigenvalues --    0.07460   0.07806   0.07930   0.08635   0.08731
 Alpha virt. eigenvalues --    0.09018   0.09116   0.09627   0.10116   0.10318
 Alpha virt. eigenvalues --    0.10626   0.11084   0.11183   0.11360   0.11766
 Alpha virt. eigenvalues --    0.12030   0.12420   0.12565   0.13068   0.13520
 Alpha virt. eigenvalues --    0.13780   0.13953   0.14416   0.14782   0.14895
 Alpha virt. eigenvalues --    0.14967   0.15296   0.15700   0.15805   0.15915
 Alpha virt. eigenvalues --    0.16327   0.16862   0.16982   0.17558   0.17848
 Alpha virt. eigenvalues --    0.18053   0.18344   0.18553   0.18769   0.19166
 Alpha virt. eigenvalues --    0.19724   0.20058   0.20131   0.20390   0.20715
 Alpha virt. eigenvalues --    0.21092   0.21428   0.21766   0.22070   0.22138
 Alpha virt. eigenvalues --    0.22458   0.22803   0.23413   0.23964   0.24018
 Alpha virt. eigenvalues --    0.24186   0.24394   0.24728   0.25102   0.25398
 Alpha virt. eigenvalues --    0.25620   0.26206   0.26616   0.26847   0.27350
 Alpha virt. eigenvalues --    0.27698   0.28205   0.28427   0.29245   0.29556
 Alpha virt. eigenvalues --    0.30012   0.30408   0.30923   0.31179   0.31585
 Alpha virt. eigenvalues --    0.32090   0.32257   0.32682   0.32957   0.33023
 Alpha virt. eigenvalues --    0.33492   0.34022   0.34367   0.34766   0.34857
 Alpha virt. eigenvalues --    0.35399   0.36011   0.36363   0.36578   0.37474
 Alpha virt. eigenvalues --    0.38055   0.38267   0.38544   0.38961   0.39042
 Alpha virt. eigenvalues --    0.39583   0.39904   0.40274   0.40885   0.41455
 Alpha virt. eigenvalues --    0.41702   0.42028   0.42595   0.43079   0.43507
 Alpha virt. eigenvalues --    0.43767   0.44357   0.44502   0.44827   0.45103
 Alpha virt. eigenvalues --    0.45533   0.45755   0.46578   0.46994   0.47177
 Alpha virt. eigenvalues --    0.47650   0.48012   0.48301   0.49011   0.49392
 Alpha virt. eigenvalues --    0.49716   0.50288   0.50548   0.51044   0.51541
 Alpha virt. eigenvalues --    0.51904   0.52455   0.52776   0.52964   0.53037
 Alpha virt. eigenvalues --    0.53512   0.53756   0.54278   0.54379   0.55377
 Alpha virt. eigenvalues --    0.55865   0.56201   0.56664   0.56867   0.57018
 Alpha virt. eigenvalues --    0.57754   0.58063   0.58193   0.58516   0.59094
 Alpha virt. eigenvalues --    0.59422   0.59709   0.59846   0.60592   0.60755
 Alpha virt. eigenvalues --    0.61563   0.61826   0.61934   0.62535   0.62940
 Alpha virt. eigenvalues --    0.63395   0.63747   0.63898   0.64416   0.64871
 Alpha virt. eigenvalues --    0.65661   0.65855   0.66630   0.67143   0.67391
 Alpha virt. eigenvalues --    0.68176   0.68602   0.68799   0.69079   0.69439
 Alpha virt. eigenvalues --    0.70396   0.70689   0.71078   0.71528   0.71733
 Alpha virt. eigenvalues --    0.71925   0.72473   0.73590   0.73853   0.74295
 Alpha virt. eigenvalues --    0.74905   0.75048   0.75350   0.75923   0.76414
 Alpha virt. eigenvalues --    0.77166   0.77701   0.78165   0.78635   0.79442
 Alpha virt. eigenvalues --    0.79665   0.81108   0.81589   0.82068   0.82575
 Alpha virt. eigenvalues --    0.82860   0.83443   0.83990   0.84528   0.84988
 Alpha virt. eigenvalues --    0.85987   0.86151   0.86432   0.87163   0.88517
 Alpha virt. eigenvalues --    0.88882   0.90032   0.90485   0.90547   0.91217
 Alpha virt. eigenvalues --    0.92696   0.93202   0.94252   0.95239   0.95704
 Alpha virt. eigenvalues --    0.96037   0.96661   0.97109   0.97599   0.98448
 Alpha virt. eigenvalues --    0.98806   0.98865   1.00371   1.00850   1.02565
 Alpha virt. eigenvalues --    1.02969   1.03768   1.04184   1.04619   1.05004
 Alpha virt. eigenvalues --    1.06617   1.06933   1.08014   1.09210   1.09251
 Alpha virt. eigenvalues --    1.09778   1.10753   1.11690   1.12572   1.13448
 Alpha virt. eigenvalues --    1.13881   1.14937   1.15134   1.15742   1.16841
 Alpha virt. eigenvalues --    1.17807   1.18402   1.19301   1.19634   1.21362
 Alpha virt. eigenvalues --    1.22407   1.22924   1.23462   1.24265   1.25326
 Alpha virt. eigenvalues --    1.26631   1.27191   1.28326   1.29451   1.29831
 Alpha virt. eigenvalues --    1.30463   1.31350   1.32097   1.33341   1.34752
 Alpha virt. eigenvalues --    1.35423   1.35880   1.36200   1.36702   1.38067
 Alpha virt. eigenvalues --    1.38930   1.39495   1.40224   1.40791   1.42076
 Alpha virt. eigenvalues --    1.43746   1.44908   1.46331   1.46557   1.46871
 Alpha virt. eigenvalues --    1.48235   1.49288   1.49986   1.50866   1.52037
 Alpha virt. eigenvalues --    1.52718   1.53821   1.55214   1.55884   1.56283
 Alpha virt. eigenvalues --    1.58234   1.58796   1.59223   1.59319   1.60864
 Alpha virt. eigenvalues --    1.61866   1.62088   1.62826   1.63769   1.64056
 Alpha virt. eigenvalues --    1.64935   1.65891   1.66362   1.67406   1.68517
 Alpha virt. eigenvalues --    1.68627   1.69589   1.70152   1.71545   1.72858
 Alpha virt. eigenvalues --    1.73249   1.74429   1.74699   1.76007   1.77012
 Alpha virt. eigenvalues --    1.77334   1.78703   1.78775   1.79977   1.80892
 Alpha virt. eigenvalues --    1.82024   1.82415   1.82746   1.83445   1.84874
 Alpha virt. eigenvalues --    1.85237   1.85837   1.86935   1.87265   1.87690
 Alpha virt. eigenvalues --    1.88682   1.89127   1.90050   1.90792   1.91744
 Alpha virt. eigenvalues --    1.92275   1.92775   1.93707   1.94433   1.95490
 Alpha virt. eigenvalues --    1.96099   1.96412   1.96704   1.98355   1.99990
 Alpha virt. eigenvalues --    2.00938   2.01601   2.01725   2.02223   2.03208
 Alpha virt. eigenvalues --    2.03543   2.05002   2.05307   2.06859   2.07081
 Alpha virt. eigenvalues --    2.08935   2.10552   2.11045   2.11660   2.12533
 Alpha virt. eigenvalues --    2.13078   2.13171   2.15169   2.15759   2.17433
 Alpha virt. eigenvalues --    2.18315   2.19130   2.19742   2.22176   2.22631
 Alpha virt. eigenvalues --    2.22946   2.23529   2.23991   2.24794   2.25595
 Alpha virt. eigenvalues --    2.26477   2.27819   2.28185   2.29890   2.31221
 Alpha virt. eigenvalues --    2.32163   2.32310   2.32588   2.34415   2.35876
 Alpha virt. eigenvalues --    2.36346   2.37908   2.40364   2.41419   2.41808
 Alpha virt. eigenvalues --    2.42065   2.42815   2.43224   2.44790   2.46339
 Alpha virt. eigenvalues --    2.47141   2.48324   2.49917   2.50459   2.53149
 Alpha virt. eigenvalues --    2.53407   2.55019   2.55365   2.58479   2.58865
 Alpha virt. eigenvalues --    2.60069   2.60343   2.61382   2.62333   2.63624
 Alpha virt. eigenvalues --    2.65022   2.65852   2.67107   2.68328   2.69678
 Alpha virt. eigenvalues --    2.70315   2.71831   2.72852   2.73871   2.75474
 Alpha virt. eigenvalues --    2.76656   2.78014   2.80391   2.80846   2.81744
 Alpha virt. eigenvalues --    2.82682   2.84837   2.86217   2.86903   2.88319
 Alpha virt. eigenvalues --    2.89802   2.92064   2.93454   2.94156   2.97341
 Alpha virt. eigenvalues --    2.98465   3.02312   3.03028   3.07465   3.12718
 Alpha virt. eigenvalues --    3.15680   3.20283   3.24105   3.28062   3.34564
 Alpha virt. eigenvalues --    3.37834   3.38674   3.41032   3.41574   3.43912
 Alpha virt. eigenvalues --    3.44603   3.46257   3.47595   3.51179   3.52583
 Alpha virt. eigenvalues --    3.54175   3.56543   3.60540   3.64671   3.69333
 Alpha virt. eigenvalues --    3.69855   3.80707   3.82468   3.88140   3.92017
 Alpha virt. eigenvalues --    3.98716   4.02762   4.09449   4.16655   4.41028
 Alpha virt. eigenvalues --    5.00606
          Condensed to atoms (all electrons):
               1          2          3          4          5          6
     1  N   15.132242  -5.407649  -0.680941  -0.572543  -0.341780   2.340733
     2  C   -5.407649  28.352772  -3.414374   0.684126  -0.378943  -7.807902
     3  C   -0.680941  -3.414374  10.580995  -1.451727   0.871913   0.487158
     4  C   -0.572543   0.684126  -1.451727   6.693826  -0.073546   0.133356
     5  C   -0.341780  -0.378943   0.871913  -0.073546   6.220227  -0.450473
     6  C    2.340733  -7.807902   0.487158   0.133356  -0.450473  30.247119
     7  C   -0.297930  -3.039142  -0.706181  -0.106895  -0.315914  -8.132469
     8  N   -0.065455   0.674253   0.103372  -0.021694   0.074748   1.029824
     9  C    0.020999   0.328667   0.013920  -0.007700   0.000468  -0.528318
    10  C    0.074868  -1.192876  -0.198318   0.016708  -0.048073   0.277659
    11  C   -0.900615  -1.047700   0.060247  -0.089759   0.006492 -13.390661
    12  O   -0.003687   0.007238  -0.002025   0.000380  -0.000452  -0.130866
    13  O   -0.026718   0.029851   0.014815   0.028574  -0.006546   0.105738
    14  H   -0.922645   0.680014   0.119533   0.099180  -0.323199  -0.199991
    15  H   -0.101640   0.149735   0.324362  -0.483414   0.158102  -0.101533
    16  H    0.226550  -0.119892   0.139524  -0.279546  -0.130564   0.043445
    17  H    0.394575   0.492043  -1.360159   0.204667  -0.263066   0.252291
    18  H   -0.115248   0.182673  -0.285735   0.427242   0.114921  -0.365957
    19  H   -0.195717  -0.020836  -0.019929   0.029851  -0.140081   0.089953
    20  H    0.011801  -3.050639   0.612101   0.058423  -0.116812   0.878282
    21  H   -0.368985  -0.678906  -0.422956  -0.043698   0.029069  -1.387908
    22  H    0.006271  -0.048845   0.002271  -0.000676  -0.000442  -0.415126
    23  H   -0.000186   0.137699   0.006062   0.001990  -0.001066   0.468432
    24  H    0.023669  -0.078330  -0.052635  -0.016708   0.006633   1.606478
    25  C    1.079250  -0.923754  -0.361633   0.020758  -0.269423   0.638631
    26  H   -0.015683   0.049812  -0.009126   0.005334  -0.004015  -0.454830
    27  H   -0.096752   0.416795   0.195019  -0.060800  -0.120000  -0.197550
    28  H   -0.046750  -0.030289  -0.004992   0.004038   0.025984   0.001540
    29  H   -0.004540   0.010942   0.000963   0.003566  -0.000314  -0.010369
    30  H    0.000812  -0.001487  -0.000529  -0.000313  -0.000053   0.006566
    31  O   -0.005534  -0.087540   0.070936  -0.015628   0.016389   0.011207
    32  H    0.005059  -0.007491  -0.002009  -0.004583   0.002228  -0.000705
    33  H   -0.007422   0.035439   0.002736   0.007016  -0.004643   0.003457
    34  H   -0.437367   0.091120  -0.069132   0.052260  -0.025006   0.095808
    35  H    0.335291   0.149216   0.127096  -0.041463   0.009955  -0.141551
    36  H   -0.691479  -0.032066  -0.080866   0.041503   0.043487   0.104319
    37  O   -0.000430   0.016847  -0.042140   0.026501  -0.002369   0.045805
    38  H    0.013100   0.037216   0.017172  -0.002545  -0.004442   0.036245
    39  H    0.000557  -0.001228  -0.006826   0.002102  -0.000519  -0.009628
               7          8          9         10         11         12
     1  N   -0.297930  -0.065455   0.020999   0.074868  -0.900615  -0.003687
     2  C   -3.039142   0.674253   0.328667  -1.192876  -1.047700   0.007238
     3  C   -0.706181   0.103372   0.013920  -0.198318   0.060247  -0.002025
     4  C   -0.106895  -0.021694  -0.007700   0.016708  -0.089759   0.000380
     5  C   -0.315914   0.074748   0.000468  -0.048073   0.006492  -0.000452
     6  C   -8.132469   1.029824  -0.528318   0.277659 -13.390661  -0.130866
     7  C   22.659965  -2.501790  -3.538789   2.339677  -1.360644   0.046515
     8  N   -2.501790   8.203099   0.734658  -0.360932  -0.323022  -0.169218
     9  C   -3.538789   0.734658  10.908682  -3.313749   2.179249   0.039273
    10  C    2.339677  -0.360932  -3.313749  12.785355  -4.916188  -0.030467
    11  C   -1.360644  -0.323022   2.179249  -4.916188  26.725812   0.051149
    12  O    0.046515  -0.169218   0.039273  -0.030467   0.051149   7.901154
    13  O   -0.141379   0.012374  -0.012854   0.011760  -0.037631   0.000736
    14  H   -0.033645   0.002181  -0.002596   0.000635   0.029888   0.000058
    15  H    0.044498   0.000059   0.000310   0.001730   0.012682  -0.000009
    16  H    0.032445  -0.003481   0.001757  -0.003553  -0.021499   0.000044
    17  H    0.219054  -0.017092   0.002943  -0.008231  -0.064118   0.000308
    18  H   -0.378690   0.052580   0.004645  -0.021605   0.102577  -0.002686
    19  H    0.012644   0.002482   0.004558  -0.012641   0.007410  -0.000047
    20  H    0.080674  -0.015820   0.001461   0.088810   0.195045   0.000234
    21  H   -0.591467  -0.183082  -0.341634   0.278205  -0.157627   0.080363
    22  H    0.568803  -0.207919  -0.622411   0.179259   0.190867   0.007318
    23  H   -0.566890   0.061486   0.388330  -1.311333   0.534386  -0.000389
    24  H    0.084267  -0.057231  -0.323995   0.837960  -2.900591   0.000579
    25  C    0.102166  -0.032862  -0.062658   0.136025  -0.286496  -0.000720
    26  H    0.726944  -0.099144  -0.564989  -0.034146   0.033440  -0.019128
    27  H    0.031287  -0.014859   0.024701  -0.034305   0.005403   0.001862
    28  H    0.015116   0.001877   0.000018   0.000639   0.005217  -0.000406
    29  H    0.003399   0.013767   0.010055  -0.011655   0.014741   0.348416
    30  H    0.007523  -0.003710  -0.009858   0.007722  -0.006065   0.344784
    31  O   -0.138123  -0.028449  -0.065014   0.031903   0.000570  -0.028551
    32  H    0.031256  -0.001443   0.002529  -0.000851   0.001829   0.000039
    33  H    0.013119   0.005845  -0.002392   0.003081  -0.015404  -0.002418
    34  H    0.013568  -0.004712  -0.009017   0.025393  -0.054684   0.000017
    35  H   -0.050695   0.001799   0.016661  -0.048191   0.097557   0.000020
    36  H    0.041235   0.002114  -0.003522  -0.002180   0.067237  -0.000080
    37  O   -0.071716   0.023160  -0.013728   0.013201  -0.024687   0.000880
    38  H   -0.007035   0.010554  -0.007034   0.002770  -0.024372   0.001133
    39  H    0.027175  -0.004807  -0.000733   0.000851   0.000376   0.000473
              13         14         15         16         17         18
     1  N   -0.026718  -0.922645  -0.101640   0.226550   0.394575  -0.115248
     2  C    0.029851   0.680014   0.149735  -0.119892   0.492043   0.182673
     3  C    0.014815   0.119533   0.324362   0.139524  -1.360159  -0.285735
     4  C    0.028574   0.099180  -0.483414  -0.279546   0.204667   0.427242
     5  C   -0.006546  -0.323199   0.158102  -0.130564  -0.263066   0.114921
     6  C    0.105738  -0.199991  -0.101533   0.043445   0.252291  -0.365957
     7  C   -0.141379  -0.033645   0.044498   0.032445   0.219054  -0.378690
     8  N    0.012374   0.002181   0.000059  -0.003481  -0.017092   0.052580
     9  C   -0.012854  -0.002596   0.000310   0.001757   0.002943   0.004645
    10  C    0.011760   0.000635   0.001730  -0.003553  -0.008231  -0.021605
    11  C   -0.037631   0.029888   0.012682  -0.021499  -0.064118   0.102577
    12  O    0.000736   0.000058  -0.000009   0.000044   0.000308  -0.002686
    13  O    8.020163   0.004627  -0.004281   0.017343   0.000600   0.004006
    14  H    0.004627   2.761763   0.084709  -0.300884  -0.036960   0.052043
    15  H   -0.004281   0.084709   2.090230  -0.560641  -0.304075   0.145885
    16  H    0.017343  -0.300884  -0.560641   2.280251   0.251732  -0.470273
    17  H    0.000600  -0.036960  -0.304075   0.251732   2.821894  -0.921470
    18  H    0.004006   0.052043   0.145885  -0.470273  -0.921470   3.112801
    19  H    0.002020  -0.513062  -0.190115   0.204558   0.053659  -0.046575
    20  H    0.001919   0.072519   0.053453  -0.094253  -0.452346   0.319862
    21  H   -0.084189  -0.066938   0.023003   0.092772   0.176083  -0.502951
    22  H    0.000028  -0.000232   0.000009   0.000227   0.000896  -0.004023
    23  H    0.000252   0.000160   0.000070  -0.000095  -0.001425   0.002693
    24  H   -0.001915  -0.003291   0.000493   0.001708   0.006629  -0.022474
    25  C   -0.006434  -0.160790  -0.009594   0.040917   0.074181  -0.071602
    26  H    0.004995   0.002047  -0.000112  -0.002184  -0.000941   0.006550
    27  H    0.066234   0.163799   0.006549  -0.036116  -0.027330   0.068289
    28  H    0.410966  -0.008360  -0.000821   0.004892   0.001354  -0.004381
    29  H    0.000723   0.000599  -0.000303   0.000225  -0.000856   0.003359
    30  H   -0.000545  -0.000073   0.000003   0.000200   0.000076  -0.001013
    31  O   -0.015236  -0.000149  -0.000983  -0.013649  -0.004433   0.055361
    32  H   -0.006851   0.000451   0.000542   0.001125   0.000832  -0.009353
    33  H    0.038580   0.000059   0.000265  -0.003633  -0.006354   0.019450
    34  H    0.011967  -0.007032  -0.000424   0.006588  -0.000394  -0.004821
    35  H   -0.002348   0.008383   0.002177  -0.011971  -0.008829   0.023400
    36  H   -0.003404   0.012025  -0.003652   0.010475   0.020145  -0.020990
    37  O    0.002926   0.000275  -0.000620   0.001241   0.001493   0.026596
    38  H    0.000876   0.001792  -0.000557  -0.009072  -0.015066   0.050348
    39  H   -0.000468  -0.000215  -0.000080   0.002975   0.003305  -0.013186
              19         20         21         22         23         24
     1  N   -0.195717   0.011801  -0.368985   0.006271  -0.000186   0.023669
     2  C   -0.020836  -3.050639  -0.678906  -0.048845   0.137699  -0.078330
     3  C   -0.019929   0.612101  -0.422956   0.002271   0.006062  -0.052635
     4  C    0.029851   0.058423  -0.043698  -0.000676   0.001990  -0.016708
     5  C   -0.140081  -0.116812   0.029069  -0.000442  -0.001066   0.006633
     6  C    0.089953   0.878282  -1.387908  -0.415126   0.468432   1.606478
     7  C    0.012644   0.080674  -0.591467   0.568803  -0.566890   0.084267
     8  N    0.002482  -0.015820  -0.183082  -0.207919   0.061486  -0.057231
     9  C    0.004558   0.001461  -0.341634  -0.622411   0.388330  -0.323995
    10  C   -0.012641   0.088810   0.278205   0.179259  -1.311333   0.837960
    11  C    0.007410   0.195045  -0.157627   0.190867   0.534386  -2.900591
    12  O   -0.000047   0.000234   0.080363   0.007318  -0.000389   0.000579
    13  O    0.002020   0.001919  -0.084189   0.000028   0.000252  -0.001915
    14  H   -0.513062   0.072519  -0.066938  -0.000232   0.000160  -0.003291
    15  H   -0.190115   0.053453   0.023003   0.000009   0.000070   0.000493
    16  H    0.204558  -0.094253   0.092772   0.000227  -0.000095   0.001708
    17  H    0.053659  -0.452346   0.176083   0.000896  -0.001425   0.006629
    18  H   -0.046575   0.319862  -0.502951  -0.004023   0.002693  -0.022474
    19  H    2.225210  -0.097314   0.029799   0.000195  -0.000551   0.004043
    20  H   -0.097314   3.480249  -0.062186  -0.001096   0.006677  -0.158741
    21  H    0.029799  -0.062186   7.342458   0.053930  -0.026162  -0.000736
    22  H    0.000195  -0.001096   0.053930   2.346061  -0.114656  -0.011038
    23  H   -0.000551   0.006677  -0.026162  -0.114656   2.149649  -0.136014
    24  H    0.004043  -0.158741  -0.000736  -0.011038  -0.136014   3.043105
    25  C   -0.029886  -0.043171   0.091881   0.002038  -0.006149   0.065499
    26  H   -0.000828   0.004062  -0.188287  -0.232452   0.007148   0.004377
    27  H   -0.032938   0.029637  -0.362643  -0.001952   0.001370  -0.003139
    28  H    0.005119  -0.002298   0.055980   0.000059  -0.000075   0.000497
    29  H    0.000075   0.000929  -0.034736   0.001955  -0.000024  -0.000452
    30  H   -0.000001  -0.000115   0.008259   0.002675  -0.000099   0.000004
    31  O    0.000821   0.003037  -0.205567  -0.000056   0.000510  -0.000002
    32  H   -0.000164  -0.000516   0.025066  -0.000062  -0.000060   0.000127
    33  H   -0.000999   0.003243  -0.079543   0.000379   0.000089  -0.000145
    34  H    0.005770   0.022058   0.018208   0.000140  -0.000706   0.003234
    35  H   -0.008036   0.017580  -0.043992  -0.001711  -0.001776  -0.032280
    36  H    0.078605  -0.001025   0.059458   0.000107   0.000332   0.016742
    37  O   -0.000350   0.001108  -0.019046  -0.000197   0.000434  -0.000953
    38  H   -0.001256   0.003125  -0.210961  -0.000452   0.000656  -0.000702
    39  H    0.000030  -0.000882   0.059168   0.000150  -0.000009   0.000097
              25         26         27         28         29         30
     1  N    1.079250  -0.015683  -0.096752  -0.046750  -0.004540   0.000812
     2  C   -0.923754   0.049812   0.416795  -0.030289   0.010942  -0.001487
     3  C   -0.361633  -0.009126   0.195019  -0.004992   0.000963  -0.000529
     4  C    0.020758   0.005334  -0.060800   0.004038   0.003566  -0.000313
     5  C   -0.269423  -0.004015  -0.120000   0.025984  -0.000314  -0.000053
     6  C    0.638631  -0.454830  -0.197550   0.001540  -0.010369   0.006566
     7  C    0.102166   0.726944   0.031287   0.015116   0.003399   0.007523
     8  N   -0.032862  -0.099144  -0.014859   0.001877   0.013767  -0.003710
     9  C   -0.062658  -0.564989   0.024701   0.000018   0.010055  -0.009858
    10  C    0.136025  -0.034146  -0.034305   0.000639  -0.011655   0.007722
    11  C   -0.286496   0.033440   0.005403   0.005217   0.014741  -0.006065
    12  O   -0.000720  -0.019128   0.001862  -0.000406   0.348416   0.344784
    13  O   -0.006434   0.004995   0.066234   0.410966   0.000723  -0.000545
    14  H   -0.160790   0.002047   0.163799  -0.008360   0.000599  -0.000073
    15  H   -0.009594  -0.000112   0.006549  -0.000821  -0.000303   0.000003
    16  H    0.040917  -0.002184  -0.036116   0.004892   0.000225   0.000200
    17  H    0.074181  -0.000941  -0.027330   0.001354  -0.000856   0.000076
    18  H   -0.071602   0.006550   0.068289  -0.004381   0.003359  -0.001013
    19  H   -0.029886  -0.000828  -0.032938   0.005119   0.000075  -0.000001
    20  H   -0.043171   0.004062   0.029637  -0.002298   0.000929  -0.000115
    21  H    0.091881  -0.188287  -0.362643   0.055980  -0.034736   0.008259
    22  H    0.002038  -0.232452  -0.001952   0.000059   0.001955   0.002675
    23  H   -0.006149   0.007148   0.001370  -0.000075  -0.000024  -0.000099
    24  H    0.065499   0.004377  -0.003139   0.000497  -0.000452   0.000004
    25  C    4.694378  -0.008475  -0.163469   0.005004  -0.002317   0.000477
    26  H   -0.008475   1.629088   0.015681  -0.001009  -0.002633   0.000254
    27  H   -0.163469   0.015681   0.858443  -0.213949   0.004355  -0.000779
    28  H    0.005004  -0.001009  -0.213949   0.605432  -0.000483   0.000053
    29  H   -0.002317  -0.002633   0.004355  -0.000483   0.551861  -0.109046
    30  H    0.000477   0.000254  -0.000779   0.000053  -0.109046   0.568239
    31  O   -0.005524   0.016749   0.017034   0.003519  -0.002044  -0.016448
    32  H    0.000444   0.001352  -0.004992   0.001079  -0.001746   0.001330
    33  H    0.001149  -0.002177   0.025641  -0.014807   0.003499   0.001017
    34  H    0.237132  -0.001169   0.037709  -0.005814  -0.000232   0.000063
    35  H   -0.066964   0.005123   0.016188   0.004339   0.000679  -0.000099
    36  H    0.281967  -0.001240  -0.064972   0.006909  -0.000330   0.000033
    37  O    0.000549  -0.000854   0.000827  -0.000034   0.001981   0.000075
    38  H   -0.000781  -0.002304   0.018003  -0.003929   0.006066  -0.000108
    39  H    0.000381  -0.001882  -0.003319   0.000312   0.000714   0.000466
              31         32         33         34         35         36
     1  N   -0.005534   0.005059  -0.007422  -0.437367   0.335291  -0.691479
     2  C   -0.087540  -0.007491   0.035439   0.091120   0.149216  -0.032066
     3  C    0.070936  -0.002009   0.002736  -0.069132   0.127096  -0.080866
     4  C   -0.015628  -0.004583   0.007016   0.052260  -0.041463   0.041503
     5  C    0.016389   0.002228  -0.004643  -0.025006   0.009955   0.043487
     6  C    0.011207  -0.000705   0.003457   0.095808  -0.141551   0.104319
     7  C   -0.138123   0.031256   0.013119   0.013568  -0.050695   0.041235
     8  N   -0.028449  -0.001443   0.005845  -0.004712   0.001799   0.002114
     9  C   -0.065014   0.002529  -0.002392  -0.009017   0.016661  -0.003522
    10  C    0.031903  -0.000851   0.003081   0.025393  -0.048191  -0.002180
    11  C    0.000570   0.001829  -0.015404  -0.054684   0.097557   0.067237
    12  O   -0.028551   0.000039  -0.002418   0.000017   0.000020  -0.000080
    13  O   -0.015236  -0.006851   0.038580   0.011967  -0.002348  -0.003404
    14  H   -0.000149   0.000451   0.000059  -0.007032   0.008383   0.012025
    15  H   -0.000983   0.000542   0.000265  -0.000424   0.002177  -0.003652
    16  H   -0.013649   0.001125  -0.003633   0.006588  -0.011971   0.010475
    17  H   -0.004433   0.000832  -0.006354  -0.000394  -0.008829   0.020145
    18  H    0.055361  -0.009353   0.019450  -0.004821   0.023400  -0.020990
    19  H    0.000821  -0.000164  -0.000999   0.005770  -0.008036   0.078605
    20  H    0.003037  -0.000516   0.003243   0.022058   0.017580  -0.001025
    21  H   -0.205567   0.025066  -0.079543   0.018208  -0.043992   0.059458
    22  H   -0.000056  -0.000062   0.000379   0.000140  -0.001711   0.000107
    23  H    0.000510  -0.000060   0.000089  -0.000706  -0.001776   0.000332
    24  H   -0.000002   0.000127  -0.000145   0.003234  -0.032280   0.016742
    25  C   -0.005524   0.000444   0.001149   0.237132  -0.066964   0.281967
    26  H    0.016749   0.001352  -0.002177  -0.001169   0.005123  -0.001240
    27  H    0.017034  -0.004992   0.025641   0.037709   0.016188  -0.064972
    28  H    0.003519   0.001079  -0.014807  -0.005814   0.004339   0.006909
    29  H   -0.002044  -0.001746   0.003499  -0.000232   0.000679  -0.000330
    30  H   -0.016448   0.001330   0.001017   0.000063  -0.000099   0.000033
    31  O    8.731093   0.246168   0.230193   0.000110   0.001173  -0.000689
    32  H    0.246168   0.545819  -0.109142  -0.000280   0.000292   0.000144
    33  H    0.230193  -0.109142   0.482018   0.001800  -0.002036  -0.001115
    34  H    0.000110  -0.000280   0.001800   2.167851  -0.615744  -0.341793
    35  H    0.001173   0.000292  -0.002036  -0.615744   1.881485  -0.448291
    36  H   -0.000689   0.000144  -0.001115  -0.341793  -0.448291   2.102094
    37  O    0.001736  -0.003266  -0.004119   0.000022  -0.000183   0.000017
    38  H    0.011884  -0.006800   0.021388   0.000423  -0.000525  -0.001151
    39  H   -0.019303   0.006874  -0.004512   0.000000  -0.000024   0.000098
              37         38         39
     1  N   -0.000430   0.013100   0.000557
     2  C    0.016847   0.037216  -0.001228
     3  C   -0.042140   0.017172  -0.006826
     4  C    0.026501  -0.002545   0.002102
     5  C   -0.002369  -0.004442  -0.000519
     6  C    0.045805   0.036245  -0.009628
     7  C   -0.071716  -0.007035   0.027175
     8  N    0.023160   0.010554  -0.004807
     9  C   -0.013728  -0.007034  -0.000733
    10  C    0.013201   0.002770   0.000851
    11  C   -0.024687  -0.024372   0.000376
    12  O    0.000880   0.001133   0.000473
    13  O    0.002926   0.000876  -0.000468
    14  H    0.000275   0.001792  -0.000215
    15  H   -0.000620  -0.000557  -0.000080
    16  H    0.001241  -0.009072   0.002975
    17  H    0.001493  -0.015066   0.003305
    18  H    0.026596   0.050348  -0.013186
    19  H   -0.000350  -0.001256   0.000030
    20  H    0.001108   0.003125  -0.000882
    21  H   -0.019046  -0.210961   0.059168
    22  H   -0.000197  -0.000452   0.000150
    23  H    0.000434   0.000656  -0.000009
    24  H   -0.000953  -0.000702   0.000097
    25  C    0.000549  -0.000781   0.000381
    26  H   -0.000854  -0.002304  -0.001882
    27  H    0.000827   0.018003  -0.003319
    28  H   -0.000034  -0.003929   0.000312
    29  H    0.001981   0.006066   0.000714
    30  H    0.000075  -0.000108   0.000466
    31  O    0.001736   0.011884  -0.019303
    32  H   -0.003266  -0.006800   0.006874
    33  H   -0.004119   0.021388  -0.004512
    34  H    0.000022   0.000423   0.000000
    35  H   -0.000183  -0.000525  -0.000024
    36  H    0.000017  -0.001151   0.000098
    37  O    7.784548   0.233802   0.351189
    38  H    0.233802   0.751239  -0.163692
    39  H    0.351189  -0.163692   0.605557
 Mulliken charges:
               1
     1  N   -1.358083
     2  C    0.843432
     3  C    1.422039
     4  C    0.731836
     5  C    1.441128
     6  C    0.821794
     7  C    0.878065
     8  N    0.106490
     9  C    0.747109
    10  C    0.435081
    11  C    1.299589
    12  O   -0.441823
    13  O   -0.441275
    14  H   -0.516681
    15  H   -0.336011
    16  H   -0.299691
    17  H   -0.485615
    18  H   -0.512249
    19  H   -0.445475
    20  H   -0.849076
    21  H   -1.359503
    22  H   -0.700290
    23  H   -0.600762
    24  H   -0.904767
    25  C    1.039879
    26  H    0.134650
    27  H    0.435041
    28  H    0.178458
    29  H    0.199211
    30  H    0.199712
    31  O   -0.797472
    32  H    0.285731
    33  H    0.361401
    34  H   -0.212911
    35  H   -0.171702
    36  H   -0.190202
    37  O   -0.350519
    38  H    0.244995
    39  H    0.168463
 Sum of Mulliken charges =   1.00000
 Mulliken charges with hydrogens summed into heavy atoms:
               1
     1  N   -1.358083
     2  C   -0.005643
     3  C    0.424175
     4  C    0.096135
     5  C    0.478972
     6  C    0.821794
     7  C   -0.481437
     8  N    0.241140
     9  C    0.046818
    10  C   -0.165681
    11  C    0.394822
    12  O   -0.042900
    13  O    0.172224
    25  C    0.465065
    31  O   -0.150339
    37  O    0.062939
 Electronic spatial extent (au):  <R**2>=           4217.5993
 Charge=              1.0000 electrons
 Dipole moment (field-independent basis, Debye):
    X=              1.8111    Y=              1.3864    Z=             -2.6815  Tot=              3.5204
 Quadrupole moment (field-independent basis, Debye-Ang):
[...]
 28342,-0.00165653,-0.00016045,0.00261537,0.00018941,-0.00010655,-0.000
 11652,0.00025491,0.00046954,0.00012139,-0.00037733,0.00007719,-0.00002
 539,-0.00001352,-0.00027655,-0.00009999,0.00031674,0.00003229,0.000025
 76,-0.00035069,0.00019110,0.00007539,0.00005203,-0.00000211,-0.0000777
 7,-0.00044262,-0.00004711,-0.00045921,-0.00028365,0.00024160,-0.000134
 36,-0.00010203,-0.00009085,0.00035763,0.00001114,-0.00002580,-0.000066
 59,-0.00003428,0.00003647,0.00000177,0.00000711,-0.00000679,0.00000996
 ,0.00046872,0.00015720,0.00014797,-0.00021816,-0.00002486,0.00021545,-
 0.00006938,-0.00020250,0.00024636,0.00000204,-0.00000945,-0.00000221,-
 0.00000730,0.00001605,0.00000295,-0.00001373,-0.00002668,-0.00005119,0
 .05367354,-0.06107350,0.01745412,-0.00000312,0.00008211,0.00005670,0.0
 0068562,0.00043549,0.00038272,0.00017664,-0.00017043,0.00007677,-0.000
 00858,-0.00002327,0.00003791,-0.00003871,-0.00001766,0.00002069,0.0000
 1708,0.00001113,-0.00008767,-0.00000102,-0.00000560,0.00001197,-0.0000
 3010,-0.00003700,0.00008713,0.01870016,-0.00408942,0.00683758,-0.06284
 961,0.06360939,-0.03182692,0.01093455,-0.01278707,-0.00161691,0.000211
 97,0.00135068,-0.00013041,0.00031794,0.00017692,-0.00170619,0.00054604
 ,-0.00049486,0.00304391,0.00085675,-0.00505886,0.00031456,0.00020487,-
 0.00039411,0.00035167,0.00002661,-0.00036821,0.00019085,-0.00026321,-0
 .00008274,-0.00000858,0.00038876,0.00013236,-0.00030101,-0.00015465,-0
 .00008434,0.00038990,-0.00040145,-0.00012432,-0.00005084,-0.00014799,-
 0.00004672,0.00032004,0.00034593,0.00006264,-0.00011057,0.00031673,0.0
 0013324,0.00014114,0.00017557,-0.00049676,0.00000964,0.00002506,-0.000
 18041,0.00002883,-0.00004480,0.00005022,0.00004450,-0.00003109,-0.0000
 0773,0.00010344,-0.00019200,-0.00002172,0.00008681,-0.00021925,-0.0001
 8717,-0.00001817,0.00022856,-0.00006895,0.00000902,0.00000661,-0.00000
 260,-0.00001212,0.00000532,-0.00000221,-0.00001070,0.00002860,-0.00001
 637,-0.06571021,0.01592607,-0.06856011,0.00014381,0.00023005,0.0000882
 1,-0.00045427,-0.00064085,-0.00017542,0.00004554,0.00001827,0.00000427
 ,-0.00003268,0.00005387,-0.00002194,0.00000158,-0.00001089,0.00002640,
 0.00007661,-0.00005140,-0.00001978,-0.00000235,-0.00000036,-0.00000220
 ,-0.00009601,0.00001476,0.00004210,0.01934993,-0.00361548,0.00732525,0
 .07879857,-0.02476987,0.07978793,-0.00030725,-0.00214601,0.00417723,0.
 00022013,-0.00097817,-0.00083648,0.00018763,0.00023595,0.00006848,-0.0
 0001320,0.00006092,-0.00016896,0.00256762,0.00260318,-0.00022480,-0.00
 018109,0.00040449,0.00015469,-0.00018305,-0.00024735,-0.00011622,0.000
 33673,-0.00007574,0.00001728,0.00000690,0.00020397,0.00007661,-0.00022
 816,-0.00000575,-0.00003705,0.00009754,-0.00029785,-0.00014002,-0.0000
 5501,0.00000720,0.00002193,-0.00021411,-0.00062951,-0.00012007,-0.0000
 9022,-0.00011719,-0.00000358,-0.00000997,-0.00003199,0.00002530,-0.000
 06939,-0.00001354,-0.00004705,-0.00000823,0.00000343,0.00007339,-0.000
 07961,0.00012083,-0.00009223,0.00046274,-0.00091147,0.00056716,-0.0002
 4585,0.00040805,0.00084383,0.00017549,0.00008994,-0.00011791,0.0000078
 4,0.00001002,0.00000681,-0.00001209,-0.00000911,0.00001340,0.00000185,
 0.00002978,0.00008641,-0.12895457,-0.11548121,-0.00661170,0.00002027,-
 0.00002200,-0.00003470,0.00035134,0.00115019,0.00022470,-0.00010319,-0
 .00003461,0.00003460,0.00003643,-0.00000220,-0.00000632,0.00002737,0.0
 0000678,-0.00000330,-0.00009425,-0.00003279,0.00006886,0.00000731,0.00
 001722,-0.00000641,0.00013010,0.00006697,-0.00009815,0.00742938,0.0113
 2519,0.00020665,-0.01440857,-0.02439954,-0.00138318,0.13318361,-0.0084
 1153,-0.01701385,0.01104842,0.00183891,0.00140001,-0.00179692,0.000251
 20,0.00029722,-0.00022235,0.00030496,0.00044262,-0.00006917,-0.0023720
 0,0.00055538,-0.00118007,0.00004343,0.00000099,0.00011517,0.00004749,-
 0.00012267,-0.00003237,-0.00008113,0.00010028,0.00003044,-0.00003480,-
 0.00004735,-0.00000711,0.00000811,0.00003893,-0.00001294,-0.00012765,-
 0.00005047,0.00000252,-0.00006415,0.00003370,-0.00002995,-0.00058901,-
 0.00132055,-0.00047768,0.00007999,-0.00010186,-0.00009975,0.00001420,0
 .00001086,0.00014831,0.00008665,0.00006569,-0.00023371,0.00001763,-0.0
 0002763,0.00009952,-0.00002905,0.00005702,-0.00016701,0.00137706,-0.00
 004259,0.00062023,-0.00059321,0.00081572,0.00139580,0.00017035,-0.0000
 4709,0.00003342,-0.00000171,0.00000380,0.00000858,-0.00001099,-0.00000
 023,0.00000342,0.00000701,-0.00000878,0.00003327,-0.11454078,-0.216799
 27,-0.00980772,0.00001179,0.00000143,0.00000738,0.00094384,0.00231986,
 0.00084165,-0.00009627,0.00002630,0.00004261,0.00008281,-0.00003645,0.
 00002258,0.00001936,-0.00000576,0.00001075,-0.00021196,-0.00006040,0.0
 0010870,0.00001095,0.00002993,-0.00001407,0.00029716,0.00013361,-0.000
 17800,-0.01225383,-0.01523775,-0.00058166,0.00512262,0.00702860,-0.000
 29131,0.12868773,0.23755902,0.01850573,0.03299699,-0.01192385,0.000548
 87,0.00538577,0.00333154,-0.00032722,-0.00030368,0.00015105,-0.0001138
 1,-0.00038845,0.00019132,0.00438646,0.00052852,0.00148593,-0.00017215,
 -0.00044359,-0.00013253,-0.00010362,0.00005420,0.00001487,0.00006924,-
 0.00010806,-0.00002319,0.00002469,0.00005183,-0.00000453,-0.00005029,-
 0.00005049,-0.00000394,0.00016649,-0.00003186,-0.00000085,-0.00001085,
 -0.00003703,0.00004041,0.00066817,0.00117880,0.00086922,-0.00042280,-0
 .00013325,-0.00018219,-0.00002209,-0.00007402,-0.00006062,0.00000010,-
 0.00009984,0.00011615,-0.00009749,-0.00006786,-0.00007448,-0.00003622,
 -0.00011472,0.00013236,-0.00096268,-0.00121464,0.00034091,-0.00088099,
 -0.00160341,0.00024730,-0.00008981,0.00002419,-0.00009761,0.00000302,-
 0.00000180,-0.00000484,0.00000554,0.00000031,-0.00000586,0.00001242,-0
 .00001607,-0.00001953,-0.00756653,-0.01145784,-0.04929518,0.00001038,0
 .00002076,-0.00001178,-0.00094055,-0.00173089,-0.00156415,0.00008887,0
 .00037578,-0.00013681,-0.00002660,0.00002946,-0.00003184,0.00001768,0.
 00000835,-0.00001259,0.00006287,0.00000219,0.00000344,-0.00000160,-0.0
 0000126,-0.00000387,-0.00007015,-0.00001476,0.00001856,-0.01237481,-0.
 01570393,0.00024323,-0.00370169,-0.00768082,-0.00003653,0.00339626,0.0
 0063642,0.05643569,0.00027993,-0.00015721,0.00049984,-0.00061624,-0.00
 007049,-0.00021944,0.00071424,0.00070622,-0.00082225,0.00005348,-0.000
 37412,0.00018985,-0.00015508,0.00020810,-0.00033330,-0.00079576,-0.000
 33288,0.00008828,-0.00036900,0.00010793,0.00056129,0.00012315,0.001108
 41,-0.00000984,0.00022490,-0.00136942,-0.00048746,0.00069359,0.0001881
 8,0.00000290,-0.00040897,0.00043842,0.00017489,0.00045217,0.00000895,-
 0.00101439,0.00057463,0.00041832,0.00039764,0.00001557,0.00001145,0.00
 013479,-0.00015741,-0.00001164,0.00009569,0.00023877,-0.00005852,-0.00
 008316,-0.00045522,-0.00039298,0.00018996,-0.00095653,-0.00013184,0.00
 025655,0.00001738,-0.00008542,0.00008769,0.00013512,-0.00019054,0.0003
 3428,-0.00027420,-0.00011480,-0.00010612,0.00007564,-0.00016284,0.0001
 5676,0.00003753,-0.00001763,0.00002437,-0.00001651,0.00007017,0.000017
 31,-0.00011066,0.00013327,-0.00021760,-0.00053141,-0.00095884,0.000713
 67,-0.00013426,-0.00016125,-0.00045851,-0.00005651,-0.00009284,-0.0000
 4053,-0.00095250,0.00076640,0.00087479,0.00009454,0.00001196,0.0000426
 7,0.00401383,0.00110612,0.00061756,-0.00027653,-0.00001107,0.00008652,
 -0.00096611,-0.00114614,-0.00092013,-0.00001045,-0.00000507,0.00005191
 ,0.00006341,-0.00004447,0.00006465,-0.00000923,-0.00004494,0.00003181,
 0.04852185,0.00003775,0.00060157,0.00027738,0.00038171,-0.00014501,-0.
 00058220,-0.00045182,0.00050353,0.00007108,-0.00014571,-0.00048108,0.0
 0010979,-0.00010180,0.00007272,0.00000088,0.00031079,-0.00002141,0.000
 53546,0.00021995,-0.00205982,0.00124603,0.00012979,-0.00038340,0.00163
 979,-0.00032242,0.00047852,-0.00010121,-0.00016402,0.00028831,0.000071
 26,0.00006647,0.00031789,0.00016198,-0.00066549,0.00173055,-0.00039455
 ,0.00118049,0.00158708,-0.00044447,-0.00008546,0.00000321,0.00009220,-
 0.00008876,0.00008685,0.00004475,-0.00013727,0.00013635,0.00001727,0.0
 0013735,0.00010330,0.00004787,-0.00005168,-0.00106993,-0.00015824,0.00
 001926,0.00002145,-0.00001228,-0.00001609,0.00008405,0.00008684,-0.000
 01168,-0.00032935,0.00010550,-0.00010113,0.00004100,-0.00011965,-0.000
 02016,0.00005814,-0.00003557,0.00002013,0.00005139,-0.00005324,0.00000
 377,0.00001542,0.00006294,-0.00071334,-0.00154475,-0.00076566,-0.00030
 088,-0.00128648,-0.00030885,-0.00004957,0.00000393,0.00001558,0.001744
 54,-0.00155449,0.00116288,0.00010135,0.00005175,0.00010815,0.00095018,
 -0.00342622,-0.00885253,0.00020072,0.00120551,-0.00032265,-0.00251386,
 -0.00202831,0.00104560,-0.00006195,0.00000447,0.00004968,-0.00001990,-
 0.00003137,-0.00006817,0.00002573,0.00002848,-0.00001496,0.06915244,0.
 46506664,0.00048590,0.00028749,0.00026427,-0.00057051,-0.00019575,-0.0
 0004587,0.00032103,0.00028269,0.00047196,-0.00005855,-0.00013755,0.000
 22011,-0.00029975,0.00008690,-0.00022011,-0.00030690,0.00171107,-0.000
 58478,-0.00147470,0.00049994,-0.00230062,0.00108903,0.00170969,-0.0028
 1429,0.00059416,-0.00005104,-0.00006535,-0.00101286,0.00004249,0.00025
 005,0.00098464,-0.00094022,-0.00029485,-0.00104931,0.00032509,-0.00072
 755,0.00107360,0.00051320,-0.00035911,-0.00000861,-0.00002458,0.000055
 82,0.00005299,0.00002737,0.00001706,-0.00001290,-0.00005578,-0.0001355
 3,0.00040723,0.00033296,-0.00010198,0.00037938,-0.00013888,-0.00129633
 ,0.00006991,0.00002510,0.00005206,0.00012896,-0.00001485,0.00011365,-0
 .00014600,0.00047765,0.00011615,-0.00000103,0.00005090,-0.00005499,0.0
 0001624,0.00005576,-0.00007716,0.00002550,0.00009065,-0.00002959,-0.00
 006391,-0.00006549,0.00009681,0.00039065,-0.00056792,0.00060164,-0.000
 48423,-0.00063471,-0.00009856,-0.00003108,0.00011278,0.00001391,0.0013
 0442,-0.00008265,0.00109232,0.00019589,0.00002124,0.00007564,-0.000063
 29,-0.00881264,-0.00475215,0.00027838,0.00004205,-0.00235224,-0.001565
 72,-0.00038747,0.00117780,-0.00000510,-0.00002813,0.00001961,0.0000216
 3,-0.00003144,0.00005994,0.00002901,0.00005870,0.00000452,-0.12251865,
 0.09220723,0.64538954,0.00002514,0.00022456,-0.00012476,0.00012177,-0.
 00009744,-0.00009347,-0.00042405,0.00002861,0.00036468,-0.00010248,-0.
 00017862,0.00004563,-0.00003946,-0.00000129,0.00007539,0.00016412,0.00
 010628,0.00012473,0.00036108,-0.00049548,-0.00029139,-0.00012963,-0.00
 035694,-0.00007057,-0.00013634,0.00057826,0.00024914,-0.00036880,-0.00
 013442,-0.00008809,0.00014575,-0.00015152,-0.00000872,-0.00025434,0.00
 006257,0.00093857,-0.00019459,-0.00024382,-0.00056067,-0.00002480,-0.0
 0001129,-0.00000261,0.00001548,0.00007072,-0.00000696,-0.00014590,0.00
 010143,0.00000087,0.00018758,0.00015331,-0.00005850,0.00013209,-0.0006
 2276,-0.00041945,0.00001388,0.00004233,-0.00003475,-0.00001375,0.00006
 461,-0.00004076,0.00020152,-0.00009198,0.00027585,0.00000147,0.0000524
 9,0.00000988,-0.00001946,-0.00000629,-0.00001286,0.00000426,-0.0000057
 7,-0.00000919,0.00004029,-0.00003675,0.00012568,0.00034620,0.00092585,
 -0.00026497,-0.00020506,-0.00032257,0.00031595,0.00005767,0.00011794,-
 0.00001816,0.00061496,-0.00100219,-0.00170001,-0.00002813,-0.00008353,
 0.00002775,-0.00631752,-0.00224378,-0.00160117,0.00007930,0.00027190,-
 0.00021030,0.00076034,0.00257444,0.00325829,-0.00000589,-0.00000361,-0
 .00000010,-0.00002253,0.00001099,-0.00002408,0.00001243,0.00003533,-0.
 00002234,-0.01279853,-0.04030939,-0.01040835,0.01766715,-0.00006213,-0
 .00055563,-0.00031624,-0.00023347,0.00007890,0.00036320,-0.00001440,-0
 .00001006,0.00002958,-0.00002235,0.00018858,0.00000072,0.00007508,0.00
 000357,0.00005262,-0.00011309,0.00011362,0.00001139,-0.00050993,-0.000
 75636,0.00040408,0.00008976,-0.00038445,-0.00026004,0.00011284,-0.0000
 3089,0.00002902,-0.00011659,-0.00000823,-0.00005658,0.00006623,-0.0001
 5342,-0.00002256,0.00092761,-0.00208587,0.00009468,-0.00158916,-0.0020
 5042,0.00039604,0.00007292,-0.00000804,-0.00006611,0.00004414,-0.00004
 644,-0.00002173,0.00002139,-0.00004833,0.00003548,0.00005209,0.0000118
 9,-0.00005144,-0.00039955,-0.00019504,0.00005273,-0.00001023,-0.000014
 65,-0.00001088,0.00004108,-0.00005120,-0.00011451,-0.00014476,0.000617
 28,0.00048250,0.00003789,-0.00000563,0.00005938,0.00000959,-0.00002174
 ,0.00001002,-0.00000250,0.00000272,0.00002640,0.00000670,0.00000397,-0
 .00001729,0.00065890,0.00087774,0.00091422,0.00015012,0.00129189,0.000
 57985,0.00007953,0.00001005,-0.00002447,-0.00257591,0.00277611,-0.0010
 4304,-0.00010781,-0.00006928,-0.00013806,-0.00108157,-0.00302571,0.006
 36336,-0.00021304,-0.00245304,-0.00103889,0.00384599,0.00301791,-0.001
 61806,0.00005617,-0.00000006,-0.00004685,0.00000526,0.00003135,0.00004
 055,-0.00001708,-0.00002261,-0.00000117,-0.02835412,-0.39294815,-0.211
 25442,0.03030250,0.38729280,-0.00033536,-0.00060339,-0.00035234,-0.000
 03815,0.00017029,0.00037897,-0.00007152,-0.00010996,0.00003822,-0.0000
 0557,0.00014722,-0.00009204,0.00022901,-0.00004541,0.00016802,0.000163
 70,-0.00045966,-0.00022108,0.00007862,0.00096143,0.00089238,-0.0004853
 7,-0.00040640,-0.00047625,-0.00003713,-0.00014340,0.00011726,0.0002051
 0,-0.00018893,-0.00006773,-0.00020866,-0.00000400,-0.00011222,0.001522
 15,-0.00148427,0.00080278,-0.00180666,-0.00144237,0.00056348,0.0000536
 1,0.00000601,-0.00006980,0.00002235,-0.00004306,-0.00003484,-0.0000080
 1,-0.00000443,0.00009739,-0.00002100,-0.00003326,-0.00002870,-0.000420
 18,-0.00006681,0.00031931,-0.00005637,-0.00002009,-0.00004451,-0.00002
 604,-0.00004904,-0.00013667,0.00018721,0.00038086,-0.00034907,0.000041
 56,-0.00003504,0.00005944,-0.00001181,-0.00003456,0.00002022,0.0000001
 5,-0.00007241,0.00002492,0.00003514,0.00003614,-0.00007686,0.00035955,
 0.00156065,0.00045571,0.00049578,0.00133213,0.00045702,0.00002967,-0.0
 0009530,-0.00001514,-0.00316226,0.00110077,-0.00232655,-0.00014538,-0.
 00012403,-0.00010969,0.00065303,0.00407550,-0.00151305,-0.00060609,0.0
 0000258,0.00359238,0.00339144,0.00038731,-0.00331260,0.00005016,0.0000
 1250,-0.00004266,-0.00001111,0.00004307,0.00000448,-0.00003688,-0.0000
 5006,-0.00000188,-0.00009320,-0.15762123,-0.14566545,0.00311729,0.1931
 0978,0.16823480,-0.00009821,0.00003630,-0.00014070,0.00018757,0.000052
 15,-0.00002535,-0.00032194,-0.00019439,-0.00013828,-0.00001356,0.00000
 203,-0.00008968,0.00006530,-0.00003513,0.00009376,0.00019228,-0.000217
 54,0.00000132,-0.00008637,0.00010423,0.00002598,-0.00023825,0.00043710
 ,-0.00035433,0.00011473,-0.00033965,-0.00022201,0.00019198,0.00009059,
 0.00011130,-0.00018236,0.00014917,0.00009291,-0.00029420,-0.00002459,0
 .00010290,-0.00010875,0.00001906,-0.00005056,-0.00000425,-0.00000268,-
 0.00002790,-0.00000857,0.00000739,-0.00000665,-0.00003501,0.00005843,0
 .00007273,-0.00013135,-0.00013166,0.00003231,0.00005525,-0.00002151,0.
 00066034,-0.00001158,0.00002123,-0.00003266,-0.00003921,0.00004302,-0.
 00006193,0.00003451,-0.00005136,-0.00002084,-0.00002032,0.00004672,-0.
 00007506,0.00001503,0.00001537,0.00000470,-0.00000154,-0.00001982,-0.0
 0000156,0.00001284,-0.00003508,0.00003628,0.00018853,0.00005105,0.0000
 6447,0.00009398,0.00002824,0.00001434,0.00001380,0.00000230,0.00003029
 ,0.00033921,-0.00000551,0.00003644,0.00000363,-0.00000221,-0.00004745,
 -0.00027290,-0.00040535,-0.00040111,0.00027521,-0.00001805,0.00001476,
 0.00006893,-0.00004446,0.00001589,0.00000287,0.00000318,-0.00001070,-0
 .00001537,0.00001095,-0.00001980,0.00000430,0.00000441,-0.00000430,-0.
 03627862,-0.02835006,0.13223289,0.00027878,-0.00108808,-0.00304877,0.0
 3602363,-0.00002736,-0.00003859,-0.00004933,0.00006852,-0.00000268,0.0
 0001941,0.00002345,0.00000064,-0.00002305,-0.00000516,0.00007615,-0.00
 003752,0.00001276,-0.00002617,-0.00000052,-0.00003490,-0.00049888,0.00
 015774,0.00064459,0.00019195,-0.00024489,-0.00042783,-0.00011201,0.000
 64916,-0.00012039,-0.00003868,-0.00006857,0.00037047,0.00002621,-0.000
 14074,-0.00040427,0.00034628,0.00014076,-0.00000537,-0.00004811,0.0000
 1543,-0.00001261,-0.00007476,0.00000826,0.00000498,0.00000335,-0.00001
 602,-0.00000260,-0.00000100,0.00000039,0.00001051,-0.00002048,-0.00000
 976,-0.00012572,-0.00011167,0.00000965,0.00001713,0.00012688,0.0002172
 6,-0.00000401,-0.00000501,0.00000601,-0.00003107,-0.00000362,-0.000003
 10,0.00002325,-0.00011702,-0.00010783,0.00002807,-0.00003688,0.0000692
 4,0.00001133,-0.00004201,0.00005151,-0.00001597,-0.00002522,0.00003413
 ,0.00000829,0.00000150,-0.00000617,-0.00007629,0.00000347,-0.00005573,
 0.00002725,0.00005762,0.00000523,0.00000615,0.00001751,-0.00001464,0.0
 0005806,0.00002514,-0.00001156,0.00000417,0.00001752,-0.00001671,-0.00
 044293,-0.00222093,-0.00064088,0.00005445,-0.00020852,-0.00072709,0.00
 003556,0.00014521,0.00019128,0.00000034,0.00000232,-0.00000457,-0.0000
 0063,0.00000038,-0.00000070,-0.00000445,-0.00000415,0.00000083,-0.0401
 4728,-0.06523237,0.12446258,0.01067529,0.00862686,-0.04018915,0.029804
 22,0.05919976,-0.00008020,-0.00008113,-0.00001667,0.00006086,0.0000159
 4,-0.00001803,-0.00013958,-0.00005846,-0.00000747,0.00001112,-0.000000
 09,-0.00001468,0.00003691,0.00001037,0.00001402,-0.00009853,-0.0001943
 3,-0.00010664,0.00009209,0.00032888,-0.00039551,0.00014819,-0.00015956
 ,-0.00008080,-0.00001158,0.00005703,0.00007025,0.00000517,0.00005213,0
 .00001436,-0.00005755,0.00003391,0.00007297,0.00007772,-0.00016938,0.0
 0027780,-0.00019191,-0.00014499,0.00011829,0.00000187,0.00000395,0.000
 00299,-0.00003684,-0.00001042,0.00000956,0.00003939,0.00000100,0.00001
 536,-0.00007844,-0.00008648,0.00001914,0.00026177,0.00022043,-0.000005
 04,-0.00001191,-0.00001659,-0.00000086,-0.00000378,-0.00002399,0.00001
 270,-0.00002356,0.00008173,0.00008982,-0.00002331,0.00003685,-0.000024
 76,0.00000094,-0.00001103,0.00001555,-0.00001176,-0.00000159,0.0000031
 3,0.00000737,0.00002375,-0.00003549,0.00011585,0.00022076,-0.00004932,
 0.00006828,0.00015306,-0.00000141,0.00001343,-0.00002672,0.00000043,-0
 .00006375,0.00011098,-0.00027681,-0.00005367,-0.00001442,-0.00002734,-
 0.00025010,-0.00040830,0.00095858,0.00002883,-0.00021741,-0.00033660,0
 .00026385,0.00020699,-0.00018438,0.00000363,0.00000622,0.00000031,-0.0
 0000068,0.00000522,-0.00000347,-0.00000758,-0.00001603,0.00000214,0.12
 162890,0.07069534,-0.48811633,0.00714254,0.01304674,-0.02117766,-0.128
 86396,-0.08367035,0.50918185\\0.00000019,-0.00000155,-0.00000604,0.000
 00154,0.00000527,0.00002214,-0.00000279,0.00000108,-0.00000940,0.00000
 196,0.00000342,-0.00000162,0.00000559,0.00000001,0.00000022,-0.0000054
 3,-0.00002495,-0.00001593,0.00002140,0.00000933,0.00000424,-0.00000677
 ,0.00001947,0.00001438,0.00000349,-0.00001835,-0.00000824,0.00001161,0
 .00000847,0.00000322,-0.00001091,0.00000810,0.00000336,0.00000553,0.00
 000766,0.00001987,-0.00000654,0.00001873,0.00001013,0.00000068,-0.0000
 0194,0.00000227,-0.00000080,-0.00000124,0.00000161,-0.00000096,-0.0000
 0060,-0.00000098,0.00000087,0.00000130,-0.00000112,0.00000264,0.000002
 39,0.00000274,-0.00000090,-0.00000131,0.00000012,-0.00000135,0.0000011
 2,-0.00000255,-0.00000128,-0.00000283,-0.00000195,-0.00000028,0.000000
 97,0.00000020,0.00000010,0.00000083,-0.00000308,0.00000126,-0.00000037
 ,-0.00000075,0.00000402,0.00000224,0.00000185,-0.00002372,-0.00002353,
 -0.00002067,-0.00000290,-0.00000118,-0.00000001,-0.00000728,-0.0000081
 7,0.00000199,0.00000088,0.00001734,-0.00003250,-0.00000294,-0.00000250
 ,0.00000248,0.00000209,0.00000832,0.00002752,-0.00000815,-0.00000081,-
 0.00000336,0.00002211,-0.00002212,-0.00001179,0.00000116,-0.00000170,0
 .00000156,0.00000003,-0.00000245,-0.00000160,-0.00000191,-0.00000069,0
 .00000075,-0.00000206,-0.00000140,-0.00000044,0.00000036,0.00000135,0.
 00000492,-0.00000054,0.00000026,-0.00000352\\\@


 LEARN FROM YESTERDAY,
 LIVE FOR TODAY,
 LOOK TO TOMORROW,
 REST THIS AFTERNOON.

           -- SNOOPY
 Job cpu time:       1 days 10 hours 32 minutes 47.0 seconds.
 Elapsed time:       0 days  1 hours 14 minutes  6.5 seconds.
 File lengths (MBytes):  RWF=   1240 Int=      0 D2E=      0 Chk=     32 Scr=      8
 Normal termination of Gaussian 16 at Mon Jan 30 20:51:39 2023.
