 Entering Gaussian System, Link 0=g16
 Input=NicPy4h2bPyBwB97XDaVDZOptFreq.gjf
 Output=NicPy4h2bPyBwB97XDaVDZOptFreq.log
 Initial command:
 /sw/contrib/gaussian/g16/A03/g16/l1.exe "/gscratch/scrubbed/gds001/Gau-11765.inp" -scrdir="/gscratch/scrubbed/gds001/"
 Entering Link 1 = /sw/contrib/gaussian/g16/A03/g16/l1.exe PID=     11767.
  
 Copyright (c) 1988,1990,1992,1993,1995,1998,2003,2009,2016,
            Gaussian, Inc.  All Rights Reserved.
  
 This is part of the Gaussian(R) 16 program.  It is based on
 the Gaussian(R) 09 system (copyright 2009, Gaussian, Inc.),
 the Gaussian(R) 03 system (copyright 2003, Gaussian, Inc.),
 the Gaussian(R) 98 system (copyright 1998, Gaussian, Inc.),
 the Gaussian(R) 94 system (copyright 1995, Gaussian, Inc.),
 the Gaussian 92(TM) system (copyright 1992, Gaussian, Inc.),
 the Gaussian 90(TM) system (copyright 1990, Gaussian, Inc.),
 the Gaussian 88(TM) system (copyright 1988, Gaussian, Inc.),
 the Gaussian 86(TM) system (copyright 1986, Carnegie Mellon
 University), and the Gaussian 82(TM) system (copyright 1983,
 Carnegie Mellon University). Gaussian is a federally registered
 trademark of Gaussian, Inc.
  
 This software contains proprietary and confidential information,
 including trade secrets, belonging to Gaussian, Inc.
  
 This software is provided under written license and may be
 used, copied, transmitted, or stored only in accord with that
 written license.
  
 The following legend is applicable only to US Government
 contracts under FAR:
  
                    RESTRICTED RIGHTS LEGEND
  
 Use, reproduction and disclosure by the US Government is
 subject to restrictions as set forth in subparagraphs (a)
 and (c) of the Commercial Computer Software - Restricted
 Rights clause in FAR 52.227-19.
  
 Gaussian, Inc.
 340 Quinnipiac St., Bldg. 40, Wallingford CT 06492
  
  
 ---------------------------------------------------------------
 Warning -- This program may not be used in any manner that
 competes with the business of Gaussian, Inc. or will provide
 assistance to any competitor of Gaussian, Inc.  The licensee
 of this program is prohibited from giving any competitor of
 Gaussian, Inc. access to this program.  By using this program,
 the user acknowledges that Gaussian, Inc. is engaged in the
 business of creating and licensing software in the field of
 computational chemistry and represents and warrants to the
 licensee that it is not a competitor of Gaussian, Inc. and that
 it will not use this program in any manner prohibited above.
 ---------------------------------------------------------------
  

 Cite this work as:
 Gaussian 16, Revision A.03,
 M. J. Frisch, G. W. Trucks, H. B. Schlegel, G. E. Scuseria, 
 M. A. Robb, J. R. Cheeseman, G. Scalmani, V. Barone, 
 G. A. Petersson, H. Nakatsuji, X. Li, M. Caricato, A. V. Marenich, 
 J. Bloino, B. G. Janesko, R. Gomperts, B. Mennucci, H. P. Hratchian, 
 J. V. Ortiz, A. F. Izmaylov, J. L. Sonnenberg, D. Williams-Young, 
 F. Ding, F. Lipparini, F. Egidi, J. Goings, B. Peng, A. Petrone, 
 T. Henderson, D. Ranasinghe, V. G. Zakrzewski, J. Gao, N. Rega, 
 G. Zheng, W. Liang, M. Hada, M. Ehara, K. Toyota, R. Fukuda, 
 J. Hasegawa, M. Ishida, T. Nakajima, Y. Honda, O. Kitao, H. Nakai, 
 T. Vreven, K. Throssell, J. A. Montgomery, Jr., J. E. Peralta, 
 F. Ogliaro, M. J. Bearpark, J. J. Heyd, E. N. Brothers, K. N. Kudin, 
 V. N. Staroverov, T. A. Keith, R. Kobayashi, J. Normand, 
 K. Raghavachari, A. P. Rendell, J. C. Burant, S. S. Iyengar, 
 J. Tomasi, M. Cossi, J. M. Millam, M. Klene, C. Adamo, R. Cammi, 
 J. W. Ochterski, R. L. Martin, K. Morokuma, O. Farkas, 
 J. B. Foresman, and D. J. Fox, Gaussian, Inc., Wallingford CT, 2016.
 
 ******************************************
 Gaussian 16:  ES64L-G16RevA.03 25-Dec-2016
                 7-Nov-2022 
 ******************************************
 %nprocshared=28
 Will use up to   28 processors via shared memory.
 %mem=41GB
 -----------------------------
 # wB97XD/aug-cc-pVDZ opt freq
 -----------------------------
 1/18=20,19=15,26=3,38=1/1,3;
 2/9=110,12=2,17=6,18=5,40=1/2;
 3/5=16,7=10,11=2,25=1,30=1,71=1,74=-58/1,2,3;
 4//1;
 5/5=2,38=5/2;
 6/7=2,8=2,9=2,10=2,28=1/1;
 7//1,2,3,16;
 1/18=20,19=15,26=3/3(2);
 2/9=110/2;
 99//99;
 2/9=110/2;
 3/5=16,7=10,11=2,25=1,30=1,71=1,74=-58/1,2,3;
 4/5=5,16=3,69=1/1;
 5/5=2,38=5/2;
 7//1,2,3,16;
 1/18=20,19=15,26=3/3(-5);
 2/9=110/2;
 6/7=2,8=2,9=2,10=2,19=2,28=1/1;
 99/9=1/99;
 ----
 blah
 ----
 Symbolic Z-matrix:
 Charge =  1 Multiplicity = 1
 C                     1.07341   0.12487  -0.45766 
 C                     0.4254   -1.06748  -0.1718 
 C                     1.22171  -2.15461   0.18854 
 C                     2.61243  -2.02592   0.26348 
 C                     3.18995  -0.79679   0.00976 
 N                     2.40093   0.23346  -0.34062 
 C                    -1.0837   -1.09939  -0.21482 
 C                    -1.69787  -0.80855  -1.60762 
 C                    -2.86547   0.16452  -1.32927 
 C                    -3.02653   0.11602   0.18673 
 N                    -1.64893  -0.06154   0.66606 
 O                    -0.45074   2.55676   0.55714 
 H                    -3.46248   1.02676   0.61501 
 H                    -3.78337  -0.12169  -1.85174 
 H                    -2.60141   1.18041  -1.64603 
 H                    -2.03803  -1.74273  -2.06657 
 H                    -0.96083  -0.36828  -2.28918 
 H                    -3.65718  -0.73976   0.49212 
 H                    -1.41395  -2.09722   0.12949 
 H                     0.55222   1.02776  -0.76058 
 H                     4.25598  -0.59941   0.08533 
 H                     3.24182  -2.86747   0.54291 
 H                     0.75567  -3.11165   0.42495 
 C                    -1.56597  -0.40467   2.08173 
 H                     2.7553    1.20066  -0.45387 
 H                    -0.91281   1.69012   0.62672 
 H                    -1.04143   3.22001   0.92053 
 O                     2.21558   2.8835   -0.27024 
 H                     1.31162   2.98652   0.08051 
 H                     2.5414    3.75802  -0.49118 
 H                    -2.02644   0.39074   2.67909 
 H                    -0.51584  -0.49149   2.38844 
 H                    -2.08312  -1.3549    2.30644 
 O                     2.98901   5.46392  -0.87713 
 H                     2.99165   5.94707  -1.71954 
 H                     3.68538   5.95592  -0.38186 
 O                     5.00448   6.90129   0.27706 
 H                     4.9943    7.59466   0.95926 
 H                     5.8821    6.49736   0.39692 
 
 Add virtual bond connecting atoms O37        and H36        Dist= 3.31D+00.
 Add virtual bond connecting atoms O28        and H25        Dist= 3.36D+00.
 Add virtual bond connecting atoms O34        and H30        Dist= 3.41D+00.
 Add virtual bond connecting atoms N11        and H26        Dist= 3.59D+00.
 Add virtual bond connecting atoms H29        and O12        Dist= 3.54D+00.

 GradGradGradGradGradGradGradGradGradGradGradGradGradGradGradGradGradGrad
 Berny optimization.
 Initialization pass.
                           ----------------------------
                           !    Initial Parameters    !
                           ! (Angstroms and Degrees)  !
 --------------------------                            --------------------------
 ! Name  Definition              Value          Derivative Info.                !
 --------------------------------------------------------------------------------
 ! R1    R(1,2)                  1.3868         estimate D2E/DX2                !
 ! R2    R(1,6)                  1.3371         estimate D2E/DX2                !
 ! R3    R(1,20)                 1.0856         estimate D2E/DX2                !
 ! R4    R(2,3)                  1.3949         estimate D2E/DX2                !
 ! R5    R(2,7)                  1.5101         estimate D2E/DX2                !
 ! R6    R(3,4)                  1.3987         estimate D2E/DX2                !
 ! R7    R(3,23)                 1.0904         estimate D2E/DX2                !
 ! R8    R(4,5)                  1.3815         estimate D2E/DX2                !
 ! R9    R(4,22)                 1.0874         estimate D2E/DX2                !
 ! R10   R(5,6)                  1.3441         estimate D2E/DX2                !
 ! R11   R(5,21)                 1.0868         estimate D2E/DX2                !
 ! R12   R(6,25)                 1.0363         estimate D2E/DX2                !
 ! R13   R(7,8)                  1.5497         estimate D2E/DX2                !
 ! R14   R(7,11)                 1.474          estimate D2E/DX2                !
 ! R15   R(7,19)                 1.106          estimate D2E/DX2                !
 ! R16   R(8,9)                  1.5452         estimate D2E/DX2                !
 ! R17   R(8,16)                 1.095          estimate D2E/DX2                !
 ! R18   R(8,17)                 1.0962         estimate D2E/DX2                !
 ! R19   R(9,10)                 1.5253         estimate D2E/DX2                !
 ! R20   R(9,14)                 1.0943         estimate D2E/DX2                !
 ! R21   R(9,15)                 1.0964         estimate D2E/DX2                !
 ! R22   R(10,11)                1.4694         estimate D2E/DX2                !
 ! R23   R(10,13)                1.0968         estimate D2E/DX2                !
 ! R24   R(10,18)                1.106          estimate D2E/DX2                !
 ! R25   R(11,24)                1.459          estimate D2E/DX2                !
 ! R26   R(11,26)                1.9005         estimate D2E/DX2                !
 ! R27   R(12,26)                0.9846         estimate D2E/DX2                !
 ! R28   R(12,27)                0.9596         estimate D2E/DX2                !
 ! R29   R(12,29)                1.8756         estimate D2E/DX2                !
 ! R30   R(24,31)                1.0962         estimate D2E/DX2                !
 ! R31   R(24,32)                1.0974         estimate D2E/DX2                !
 ! R32   R(24,33)                1.1049         estimate D2E/DX2                !
 ! R33   R(25,28)                1.7768         estimate D2E/DX2                !
 ! R34   R(28,29)                0.9751         estimate D2E/DX2                !
 ! R35   R(28,30)                0.959          estimate D2E/DX2                !
 ! R36   R(30,34)                1.8054         estimate D2E/DX2                !
 ! R37   R(34,35)                0.9711         estimate D2E/DX2                !
 ! R38   R(34,36)                0.9861         estimate D2E/DX2                !
 ! R39   R(36,37)                1.7515         estimate D2E/DX2                !
 ! R40   R(37,38)                0.9728         estimate D2E/DX2                !
 ! R41   R(37,39)                0.9735         estimate D2E/DX2                !
 ! A1    A(2,1,6)              121.0439         estimate D2E/DX2                !
 ! A2    A(2,1,20)             123.2454         estimate D2E/DX2                !
 ! A3    A(6,1,20)             115.6915         estimate D2E/DX2                !
 ! A4    A(1,2,3)              117.1656         estimate D2E/DX2                !
 ! A5    A(1,2,7)              118.6371         estimate D2E/DX2                !
 ! A6    A(3,2,7)              124.1518         estimate D2E/DX2                !
 ! A7    A(2,3,4)              120.6469         estimate D2E/DX2                !
 ! A8    A(2,3,23)             119.739          estimate D2E/DX2                !
 ! A9    A(4,3,23)             119.6107         estimate D2E/DX2                !
 ! A10   A(3,4,5)              119.1872         estimate D2E/DX2                !
 ! A11   A(3,4,22)             121.2033         estimate D2E/DX2                !
 ! A12   A(5,4,22)             119.5892         estimate D2E/DX2                !
 ! A13   A(4,5,6)              118.9736         estimate D2E/DX2                !
 ! A14   A(4,5,21)             123.9763         estimate D2E/DX2                !
 ! A15   A(6,5,21)             117.0468         estimate D2E/DX2                !
 ! A16   A(1,6,5)              122.9135         estimate D2E/DX2                !
 ! A17   A(1,6,25)             113.9382         estimate D2E/DX2                !
 ! A18   A(5,6,25)             122.897          estimate D2E/DX2                !
 ! A19   A(2,7,8)              114.6887         estimate D2E/DX2                !
 ! A20   A(2,7,11)             110.5686         estimate D2E/DX2                !
 ! A21   A(2,7,19)             107.975          estimate D2E/DX2                !
 ! A22   A(8,7,11)             104.6547         estimate D2E/DX2                !
 ! A23   A(8,7,19)             109.3148         estimate D2E/DX2                !
 ! A24   A(11,7,19)            109.5546         estimate D2E/DX2                !
 ! A25   A(7,8,9)              104.818          estimate D2E/DX2                !
 ! A26   A(7,8,16)             109.8579         estimate D2E/DX2                !
 ! A27   A(7,8,17)             111.5747         estimate D2E/DX2                !
 ! A28   A(9,8,16)             112.2104         estimate D2E/DX2                !
 ! A29   A(9,8,17)             111.5397         estimate D2E/DX2                !
 ! A30   A(16,8,17)            106.9134         estimate D2E/DX2                !
 ! A31   A(8,9,10)             103.8157         estimate D2E/DX2                !
 ! A32   A(8,9,14)             112.5272         estimate D2E/DX2                !
 ! A33   A(8,9,15)             110.4541         estimate D2E/DX2                !
 ! A34   A(10,9,14)            112.1888         estimate D2E/DX2                !
 ! A35   A(10,9,15)            110.0012         estimate D2E/DX2                !
 ! A36   A(14,9,15)            107.8446         estimate D2E/DX2                !
 ! A37   A(9,10,11)            103.2425         estimate D2E/DX2                !
 ! A38   A(9,10,13)            113.8076         estimate D2E/DX2                !
 ! A39   A(9,10,18)            111.0533         estimate D2E/DX2                !
 ! A40   A(11,10,13)           110.2192         estimate D2E/DX2                !
 ! A41   A(11,10,18)           110.5489         estimate D2E/DX2                !
 ! A42   A(13,10,18)           107.9407         estimate D2E/DX2                !
 ! A43   A(7,11,10)            104.457          estimate D2E/DX2                !
 ! A44   A(7,11,24)            113.1085         estimate D2E/DX2                !
 ! A45   A(7,11,26)            119.2149         estimate D2E/DX2                !
 ! A46   A(10,11,24)           113.4686         estimate D2E/DX2                !
 ! A47   A(10,11,26)           104.1824         estimate D2E/DX2                !
 ! A48   A(24,11,26)           102.4056         estimate D2E/DX2                !
 ! A49   A(26,12,27)           107.021          estimate D2E/DX2                !
 ! A50   A(26,12,29)           131.347          estimate D2E/DX2                !
 ! A51   A(27,12,29)           121.0815         estimate D2E/DX2                !
 ! A52   A(11,24,31)           109.5259         estimate D2E/DX2                !
 ! A53   A(11,24,32)           110.132          estimate D2E/DX2                !
 ! A54   A(11,24,33)           111.8989         estimate D2E/DX2                !
 ! A55   A(31,24,32)           107.8823         estimate D2E/DX2                !
 ! A56   A(31,24,33)           108.4573         estimate D2E/DX2                !
 ! A57   A(32,24,33)           108.8439         estimate D2E/DX2                !
 ! A58   A(6,25,28)            140.2477         estimate D2E/DX2                !
 ! A59   A(25,28,29)           114.762          estimate D2E/DX2                !
 ! A60   A(25,28,30)           137.4467         estimate D2E/DX2                !
 ! A61   A(29,28,30)           107.5466         estimate D2E/DX2                !
 ! A62   A(12,29,28)           159.7689         estimate D2E/DX2                !
 ! A63   A(30,34,35)           131.0123         estimate D2E/DX2                !
 ! A64   A(30,34,36)           122.628          estimate D2E/DX2                !
 ! A65   A(35,34,36)           100.6924         estimate D2E/DX2                !
 ! A66   A(36,37,38)           129.841          estimate D2E/DX2                !
 ! A67   A(36,37,39)           120.0854         estimate D2E/DX2                !
 ! A68   A(38,37,39)           102.6405         estimate D2E/DX2                !
 ! A69   L(11,26,12,1,-1)      174.0226         estimate D2E/DX2                !
 ! A70   L(28,30,34,27,-1)     174.3765         estimate D2E/DX2                !
 ! A71   L(34,36,37,21,-1)     182.8693         estimate D2E/DX2                !
 ! A72   L(11,26,12,1,-2)      179.536          estimate D2E/DX2                !
 ! A73   L(28,30,34,27,-2)     180.8496         estimate D2E/DX2                !
 ! A74   L(34,36,37,21,-2)     171.6886         estimate D2E/DX2                !
 ! D1    D(6,1,2,3)             -2.4946         estimate D2E/DX2                !
 ! D2    D(6,1,2,7)            175.1548         estimate D2E/DX2                !
 ! D3    D(20,1,2,3)           179.1675         estimate D2E/DX2                !
 ! D4    D(20,1,2,7)            -3.1831         estimate D2E/DX2                !
 ! D5    D(2,1,6,5)              2.3578         estimate D2E/DX2                !
 ! D6    D(2,1,6,25)          -172.0299         estimate D2E/DX2                !
 ! D7    D(20,1,6,5)          -179.1848         estimate D2E/DX2                !
 ! D8    D(20,1,6,25)            6.4275         estimate D2E/DX2                !
 ! D9    D(1,2,3,4)              0.4963         estimate D2E/DX2                !
 ! D10   D(1,2,3,23)           179.8209         estimate D2E/DX2                !
 ! D11   D(7,2,3,4)           -177.0106         estimate D2E/DX2                !
 ! D12   D(7,2,3,23)             2.314          estimate D2E/DX2                !
 ! D13   D(1,2,7,8)             63.0343         estimate D2E/DX2                !
 ! D14   D(1,2,7,11)           -54.9942         estimate D2E/DX2                !
 ! D15   D(1,2,7,19)          -174.8344         estimate D2E/DX2                !
 ! D16   D(3,2,7,8)           -119.4929         estimate D2E/DX2                !
 ! D17   D(3,2,7,11)           122.4786         estimate D2E/DX2                !
 ! D18   D(3,2,7,19)             2.6383         estimate D2E/DX2                !
 ! D19   D(2,3,4,5)              1.6752         estimate D2E/DX2                !
 ! D20   D(2,3,4,22)          -179.968          estimate D2E/DX2                !
 ! D21   D(23,3,4,5)          -177.6502         estimate D2E/DX2                !
 ! D22   D(23,3,4,22)            0.7066         estimate D2E/DX2                !
 ! D23   D(3,4,5,6)             -1.9161         estimate D2E/DX2                !
 ! D24   D(3,4,5,21)           177.4079         estimate D2E/DX2                !
 ! D25   D(22,4,5,6)           179.7001         estimate D2E/DX2                !
 ! D26   D(22,4,5,21)           -0.9758         estimate D2E/DX2                !
 ! D27   D(4,5,6,1)             -0.0678         estimate D2E/DX2                !
 ! D28   D(4,5,6,25)           173.8213         estimate D2E/DX2                !
 ! D29   D(21,5,6,1)          -179.4384         estimate D2E/DX2                !
 ! D30   D(21,5,6,25)           -5.5493         estimate D2E/DX2                !
 ! D31   D(1,6,25,28)           25.4899         estimate D2E/DX2                !
 ! D32   D(5,6,25,28)         -148.8989         estimate D2E/DX2                !
 ! D33   D(2,7,8,9)           -135.8169         estimate D2E/DX2                !
 ! D34   D(2,7,8,16)           103.4341         estimate D2E/DX2                !
 ! D35   D(2,7,8,17)           -14.9534         estimate D2E/DX2                !
 ! D36   D(11,7,8,9)           -14.492          estimate D2E/DX2                !
 ! D37   D(11,7,8,16)         -135.241          estimate D2E/DX2                !
 ! D38   D(11,7,8,17)          106.3714         estimate D2E/DX2                !
 ! D39   D(19,7,8,9)           102.7819         estimate D2E/DX2                !
 ! D40   D(19,7,8,16)          -17.9671         estimate D2E/DX2                !
 ! D41   D(19,7,8,17)         -136.3547         estimate D2E/DX2                !
 ! D42   D(2,7,11,10)          160.7618         estimate D2E/DX2                !
 ! D43   D(2,7,11,24)          -75.3785         estimate D2E/DX2                !
 ! D44   D(2,7,11,26)           45.0353         estimate D2E/DX2                !
 ! D45   D(8,7,11,10)           36.7575         estimate D2E/DX2                !
 ! D46   D(8,7,11,24)          160.6171         estimate D2E/DX2                !
 ! D47   D(8,7,11,26)          -78.9691         estimate D2E/DX2                !
 ! D48   D(19,7,11,10)         -80.3517         estimate D2E/DX2                !
 ! D49   D(19,7,11,24)          43.5079         estimate D2E/DX2                !
 ! D50   D(19,7,11,26)         163.9217         estimate D2E/DX2                !
 ! D51   D(7,8,9,10)           -11.9445         estimate D2E/DX2                !
 ! D52   D(7,8,9,14)          -133.4806         estimate D2E/DX2                !
 ! D53   D(7,8,9,15)           105.9374         estimate D2E/DX2                !
 ! D54   D(16,8,9,10)          107.2352         estimate D2E/DX2                !
 ! D55   D(16,8,9,14)          -14.3009         estimate D2E/DX2                !
 ! D56   D(16,8,9,15)         -134.8829         estimate D2E/DX2                !
 ! D57   D(17,8,9,10)         -132.8311         estimate D2E/DX2                !
 ! D58   D(17,8,9,14)          105.6328         estimate D2E/DX2                !
 ! D59   D(17,8,9,15)          -14.9492         estimate D2E/DX2                !
 ! D60   D(8,9,10,11)           34.3422         estimate D2E/DX2                !
 ! D61   D(8,9,10,13)          153.8082         estimate D2E/DX2                !
 ! D62   D(8,9,10,18)          -84.1457         estimate D2E/DX2                !
 ! D63   D(14,9,10,11)         156.1041         estimate D2E/DX2                !
 ! D64   D(14,9,10,13)         -84.4299         estimate D2E/DX2                !
 ! D65   D(14,9,10,18)          37.6161         estimate D2E/DX2                !
 ! D66   D(15,9,10,11)         -83.8531         estimate D2E/DX2                !
 ! D67   D(15,9,10,13)          35.6129         estimate D2E/DX2                !
 ! D68   D(15,9,10,18)         157.659          estimate D2E/DX2                !
 ! D69   D(9,10,11,7)          -44.762          estimate D2E/DX2                !
 ! D70   D(9,10,11,24)        -168.3896         estimate D2E/DX2                !
 ! D71   D(9,10,11,26)          81.0444         estimate D2E/DX2                !
 ! D72   D(13,10,11,7)        -166.673          estimate D2E/DX2                !
 ! D73   D(13,10,11,24)         69.6994         estimate D2E/DX2                !
 ! D74   D(13,10,11,26)        -40.8666         estimate D2E/DX2                !
 ! D75   D(18,10,11,7)          74.0765         estimate D2E/DX2                !
 ! D76   D(18,10,11,24)        -49.5511         estimate D2E/DX2                !
 ! D77   D(18,10,11,26)       -160.1172         estimate D2E/DX2                !
 ! D78   D(7,11,12,27)         161.0539         estimate D2E/DX2                !
 ! D79   D(7,11,12,29)         -26.8545         estimate D2E/DX2                !
 ! D80   D(10,11,12,27)         45.3004         estimate D2E/DX2                !
 ! D81   D(10,11,12,29)       -142.608          estimate D2E/DX2                !
 ! D82   D(24,11,12,27)        -73.9791         estimate D2E/DX2                !
 ! D83   D(24,11,12,29)         98.1125         estimate D2E/DX2                !
 ! D84   D(7,11,24,31)        -178.4098         estimate D2E/DX2                !
 ! D85   D(7,11,24,32)          63.1006         estimate D2E/DX2                !
 ! D86   D(7,11,24,33)         -58.1055         estimate D2E/DX2                !
 ! D87   D(10,11,24,31)        -59.6478         estimate D2E/DX2                !
 ! D88   D(10,11,24,32)       -178.1374         estimate D2E/DX2                !
 ! D89   D(10,11,24,33)         60.6565         estimate D2E/DX2                !
 ! D90   D(26,11,24,31)         52.0057         estimate D2E/DX2                !
 ! D91   D(26,11,24,32)        -66.4839         estimate D2E/DX2                !
 ! D92   D(26,11,24,33)        172.31           estimate D2E/DX2                !
 ! D93   D(26,12,29,28)         13.5641         estimate D2E/DX2                !
 ! D94   D(27,12,29,28)       -176.1266         estimate D2E/DX2                !
 ! D95   D(6,25,28,29)           3.2465         estimate D2E/DX2                !
 ! D96   D(6,25,28,30)        -170.1545         estimate D2E/DX2                !
 ! D97   D(25,28,29,12)        -18.1804         estimate D2E/DX2                !
 ! D98   D(30,28,29,12)        157.1443         estimate D2E/DX2                !
 ! D99   D(25,28,34,35)         74.1796         estimate D2E/DX2                !
 ! D100  D(25,28,34,36)        -76.7143         estimate D2E/DX2                !
 ! D101  D(29,28,34,35)        -98.2017         estimate D2E/DX2                !
 ! D102  D(29,28,34,36)        110.9045         estimate D2E/DX2                !
 ! D103  D(30,34,37,38)       -102.3789         estimate D2E/DX2                !
 ! D104  D(30,34,37,39)         45.6583         estimate D2E/DX2                !
 ! D105  D(35,34,37,38)        104.4428         estimate D2E/DX2                !
 ! D106  D(35,34,37,39)       -107.52           estimate D2E/DX2                !
 --------------------------------------------------------------------------------
 Trust Radius=3.00D-01 FncErr=1.00D-07 GrdErr=1.00D-06 EigMax=2.50D+02 EigMin=1.00D-04
 Number of steps in this run=    231 maximum allowed number of steps=    234.
 GradGradGradGradGradGradGradGradGradGradGradGradGradGradGradGradGradGrad

                          Input orientation:                          
 ---------------------------------------------------------------------
 Center     Atomic      Atomic             Coordinates (Angstroms)
 Number     Number       Type             X           Y           Z
 ---------------------------------------------------------------------
      1          6           0        1.073410    0.124871   -0.457656
      2          6           0        0.425402   -1.067476   -0.171801
      3          6           0        1.221706   -2.154610    0.188541
      4          6           0        2.612431   -2.025917    0.263477
      5          6           0        3.189945   -0.796785    0.009755
      6          7           0        2.400930    0.233461   -0.340618
      7          6           0       -1.083702   -1.099389   -0.214816
      8          6           0       -1.697866   -0.808545   -1.607619
      9          6           0       -2.865472    0.164521   -1.329273
     10          6           0       -3.026530    0.116016    0.186728
     11          7           0       -1.648926   -0.061544    0.666062
     12          8           0       -0.450738    2.556762    0.557138
     13          1           0       -3.462478    1.026765    0.615005
     14          1           0       -3.783365   -0.121693   -1.851743
     15          1           0       -2.601408    1.180406   -1.646028
     16          1           0       -2.038028   -1.742727   -2.066570
     17          1           0       -0.960830   -0.368278   -2.289175
     18          1           0       -3.657182   -0.739756    0.492117
     19          1           0       -1.413949   -2.097219    0.129485
     20          1           0        0.552216    1.027761   -0.760581
     21          1           0        4.255975   -0.599408    0.085328
     22          1           0        3.241824   -2.867472    0.542906
     23          1           0        0.755668   -3.111654    0.424952
     24          6           0       -1.565971   -0.404673    2.081725
     25          1           0        2.755301    1.200663   -0.453868
     26          1           0       -0.912812    1.690115    0.626716
     27          1           0       -1.041425    3.220006    0.920534
     28          8           0        2.215577    2.883500   -0.270244
     29          1           0        1.311620    2.986520    0.080505
     30          1           0        2.541396    3.758017   -0.491178
     31          1           0       -2.026443    0.390741    2.679093
     32          1           0       -0.515835   -0.491486    2.388438
     33          1           0       -2.083119   -1.354902    2.306437
     34          8           0        2.989006    5.463917   -0.877132
     35          1           0        2.991654    5.947070   -1.719538
     36          1           0        3.685382    5.955918   -0.381856
     37          8           0        5.004479    6.901289    0.277057
     38          1           0        4.994301    7.594660    0.959259
     39          1           0        5.882097    6.497362    0.396917
 ---------------------------------------------------------------------
                    Distance matrix (angstroms):
                    1          2          3          4          5
     1  C    0.000000
     2  C    1.386838   0.000000
     3  C    2.373941   1.394922   0.000000
     4  C    2.741260   2.427174   1.398676   0.000000
     5  C    2.355344   2.783691   2.397836   1.381544   0.000000
     6  N    1.337086   2.371423   2.715412   2.348287   1.344140
     7  C    2.492171   1.510054   2.567313   3.840393   4.290228
     8  C    3.142237   2.576215   3.682660   4.854035   5.148469
     9  C    4.034362   3.699650   4.938335   6.110834   6.275761
    10  C    4.150279   3.666747   4.816976   6.032549   6.285625
    11  N    2.951035   2.452906   3.584617   4.709565   4.938217
    12  O    3.044163   3.799220   5.012979   5.519981   4.980008
    13  H    4.747451   4.485590   5.678433   6.807860   6.924333
    14  H    5.058907   4.629301   5.774621   7.000459   7.248998
    15  H    4.003832   4.048197   5.394829   6.411773   6.339611
    16  H    3.969581   3.180346   3.985102   5.209231   5.704177
    17  H    2.781329   2.625603   3.754134   4.693825   4.764203
    18  H    4.901852   4.149178   5.088960   6.404259   6.864333
    19  H    3.386646   2.129403   2.636941   4.029240   4.785531
    20  H    1.085641   2.180083   3.387703   3.823366   3.298484
    21  H    3.308796   3.867621   3.411172   2.183553   1.086779
    22  H    3.828480   3.418044   2.171318   1.087396   2.138852
    23  H    3.369726   2.154960   1.090420   2.156958   3.384776
    24  C    3.700703   3.079489   3.797047   4.836683   5.202456
    25  H    1.996522   3.263808   3.744658   3.308446   2.096106
    26  H    2.751532   3.167452   4.419284   5.134995   4.837140
    27  H    3.993970   4.661253   5.877421   6.426671   5.904966
    28  O    2.991605   4.338736   5.155659   4.954263   3.817367
    29  H    2.921540   4.157394   5.143051   5.181709   4.224513
    30  H    3.918655   5.278713   6.096126   5.833390   4.627934
    31  H    4.418028   4.033056   4.819972   5.761475   5.978820
    32  H    3.317506   2.787923   3.259536   4.081175   4.414085
    33  H    4.449001   3.537931   4.005856   5.164507   5.778533
    34  O    5.687783   7.051854   7.893096   7.585540   6.326400
    35  H    6.258595   7.627909   8.509448   8.224639   6.964866
    36  H    6.389777   7.745944   8.495629   8.079441   6.782168
    37  O    7.868478   9.201665   9.814607   9.242136   7.913553
    38  H    8.554460   9.858334  10.482116   9.935438   8.635602
    39  H    8.028849   9.344824   9.829511   9.129886   7.784739
                    6          7          8          9         10
     6  N    0.000000
     7  C    3.732958   0.000000
     8  C    4.414884   1.549738   0.000000
     9  C    5.358841   2.452384   1.545198   0.000000
    10  C    5.454284   2.326591   2.416577   1.525304   0.000000
    11  N    4.183511   1.473956   2.393748   2.347861   1.469381
    12  O    3.786252   3.789986   4.191276   3.887455   3.567793
    13  H    5.993505   3.296621   3.379686   2.209094   1.096784
    14  H    6.376138   3.305087   2.209223   1.094267   2.187389
    15  H    5.255872   3.090188   2.184900   1.096397   2.161631
    16  H    5.156411   2.180279   1.095008   2.205871   3.083734
    17  H    3.931971   2.202859   1.096164   2.198397   3.260637
    18  H    6.192037   2.692933   2.872724   2.182197   1.106043
    19  H    4.495149   1.106016   2.181472   3.057836   2.738997
    20  H    2.055487   2.738404   3.025287   3.570600   3.812623
    21  H    2.077569   5.371426   6.193386   7.300664   7.318264
    22  H    3.332192   4.733966   5.767536   7.070863   6.951282
    23  H    3.805625   2.800321   3.931346   5.188765   4.977914
    24  C    4.691616   2.447308   3.713727   3.694265   2.448543
    25  H    1.036284   4.481666   5.019836   5.782129   5.917465
    26  H    3.746794   2.918683   3.442654   3.156931   2.671925
    27  H    4.728611   4.466316   4.801218   4.210079   3.756843
    28  O    2.657445   5.172206   5.543898   5.859304   5.945374
    29  H    2.990531   4.745465   5.129258   5.234429   5.202944
    30  H    3.530566   6.067298   6.330187   6.545979   6.687715
    31  H    5.361439   3.388799   4.463424   4.101481   2.699543
    32  H    4.059657   2.732938   4.179258   4.446630   3.394138
    33  H    5.443941   2.724121   3.970738   4.017351   2.747142
    34  O    5.290685   7.752587   7.864106   7.909674   8.119022
    35  H    5.907259   8.278001   8.224504   8.239910   8.593811
    36  H    5.864983   8.517595   8.731541   8.794974   8.915016
    37  O    7.184700  10.065721  10.388213  10.483342  10.514047
    38  H    7.912175  10.672725  11.044810  11.055333  10.993664
    39  H    7.204092  10.325077  10.716823  10.936388  10.960356
                   11         12         13         14         15
    11  N    0.000000
    12  O    2.881501   0.000000
    13  H    2.115655   3.378582   0.000000
    14  H    3.301332   4.907467   2.739849   0.000000
    15  H    2.792028   3.372488   2.424318   1.770537   0.000000
    16  H    3.231881   5.280998   4.109743   2.391674   3.006486
    17  H    3.049752   4.113095   4.079050   2.866855   2.345966
    18  H    2.126810   4.599189   1.781462   2.427263   3.061592
    19  H    2.118278   4.771813   3.767158   3.666347   3.912203
    20  H    2.840233   2.253918   4.243820   4.616183   3.279125
    21  H    5.957718   5.686577   7.905663   8.283202   7.293081
    22  H    5.639844   6.561824   7.753576   7.913718   7.437749
    23  H    3.891449   5.796881   5.912308   5.892879   5.829296
    24  C    1.459014   3.512578   2.792315   4.524277   4.180998
    25  H    4.716421   3.624889   6.311379   6.815925   5.487803
    26  H    1.900453   0.984597   2.634572   4.203032   2.876895
    27  H    3.346996   0.959615   3.281029   5.135242   3.630531
    28  O    4.948165   2.810792   6.039159   6.893448   5.291187
    29  H    4.289336   1.875574   5.188289   6.273232   4.642710
    30  H    5.786800   3.390405   6.688040   7.543599   5.867384
    31  H    2.097469   3.417190   2.593681   4.886496   4.434053
    32  H    2.106021   3.556644   3.759369   5.365877   4.839603
    33  H    2.133572   4.585393   3.230466   4.658551   4.724234
    34  O    7.377166   4.726576   7.970975   8.832549   7.084659
    35  H    7.957984   5.341115   8.444840   9.096607   7.349070
    36  H    8.109428   5.435389   8.739690   9.740642   7.995460
    37  O    9.638473   6.979452  10.310849  11.449029   9.709597
    38  H   10.140803   7.429036  10.713210  12.020452  10.277401
    39  H    9.990395   7.460483  10.830332  11.928517  10.218293
                   16         17         18         19         20
    16  H    0.000000
    17  H    1.760403   0.000000
    18  H    3.189748   3.891516   0.000000
    19  H    2.310367   3.007403   2.646942   0.000000
    20  H    4.011306   2.564144   4.734174   3.797831   0.000000
    21  H    6.749246   5.736440   7.924849   5.864591   4.132925
    22  H    5.995936   5.650571   7.219836   4.737133   4.909777
    23  H    3.985772   4.223620   5.010355   2.413217   4.310642
    24  C    4.384242   4.412741   2.648074   2.588255   3.823256
    25  H    5.851526   4.431654   6.766096   5.347801   2.231043
    26  H    4.506030   3.569553   3.667964   3.852567   2.123585
    27  H    5.877476   4.815030   4.765023   5.388638   3.189322
    28  O    6.536201   4.973902   6.942512   6.175824   2.539875
    29  H    6.180279   4.694047   6.224432   5.768494   2.262931
    30  H    7.328790   5.703042   7.721347   7.093220   3.388763
    31  H    5.203185   5.137638   2.952998   3.614636   4.345876
    32  H    4.871321   4.700347   3.677735   2.913393   3.655840
    33  H    4.390402   4.832454   2.479483   2.395400   4.693471
    34  O    8.866879   7.183980   9.194140   8.807387   5.062708
    35  H    9.195168   7.471964   9.685664   9.356218   5.574052
    36  H    9.739857   8.075927   9.975426   9.545557   5.852084
    37  O   11.393353   9.747670  11.552324  11.054010   7.442961
    38  H   12.074605  10.460607  12.022016  11.648464   8.112591
    39  H   11.691716  10.058716  11.974255  11.276996   7.724246
                   21         22         23         24         25
    21  H    0.000000
    22  H    2.526261   0.000000
    23  H    4.321906   2.500902   0.000000
    24  C    6.157806   5.616782   3.932258   0.000000
    25  H    2.404789   4.216632   4.833936   5.261153   0.000000
    26  H    5.679029   6.167627   5.087388   2.632832   3.855163
    27  H    6.583915   7.452933   6.600384   3.842110   4.514627
    28  O    4.052197   5.898142   6.209388   5.535697   1.776784
    29  H    4.639842   6.181321   6.133144   4.877048   2.357765
    30  H    4.717976   6.742183   7.156850   6.388919   2.566555
    31  H    6.868536   6.552395   5.008799   1.096160   5.773776
    32  H    5.299635   4.813658   3.512446   1.097449   4.652140
    33  H    6.759305   5.809727   3.832085   1.104931   6.128663
    34  O    6.268608   8.455322   8.956765   7.996436   4.290583
    35  H    6.907418   9.103702   9.573868   8.692881   4.917943
    36  H    6.596676   8.882800   9.563212   8.608313   4.845893
    37  O    7.540389   9.930071  10.878111   9.990231   6.171725
    38  H    8.273550  10.616060  11.527214  10.406077   6.920495
    39  H    7.287353   9.731006  10.891017  10.293221   6.209325
                   26         27         28         29         30
    26  H    0.000000
    27  H    1.563150   0.000000
    28  O    3.466341   3.484143   0.000000
    29  H    2.631940   2.509379   0.975078   0.000000
    30  H    4.178212   3.888315   0.959036   1.560249   0.000000
    31  H    2.672227   3.473835   5.736477   4.963204   6.500332
    32  H    2.832073   4.025688   5.091143   4.556608   5.974707
    33  H    3.669225   4.892406   6.563697   5.943650   7.440076
    34  O    5.632701   4.950870   2.761351   3.141367   1.805384
    35  H    6.234696   5.538284   3.476810   3.850653   2.550207
    36  H    6.352769   5.614636   3.407717   3.829601   2.480206
    37  O    7.892587   7.107662   4.921396   5.385281   4.066586
    38  H    8.358721   7.454468   5.606070   5.964001   4.779157
    39  H    8.326658   7.677916   5.191192   5.771949   4.410557
                   31         32         33         34         35
    31  H    0.000000
    32  H    1.773342   0.000000
    33  H    1.785876   1.791254   0.000000
    34  O    7.971109   7.642950   9.075123   0.000000
    35  H    8.683435   8.404341   9.761178   0.971129   0.000000
    36  H    8.541987   8.178861   9.692812   0.986054   1.506894
    37  O    9.878809   9.464931  11.068745   2.731359   2.991386
    38  H   10.205152   9.888878  11.489100   3.454505   3.728418
    39  H   10.249105   9.682133  11.346761   3.325836   3.624481
                   36         37         38         39
    36  H    0.000000
    37  O    1.751545   0.000000
    38  H    2.489445   0.972763   0.000000
    39  H    2.392740   0.973518   1.519366   0.000000
 Stoichiometry    C10H23N2O4(1+)
 Framework group  C1[X(C10H23N2O4)]
 Deg. of freedom   111
 Full point group                 C1      NOp   1
 Largest Abelian subgroup         C1      NOp   1
 Largest concise Abelian subgroup C1      NOp   1
                         Standard orientation:                         
 ---------------------------------------------------------------------
 Center     Atomic      Atomic             Coordinates (Angstroms)
 Number     Number       Type             X           Y           Z
 ---------------------------------------------------------------------
      1          6           0        0.357306    0.867125   -0.445926
      2          6           0        1.692209    1.142054   -0.189478
      3          6           0        2.021555    2.459991    0.127352
      4          6           0        1.032349    3.446852    0.189554
      5          6           0       -0.285061    3.095202   -0.032791
      6          7           0       -0.575273    1.819592   -0.341511
      7          6           0        2.683578    0.003291   -0.215351
      8          6           0        2.831731   -0.694836   -1.590981
      9          6           0        2.838273   -2.206008   -1.268563
     10          6           0        3.003219   -2.254378    0.247024
     11          7           0        2.263920   -1.069621    0.704048
     12          8           0       -0.514930   -1.830724    0.662109
     13          1           0        2.590883   -3.159853    0.708575
     14          1           0        3.637952   -2.742179   -1.788616
     15          1           0        1.884429   -2.663398   -1.556766
     16          1           0        3.759161   -0.370761   -2.074603
     17          1           0        2.010383   -0.431183   -2.267332
     18          1           0        4.069077   -2.181176    0.533239
     19          1           0        3.666448    0.399134    0.101738
     20          1           0       -0.006145   -0.120015   -0.714393
     21          1           0       -1.118773    3.788939    0.036077
     22          1           0        1.278989    4.477039    0.435144
     23          1           0        3.058456    2.722370    0.339507
     24          6           0        2.496842   -0.744938    2.107276
     25          1           0       -1.546383    1.468607   -0.428917
     26          1           0        0.447380   -1.628070    0.710283
     27          1           0       -0.639205   -2.698267    1.052986
     28          8           0       -2.488504   -0.018228   -0.186664
     29          1           0       -1.982303   -0.767630    0.177937
     30          1           0       -3.371934   -0.334882   -0.384230
     31          1           0        2.191448   -1.590423    2.734538
     32          1           0        1.895092    0.125388    2.398522
     33          1           0        3.561094   -0.526482    2.308564
     34          8           0       -4.973983   -1.095481   -0.722370
     35          1           0       -5.359969   -1.427490   -1.549338
     36          1           0       -5.789959   -0.861903   -0.220448
     37          8           0       -7.350402   -0.436174    0.451626
     38          1           0       -7.864846   -0.868303    1.155102
     39          1           0       -7.601254    0.499483    0.548346
 ---------------------------------------------------------------------
 Rotational constants (GHZ):           0.5657213           0.2033433           0.1670919
 Standard basis: Aug-CC-pVDZ (5D, 7F)
 There are   607 symmetry adapted cartesian basis functions of A   symmetry.
 There are   575 symmetry adapted basis functions of A   symmetry.
   575 basis functions,   941 primitive gaussians,   607 cartesian basis functions
    64 alpha electrons       64 beta electrons
       nuclear repulsion energy      1177.6577421517 Hartrees.
 NAtoms=   39 NActive=   39 NUniq=   39 SFac= 1.00D+00 NAtFMM=   60 NAOKFM=F Big=F
 Integral buffers will be    131072 words long.
 Raffenetti 2 integral format.
 Two-electron integral symmetry is turned on.
 Nuclear repulsion after empirical dispersion term =     1177.6296908790 Hartrees.
 One-electron integrals computed using PRISM.
 NBasis=   575 RedAO= T EigKep=  2.16D-06  NBF=   575
 NBsUse=   575 1.00D-06 EigRej= -1.00D+00 NBFU=   575
 ExpMin= 2.97D-02 ExpMax= 1.17D+04 ExpMxC= 4.01D+02 IAcc=3 IRadAn=         5 AccDes= 0.00D+00
 Harris functional with IExCor= 4639 and IRadAn=       5 diagonalized for initial guess.
 HarFok:  IExCor= 4639 AccDes= 0.00D+00 IRadAn=         5 IDoV= 1 UseB2=F ITyADJ=14
 ICtDFT=  3500011 ScaDFX=  1.000000  1.000000  1.000000  1.000000
 FoFCou: FMM=F IPFlag=           0 FMFlag=      100000 FMFlg1=           0
         NFxFlg=           0 DoJE=T BraDBF=F KetDBF=T FulRan=T
         wScrn=  0.000000 ICntrl=       500 IOpCl=  0 I1Cent=   200000004 NGrid=           0
         NMat0=    1 NMatS0=      1 NMatT0=    0 NMatD0=    1 NMtDS0=    0 NMtDT0=    0
 Petite list used in FoFCou.
 Requested convergence on RMS density matrix=1.00D-08 within 128 cycles.
 Requested convergence on MAX density matrix=1.00D-06.
 Requested convergence on             energy=1.00D-06.
 No special actions if energy rises.
 SCF Done:  E(RwB97XD) =  -805.021734101     A.U. after   15 cycles
            NFock= 15  Conv=0.29D-08     -V/T= 2.0063

 **********************************************************************

            Population analysis using the SCF density.

 **********************************************************************

 Orbital symmetries:
       Occupied  (A) (A) (A) (A) (A) (A) (A) (A) (A) (A) (A) (A)
                 (A) (A) (A) (A) (A) (A) (A) (A) (A) (A) (A) (A)
                 (A) (A) (A) (A) (A) (A) (A) (A) (A) (A) (A) (A)
                 (A) (A) (A) (A) (A) (A) (A) (A) (A) (A) (A) (A)
                 (A) (A) (A) (A) (A) (A) (A) (A) (A) (A) (A) (A)
                 (A) (A) (A) (A)
       Virtual   (A) (A) (A) (A) (A) (A) (A) (A) (A) (A) (A) (A)
                 (A) (A) (A) (A) (A) (A) (A) (A) (A) (A) (A) (A)
                 (A) (A) (A) (A) (A) (A) (A) (A) (A) (A) (A) (A)
                 (A) (A) (A) (A) (A) (A) (A) (A) (A) (A) (A) (A)
                 (A) (A) (A) (A) (A) (A) (A) (A) (A) (A) (A) (A)
                 (A) (A) (A) (A) (A) (A) (A) (A) (A) (A) (A) (A)
                 (A) (A) (A) (A) (A) (A) (A) (A) (A) (A) (A) (A)
                 (A) (A) (A) (A) (A) (A) (A) (A) (A) (A) (A) (A)
                 (A) (A) (A) (A) (A) (A) (A) (A) (A) (A) (A) (A)
                 (A) (A) (A) (A) (A) (A) (A) (A) (A) (A) (A) (A)
                 (A) (A) (A) (A) (A) (A) (A) (A) (A) (A) (A) (A)
                 (A) (A) (A) (A) (A) (A) (A) (A) (A) (A) (A) (A)
                 (A) (A) (A) (A) (A) (A) (A) (A) (A) (A) (A) (A)
                 (A) (A) (A) (A) (A) (A) (A) (A) (A) (A) (A) (A)
                 (A) (A) (A) (A) (A) (A) (A) (A) (A) (A) (A) (A)
                 (A) (A) (A) (A) (A) (A) (A) (A) (A) (A) (A) (A)
                 (A) (A) (A) (A) (A) (A) (A) (A) (A) (A) (A) (A)
                 (A) (A) (A) (A) (A) (A) (A) (A) (A) (A) (A) (A)
                 (A) (A) (A) (A) (A) (A) (A) (A) (A) (A) (A) (A)
                 (A) (A) (A) (A) (A) (A) (A) (A) (A) (A) (A) (A)
                 (A) (A) (A) (A) (A) (A) (A) (A) (A) (A) (A) (A)
                 (A) (A) (A) (A) (A) (A) (A) (A) (A) (A) (A) (A)
                 (A) (A) (A) (A) (A) (A) (A) (A) (A) (A) (A) (A)
                 (A) (A) (A) (A) (A) (A) (A) (A) (A) (A) (A) (A)
                 (A) (A) (A) (A) (A) (A) (A) (A) (A) (A) (A) (A)
                 (A) (A) (A) (A) (A) (A) (A) (A) (A) (A) (A) (A)
                 (A) (A) (A) (A) (A) (A) (A) (A) (A) (A) (A) (A)
                 (A) (A) (A) (A) (A) (A) (A) (A) (A) (A) (A) (A)
                 (A) (A) (A) (A) (A) (A) (A) (A) (A) (A) (A) (A)
                 (A) (A) (A) (A) (A) (A) (A) (A) (A) (A) (A) (A)
                 (A) (A) (A) (A) (A) (A) (A) (A) (A) (A) (A) (A)
                 (A) (A) (A) (A) (A) (A) (A) (A) (A) (A) (A) (A)
                 (A) (A) (A) (A) (A) (A) (A) (A) (A) (A) (A) (A)
                 (A) (A) (A) (A) (A) (A) (A) (A) (A) (A) (A) (A)
                 (A) (A) (A) (A) (A) (A) (A) (A) (A) (A) (A) (A)
                 (A) (A) (A) (A) (A) (A) (A) (A) (A) (A) (A) (A)
                 (A) (A) (A) (A) (A) (A) (A) (A) (A) (A) (A) (A)
                 (A) (A) (A) (A) (A) (A) (A) (A) (A) (A) (A) (A)
                 (A) (A) (A) (A) (A) (A) (A) (A) (A) (A) (A) (A)
                 (A) (A) (A) (A) (A) (A) (A) (A) (A) (A) (A) (A)
                 (A) (A) (A) (A) (A) (A) (A) (A) (A) (A) (A) (A)
                 (A) (A) (A) (A) (A) (A) (A) (A) (A) (A) (A) (A)
                 (A) (A) (A) (A) (A) (A) (A)
 The electronic state is 1-A.
 Alpha  occ. eigenvalues --  -19.38962 -19.37662 -19.35285 -19.35280 -14.67983
 Alpha  occ. eigenvalues --  -14.57772 -10.51189 -10.50421 -10.47881 -10.47102
 Alpha  occ. eigenvalues --  -10.46959 -10.46282 -10.43073 -10.42967 -10.41356
 Alpha  occ. eigenvalues --  -10.40239  -1.26068  -1.22778  -1.21898  -1.19946
 Alpha  occ. eigenvalues --   -1.18676  -1.17129  -1.08329  -1.04787  -1.00313
 Alpha  occ. eigenvalues --   -0.95889  -0.90685  -0.89692  -0.88640  -0.82563
 Alpha  occ. eigenvalues --   -0.79652  -0.79243  -0.74891  -0.73904  -0.72962
 Alpha  occ. eigenvalues --   -0.72391  -0.72117  -0.70641  -0.69486  -0.69432
 Alpha  occ. eigenvalues --   -0.68493  -0.67919  -0.65272  -0.64618  -0.63702
 Alpha  occ. eigenvalues --   -0.62222  -0.61599  -0.60669  -0.59128  -0.58591
 Alpha  occ. eigenvalues --   -0.57005  -0.56951  -0.56236  -0.55572  -0.54474
 Alpha  occ. eigenvalues --   -0.53683  -0.53214  -0.52007  -0.51589  -0.51184
 Alpha  occ. eigenvalues --   -0.49268  -0.49170  -0.48490  -0.44115
 Alpha virt. eigenvalues --   -0.13907  -0.10958  -0.06029  -0.04955  -0.04664
 Alpha virt. eigenvalues --   -0.04033  -0.03839  -0.02996  -0.02784  -0.02065
 Alpha virt. eigenvalues --   -0.01765  -0.01592  -0.01089  -0.00590  -0.00394
 Alpha virt. eigenvalues --   -0.00011   0.00235   0.00965   0.01208   0.01635
 Alpha virt. eigenvalues --    0.02001   0.02183   0.02523   0.02598   0.03064
 Alpha virt. eigenvalues --    0.03406   0.03688   0.03805   0.04421   0.04660
 Alpha virt. eigenvalues --    0.04856   0.05188   0.05336   0.05911   0.06127
 Alpha virt. eigenvalues --    0.06354   0.06637   0.06908   0.07224   0.07478
 Alpha virt. eigenvalues --    0.07898   0.08347   0.08389   0.08737   0.08971
 Alpha virt. eigenvalues --    0.09369   0.09739   0.09798   0.10076   0.10417
 Alpha virt. eigenvalues --    0.10797   0.10990   0.11208   0.11460   0.11842
 Alpha virt. eigenvalues --    0.12271   0.12527   0.12766   0.13020   0.13453
 Alpha virt. eigenvalues --    0.13532   0.13981   0.14278   0.14493   0.14803
 Alpha virt. eigenvalues --    0.15122   0.15229   0.15817   0.15934   0.16329
 Alpha virt. eigenvalues --    0.16553   0.16674   0.16888   0.17199   0.17592
 Alpha virt. eigenvalues --    0.17743   0.17943   0.18542   0.18888   0.19132
 Alpha virt. eigenvalues --    0.19378   0.19621   0.20427   0.20496   0.20668
 Alpha virt. eigenvalues --    0.20785   0.21009   0.21302   0.21721   0.21888
 Alpha virt. eigenvalues --    0.21947   0.22740   0.22934   0.23174   0.23686
 Alpha virt. eigenvalues --    0.24124   0.24384   0.24692   0.24840   0.25302
 Alpha virt. eigenvalues --    0.25703   0.25951   0.26072   0.26251   0.26794
 Alpha virt. eigenvalues --    0.27008   0.27466   0.27902   0.27986   0.28491
 Alpha virt. eigenvalues --    0.29037   0.29168   0.29842   0.30531   0.30785
 Alpha virt. eigenvalues --    0.31127   0.31630   0.32115   0.32406   0.32763
 Alpha virt. eigenvalues --    0.32916   0.33312   0.33656   0.33743   0.34484
 Alpha virt. eigenvalues --    0.34679   0.35033   0.35516   0.35661   0.35845
 Alpha virt. eigenvalues --    0.36853   0.37217   0.37598   0.38062   0.38292
 Alpha virt. eigenvalues --    0.38671   0.39004   0.39199   0.40072   0.40339
 Alpha virt. eigenvalues --    0.41012   0.41162   0.41910   0.42538   0.42823
 Alpha virt. eigenvalues --    0.42990   0.43624   0.43692   0.43946   0.44647
 Alpha virt. eigenvalues --    0.44942   0.45239   0.45480   0.46016   0.46246
 Alpha virt. eigenvalues --    0.46424   0.46979   0.47242   0.47689   0.48063
 Alpha virt. eigenvalues --    0.48890   0.49152   0.49366   0.49763   0.50023
 Alpha virt. eigenvalues --    0.50401   0.50895   0.51369   0.51654   0.51894
 Alpha virt. eigenvalues --    0.52417   0.52478   0.52696   0.53109   0.53389
 Alpha virt. eigenvalues --    0.53745   0.54237   0.54685   0.55290   0.55532
 Alpha virt. eigenvalues --    0.55756   0.56214   0.56598   0.57020   0.57554
 Alpha virt. eigenvalues --    0.57683   0.58031   0.58375   0.58824   0.59269
 Alpha virt. eigenvalues --    0.59613   0.60716   0.61099   0.61389   0.61871
 Alpha virt. eigenvalues --    0.62405   0.62714   0.63086   0.63460   0.63788
 Alpha virt. eigenvalues --    0.64146   0.65064   0.65525   0.65605   0.66270
 Alpha virt. eigenvalues --    0.66515   0.67153   0.67639   0.68099   0.68310
 Alpha virt. eigenvalues --    0.68776   0.68917   0.69246   0.69849   0.70643
 Alpha virt. eigenvalues --    0.71287   0.71950   0.72074   0.72787   0.72831
 Alpha virt. eigenvalues --    0.73365   0.73727   0.74249   0.74914   0.74935
 Alpha virt. eigenvalues --    0.75452   0.75713   0.76061   0.76686   0.77543
 Alpha virt. eigenvalues --    0.77907   0.78141   0.78800   0.79936   0.80499
 Alpha virt. eigenvalues --    0.80900   0.81558   0.82428   0.83164   0.83758
 Alpha virt. eigenvalues --    0.84157   0.84631   0.84880   0.85461   0.86082
 Alpha virt. eigenvalues --    0.87382   0.88051   0.88543   0.88925   0.89105
 Alpha virt. eigenvalues --    0.89909   0.91004   0.91918   0.92071   0.93473
 Alpha virt. eigenvalues --    0.93751   0.94446   0.95068   0.95615   0.96286
 Alpha virt. eigenvalues --    0.96681   0.97154   0.98611   0.99640   1.00095
 Alpha virt. eigenvalues --    1.00753   1.01037   1.01920   1.02367   1.02916
 Alpha virt. eigenvalues --    1.04441   1.04901   1.05269   1.06294   1.07166
 Alpha virt. eigenvalues --    1.07544   1.08984   1.09643   1.09964   1.10586
 Alpha virt. eigenvalues --    1.11564   1.11856   1.12823   1.13621   1.15543
 Alpha virt. eigenvalues --    1.16087   1.16573   1.17169   1.18542   1.19248
 Alpha virt. eigenvalues --    1.19377   1.20146   1.21013   1.21717   1.22345
 Alpha virt. eigenvalues --    1.23803   1.24459   1.25559   1.26387   1.27262
 Alpha virt. eigenvalues --    1.27727   1.28393   1.28970   1.30369   1.32184
 Alpha virt. eigenvalues --    1.32440   1.32968   1.34132   1.34955   1.35435
 Alpha virt. eigenvalues --    1.35776   1.36238   1.37161   1.38601   1.39867
 Alpha virt. eigenvalues --    1.40727   1.41311   1.41836   1.42254   1.43435
 Alpha virt. eigenvalues --    1.45082   1.46268   1.46651   1.48125   1.48755
 Alpha virt. eigenvalues --    1.49726   1.50864   1.51374   1.52813   1.54633
 Alpha virt. eigenvalues --    1.55627   1.56258   1.57354   1.58399   1.59159
 Alpha virt. eigenvalues --    1.60170   1.60467   1.61296   1.61601   1.62404
 Alpha virt. eigenvalues --    1.63204   1.63642   1.64343   1.65482   1.67187
 Alpha virt. eigenvalues --    1.68247   1.68680   1.69121   1.69497   1.70787
 Alpha virt. eigenvalues --    1.70977   1.72787   1.73717   1.74746   1.75489
 Alpha virt. eigenvalues --    1.75907   1.76497   1.76906   1.78402   1.79258
 Alpha virt. eigenvalues --    1.79850   1.80627   1.81157   1.81761   1.82558
 Alpha virt. eigenvalues --    1.83362   1.83777   1.83986   1.84906   1.85767
 Alpha virt. eigenvalues --    1.86605   1.87087   1.87358   1.88815   1.89225
 Alpha virt. eigenvalues --    1.90126   1.90788   1.91773   1.91927   1.93368
 Alpha virt. eigenvalues --    1.94271   1.94806   1.96413   1.97072   1.97217
 Alpha virt. eigenvalues --    1.98170   1.98774   1.98874   1.98941   2.00994
 Alpha virt. eigenvalues --    2.01381   2.02583   2.04202   2.04847   2.05175
 Alpha virt. eigenvalues --    2.06393   2.08027   2.08397   2.09622   2.10570
 Alpha virt. eigenvalues --    2.10945   2.11807   2.12843   2.12864   2.14676
 Alpha virt. eigenvalues --    2.15336   2.16220   2.16745   2.17802   2.19149
 Alpha virt. eigenvalues --    2.20205   2.21069   2.21510   2.22655   2.23090
 Alpha virt. eigenvalues --    2.24455   2.25239   2.25410   2.26951   2.27419
 Alpha virt. eigenvalues --    2.28683   2.30275   2.30382   2.31276   2.31985
 Alpha virt. eigenvalues --    2.32209   2.33131   2.36019   2.37964   2.38441
 Alpha virt. eigenvalues --    2.40192   2.41300   2.42073   2.43144   2.44227
 Alpha virt. eigenvalues --    2.45342   2.47489   2.47691   2.50221   2.50626
 Alpha virt. eigenvalues --    2.50873   2.52913   2.53574   2.55175   2.57291
 Alpha virt. eigenvalues --    2.57620   2.59217   2.59467   2.61277   2.61669
 Alpha virt. eigenvalues --    2.63263   2.63598   2.66557   2.67508   2.68123
 Alpha virt. eigenvalues --    2.68714   2.70247   2.71577   2.72386   2.73515
 Alpha virt. eigenvalues --    2.75477   2.77369   2.77610   2.78900   2.79996
 Alpha virt. eigenvalues --    2.82063   2.83775   2.84389   2.86012   2.86398
 Alpha virt. eigenvalues --    2.87207   2.88216   2.89397   2.89658   2.92578
 Alpha virt. eigenvalues --    2.96812   2.99016   3.02138   3.02710   3.08536
 Alpha virt. eigenvalues --    3.11101   3.19741   3.24487   3.25404   3.30068
 Alpha virt. eigenvalues --    3.33489   3.34302   3.36872   3.39037   3.40846
 Alpha virt. eigenvalues --    3.41054   3.43700   3.45832   3.46007   3.48846
 Alpha virt. eigenvalues --    3.51832   3.52320   3.62299   3.62590   3.64813
 Alpha virt. eigenvalues --    3.65268   3.65890   3.79844   3.88845   3.92256
 Alpha virt. eigenvalues --    3.94254   4.04661   4.12611   4.20245   4.30763
 Alpha virt. eigenvalues --    4.86463
          Condensed to atoms (all electrons):
               1          2          3          4          5          6
     1  C   13.994620  -2.836674  -2.217793   0.145573  -1.069520  -0.570665
     2  C   -2.836674  21.141624  -8.453548   0.059138  -0.773878  -0.190983
     3  C   -2.217793  -8.453548  21.438676  -3.270420   1.090026  -0.281645
     4  C    0.145573   0.059138  -3.270420  10.549816  -1.913551   0.040560
     5  C   -1.069520  -0.773878   1.090026  -1.913551   9.265066   0.170299
     6  N   -0.570665  -0.190983  -0.281645   0.040560   0.170299   7.423576
     7  C   -1.597069  -7.048931  -0.887007   0.413789  -0.686045   0.560277
     8  C   -0.371433   0.380161  -0.254214  -0.084673  -0.059717   0.086676
     9  C   -0.223549   0.344462  -0.067878   0.013491   0.001285  -0.001330
    10  C   -0.160246  -0.236993  -0.044178  -0.017936  -0.025247   0.051624
    11  N    0.784897   2.038240  -0.537418  -0.157787   0.106954  -0.184634
    12  O   -0.119375   0.034330  -0.007246  -0.002143   0.007104   0.049458
    13  H   -0.040555  -0.155096   0.012649   0.001207  -0.003726   0.000421
    14  H    0.018042  -0.056767   0.016381   0.001512   0.000054  -0.001249
    15  H    0.012140   0.047788  -0.017827  -0.001473   0.001622  -0.000241
    16  H    0.140489   0.461835  -0.073767  -0.003704   0.003858  -0.014057
    17  H   -0.100460  -0.390611   0.133335  -0.010731  -0.005103   0.025315
    18  H    0.007123   0.049775   0.011889  -0.004026   0.001849   0.002734
    19  H   -0.113737   0.693782   0.061464  -0.003936   0.010672  -0.002599
    20  H   -0.900199  -1.191052  -0.071864   0.035568  -0.021298   0.003835
    21  H   -0.004074   0.099056   0.154410   0.105098  -0.450979  -0.065004
    22  H   -0.085205  -0.022992   0.506657  -0.980830   0.326832  -0.023397
    23  H    0.173275   0.956620  -2.212248   0.577082  -0.156461  -0.042641
    24  C    0.048845   0.439016  -0.118068   0.051757  -0.001616  -0.052127
    25  H    0.429687  -0.247485  -0.079360  -0.012707  -0.447805   0.125300
    26  H    0.000112  -0.129907  -0.009496  -0.012463  -0.013412   0.005525
    27  H    0.002945  -0.000047   0.005860   0.000267   0.002540   0.003592
    28  O    0.030399  -0.051189   0.023245  -0.020277   0.036562  -0.090664
    29  H   -0.011684   0.030341  -0.023286   0.006387  -0.006800   0.043940
    30  H    0.010181  -0.003754   0.009260   0.000570   0.003521  -0.014148
    31  H   -0.013928  -0.047268  -0.013085   0.012049  -0.006363  -0.005960
    32  H   -0.063477   0.032324   0.015303   0.020004  -0.010965   0.021221
    33  H    0.007832   0.108637   0.033215  -0.007613   0.011022  -0.000618
    34  O    0.003860   0.001327  -0.000714   0.000353  -0.001622  -0.002559
    35  H    0.000222  -0.000057  -0.000058  -0.000046  -0.000033   0.000007
    36  H    0.000549  -0.000222  -0.000283   0.000207  -0.001148  -0.000699
    37  O    0.000063   0.000048  -0.000006  -0.000017  -0.000117   0.000041
    38  H   -0.000027   0.000006   0.000008  -0.000009   0.000042   0.000016
    39  H    0.000018   0.000030  -0.000012   0.000017  -0.000043  -0.000011
               7          8          9         10         11         12
     1  C   -1.597069  -0.371433  -0.223549  -0.160246   0.784897  -0.119375
     2  C   -7.048931   0.380161   0.344462  -0.236993   2.038240   0.034330
     3  C   -0.887007  -0.254214  -0.067878  -0.044178  -0.537418  -0.007246
     4  C    0.413789  -0.084673   0.013491  -0.017936  -0.157787  -0.002143
     5  C   -0.686045  -0.059717   0.001285  -0.025247   0.106954   0.007104
     6  N    0.560277   0.086676  -0.001330   0.051624  -0.184634   0.049458
     7  C   23.416379  -1.285846  -0.163356  -0.163458  -6.003899   0.034430
     8  C   -1.285846   7.700504  -0.384287   0.295170  -0.646382   0.009778
     9  C   -0.163356  -0.384287   5.879211   0.296445  -0.540300   0.019082
    10  C   -0.163458   0.295170   0.296445   5.806725  -0.259541   0.019041
    11  N   -6.003899  -0.646382  -0.540300  -0.259541  14.429044  -0.079949
    12  O    0.034430   0.009778   0.019082   0.019041  -0.079949   7.906942
    13  H    0.513908   0.150862   0.047012  -0.203820  -0.846949   0.028266
    14  H    0.193538   0.151781  -0.297162   0.093304  -0.056138  -0.004323
    15  H   -0.109962   0.223085  -0.231906  -0.121656   0.151784   0.002287
    16  H   -0.236475  -0.812376   0.084554  -0.177344   0.460372   0.002610
    17  H    0.309914  -0.412206   0.316860   0.050632   0.012619  -0.004313
    18  H    0.177604  -0.129551   0.113949  -0.258275  -0.180106  -0.002362
    19  H   -2.283087   0.492871   0.069023  -0.050831  -0.039391  -0.002233
    20  H    0.350823  -0.030063  -0.064857   0.045190  -0.514403   0.053027
    21  H    0.000744   0.007409  -0.000210  -0.000657   0.007533  -0.000350
    22  H    0.039806  -0.000439   0.000952   0.000273  -0.001413   0.000093
    23  H   -0.031559  -0.026490  -0.013740  -0.001822   0.025565  -0.000837
    24  C   -0.886152  -0.211655   0.025815  -0.246062   0.916868  -0.015543
    25  H   -0.050160  -0.040518   0.002630  -0.003917   0.013495  -0.005189
    26  H    0.340795   0.082045  -0.030600  -0.073525  -0.027371   0.096416
    27  H   -0.007414   0.005824  -0.007341   0.021946  -0.047657   0.406076
    28  O   -0.031453  -0.007757   0.001891  -0.002253   0.017597  -0.037038
    29  H   -0.002722  -0.007486   0.010091   0.008412  -0.016345   0.048215
    30  H    0.014807   0.004515  -0.000791  -0.001229   0.000142  -0.001652
    31  H    0.151540  -0.037575   0.044134   0.043927  -0.326212   0.001901
    32  H    0.037481   0.073381  -0.030257  -0.041604   0.216054   0.005648
    33  H   -0.052554  -0.033111   0.040106   0.027591  -0.631191  -0.001001
    34  O   -0.000303   0.000013   0.000059   0.000000   0.000078  -0.000217
    35  H   -0.000016   0.000013   0.000045   0.000029  -0.000081  -0.000051
    36  H   -0.000532  -0.000052  -0.000075  -0.000027   0.000204   0.000121
    37  O    0.000003  -0.000000   0.000001   0.000001   0.000001   0.000033
    38  H    0.000006   0.000000   0.000000  -0.000000  -0.000000  -0.000000
    39  H    0.000014   0.000001   0.000001   0.000001  -0.000004   0.000006
              13         14         15         16         17         18
     1  C   -0.040555   0.018042   0.012140   0.140489  -0.100460   0.007123
     2  C   -0.155096  -0.056767   0.047788   0.461835  -0.390611   0.049775
     3  C    0.012649   0.016381  -0.017827  -0.073767   0.133335   0.011889
     4  C    0.001207   0.001512  -0.001473  -0.003704  -0.010731  -0.004026
     5  C   -0.003726   0.000054   0.001622   0.003858  -0.005103   0.001849
     6  N    0.000421  -0.001249  -0.000241  -0.014057   0.025315   0.002734
     7  C    0.513908   0.193538  -0.109962  -0.236475   0.309914   0.177604
     8  C    0.150862   0.151781   0.223085  -0.812376  -0.412206  -0.129551
     9  C    0.047012  -0.297162  -0.231906   0.084554   0.316860   0.113949
    10  C   -0.203820   0.093304  -0.121656  -0.177344   0.050632  -0.258275
    11  N   -0.846949  -0.056138   0.151784   0.460372   0.012619  -0.180106
    12  O    0.028266  -0.004323   0.002287   0.002610  -0.004313  -0.002362
    13  H    2.704195   0.056217  -0.247808  -0.023100   0.028821  -0.497464
    14  H    0.056217   2.034835  -0.541460  -0.315995   0.145001  -0.179572
    15  H   -0.247808  -0.541460   2.142201   0.210458  -0.406103   0.169432
    16  H   -0.023100  -0.315995   0.210458   2.621045  -0.663889   0.043363
    17  H    0.028821   0.145001  -0.406103  -0.663889   2.433002  -0.044815
    18  H   -0.497464  -0.179572   0.169432   0.043363  -0.044815   2.165329
    19  H    0.055594   0.050984  -0.069027  -0.377276   0.203241  -0.072756
    20  H   -0.035200   0.007605   0.040252   0.056196  -0.176268   0.017955
    21  H   -0.000139   0.000029  -0.000106   0.000459   0.001468   0.000102
    22  H    0.000156   0.000040  -0.000082  -0.001084   0.001162  -0.000254
    23  H   -0.003314   0.000185   0.001589   0.008293  -0.005260   0.002097
    24  C   -0.121053   0.004049   0.005670   0.050769   0.000017  -0.019296
    25  H   -0.000832  -0.000054   0.002437   0.003446  -0.011378   0.000170
    26  H    0.084203  -0.003011   0.007841  -0.007122  -0.001166  -0.005384
    27  H   -0.007329  -0.000235   0.002167  -0.000067   0.001214   0.004221
    28  O    0.000554   0.000048  -0.000251   0.000184  -0.002112  -0.000364
    29  H    0.000646   0.000310  -0.000530   0.000760  -0.000363  -0.000703
    30  H    0.000805   0.000004  -0.001223  -0.000533   0.002932  -0.000151
    31  H    0.004600  -0.001231   0.004325  -0.000465   0.001117   0.002108
    32  H    0.004312   0.002972  -0.011538  -0.007705   0.011017  -0.008723
    33  H    0.012069  -0.001020   0.006974   0.015326  -0.007613   0.078773
    34  O   -0.000023   0.000002   0.000171  -0.000006  -0.000096   0.000001
    35  H    0.000019   0.000004  -0.000006  -0.000002   0.000060  -0.000003
    36  H   -0.000053  -0.000007   0.000038   0.000009  -0.000161   0.000007
    37  O    0.000000   0.000000   0.000002  -0.000000   0.000004   0.000000
    38  H    0.000001   0.000000  -0.000000  -0.000000   0.000002  -0.000000
    39  H    0.000000   0.000000  -0.000000  -0.000000   0.000002  -0.000000
              19         20         21         22         23         24
     1  C   -0.113737  -0.900199  -0.004074  -0.085205   0.173275   0.048845
     2  C    0.693782  -1.191052   0.099056  -0.022992   0.956620   0.439016
     3  C    0.061464  -0.071864   0.154410   0.506657  -2.212248  -0.118068
     4  C   -0.003936   0.035568   0.105098  -0.980830   0.577082   0.051757
     5  C    0.010672  -0.021298  -0.450979   0.326832  -0.156461  -0.001616
     6  N   -0.002599   0.003835  -0.065004  -0.023397  -0.042641  -0.052127
     7  C   -2.283087   0.350823   0.000744   0.039806  -0.031559  -0.886152
     8  C    0.492871  -0.030063   0.007409  -0.000439  -0.026490  -0.211655
     9  C    0.069023  -0.064857  -0.000210   0.000952  -0.013740   0.025815
    10  C   -0.050831   0.045190  -0.000657   0.000273  -0.001822  -0.246062
    11  N   -0.039391  -0.514403   0.007533  -0.001413   0.025565   0.916868
    12  O   -0.002233   0.053027  -0.000350   0.000093  -0.000837  -0.015543
    13  H    0.055594  -0.035200  -0.000139   0.000156  -0.003314  -0.121053
    14  H    0.050984   0.007605   0.000029   0.000040   0.000185   0.004049
    15  H   -0.069027   0.040252  -0.000106  -0.000082   0.001589   0.005670
    16  H   -0.377276   0.056196   0.000459  -0.001084   0.008293   0.050769
    17  H    0.203241  -0.176268   0.001468   0.001162  -0.005260   0.000017
    18  H   -0.072756   0.017955   0.000102  -0.000254   0.002097  -0.019296
    19  H    3.321805  -0.023240   0.001812  -0.001444  -0.155568   0.012025
    20  H   -0.023240   4.839452  -0.001285  -0.010643  -0.010111   0.024420
    21  H    0.001812  -0.001285   2.057316  -0.105121  -0.010258   0.003203
    22  H   -0.001444  -0.010643  -0.105121   2.048690  -0.136447  -0.007008
    23  H   -0.155568  -0.010111  -0.010258  -0.136447   2.860536   0.040380
    24  C    0.012025   0.024420   0.003203  -0.007008   0.040380   4.651306
    25  H   -0.004947  -0.041908  -0.196593   0.011785   0.010417  -0.001723
    26  H   -0.005463  -0.143842   0.001325   0.001265  -0.003156  -0.129748
    27  H    0.000037   0.027145  -0.000100  -0.000040   0.000347   0.006660
    28  O   -0.000820   0.018478  -0.000772  -0.000133   0.000021   0.001983
    29  H   -0.000786  -0.058321  -0.005713   0.000634   0.000657   0.001548
    30  H    0.000928  -0.021726   0.007219  -0.000132  -0.000578  -0.002298
    31  H    0.024006   0.009653   0.000364  -0.000894   0.002435   0.236647
    32  H    0.009266   0.015937  -0.001007  -0.000356  -0.011702   0.041171
    33  H    0.016794   0.004751   0.000089  -0.000009   0.009984   0.288800
    34  O   -0.000002  -0.001955  -0.000449   0.000021  -0.000026  -0.000011
    35  H    0.000002  -0.001576  -0.000105   0.000004  -0.000002  -0.000017
    36  H   -0.000028   0.003910  -0.000012  -0.000003   0.000005   0.000097
    37  O    0.000000  -0.000467  -0.000038   0.000001  -0.000000   0.000000
    38  H    0.000000  -0.000055   0.000003  -0.000000   0.000000  -0.000002
    39  H    0.000001   0.000025  -0.000031   0.000001  -0.000000  -0.000001
              25         26         27         28         29         30
     1  C    0.429687   0.000112   0.002945   0.030399  -0.011684   0.010181
     2  C   -0.247485  -0.129907  -0.000047  -0.051189   0.030341  -0.003754
     3  C   -0.079360  -0.009496   0.005860   0.023245  -0.023286   0.009260
     4  C   -0.012707  -0.012463   0.000267  -0.020277   0.006387   0.000570
     5  C   -0.447805  -0.013412   0.002540   0.036562  -0.006800   0.003521
     6  N    0.125300   0.005525   0.003592  -0.090664   0.043940  -0.014148
     7  C   -0.050160   0.340795  -0.007414  -0.031453  -0.002722   0.014807
     8  C   -0.040518   0.082045   0.005824  -0.007757  -0.007486   0.004515
     9  C    0.002630  -0.030600  -0.007341   0.001891   0.010091  -0.000791
    10  C   -0.003917  -0.073525   0.021946  -0.002253   0.008412  -0.001229
    11  N    0.013495  -0.027371  -0.047657   0.017597  -0.016345   0.000142
    12  O   -0.005189   0.096416   0.406076  -0.037038   0.048215  -0.001652
    13  H   -0.000832   0.084203  -0.007329   0.000554   0.000646   0.000805
    14  H   -0.000054  -0.003011  -0.000235   0.000048   0.000310   0.000004
    15  H    0.002437   0.007841   0.002167  -0.000251  -0.000530  -0.001223
    16  H    0.003446  -0.007122  -0.000067   0.000184   0.000760  -0.000533
    17  H   -0.011378  -0.001166   0.001214  -0.002112  -0.000363   0.002932
    18  H    0.000170  -0.005384   0.004221  -0.000364  -0.000703  -0.000151
    19  H   -0.004947  -0.005463   0.000037  -0.000820  -0.000786   0.000928
    20  H   -0.041908  -0.143842   0.027145   0.018478  -0.058321  -0.021726
    21  H   -0.196593   0.001325  -0.000100  -0.000772  -0.005713   0.007219
    22  H    0.011785   0.001265  -0.000040  -0.000133   0.000634  -0.000132
    23  H    0.010417  -0.003156   0.000347   0.000021   0.000657  -0.000578
    24  C   -0.001723  -0.129748   0.006660   0.001983   0.001548  -0.002298
    25  H    1.478481  -0.009365   0.000486   0.004533   0.002116  -0.018385
    26  H   -0.009365   0.804945  -0.201434   0.001416  -0.006657   0.012073
    27  H    0.000486  -0.201434   0.612415   0.000754  -0.004765  -0.002311
    28  O    0.004533   0.001416   0.000754   7.948737   0.316609   0.303526
    29  H    0.002116  -0.006657  -0.004765   0.316609   0.632033  -0.168837
    30  H   -0.018385   0.012073  -0.002311   0.303526  -0.168837   0.610787
    31  H   -0.002889   0.027560   0.001238  -0.000668  -0.003957   0.000665
    32  H   -0.002756   0.001948   0.002009   0.000658  -0.002420   0.000407
    33  H    0.002950  -0.048111   0.004150   0.000215   0.004238  -0.000858
    34  O    0.007574   0.000494  -0.000311  -0.060477   0.010750  -0.005088
    35  H    0.000096  -0.000101  -0.000077   0.003675   0.001904  -0.001327
    36  H    0.000122  -0.000359   0.000292   0.006056  -0.000981  -0.007129
    37  O    0.001195  -0.000155   0.000097   0.000239   0.002070  -0.005058
    38  H   -0.000043   0.000020  -0.000007  -0.000098  -0.000110   0.000097
    39  H    0.000173  -0.000030   0.000008   0.000175   0.000157  -0.001647
              31         32         33         34         35         36
     1  C   -0.013928  -0.063477   0.007832   0.003860   0.000222   0.000549
     2  C   -0.047268   0.032324   0.108637   0.001327  -0.000057  -0.000222
     3  C   -0.013085   0.015303   0.033215  -0.000714  -0.000058  -0.000283
     4  C    0.012049   0.020004  -0.007613   0.000353  -0.000046   0.000207
     5  C   -0.006363  -0.010965   0.011022  -0.001622  -0.000033  -0.001148
     6  N   -0.005960   0.021221  -0.000618  -0.002559   0.000007  -0.000699
     7  C    0.151540   0.037481  -0.052554  -0.000303  -0.000016  -0.000532
     8  C   -0.037575   0.073381  -0.033111   0.000013   0.000013  -0.000052
     9  C    0.044134  -0.030257   0.040106   0.000059   0.000045  -0.000075
    10  C    0.043927  -0.041604   0.027591   0.000000   0.000029  -0.000027
    11  N   -0.326212   0.216054  -0.631191   0.000078  -0.000081   0.000204
    12  O    0.001901   0.005648  -0.001001  -0.000217  -0.000051   0.000121
    13  H    0.004600   0.004312   0.012069  -0.000023   0.000019  -0.000053
    14  H   -0.001231   0.002972  -0.001020   0.000002   0.000004  -0.000007
    15  H    0.004325  -0.011538   0.006974   0.000171  -0.000006   0.000038
    16  H   -0.000465  -0.007705   0.015326  -0.000006  -0.000002   0.000009
    17  H    0.001117   0.011017  -0.007613  -0.000096   0.000060  -0.000161
    18  H    0.002108  -0.008723   0.078773   0.000001  -0.000003   0.000007
    19  H    0.024006   0.009266   0.016794  -0.000002   0.000002  -0.000028
    20  H    0.009653   0.015937   0.004751  -0.001955  -0.001576   0.003910
    21  H    0.000364  -0.001007   0.000089  -0.000449  -0.000105  -0.000012
    22  H   -0.000894  -0.000356  -0.000009   0.000021   0.000004  -0.000003
    23  H    0.002435  -0.011702   0.009984  -0.000026  -0.000002   0.000005
    24  C    0.236647   0.041171   0.288800  -0.000011  -0.000017   0.000097
    25  H   -0.002889  -0.002756   0.002950   0.007574   0.000096   0.000122
    26  H    0.027560   0.001948  -0.048111   0.000494  -0.000101  -0.000359
    27  H    0.001238   0.002009   0.004150  -0.000311  -0.000077   0.000292
    28  O   -0.000668   0.000658   0.000215  -0.060477   0.003675   0.006056
    29  H   -0.003957  -0.002420   0.004238   0.010750   0.001904  -0.000981
    30  H    0.000665   0.000407  -0.000858  -0.005088  -0.001327  -0.007129
    31  H    2.077474  -0.583210  -0.376075   0.000009  -0.000015   0.000035
    32  H   -0.583210   1.807453  -0.386745  -0.000056   0.000005  -0.000041
    33  H   -0.376075  -0.386745   2.092575   0.000000   0.000003   0.000003
    34  O    0.000009  -0.000056   0.000000   7.777248   0.350379   0.322149
    35  H   -0.000015   0.000005   0.000003   0.350379   0.602109  -0.096450
    36  H    0.000035  -0.000041   0.000003   0.322149  -0.096450   0.550759
    37  O    0.000001  -0.000001   0.000000  -0.042013   0.003425   0.001374
    38  H   -0.000001   0.000001  -0.000000   0.000944  -0.000427  -0.003184
    39  H    0.000000  -0.000000  -0.000000   0.001967  -0.000826  -0.001488
              37         38         39
     1  C    0.000063  -0.000027   0.000018
     2  C    0.000048   0.000006   0.000030
     3  C   -0.000006   0.000008  -0.000012
     4  C   -0.000017  -0.000009   0.000017
     5  C   -0.000117   0.000042  -0.000043
     6  N    0.000041   0.000016  -0.000011
     7  C    0.000003   0.000006   0.000014
     8  C   -0.000000   0.000000   0.000001
     9  C    0.000001   0.000000   0.000001
    10  C    0.000001  -0.000000   0.000001
    11  N    0.000001  -0.000000  -0.000004
    12  O    0.000033  -0.000000   0.000006
    13  H    0.000000   0.000001   0.000000
    14  H    0.000000   0.000000   0.000000
    15  H    0.000002  -0.000000  -0.000000
    16  H   -0.000000  -0.000000  -0.000000
    17  H    0.000004   0.000002   0.000002
    18  H    0.000000  -0.000000  -0.000000
    19  H    0.000000   0.000000   0.000001
    20  H   -0.000467  -0.000055   0.000025
    21  H   -0.000038   0.000003  -0.000031
    22  H    0.000001  -0.000000   0.000001
    23  H   -0.000000   0.000000  -0.000000
    24  C    0.000000  -0.000002  -0.000001
    25  H    0.001195  -0.000043   0.000173
    26  H   -0.000155   0.000020  -0.000030
    27  H    0.000097  -0.000007   0.000008
    28  O    0.000239  -0.000098   0.000175
    29  H    0.002070  -0.000110   0.000157
    30  H   -0.005058   0.000097  -0.001647
    31  H    0.000001  -0.000001   0.000000
    32  H   -0.000001   0.000001  -0.000000
    33  H    0.000000  -0.000000  -0.000000
    34  O   -0.042013   0.000944   0.001967
    35  H    0.003425  -0.000427  -0.000826
    36  H    0.001374  -0.003184  -0.001488
    37  O    7.685176   0.346688   0.344894
    38  H    0.346688   0.559565  -0.068735
    39  H    0.344894  -0.068735   0.572198
 Mulliken charges:
               1
     1  C    0.688796
     2  C    0.918916
     3  C    1.129041
     4  C    0.469899
     5  C    0.616143
     6  N   -0.069188
     7  C    0.972141
     8  C    1.171743
     9  C    0.746539
    10  C    1.330307
    11  N   -1.084277
    12  O   -0.441044
    13  H   -0.520057
    14  H   -0.318676
    15  H   -0.271063
    16  H   -0.449062
    17  H   -0.435086
    18  H   -0.444679
    19  H   -0.817136
    20  H   -1.233889
    21  H   -0.604639
    22  H   -0.560449
    23  H   -0.847271
    24  C    0.961332
    25  H    0.080921
    26  H    0.393894
    27  H    0.166843
    28  O   -0.411230
    29  H    0.200645
    30  H    0.276418
    31  H   -0.225992
    32  H   -0.156009
    33  H   -0.219580
    34  O   -0.361475
    35  H    0.139274
    36  H    0.226997
    37  O   -0.337484
    38  H    0.165299
    39  H    0.153139
 Sum of Mulliken charges =   1.00000
 Mulliken charges with hydrogens summed into heavy atoms:
               1
     1  C   -0.545093
     2  C    0.918916
     3  C    0.281769
     4  C   -0.090550
     5  C    0.011504
     6  N    0.011733
     7  C    0.155004
     8  C    0.287596
     9  C    0.156800
    10  C    0.365570
    11  N   -1.084277
    12  O    0.119693
    24  C    0.359750
    28  O    0.065833
    34  O    0.004795
    37  O   -0.019045
 Electronic spatial extent (au):  <R**2>=           6611.7974
 Charge=              1.0000 electrons
 Dipole moment (field-independent basis, Debye):
    X=             -1.4759    Y=              4.0172    Z=              1.3169  Tot=              4.4778
 Quadrupole moment (field-independent basis, Debye-Ang):
   XX=            -10.1958   YY=            -59.3941   ZZ=            -90.0164
[...]
 00265,0.00002673,0.00000113,0.00000035,-0.00001792,-0.00003850,0.00000
 999,0.00002412,-0.00008340,-0.00001808,-0.00001787,0.00000258,0.000016
 57,-0.00000697,-0.00000863,0.00000545,-0.00000281,0.00000046,0.0000011
 3,-0.00000933,0.00000144,-0.00000059,0.00001821,-0.00000629,-0.0000173
 3,-0.00001737,-0.00002526,-0.00003317,0.00000254,-0.00000364,-0.000003
 17,0.00000299,0.00000105,-0.00000030,-0.00000431,0.00000213,0.00000231
 ,0.00000128,0.00000005,-0.00000174,0.00000529,0.00000203,-0.00000404,0
 .00000200,0.00000323,-0.00000221,0.00000332,-0.00000026,-0.00000472,0.
 00000376,0.00001500,0.00002454,0.00000232,-0.00000665,0.00002330,-0.00
 000082,-0.00000266,0.00000435,0.00000132,0.00000076,0.00000166,-0.0000
 0091,-0.00000376,0.00001396,-0.00010525,0.00012681,0.00011440,-0.00000
 186,0.00001840,0.00000685,-0.00000322,0.00001805,0.00001548,-0.0018235
 7,-0.00162415,-0.00061634,-0.00013718,-0.00030267,-0.00002800,0.003764
 59,0.00198433,0.00266675,0.00000318,-0.00000276,-0.00000257,0.00000063
 ,0.00000276,0.00000309,0.00000027,0.00000317,-0.00000178,0.00180589,-0
 .18068695,0.25105919,-0.00103883,0.16869277,0.00003614,0.00000303,0.00
 000547,0.00001215,-0.00001973,0.00000419,-0.00000486,0.00000196,0.0000
 0393,-0.00000046,-0.00001942,0.00000221,-0.00004570,0.00001596,-0.0000
 0367,-0.00001374,-0.00021755,0.00000014,0.00000432,0.00001506,0.000014
 43,-0.00000781,-0.00000043,0.00001339,-0.00000161,-0.00000334,-0.00000
 545,0.00002671,0.00000749,0.00001468,-0.00003324,-0.00005516,-0.000022
 25,-0.00011681,-0.00014151,-0.00003163,0.00000281,-0.00000005,-0.00000
 229,-0.00000501,-0.00000331,-0.00000060,0.00000196,0.00000416,0.000008
 76,-0.00000320,-0.00000522,-0.00000106,0.00000644,0.00000248,0.0000047
 3,-0.00000606,-0.00000512,-0.00000247,-0.00000395,-0.00000809,-0.00000
 319,0.00001268,0.00003713,0.00002839,-0.00000054,0.00001380,0.00001690
 ,-0.00000256,-0.00000194,0.00000637,-0.00000094,-0.00000097,0.00000367
 ,0.00000669,0.00000862,-0.00000106,-0.00002865,0.00043860,0.00004422,0
 .00002106,0.00009398,0.00001276,0.00003987,0.00003508,0.00001740,-0.00
 118300,-0.00192301,0.00000785,0.00007835,0.00010185,-0.00005608,0.0020
 9562,0.00286444,-0.00027901,0.00000711,0.00000165,-0.00000317,-0.00000
 503,0.00000761,-0.00000141,-0.00000405,-0.00000696,-0.00000209,-0.0421
 7192,0.20570241,-0.40309333,0.03941860,-0.22860951,0.42585360,-0.00011
 166,-0.00008561,0.00001500,-0.00004026,0.00010339,-0.00002988,0.000054
 76,-0.00002256,0.00000775,-0.00004494,0.00000820,-0.00001320,0.0001645
 3,-0.00002299,0.00001470,0.00006726,0.00035296,-0.00005188,-0.00000925
 ,-0.00003044,-0.00001457,-0.00000843,-0.00001451,-0.00000064,-0.000007
 43,-0.00001956,0.00000780,-0.00004663,-0.00002157,-0.00001129,0.000059
 84,0.00013780,-0.00002047,0.00021141,0.00034389,-0.00007375,-0.0000085
 2,-0.00000770,0.00000540,0.00000738,0.00000851,0.00000049,-0.00000914,
 0.00000778,-0.00001049,0.00000423,0.00001131,-0.00000135,0.00000543,-0
 .00000765,-0.00001107,0.00001136,0.00002111,-0.00000546,0.00000684,0.0
 0002265,-0.00000402,-0.00003562,-0.00009010,0.00000116,0.00001683,0.00
 000022,0.00001671,0.00001000,0.00001133,0.00000138,0.00000181,0.000002
 93,0.00000074,-0.00000088,-0.00002826,0.00005451,0.00007276,-0.0008436
 8,0.00013681,-0.00004316,-0.00022873,0.00001231,-0.00008633,-0.0000728
 7,0.00003771,0.00052817,0.00064600,0.00020731,-0.00037025,-0.00031156,
 -0.00005100,-0.00173326,-0.00112804,-0.00079330,-0.00000537,-0.0000088
 3,0.00000663,-0.00000034,-0.00000768,0.00000751,0.00001023,0.00002348,
 -0.00000275,-0.10797144,-0.12497737,-0.14558685,-0.00012511,-0.0014788
 9,0.00190010,0.11530398,-0.00012004,-0.00002181,-0.00000317,-0.0000484
 8,0.00004933,-0.00001700,0.00000998,-0.00000964,-0.00000025,0.00004554
 ,0.00003558,-0.00001015,0.00007729,-0.00010356,0.00003392,0.00007020,0
 .00032420,-0.00004662,-0.00005654,-0.00001775,0.00001956,-0.00000278,-
 0.00001676,-0.00001004,-0.00000483,-0.00000372,0.00001205,-0.00005786,
 -0.00000748,-0.00001706,0.00008868,0.00007078,-0.00002847,0.00018320,0
 .00011869,-0.00010123,0.00000204,-0.00001137,-0.00000143,0.00001112,0.
 00000468,0.00000079,-0.00000943,0.00000328,-0.00000505,0.00000595,0.00
 000653,-0.00000207,0.00000567,-0.00000158,-0.00001738,0.00001312,0.000
 01814,-0.00000421,0.00001574,0.00001234,-0.00000734,-0.00005167,-0.000
 05102,0.00001596,0.00001112,-0.00005008,0.00001184,0.00000525,0.000002
 82,0.00000198,0.00000404,0.00000459,0.00000074,-0.00001280,-0.00002193
 ,0.00005042,-0.00008744,-0.00076846,0.00004982,-0.00002714,-0.00010714
 ,0.00000988,-0.00002709,0.00002454,0.00004109,-0.00015659,0.00053092,0
 .00058325,-0.00045281,-0.00039605,0.00022340,0.00022623,-0.00070717,-0
 .00217634,0.00000368,-0.00000939,0.00000087,0.00000331,-0.00000210,0.0
 0001347,0.00000879,0.00001902,-0.00000259,-0.14023867,-0.19955006,-0.1
 8183583,0.01322339,0.01359276,0.02223670,0.12378876,0.18908719,-0.0002
 0139,-0.00009250,0.00001937,-0.00007548,0.00011840,-0.00003561,0.00005
 161,-0.00001437,0.00000179,-0.00001802,0.00005929,-0.00003646,0.000253
 21,-0.00007058,0.00005431,0.00008623,0.00080632,-0.00009052,-0.0000693
 6,-0.00001002,0.00002466,-0.00000990,-0.00002267,-0.00000438,-0.000009
 13,-0.00001271,0.00001395,-0.00005400,-0.00001217,-0.00001729,0.000087
 10,0.00009300,-0.00005901,0.00028979,0.00014652,-0.00027910,0.00000122
 ,-0.00001439,0.00000103,0.00001108,0.00000588,-0.00000136,-0.00001165,
 0.00000776,-0.00000630,0.00000686,0.00000901,-0.00000435,0.00000940,-0
 .00000510,-0.00002289,0.00001431,0.00002243,-0.00000625,0.00002065,0.0
 0001671,-0.00000998,-0.00011357,-0.00010784,0.00002027,0.00000660,-0.0
 0001869,0.00004922,0.00001305,0.00001891,0.00000472,0.00000104,0.00000
 884,0.00000351,0.00000358,-0.00002681,0.00008868,0.00018537,-0.0016095
 4,0.00018752,-0.00001618,-0.00015263,0.00002080,0.00002601,0.00004572,
 0.00010383,0.00298278,0.00556818,-0.00256804,-0.00039708,0.00023312,0.
 00049073,-0.00448942,-0.00763470,0.00478802,0.00001387,-0.00001204,0.0
 0000034,-0.00000539,0.00000729,0.00001971,0.00000709,0.00002265,-0.000
 01054,-0.12621288,-0.13570960,-0.23081943,-0.01717314,-0.02384066,-0.0
 2309088,0.14149981,0.15890591,0.25312004,0.00009095,0.00007554,-0.0000
 1205,0.00002267,-0.00008663,0.00002613,-0.00004639,0.00002065,-0.00000
 614,0.00004523,0.00000028,0.00000658,-0.00013374,0.00000547,-0.0000064
 2,-0.00004415,-0.00030000,0.00002427,-0.00000451,0.00003144,0.00002046
 ,0.00000497,0.00000822,-0.00000001,0.00000606,0.00001726,-0.00000533,0
 .00003581,0.00002213,0.00000957,-0.00004181,-0.00012267,0.00000349,-0.
 00015962,-0.00029191,0.00000807,0.00000982,0.00000384,-0.00000556,-0.0
 0000512,-0.00000690,-0.00000078,0.00000636,-0.00000642,0.00000996,-0.0
 0000277,-0.00000919,0.00000080,-0.00000175,0.00000743,0.00000669,-0.00
 000834,-0.00001692,0.00000412,-0.00000362,-0.00002024,0.00000221,0.000
 02209,0.00007430,0.00000896,-0.00001801,-0.00000203,-0.00000787,-0.000
 00896,-0.00000914,0.00000130,-0.00000228,-0.00000054,0.00000041,0.0000
 0173,0.00002662,-0.00003273,-0.00009811,0.00065400,-0.00004256,0.00004
 375,0.00020130,-0.00000292,0.00007511,0.00007591,0.00000019,-0.0003790
 3,-0.00110807,0.00014472,0.00020169,0.00014061,0.00000032,0.00071315,0
 .00124284,-0.00032083,0.00001069,0.00000593,-0.00000665,-0.00000138,0.
 00001063,-0.00000302,-0.00000965,-0.00002040,-0.00000076,0.00044641,-0
 .00610756,-0.00631569,-0.00049298,-0.00054658,0.00027601,-0.00874148,0
 .00353446,0.00107047,0.65981240,0.00009864,0.00001091,0.00000837,0.000
 04872,-0.00002675,0.00000703,0.00000516,0.00000741,0.00000200,-0.00005
 268,-0.00004220,0.00000894,-0.00005964,0.00009738,-0.00003474,-0.00005
 047,-0.00031597,0.00003303,0.00005465,0.00002021,-0.00001663,-0.000000
 84,0.00001510,0.00001518,0.00000238,-0.00000447,-0.00001192,0.00006224
 ,0.00000534,0.00002084,-0.00009349,-0.00005879,0.00000776,-0.00019228,
 -0.00007206,0.00003682,-0.00000155,0.00000857,0.00000246,-0.00001219,-
 0.00000440,-0.00000174,0.00000841,0.00000114,0.00000575,-0.00000662,-0
 .00000625,0.00000041,-0.00000056,0.00000099,0.00001648,-0.00001336,-0.
 00001542,0.00000199,-0.00001488,-0.00000987,0.00000549,0.00005453,0.00
 004202,-0.00000017,-0.00000243,0.00004529,0.00000816,-0.00000338,0.000
 00223,0.00000276,-0.00000249,-0.00000338,0.00000202,0.00002093,0.00001
 926,-0.00002911,0.00002666,0.00066064,-0.00000301,0.00003015,0.0000865
 3,0.00000023,0.00002594,-0.00003413,-0.00000066,-0.00076684,-0.0010545
 4,0.00015647,0.00031230,-0.00000648,-0.00006782,0.00099676,0.00125312,
 -0.00035238,0.00000207,0.00000779,-0.00000060,-0.00000867,0.00000646,-
 0.00001023,-0.00000887,-0.00001645,-0.00000163,-0.00651936,-0.00313498
 ,-0.00748709,-0.00062494,-0.00147980,-0.00032475,0.00378907,-0.0030336
 2,-0.00023225,-0.08504735,0.41529174,0.00009861,0.00005019,-0.00001635
 ,0.00003170,-0.00006044,0.00002067,-0.00002731,0.00000591,-0.00000474,
 0.00000486,-0.00002556,0.00002245,-0.00011163,0.00003989,-0.00002970,-
 0.00005068,-0.00035006,0.00005329,0.00003899,-0.00000231,-0.00001942,0
 .00000737,0.00001253,-0.00000193,0.00000612,0.00001108,-0.00000642,0.0
 0001491,0.00000628,0.00000408,-0.00003210,-0.00003934,0.00005253,-0.00
 011902,-0.00008105,0.00019152,-0.00000159,0.00000913,-0.00000156,-0.00
 000332,-0.00000157,0.00000186,0.00000473,-0.00000689,0.00000158,-0.000
 00178,-0.00000290,0.00000315,-0.00000797,0.00000091,0.00001124,-0.0000
 0570,-0.00001155,0.00000431,-0.00001006,-0.00000727,0.00000597,0.00005
 689,0.00005215,-0.00002300,-0.00000048,0.00001232,-0.00004173,-0.00000
 559,-0.00001127,-0.00000916,-0.00000119,-0.00000551,-0.00000520,-0.000
 01103,0.00001135,-0.00006295,-0.00005181,0.00075109,-0.00012136,0.0000
 0062,0.00006900,-0.00002513,-0.00001777,-0.00001203,-0.00008626,-0.000
 92017,-0.00165278,0.00080653,0.00023781,-0.00003263,-0.00027007,0.0015
 3043,0.00231923,-0.00109308,-0.00001517,0.00000756,-0.00000039,0.00000
 893,-0.00001042,-0.00001330,-0.00000204,-0.00001078,0.00000934,-0.0066
 6974,-0.00725309,-0.00432528,0.00028005,-0.00021050,0.00079263,0.00159
 763,-0.00005597,-0.00539264,-0.06287523,0.23133252,0.13538515,0.000000
 86,-0.00002178,0.00000480,0.00000645,0.00002198,-0.00000662,0.00001431
 ,-0.00000752,0.00000325,-0.00002226,-0.00001346,0.00000243,0.00001317,
 0.00002081,-0.00000732,0.00000134,-0.00000527,0.00000445,0.00001971,-0
 .00001413,-0.00001673,-0.00000088,0.00000070,0.00000215,-0.00000206,-0
 .00000827,-0.00000072,-0.00000277,-0.00001171,-0.00000049,-0.00000222,
 0.00004766,0.00000816,0.00000799,0.00013521,0.00004260,-0.00000590,0.0
 0000142,0.00000353,-0.00000030,0.00000224,0.00000037,-0.00000033,0.000
 00226,-0.00000423,-0.00000055,0.00000323,0.00000051,-0.00000080,-0.000
 00306,0.00000187,0.00000055,0.00000458,-0.00000114,-0.00000310,0.00000
 769,0.00000093,0.00001579,-0.00001631,-0.00000919,0.00000407,0.0000067
 2,-0.00000084,0.00000120,0.00000110,-0.00000078,0.00000117,-0.00000162
 ,-0.00000055,0.00000243,-0.00000969,0.00000108,0.00002399,0.00000869,-
 0.00000747,-0.00001967,-0.00007773,-0.00000075,-0.00004196,-0.00006593
 ,-0.00001750,-0.00023579,-0.00011528,0.00013401,0.00004618,-0.00009279
 ,-0.00006532,0.00030851,0.00027191,-0.00018083,-0.00000766,-0.00000055
 ,0.00000380,0.00000008,-0.00000540,-0.00000247,0.00000291,0.00000615,0
 .00000187,-0.00246357,-0.00105929,-0.00181179,0.00006554,-0.00026254,-
 0.00015324,0.00437050,0.00116160,0.00296806,-0.11716970,0.12346909,0.0
 6795358,0.13194927,-0.00001887,-0.00000360,-0.00000466,-0.00001241,0.0
 0000630,-0.00000090,-0.00000194,-0.00000456,-0.00000002,0.00001161,0.0
 0000807,0.00000037,0.00001131,-0.00002081,0.00000484,0.00001079,0.0000
 6030,-0.00000310,-0.00000822,-0.00001119,-0.00000109,0.00000057,-0.000
 00373,-0.00000483,-0.00000036,0.00000159,0.00000309,-0.00002353,-0.000
 00247,-0.00000674,0.00003052,0.00002871,0.00000676,0.00006029,0.000054
 61,0.00003215,-0.00000109,-0.00000195,-0.00000073,0.00000393,0.0000022
 0,0.00000125,-0.00000297,-0.00000093,-0.00000275,0.00000208,0.00000238
 ,0.00000055,-0.00000072,-0.00000068,-0.00000370,0.00000447,0.00000515,
 -0.00000037,0.00000288,0.00000442,-0.00000076,-0.00000694,-0.00001155,
 -0.00000526,0.00000134,-0.00000880,-0.00000723,0.00000041,-0.00000203,
 -0.00000230,0.00000069,0.00000014,-0.00000181,-0.00000929,-0.00000736,
 0.00000173,-0.00000233,-0.00011891,-0.00001218,-0.00001631,-0.00004324
 ,-0.00000363,-0.00003044,-0.00000455,-0.00001964,0.00004967,0.00011657
 ,0.00011204,-0.00007091,-0.00004531,-0.00004985,-0.00001098,-0.0000504
 2,-0.00010310,-0.00000574,-0.00000211,0.00000094,0.00000519,-0.0000059
 5,0.00000075,0.00000373,0.00000622,0.00000255,0.00000332,0.00054502,0.
 00006927,-0.00018793,-0.00007371,-0.00013480,0.00081239,-0.00114143,0.
 00025840,0.17369818,-0.36386681,-0.20211022,-0.16432620,0.36217888,-0.
 00000878,-0.00000625,0.00000416,-0.00000267,0.00000658,-0.00000359,0.0
 0000293,0.00000030,0.00000117,0.00000168,0.00000309,-0.00000461,0.0000
 0681,-0.00000562,0.00000503,0.00000673,0.00003315,-0.00000957,-0.00000
 830,0.00000501,0.00000696,-0.00000143,-0.00000193,0.00000154,-0.000001
 37,-0.00000434,0.00000105,0.00000435,-0.00000011,0.00000211,-0.0000013
 6,-0.00000092,-0.00001937,0.00000150,0.00000911,-0.00006366,0.00000109
 ,-0.00000241,0.00000105,-0.00000083,-0.00000064,-0.00000088,0.00000029
 ,0.00000246,0.00000068,-0.00000053,-0.00000035,-0.00000091,0.00000293,
 0.00000037,-0.00000146,-0.00000014,0.00000154,-0.00000116,0.00000140,0
 .00000012,-0.00000131,-0.00000665,-0.00000499,0.00000890,-0.00000189,-
 0.00000245,0.00000967,-0.00000003,0.00000189,0.00000362,0.00000034,0.0
 0000142,0.00000218,0.00000475,0.00000073,0.00001870,-0.00000262,-0.000
 07551,0.00002310,0.00000403,-0.00000171,0.00001035,0.00000910,-0.00000
 356,0.00003864,0.00006386,0.00012452,-0.00010067,-0.00002002,-0.000017
 76,0.00006360,-0.00013411,-0.00016926,0.00005496,0.00000719,-0.0000017
 8,-0.00000004,-0.00000458,0.00000516,0.00000343,-0.00000060,0.00000078
 ,-0.00000378,-0.00120266,0.00004499,-0.00063825,0.00004592,-0.00043748
 ,-0.00023779,0.00238472,-0.00047024,0.00042269,0.09454525,-0.19901763,
 -0.11152462,-0.09130154,0.20001640,0.11162310,-0.00002823,-0.00002069,
 0.00000206,-0.00000534,0.00002652,-0.00000758,0.00001357,-0.00000703,0
 .00000153,-0.00001192,-0.00000237,-0.00000001,0.00003772,-0.00000283,0
 .00000155,0.00001252,0.00007967,-0.00000445,0.00000292,-0.00001076,-0.
 00000733,-0.00000155,-0.00000255,-0.00000031,-0.00000163,-0.00000495,0
 .00000136,-0.00001070,-0.00000690,-0.00000244,0.00001195,0.00003662,0.
 00000199,0.00004268,0.00007924,0.00000555,-0.00000290,-0.00000062,0.00
 000171,0.00000154,0.00000183,0.00000038,-0.00000162,0.00000182,-0.0000
 0282,0.00000116,0.00000318,0.,0.00000031,-0.00000243,-0.00000157,0.000
 00233,0.00000491,-0.00000129,0.00000102,0.00000626,-0.00000075,-0.0000
 0473,-0.00002098,-0.00000358,0.00000854,-0.00000334,-0.00000130,0.0000
 0332,0.00000242,-0.00000133,0.00000122,-0.00000029,-0.00000073,-0.0000
 0229,-0.00000836,0.00000647,0.00001892,-0.00017772,0.00000282,-0.00001
 348,-0.00005735,-0.00000126,-0.00001878,-0.00001999,-0.00000369,0.0000
 9637,0.00026500,0.00000297,-0.00005155,-0.00003470,-0.00000314,-0.0001
 6127,-0.00026006,0.00002397,-0.00000438,-0.00000125,0.00000189,0.00000
 116,-0.00000445,0.00000013,0.00000335,0.00000611,0.00000099,0.00063573
 ,0.00091984,0.00061766,-0.00006031,-0.00015636,-0.00015422,-0.00150780
 ,-0.00114497,-0.00075261,-0.53417547,-0.03552482,-0.00093182,-0.016876
 49,-0.00997620,-0.00439477,0.55204410,0.00000209,0.00002371,-0.0000084
 8,-0.00000924,-0.00002197,0.00000759,-0.00002152,0.00000261,-0.0000037
 0,0.00004273,0.00001509,0.00000225,-0.00004180,-0.00003813,0.00000837,
 0.00000319,-0.00000937,-0.00000088,-0.00001991,-0.00000277,0.00001071,
 0.00000284,-0.00000333,-0.00000718,0.00000042,0.00000599,0.00000324,-0
 .00001477,0.00000168,-0.00000627,0.00002578,-0.00000671,0.00000218,0.0
 0001474,-0.00003819,0.00000721,0.00000247,-0.00000176,-0.00000185,0.00
 000358,-0.00000012,0.00000070,-0.00000095,-0.00000245,-0.00000024,0.00
 000166,0.00000054,0.00000066,-0.00000093,0.00000163,-0.00000397,0.0000
 0279,0.00000202,0.00000036,0.00000405,-0.00000108,-0.00000130,-0.00000
 543,0.00000936,-0.00000011,-0.00000800,-0.00002280,-0.00000963,-0.0000
 0297,-0.00000645,-0.00000136,0.00000124,0.00000065,-0.00000137,-0.0000
 0884,-0.00000182,-0.00000108,-0.00005900,0.00003912,-0.00002271,-0.000
 00451,0.00001779,-0.00000207,0.00000235,0.00001662,-0.00000627,0.00004
 329,-0.00017244,0.00006957,-0.00001336,0.00001970,-0.00000042,0.000038
 49,0.00025440,-0.00008918,0.00000023,-0.00000136,-0.00000112,0.0000037
 5,-0.00000060,0.00000223,0.00000107,0.00000144,0.00000141,-0.00004528,
 -0.00118504,-0.00156086,-0.00006666,-0.00010925,-0.00011114,-0.0006831
 8,0.00212671,0.00324492,-0.08615445,-0.04439575,-0.02273701,0.04094548
 ,0.00241154,-0.00003267,0.04601856,0.04107080,-0.00000586,-0.00000343,
 0.00000496,0.00000006,0.00000463,-0.00000234,0.00000306,0.00000052,0.0
 0000154,0.00000061,-0.00000052,-0.00000483,0.00000211,-0.00000210,0.00
 000291,0.00000470,0.00000880,-0.00000946,-0.00000406,0.00000447,0.0000
 0526,-0.00000175,-0.00000119,0.00000239,-0.00000103,-0.00000215,-0.000
 00049,0.00000580,-0.00000072,0.00000211,-0.00000509,-0.00000311,-0.000
 01483,-0.00000503,-0.00000026,-0.00003383,0.00000063,-0.00000125,0.000
 00030,-0.00000105,-0.00000064,-0.00000053,0.00000032,0.00000165,0.0000
 0098,-0.00000096,-0.00000092,-0.00000039,0.00000233,0.00000118,-0.0000
 0028,-0.00000057,0.00000060,-0.00000070,0.00000050,-0.00000025,-0.0000
 0087,-0.00000299,-0.00000083,0.00000641,-0.00000254,-0.00000062,0.0000
 1709,-0.00000009,0.00000209,0.00000494,0.00000036,0.00000102,0.0000023
 4,0.00000599,0.,0.00001230,-0.00000680,-0.00002416,0.00002947,0.000004
 10,0.00000277,0.00000783,0.00000612,-0.00000090,0.00001652,0.00001562,
 0.00004725,-0.00007693,-0.00000375,-0.00000520,0.00003296,-0.00003181,
 -0.00008483,0.00002777,0.00000451,-0.00000112,-0.00000012,-0.00000362,
 0.00000370,0.00000250,-0.00000075,0.00000045,-0.00000237,0.00022329,-0
 .00153574,-0.00201611,-0.00049881,-0.00014567,-0.00001830,-0.00123419,
 0.00260079,0.00301982,-0.02652541,-0.02408235,-0.01429200,0.02245209,0
 .00196857,0.00030499,0.00560396,0.02124947,0.01296898\\0.00000034,0.00
 000199,-0.00000023,0.00000017,-0.00000422,0.00000138,-0.00000259,0.000
 00169,0.00000077,0.00000087,0.00000151,0.00000149,0.00000256,-0.000002
 82,0.00000310,0.00000152,0.00001111,-0.00000018,0.00000013,-0.00000046
 ,-0.00000016,0.00000085,-0.00000015,-0.00000059,0.00000025,-0.00000096
 ,-0.00000077,-0.00000040,0.00000057,-0.00000154,-0.00000098,-0.0000020
 8,-0.00000115,0.00000341,-0.00000011,-0.00000389,-0.00000057,0.0000004
 2,-0.00000177,0.00000072,0.,-0.00000186,0.00000092,-0.00000024,-0.0000
 0154,0.00000057,-0.00000059,0.00000019,0.00000095,-0.00000083,-0.00000
 029,-0.00000039,0.00000032,-0.00000119,-0.00000036,-0.00000009,0.00000
 060,0.00000145,0.00000145,-0.00000017,-0.00000052,0.00000050,0.0000022
 5,-0.00000088,-0.00000009,0.00000274,-0.00000024,-0.00000008,0.0000017
 4,-0.00000109,0.00000132,0.00000018,-0.00000113,-0.00001952,0.00000266
 ,-0.00000070,0.00000547,0.00000049,-0.00000463,-0.00000134,-0.00000197
 ,-0.00000907,-0.00000851,-0.00000219,0.00000285,0.00000342,0.00000667,
 0.00000786,0.00001194,-0.00000419,-0.00000070,0.00000152,-0.00000115,-
 0.00000131,0.00000037,-0.00000002,-0.00000150,0.00000107,-0.00000031,-
 0.00000243,-0.00000555,0.00000365,0.00000357,0.00000138,0.00000218,-0.
 00000185,0.00000049,-0.00000537,0.00000513,0.00000289,-0.00000070,0.00
 000199,-0.00000358,-0.00000185,-0.00000478,0.00000182,0.00000298\\\@


 A MAN THINKING OR WORKING IS ALWAYS ALONE, 
 LET HIM BE WHERE HE WILL.

                                    -- THOREAU
 Job cpu time:       1 days  3 hours 15 minutes 22.8 seconds.
 Elapsed time:       0 days  0 hours 58 minutes 27.9 seconds.
 File lengths (MBytes):  RWF=   1240 Int=      0 D2E=      0 Chk=     32 Scr=      8
 Normal termination of Gaussian 16 at Mon Nov  7 22:11:07 2022.
