 Entering Gaussian System, Link 0=g16
 Input=NicPyrNa4h3bRPy.gjf
 Output=NicPyrNa4h3bRPy.log
 Initial command:
 /sw/contrib/gaussian/g16/A03/g16/l1.exe "/gscratch/scrubbed/gds001/Gau-22575.inp" -scrdir="/gscratch/scrubbed/gds001/"
 Entering Link 1 = /sw/contrib/gaussian/g16/A03/g16/l1.exe PID=     22576.
  
 Copyright (c) 1988,1990,1992,1993,1995,1998,2003,2009,2016,
            Gaussian, Inc.  All Rights Reserved.
  
 This is part of the Gaussian(R) 16 program.  It is based on
 the Gaussian(R) 09 system (copyright 2009, Gaussian, Inc.),
 the Gaussian(R) 03 system (copyright 2003, Gaussian, Inc.),
 the Gaussian(R) 98 system (copyright 1998, Gaussian, Inc.),
 the Gaussian(R) 94 system (copyright 1995, Gaussian, Inc.),
 the Gaussian 92(TM) system (copyright 1992, Gaussian, Inc.),
 the Gaussian 90(TM) system (copyright 1990, Gaussian, Inc.),
 the Gaussian 88(TM) system (copyright 1988, Gaussian, Inc.),
 the Gaussian 86(TM) system (copyright 1986, Carnegie Mellon
 University), and the Gaussian 82(TM) system (copyright 1983,
 Carnegie Mellon University). Gaussian is a federally registered
 trademark of Gaussian, Inc.
  
 This software contains proprietary and confidential information,
 including trade secrets, belonging to Gaussian, Inc.
  
 This software is provided under written license and may be
 used, copied, transmitted, or stored only in accord with that
 written license.
  
 The following legend is applicable only to US Government
 contracts under FAR:
  
                    RESTRICTED RIGHTS LEGEND
  
 Use, reproduction and disclosure by the US Government is
 subject to restrictions as set forth in subparagraphs (a)
 and (c) of the Commercial Computer Software - Restricted
 Rights clause in FAR 52.227-19.
  
 Gaussian, Inc.
 340 Quinnipiac St., Bldg. 40, Wallingford CT 06492
  
  
 ---------------------------------------------------------------
 Warning -- This program may not be used in any manner that
 competes with the business of Gaussian, Inc. or will provide
 assistance to any competitor of Gaussian, Inc.  The licensee
 of this program is prohibited from giving any competitor of
 Gaussian, Inc. access to this program.  By using this program,
 the user acknowledges that Gaussian, Inc. is engaged in the
 business of creating and licensing software in the field of
 computational chemistry and represents and warrants to the
 licensee that it is not a competitor of Gaussian, Inc. and that
 it will not use this program in any manner prohibited above.
 ---------------------------------------------------------------
  

 Cite this work as:
 Gaussian 16, Revision A.03,
 M. J. Frisch, G. W. Trucks, H. B. Schlegel, G. E. Scuseria, 
 M. A. Robb, J. R. Cheeseman, G. Scalmani, V. Barone, 
 G. A. Petersson, H. Nakatsuji, X. Li, M. Caricato, A. V. Marenich, 
 J. Bloino, B. G. Janesko, R. Gomperts, B. Mennucci, H. P. Hratchian, 
 J. V. Ortiz, A. F. Izmaylov, J. L. Sonnenberg, D. Williams-Young, 
 F. Ding, F. Lipparini, F. Egidi, J. Goings, B. Peng, A. Petrone, 
 T. Henderson, D. Ranasinghe, V. G. Zakrzewski, J. Gao, N. Rega, 
 G. Zheng, W. Liang, M. Hada, M. Ehara, K. Toyota, R. Fukuda, 
 J. Hasegawa, M. Ishida, T. Nakajima, Y. Honda, O. Kitao, H. Nakai, 
 T. Vreven, K. Throssell, J. A. Montgomery, Jr., J. E. Peralta, 
 F. Ogliaro, M. J. Bearpark, J. J. Heyd, E. N. Brothers, K. N. Kudin, 
 V. N. Staroverov, T. A. Keith, R. Kobayashi, J. Normand, 
 K. Raghavachari, A. P. Rendell, J. C. Burant, S. S. Iyengar, 
 J. Tomasi, M. Cossi, J. M. Millam, M. Klene, C. Adamo, R. Cammi, 
 J. W. Ochterski, R. L. Martin, K. Morokuma, O. Farkas, 
 J. B. Foresman, and D. J. Fox, Gaussian, Inc., Wallingford CT, 2016.
 
 ******************************************
 Gaussian 16:  ES64L-G16RevA.03 25-Dec-2016
                 1-Feb-2023 
 ******************************************
 %nprocshared=28
 Will use up to   28 processors via shared memory.
 %mem=41GB
 -----------------------------
 # wB97XD/aug-cc-pVDZ opt freq
 -----------------------------
 1/18=20,19=15,26=3,38=1/1,3;
 2/9=110,12=2,17=6,18=5,40=1/2;
 3/5=16,7=10,11=2,25=1,30=1,71=1,74=-58/1,2,3;
 4//1;
 5/5=2,38=5/2;
 6/7=2,8=2,9=2,10=2,28=1/1;
 7//1,2,3,16;
 1/18=20,19=15,26=3/3(2);
 2/9=110/2;
 99//99;
 2/9=110/2;
 3/5=16,7=10,11=2,25=1,30=1,71=1,74=-58/1,2,3;
 4/5=5,16=3,69=1/1;
 5/5=2,38=5/2;
 7//1,2,3,16;
 1/18=20,19=15,26=3/3(-5);
 2/9=110/2;
 6/7=2,8=2,9=2,10=2,19=2,28=1/1;
 99/9=1/99;
 ----
 blah
 ----
 Symbolic Z-matrix:
 Charge =  1 Multiplicity = 1
 C                     1.01624  -0.4455   -0.52611 
 C                     0.03573  -1.32987  -0.07067 
 C                     0.45877  -2.55561   0.44638 
 C                     1.81723  -2.84916   0.48057 
 C                     2.71332  -1.89369   0.00902 
 N                     2.32228  -0.71357  -0.48106 
 C                    -1.43027  -0.99351  -0.14022 
 C                    -2.0183   -0.68504  -1.51933 
 C                    -3.31148   0.11146  -1.22734 
 C                    -3.22536   0.49859   0.25985 
 N                    -1.80007   0.24595   0.63546 
 O                    -0.62766   2.48515  -0.29769 
 H                    -3.84895  -0.14241   0.89376 
 H                    -4.20819  -0.48918  -1.40773 
 H                    -3.3779    0.99931  -1.86335 
 H                    -1.30643  -0.08315  -2.09625 
 H                    -2.19848  -1.60874  -2.07667 
 H                    -3.46119   1.5453    0.47357 
 H                    -2.00247  -1.80418   0.3334 
 H                     0.74657   0.53018  -0.93559 
 H                     3.78772  -2.07783   0.02741 
 H                     2.18017  -3.79784   0.87081 
 H                    -0.26815  -3.28046   0.81578 
 C                    -1.54595   0.17979   2.08936 
 H                    -1.26584   1.0647    0.25131 
 H                     0.24228   2.75962   0.09558 
 H                    -0.95825   3.22251  -0.81383 
 H                     3.35251   0.79683  -0.72316 
 O                     3.64257   1.72955  -0.63663 
 H                     4.0687    1.97854  -1.4592 
 O                     1.70512   2.88144   0.78582 
 H                     2.47426   2.56408   0.25781 
 H                     2.02056   3.59962   1.33777 
 H                    -1.87679   1.11709   2.54609 
 H                    -0.47293   0.04812   2.25626 
 H                    -2.1024   -0.66264   2.51435 
 O                     4.85683   2.44473  -3.00335 
 H                     5.8116    2.63369  -2.97024 
 H                     4.6319    2.6749   -3.92151 
 
 Add virtual bond connecting atoms O31        and H26        Dist= 3.07D+00.
 Add virtual bond connecting atoms H25        and O12        Dist= 3.12D+00.
 Add virtual bond connecting atoms N6         and H28        Dist= 3.49D+00.
 Add virtual bond connecting atoms H32        and O29        Dist= 3.20D+00.
 Add virtual bond connecting atoms O37        and H30        Dist= 3.39D+00.

 GradGradGradGradGradGradGradGradGradGradGradGradGradGradGradGradGradGrad
 Berny optimization.
 Initialization pass.
                           ----------------------------
                           !    Initial Parameters    !
                           ! (Angstroms and Degrees)  !
 --------------------------                            --------------------------
 ! Name  Definition              Value          Derivative Info.                !
 --------------------------------------------------------------------------------
 ! R1    R(1,2)                  1.3968         estimate D2E/DX2                !
 ! R2    R(1,6)                  1.334          estimate D2E/DX2                !
 ! R3    R(1,20)                 1.092          estimate D2E/DX2                !
 ! R4    R(2,3)                  1.396          estimate D2E/DX2                !
 ! R5    R(2,7)                  1.5057         estimate D2E/DX2                !
 ! R6    R(3,4)                  1.3902         estimate D2E/DX2                !
 ! R7    R(3,23)                 1.091          estimate D2E/DX2                !
 ! R8    R(4,5)                  1.3922         estimate D2E/DX2                !
 ! R9    R(4,22)                 1.0881         estimate D2E/DX2                !
 ! R10   R(5,6)                  1.3363         estimate D2E/DX2                !
 ! R11   R(5,21)                 1.0902         estimate D2E/DX2                !
 ! R12   R(6,28)                 1.8443         estimate D2E/DX2                !
 ! R13   R(7,8)                  1.5306         estimate D2E/DX2                !
 ! R14   R(7,11)                 1.5082         estimate D2E/DX2                !
 ! R15   R(7,19)                 1.0995         estimate D2E/DX2                !
 ! R16   R(8,9)                  1.5466         estimate D2E/DX2                !
 ! R17   R(8,16)                 1.0963         estimate D2E/DX2                !
 ! R18   R(8,17)                 1.0938         estimate D2E/DX2                !
 ! R19   R(9,10)                 1.5392         estimate D2E/DX2                !
 ! R20   R(9,14)                 1.0943         estimate D2E/DX2                !
 ! R21   R(9,15)                 1.0942         estimate D2E/DX2                !
 ! R22   R(10,11)                1.4954         estimate D2E/DX2                !
 ! R23   R(10,13)                1.0962         estimate D2E/DX2                !
 ! R24   R(10,18)                1.094          estimate D2E/DX2                !
 ! R25   R(11,24)                1.4774         estimate D2E/DX2                !
 ! R26   R(11,25)                1.0504         estimate D2E/DX2                !
 ! R27   R(12,25)                1.6512         estimate D2E/DX2                !
 ! R28   R(12,26)                0.9934         estimate D2E/DX2                !
 ! R29   R(12,27)                0.9588         estimate D2E/DX2                !
 ! R30   R(24,34)                1.0939         estimate D2E/DX2                !
 ! R31   R(24,35)                1.0939         estimate D2E/DX2                !
 ! R32   R(24,36)                1.0954         estimate D2E/DX2                !
 ! R33   R(26,31)                1.6221         estimate D2E/DX2                !
 ! R34   R(28,29)                0.9806         estimate D2E/DX2                !
 ! R35   R(29,30)                0.9593         estimate D2E/DX2                !
 ! R36   R(29,32)                1.6916         estimate D2E/DX2                !
 ! R37   R(30,37)                1.7952         estimate D2E/DX2                !
 ! R38   R(31,32)                0.9854         estimate D2E/DX2                !
 ! R39   R(31,33)                0.9591         estimate D2E/DX2                !
 ! R40   R(37,38)                0.9739         estimate D2E/DX2                !
 ! R41   R(37,39)                0.9729         estimate D2E/DX2                !
 ! A1    A(2,1,6)              123.2997         estimate D2E/DX2                !
 ! A2    A(2,1,20)             120.9745         estimate D2E/DX2                !
 ! A3    A(6,1,20)             115.7212         estimate D2E/DX2                !
 ! A4    A(1,2,3)              117.6444         estimate D2E/DX2                !
 ! A5    A(1,2,7)              121.8015         estimate D2E/DX2                !
 ! A6    A(3,2,7)              120.5515         estimate D2E/DX2                !
 ! A7    A(2,3,4)              119.3824         estimate D2E/DX2                !
 ! A8    A(2,3,23)             120.4554         estimate D2E/DX2                !
 ! A9    A(4,3,23)             120.1614         estimate D2E/DX2                !
 ! A10   A(3,4,5)              118.4038         estimate D2E/DX2                !
 ! A11   A(3,4,22)             121.2547         estimate D2E/DX2                !
 ! A12   A(5,4,22)             120.3403         estimate D2E/DX2                !
 ! A13   A(4,5,6)              122.816          estimate D2E/DX2                !
 ! A14   A(4,5,21)             120.8418         estimate D2E/DX2                !
 ! A15   A(6,5,21)             116.3418         estimate D2E/DX2                !
 ! A16   A(1,6,5)              118.4458         estimate D2E/DX2                !
 ! A17   A(1,6,28)             112.2029         estimate D2E/DX2                !
 ! A18   A(5,6,28)             127.4393         estimate D2E/DX2                !
 ! A19   A(2,7,8)              117.4311         estimate D2E/DX2                !
 ! A20   A(2,7,11)             113.4878         estimate D2E/DX2                !
 ! A21   A(2,7,19)             108.7895         estimate D2E/DX2                !
 ! A22   A(8,7,11)             101.7459         estimate D2E/DX2                !
 ! A23   A(8,7,19)             109.68           estimate D2E/DX2                !
 ! A24   A(11,7,19)            104.8795         estimate D2E/DX2                !
 ! A25   A(7,8,9)              104.7682         estimate D2E/DX2                !
 ! A26   A(7,8,16)             109.5926         estimate D2E/DX2                !
 ! A27   A(7,8,17)             110.622          estimate D2E/DX2                !
 ! A28   A(9,8,16)             111.0724         estimate D2E/DX2                !
 ! A29   A(9,8,17)             113.1659         estimate D2E/DX2                !
 ! A30   A(16,8,17)            107.6059         estimate D2E/DX2                !
 ! A31   A(8,9,10)             105.3769         estimate D2E/DX2                !
 ! A32   A(8,9,14)             111.8012         estimate D2E/DX2                !
 ! A33   A(8,9,15)             111.033          estimate D2E/DX2                !
 ! A34   A(10,9,14)            110.0719         estimate D2E/DX2                !
 ! A35   A(10,9,15)            111.1583         estimate D2E/DX2                !
 ! A36   A(14,9,15)            107.4476         estimate D2E/DX2                !
 ! A37   A(9,10,11)            104.6863         estimate D2E/DX2                !
 ! A38   A(9,10,13)            112.3246         estimate D2E/DX2                !
 ! A39   A(9,10,18)            114.6666         estimate D2E/DX2                !
 ! A40   A(11,10,13)           107.3465         estimate D2E/DX2                !
 ! A41   A(11,10,18)           108.543          estimate D2E/DX2                !
 ! A42   A(13,10,18)           108.8975         estimate D2E/DX2                !
 ! A43   A(7,11,10)            104.0841         estimate D2E/DX2                !
 ! A44   A(7,11,24)            115.2861         estimate D2E/DX2                !
 ! A45   A(7,11,25)            109.134          estimate D2E/DX2                !
 ! A46   A(10,11,24)           114.7507         estimate D2E/DX2                !
 ! A47   A(10,11,25)           105.1413         estimate D2E/DX2                !
 ! A48   A(24,11,25)           107.8981         estimate D2E/DX2                !
 ! A49   A(25,12,26)           116.3936         estimate D2E/DX2                !
 ! A50   A(25,12,27)           135.0137         estimate D2E/DX2                !
 ! A51   A(26,12,27)           107.6118         estimate D2E/DX2                !
 ! A52   A(11,24,34)           108.6925         estimate D2E/DX2                !
 ! A53   A(11,24,35)           108.9213         estimate D2E/DX2                !
 ! A54   A(11,24,36)           109.1996         estimate D2E/DX2                !
 ! A55   A(34,24,35)           109.6401         estimate D2E/DX2                !
 ! A56   A(34,24,36)           110.0797         estimate D2E/DX2                !
 ! A57   A(35,24,36)           110.2753         estimate D2E/DX2                !
 ! A58   A(6,28,29)            158.8495         estimate D2E/DX2                !
 ! A59   A(28,29,30)           107.6153         estimate D2E/DX2                !
 ! A60   A(28,29,32)           108.1561         estimate D2E/DX2                !
 ! A61   A(30,29,32)           129.21           estimate D2E/DX2                !
 ! A62   A(26,31,32)           116.8524         estimate D2E/DX2                !
 ! A63   A(26,31,33)           126.7057         estimate D2E/DX2                !
 ! A64   A(32,31,33)           107.0254         estimate D2E/DX2                !
 ! A65   A(30,37,38)           116.8435         estimate D2E/DX2                !
 ! A66   A(30,37,39)           140.5027         estimate D2E/DX2                !
 ! A67   A(38,37,39)           102.2889         estimate D2E/DX2                !
 ! A68   L(11,25,12,1,-1)      188.5998         estimate D2E/DX2                !
 ! A69   L(12,26,31,1,-1)      168.9322         estimate D2E/DX2                !
 ! A70   L(29,30,37,16,-1)     179.6814         estimate D2E/DX2                !
 ! A71   L(29,32,31,1,-1)      169.1391         estimate D2E/DX2                !
 ! A72   L(11,25,12,1,-2)      179.5682         estimate D2E/DX2                !
 ! A73   L(12,26,31,1,-2)      184.0097         estimate D2E/DX2                !
 ! A74   L(29,30,37,16,-2)     179.8888         estimate D2E/DX2                !
 ! A75   L(29,32,31,1,-2)      177.6389         estimate D2E/DX2                !
 ! D1    D(6,1,2,3)             -0.4559         estimate D2E/DX2                !
 ! D2    D(6,1,2,7)           -179.8776         estimate D2E/DX2                !
 ! D3    D(20,1,2,3)          -179.6434         estimate D2E/DX2                !
 ! D4    D(20,1,2,7)             0.935          estimate D2E/DX2                !
 ! D5    D(2,1,6,5)              0.8468         estimate D2E/DX2                !
 ! D6    D(2,1,6,28)          -164.5907         estimate D2E/DX2                !
 ! D7    D(20,1,6,5)          -179.9265         estimate D2E/DX2                !
 ! D8    D(20,1,6,28)           14.636          estimate D2E/DX2                !
 ! D9    D(1,2,3,4)             -0.3922         estimate D2E/DX2                !
 ! D10   D(1,2,3,23)           179.9427         estimate D2E/DX2                !
 ! D11   D(7,2,3,4)            179.037          estimate D2E/DX2                !
 ! D12   D(7,2,3,23)            -0.6281         estimate D2E/DX2                !
 ! D13   D(1,2,7,8)             58.4701         estimate D2E/DX2                !
 ! D14   D(1,2,7,11)           -59.9305         estimate D2E/DX2                !
 ! D15   D(1,2,7,19)          -176.2639         estimate D2E/DX2                !
 ! D16   D(3,2,7,8)           -120.935          estimate D2E/DX2                !
 ! D17   D(3,2,7,11)           120.6644         estimate D2E/DX2                !
 ! D18   D(3,2,7,19)             4.331          estimate D2E/DX2                !
 ! D19   D(2,3,4,5)              0.8063         estimate D2E/DX2                !
 ! D20   D(2,3,4,22)          -179.5845         estimate D2E/DX2                !
 ! D21   D(23,3,4,5)          -179.5276         estimate D2E/DX2                !
 ! D22   D(23,3,4,22)            0.0816         estimate D2E/DX2                !
 ! D23   D(3,4,5,6)             -0.4279         estimate D2E/DX2                !
 ! D24   D(3,4,5,21)           179.3267         estimate D2E/DX2                !
 ! D25   D(22,4,5,6)           179.9592         estimate D2E/DX2                !
 ! D26   D(22,4,5,21)           -0.2863         estimate D2E/DX2                !
 ! D27   D(4,5,6,1)             -0.3913         estimate D2E/DX2                !
 ! D28   D(4,5,6,28)           162.5596         estimate D2E/DX2                !
 ! D29   D(21,5,6,1)           179.8438         estimate D2E/DX2                !
 ! D30   D(21,5,6,28)          -17.2053         estimate D2E/DX2                !
 ! D31   D(1,6,28,29)           41.295          estimate D2E/DX2                !
 ! D32   D(5,6,28,29)         -122.5379         estimate D2E/DX2                !
 ! D33   D(2,7,8,9)           -159.3283         estimate D2E/DX2                !
 ! D34   D(2,7,8,16)           -40.0853         estimate D2E/DX2                !
 ! D35   D(2,7,8,17)            78.403          estimate D2E/DX2                !
 ! D36   D(11,7,8,9)           -34.8171         estimate D2E/DX2                !
 ! D37   D(11,7,8,16)           84.4259         estimate D2E/DX2                !
 ! D38   D(11,7,8,17)         -157.0858         estimate D2E/DX2                !
 ! D39   D(19,7,8,9)            75.8487         estimate D2E/DX2                !
 ! D40   D(19,7,8,16)         -164.9084         estimate D2E/DX2                !
 ! D41   D(19,7,8,17)          -46.42           estimate D2E/DX2                !
 ! D42   D(2,7,11,10)          171.7242         estimate D2E/DX2                !
 ! D43   D(2,7,11,24)          -61.6986         estimate D2E/DX2                !
 ! D44   D(2,7,11,25)           59.8798         estimate D2E/DX2                !
 ! D45   D(8,7,11,10)           44.6105         estimate D2E/DX2                !
 ! D46   D(8,7,11,24)          171.1877         estimate D2E/DX2                !
 ! D47   D(8,7,11,25)          -67.2339         estimate D2E/DX2                !
 ! D48   D(19,7,11,10)         -69.6665         estimate D2E/DX2                !
 ! D49   D(19,7,11,24)          56.9107         estimate D2E/DX2                !
 ! D50   D(19,7,11,25)         178.4891         estimate D2E/DX2                !
 ! D51   D(7,8,9,10)            12.8575         estimate D2E/DX2                !
 ! D52   D(7,8,9,14)          -106.7044         estimate D2E/DX2                !
 ! D53   D(7,8,9,15)           133.3095         estimate D2E/DX2                !
 ! D54   D(16,8,9,10)         -105.3856         estimate D2E/DX2                !
 ! D55   D(16,8,9,14)          135.0525         estimate D2E/DX2                !
 ! D56   D(16,8,9,15)           15.0664         estimate D2E/DX2                !
 ! D57   D(17,8,9,10)          133.4532         estimate D2E/DX2                !
 ! D58   D(17,8,9,14)           13.8914         estimate D2E/DX2                !
 ! D59   D(17,8,9,15)         -106.0947         estimate D2E/DX2                !
 ! D60   D(8,9,10,11)           14.3188         estimate D2E/DX2                !
 ! D61   D(8,9,10,13)         -101.8372         estimate D2E/DX2                !
 ! D62   D(8,9,10,18)          133.1434         estimate D2E/DX2                !
 ! D63   D(14,9,10,11)         135.0206         estimate D2E/DX2                !
 ! D64   D(14,9,10,13)          18.8646         estimate D2E/DX2                !
 ! D65   D(14,9,10,18)        -106.1548         estimate D2E/DX2                !
 ! D66   D(15,9,10,11)        -106.0509         estimate D2E/DX2                !
 ! D67   D(15,9,10,13)         137.7931         estimate D2E/DX2                !
 ! D68   D(15,9,10,18)          12.7738         estimate D2E/DX2                !
 ! D69   D(9,10,11,7)          -36.7663         estimate D2E/DX2                !
 ! D70   D(9,10,11,24)        -163.6782         estimate D2E/DX2                !
 ! D71   D(9,10,11,25)          77.9408         estimate D2E/DX2                !
 ! D72   D(13,10,11,7)          82.7887         estimate D2E/DX2                !
 ! D73   D(13,10,11,24)        -44.1232         estimate D2E/DX2                !
 ! D74   D(13,10,11,25)       -162.5043         estimate D2E/DX2                !
 ! D75   D(18,10,11,7)        -159.6523         estimate D2E/DX2                !
 ! D76   D(18,10,11,24)         73.4357         estimate D2E/DX2                !
 ! D77   D(18,10,11,25)        -44.9453         estimate D2E/DX2                !
 ! D78   D(7,11,12,26)         -91.9425         estimate D2E/DX2                !
 ! D79   D(7,11,12,27)         104.6174         estimate D2E/DX2                !
 ! D80   D(10,11,12,26)        157.3962         estimate D2E/DX2                !
 ! D81   D(10,11,12,27)         -6.0439         estimate D2E/DX2                !
 ! D82   D(24,11,12,26)         36.8688         estimate D2E/DX2                !
 ! D83   D(24,11,12,27)       -126.5713         estimate D2E/DX2                !
 ! D84   D(7,11,24,34)        -178.4308         estimate D2E/DX2                !
 ! D85   D(7,11,24,35)          62.158          estimate D2E/DX2                !
 ! D86   D(7,11,24,36)         -58.3242         estimate D2E/DX2                !
 ! D87   D(10,11,24,34)        -57.4906         estimate D2E/DX2                !
 ! D88   D(10,11,24,35)       -176.9018         estimate D2E/DX2                !
 ! D89   D(10,11,24,36)         62.6159         estimate D2E/DX2                !
 ! D90   D(25,11,24,34)         59.3261         estimate D2E/DX2                !
 ! D91   D(25,11,24,35)        -60.0851         estimate D2E/DX2                !
 ! D92   D(25,11,24,36)        179.4327         estimate D2E/DX2                !
 ! D93   D(25,12,31,32)         93.8993         estimate D2E/DX2                !
 ! D94   D(25,12,31,33)       -120.185          estimate D2E/DX2                !
 ! D95   D(27,12,31,32)        -93.5201         estimate D2E/DX2                !
 ! D96   D(27,12,31,33)         52.3956         estimate D2E/DX2                !
 ! D97   D(6,28,29,30)        -147.8133         estimate D2E/DX2                !
 ! D98   D(6,28,29,32)          -4.4782         estimate D2E/DX2                !
 ! D99   D(28,29,31,26)        -57.9981         estimate D2E/DX2                !
 ! D100  D(28,29,31,33)        149.0032         estimate D2E/DX2                !
 ! D101  D(30,29,31,26)         72.1421         estimate D2E/DX2                !
 ! D102  D(30,29,31,33)        -80.8567         estimate D2E/DX2                !
 ! D103  D(28,29,37,38)       -113.6457         estimate D2E/DX2                !
 ! D104  D(28,29,37,39)         74.8444         estimate D2E/DX2                !
 ! D105  D(32,29,37,38)        113.6528         estimate D2E/DX2                !
 ! D106  D(32,29,37,39)        -57.857          estimate D2E/DX2                !
 --------------------------------------------------------------------------------
 Trust Radius=3.00D-01 FncErr=1.00D-07 GrdErr=1.00D-06 EigMax=2.50D+02 EigMin=1.00D-04
 Number of steps in this run=    232 maximum allowed number of steps=    234.
 GradGradGradGradGradGradGradGradGradGradGradGradGradGradGradGradGradGrad

                          Input orientation:                          
 ---------------------------------------------------------------------
 Center     Atomic      Atomic             Coordinates (Angstroms)
 Number     Number       Type             X           Y           Z
 ---------------------------------------------------------------------
      1          6           0        1.016236   -0.445502   -0.526106
      2          6           0        0.035726   -1.329872   -0.070671
      3          6           0        0.458768   -2.555605    0.446377
      4          6           0        1.817225   -2.849164    0.480568
      5          6           0        2.713317   -1.893685    0.009022
      6          7           0        2.322278   -0.713574   -0.481058
      7          6           0       -1.430270   -0.993513   -0.140218
      8          6           0       -2.018305   -0.685040   -1.519329
      9          6           0       -3.311483    0.111459   -1.227340
     10          6           0       -3.225359    0.498594    0.259851
     11          7           0       -1.800067    0.245952    0.635463
     12          8           0       -0.627662    2.485151   -0.297692
     13          1           0       -3.848945   -0.142407    0.893757
     14          1           0       -4.208190   -0.489176   -1.407729
     15          1           0       -3.377900    0.999307   -1.863347
     16          1           0       -1.306430   -0.083147   -2.096252
     17          1           0       -2.198476   -1.608744   -2.076669
     18          1           0       -3.461188    1.545295    0.473569
     19          1           0       -2.002470   -1.804183    0.333396
     20          1           0        0.746570    0.530183   -0.935588
     21          1           0        3.787718   -2.077831    0.027409
     22          1           0        2.180166   -3.797839    0.870810
     23          1           0       -0.268147   -3.280455    0.815777
     24          6           0       -1.545946    0.179787    2.089356
     25          1           0       -1.265835    1.064699    0.251311
     26          1           0        0.242283    2.759624    0.095581
     27          1           0       -0.958251    3.222507   -0.813831
     28          1           0        3.352505    0.796828   -0.723160
     29          8           0        3.642573    1.729551   -0.636632
     30          1           0        4.068696    1.978543   -1.459202
     31          8           0        1.705121    2.881440    0.785820
     32          1           0        2.474262    2.564075    0.257812
     33          1           0        2.020564    3.599617    1.337774
     34          1           0       -1.876790    1.117086    2.546091
     35          1           0       -0.472925    0.048117    2.256264
     36          1           0       -2.102400   -0.662636    2.514346
     37          8           0        4.856827    2.444733   -3.003351
     38          1           0        5.811598    2.633689   -2.970243
     39          1           0        4.631895    2.674900   -3.921512
 ---------------------------------------------------------------------
                    Distance matrix (angstroms):
                    1          2          3          4          5
     1  C    0.000000
     2  C    1.396757   0.000000
     3  C    2.389357   1.395967   0.000000
     4  C    2.726273   2.405380   1.390234   0.000000
     5  C    2.294271   2.737468   2.390065   1.392220   0.000000
     6  N    1.334031   2.403448   2.779547   2.395944   1.336320
     7  C    2.536655   1.505695   2.520454   3.791443   4.242864
     8  C    3.201923   2.594891   3.674085   4.836767   5.117121
     9  C    4.419399   3.823497   4.912164   6.163269   6.468957
    10  C    4.415900   3.753293   4.789125   6.056720   6.407323
    11  N    3.123926   2.520314   3.603722   4.763249   5.033995
    12  O    3.367982   3.878920   5.209913   5.919297   5.516377
    13  H    5.077191   4.175029   4.957829   6.293071   6.849307
    14  H    5.298471   4.528280   5.430316   6.740982   7.203269
    15  H    4.814989   4.504620   5.717713   6.877063   6.998435
    16  H    2.826913   2.731059   3.961557   4.903883   4.885549
    17  H    3.753898   3.015536   3.784607   4.919752   5.343876
    18  H    5.000995   4.559736   5.673110   6.868258   7.082860
    19  H    3.420138   2.131310   2.575867   3.962791   4.727777
    20  H    1.091951   2.170987   3.393338   3.817301   3.261214
    21  H    3.263739   3.827075   3.389057   2.164059   1.090223
    22  H    3.813695   3.402333   2.164833   1.088117   2.157019
    23  H    3.389284   2.164002   1.090995   2.155726   3.385722
    24  C    3.714351   3.073512   3.768372   4.803505   5.173818
    25  H    2.844808   2.744395   4.014836   4.987599   4.964312
    26  H    3.355344   4.098083   5.331190   5.838421   5.269420
    27  H    4.175605   4.718520   6.081336   6.800289   6.350820
    28  H    2.653369   3.993697   4.580430   4.135130   2.860684
    29  O    3.411850   4.763373   5.447209   5.054173   3.795817
    30  H    4.008014   5.398007   6.100927   5.669090   4.357394
    31  O    3.642013   4.610380   5.588388   5.739823   4.941831
    32  H    3.434810   4.606211   5.505352   5.457515   4.471092
    33  H    4.565710   5.497560   6.412531   6.508681   5.694019
    34  H    4.499964   4.061128   4.832421   5.800282   6.047358
    35  H    3.194189   2.751764   3.305013   4.097819   4.355781
    36  H    4.360893   3.420395   3.797290   4.927537   5.566261
    37  O    5.407434   6.789056   7.499795   7.028671   5.700079
    38  H    6.200864   7.581426   8.200905   7.610833   6.242794
    39  H    5.859922   7.210545   7.990722   7.603681   6.324715
                    6          7          8          9         10
     6  N    0.000000
     7  C    3.778380   0.000000
     8  C    4.463125   1.530650   0.000000
     9  C    5.742550   2.437573   1.546602   0.000000
    10  C    5.726655   2.368287   2.454272   1.539165   0.000000
    11  N    4.377332   1.508212   2.357436   2.402603   1.495450
    12  O    4.355182   3.573525   3.671021   3.701561   3.317423
    13  H    6.348255   2.764683   3.077122   2.202809   1.096165
    14  H    6.599703   3.094799   2.201457   1.094251   2.173124
    15  H    6.110378   3.276243   2.191774   1.094162   2.186767
    16  H    4.021668   2.161058   1.096303   2.193882   3.093854
    17  H    4.876938   2.172209   1.093763   2.217937   3.309787
    18  H    6.281901   3.308611   3.320835   2.229661   1.094017
    19  H    4.533896   1.099504   2.164560   2.796265   2.608380
    20  H    2.058248   2.773607   3.076045   4.090018   4.148047
    21  H    2.065732   5.332096   6.167833   7.534324   7.474975
    22  H    3.370524   4.682058   5.747125   7.059961   6.931977
    23  H    3.870525   2.737619   3.905375   4.994127   4.830670
    24  C    4.729511   2.522105   3.740810   3.757960   2.503828
    25  H    4.071016   2.101564   2.600570   2.698101   2.039677
    26  H    4.089254   4.115710   4.425370   4.625165   4.142920
    27  H    5.134719   4.295507   4.109789   3.922666   3.703009
    28  H    1.844260   5.140047   5.628092   6.718085   6.657593
    29  O    2.781410   5.778862   6.217310   7.164220   7.034730
    30  H    3.354733   6.388385   6.644537   7.616220   7.638628
    31  O    3.861345   5.069860   5.647778   6.073872   5.501294
    32  H    3.363333   5.297191   5.822211   6.457232   6.062334
    33  H    4.690714   5.932079   6.544753   6.868608   6.188535
    34  H    5.490639   3.445325   4.449194   4.160338   2.725447
    35  H    3.985758   2.782917   4.144975   4.494098   3.429940
    36  H    5.343483   2.758251   4.034614   4.007658   2.773489
    37  O    4.770829   7.716648   7.698393   8.678691   8.930716
    38  H    5.438342   8.579643   8.627079   9.624446   9.831517
    39  H    5.352833   8.031519   7.828464   8.770807   9.162781
                   11         12         13         14         15
    11  N    0.000000
    12  O    2.694313   0.000000
    13  H    2.101295   4.324382   0.000000
    14  H    3.242546   4.785288   2.355025   0.000000
    15  H    3.049779   3.496115   3.021095   1.764242   0.000000
    16  H    2.795398   3.208068   3.925309   3.009840   2.348817
    17  H    3.309726   4.732039   3.701030   2.395801   2.870275
    18  H    2.115142   3.083349   1.781924   2.869907   2.401295
    19  H    2.082130   4.548269   2.546561   3.102573   3.817989
    20  H    3.005719   2.473323   4.991757   5.080517   4.253477
    21  H    6.082190   6.357836   7.925594   8.277559   8.024327
    22  H    5.678899   6.980348   7.050737   7.546528   7.834559
    23  H    3.849005   5.883135   4.761884   5.315934   5.929977
    24  C    1.477417   3.443247   2.614779   4.445746   4.433005
    25  H    1.050392   1.651167   2.922721   3.718117   2.989460
    26  H    3.283476   0.993380   5.079076   5.711511   4.476811
    27  H    3.415990   0.958844   4.753379   4.969045   3.449464
    28  H    5.357081   4.344328   7.440260   7.699776   6.829303
    29  O    5.782873   4.349795   7.872049   8.194621   7.164156
    30  H    6.467756   4.864312   8.527830   8.637079   7.521571
    31  O    4.388023   2.602483   6.324789   7.151221   6.033043
    32  H    4.877110   3.152260   6.907418   7.533361   6.418381
    33  H    5.132010   3.306038   6.975029   7.940617   6.793541
    34  H    2.101252   3.393969   2.864599   4.862941   4.659436
    35  H    2.104148   3.533521   3.645578   5.259823   5.129799
    36  H    2.108824   4.471127   2.438722   4.455010   4.853159
    37  O    7.898725   6.115705   9.882875   9.660661   8.437986
    38  H    8.754419   6.973425  10.768625  10.610838   9.399111
    39  H    8.248391   6.389916  10.151290   9.719959   8.438038
                   16         17         18         19         20
    16  H    0.000000
    17  H    1.767364   0.000000
    18  H    3.728107   4.248072   0.000000
    19  H    3.057716   2.425908   3.656024   0.000000
    20  H    2.436827   3.814495   4.552077   3.823193   0.000000
    21  H    5.868479   6.362524   8.116202   5.804721   4.120398
    22  H    5.895655   5.714217   7.780216   4.664539   4.904085
    23  H    4.447552   3.858372   5.796592   2.328078   4.314846
    24  C    4.200692   4.580437   2.853687   2.688484   3.811652
    25  H    2.613475   3.665598   2.258306   2.963082   2.396708
    26  H    3.909474   5.455146   3.915759   5.091543   2.507593
    27  H    3.562749   5.145280   3.276451   5.260621   3.189020
    28  H    4.936133   6.199367   6.958360   6.046265   2.628140
    29  O    5.468912   6.880100   7.192351   6.730137   3.148760
    30  H    5.792096   7.247575   7.786043   7.374380   3.661754
    31  O    5.115130   6.602550   5.345422   5.992160   3.067650
    32  H    5.181026   6.685559   6.026112   6.255279   2.923327
    33  H    6.035244   7.522350   5.917491   6.811361   4.026495
    34  H    4.828791   5.376201   2.643677   3.666828   4.398700
    35  H    4.433549   4.949447   3.788042   3.077003   3.450721
    36  H    4.714551   4.688472   3.299399   2.463668   4.630496
    37  O    6.723001   8.189428   9.060207   8.731388   4.983509
    38  H    7.668857   9.108128   9.951331   9.574361   5.849706
    39  H    6.797213   8.270854   9.278510   9.065387   5.348954
                   21         22         23         24         25
    21  H    0.000000
    22  H    2.500795   0.000000
    23  H    4.303239   2.502988   0.000000
    24  C    6.147881   5.584825   3.902313   0.000000
    25  H    5.955168   5.991909   4.493814   2.059112   0.000000
    26  H    5.997977   6.881620   6.104242   3.718664   2.274081
    27  H    7.164181   7.872289   6.739464   4.246413   2.425958
    28  H    3.002737   5.002608   5.665835   5.682060   4.727622
    29  O    3.867580   5.912957   6.519462   6.062467   5.032190
    30  H    4.329334   6.508617   7.186153   6.881278   5.676107
    31  O    5.432013   6.696690   6.470211   4.423525   3.523184
    32  H    4.829653   6.398141   6.480020   5.020105   4.029454
    33  H    6.088785   7.413898   7.269530   4.998010   4.290295
    34  H    6.974088   6.589533   4.992002   1.093889   2.375295
    35  H    5.257426   4.873372   3.632675   1.093878   2.383691
    36  H    6.548368   5.556175   3.619751   1.095415   2.967298
    37  O    5.548161   7.819421   8.580727   8.488884   7.069959
    38  H    5.939733   8.324995   9.288398   9.260379   7.932855
    39  H    6.236591   8.418651   9.050888   8.973397   7.401920
                   26         27         28         29         30
    26  H    0.000000
    27  H    1.575618   0.000000
    28  H    3.767809   4.947197   0.000000
    29  O    3.627555   4.840237   0.980611   0.000000
    30  H    4.203436   5.218635   1.565611   0.959270   0.000000
    31  O    1.622086   3.125502   3.055569   2.665321   3.382578
    32  H    2.246395   3.655694   2.203810   1.691571   2.415203
    33  H    2.326137   3.693908   3.725204   3.166439   3.826983
    34  H    3.632272   4.070084   6.175443   6.400641   7.220338
    35  H    3.540105   4.442722   4.906266   5.304092   6.177180
    36  H    4.802065   5.242154   6.509030   6.975381   7.800470
    37  O    5.567455   6.262114   3.190274   2.754498   1.795238
    38  H    6.358648   7.129353   3.804021   3.311778   2.397951
    39  H    5.950875   6.419291   3.923449   3.558494   2.620129
                   31         32         33         34         35
    31  O    0.000000
    32  H    0.985439   0.000000
    33  H    0.959133   1.563492   0.000000
    34  H    4.363667   5.124612   4.776228   0.000000
    35  H    3.864429   4.360019   4.435568   1.788164   0.000000
    36  H    5.481377   6.037338   6.045656   1.794246   1.796375
    37  O    4.947907   4.040550   5.312581   8.826129   7.862161
    38  H    5.570686   4.643597   5.819276   9.583388   8.573027
    39  H    5.546859   4.704723   5.944261   9.306968   8.433511
                   36         37         38         39
    36  H    0.000000
    37  O    9.409122   0.000000
    38  H   10.177320   0.973851   0.000000
    39  H    9.894956   0.972929   1.516017   0.000000
 Stoichiometry    C10H23N2O4(1+)
 Framework group  C1[X(C10H23N2O4)]
 Deg. of freedom   111
 Full point group                 C1      NOp   1
 Largest Abelian subgroup         C1      NOp   1
 Largest concise Abelian subgroup C1      NOp   1
                         Standard orientation:                         
 ---------------------------------------------------------------------
 Center     Atomic      Atomic             Coordinates (Angstroms)
 Number     Number       Type             X           Y           Z
 ---------------------------------------------------------------------
      1          6           0        0.486277    0.757729    0.284364
      2          6           0       -0.772144    1.355374    0.183715
      3          6           0       -0.821454    2.707300   -0.160652
      4          6           0        0.364414    3.399288   -0.378871
      5          6           0        1.566500    2.706908   -0.261069
      6          7           0        1.627476    1.411201    0.060143
      7          6           0       -2.039318    0.585943    0.447083
      8          6           0       -2.198546   -0.059837    1.825670
      9          6           0       -3.260886   -1.165395    1.622814
     10          6           0       -3.408786   -1.314454    0.098041
     11          7           0       -2.225694   -0.597167   -0.469551
     12          8           0       -0.315977   -2.477916   -0.195524
     13          1           0       -4.307292   -0.816026   -0.283843
     14          1           0       -4.222167   -0.891968    2.068418
     15          1           0       -2.941830   -2.105678    2.082447
     16          1           0       -1.240612   -0.487352    2.144221
     17          1           0       -2.491221    0.686872    2.569367
     18          1           0       -3.395805   -2.347043   -0.263158
     19          1           0       -2.899487    1.239621    0.242821
     20          1           0        0.587894   -0.297879    0.544599
     21          1           0        2.519264    3.207720   -0.434309
     22          1           0        0.361747    4.455087   -0.642083
     23          1           0       -1.780135    3.219822   -0.252965
     24          6           0       -2.330776   -0.271548   -1.906802
     25          1           0       -1.418935   -1.258476   -0.346526
     26          1           0        0.484815   -2.424032   -0.780871
     27          1           0       -0.311709   -3.340461    0.223261
     28          1           0        3.053227    0.264543   -0.171599
     29          8           0        3.556623   -0.517844   -0.481537
     30          1           0        4.206864   -0.729789    0.191118
     31          8           0        1.733462   -2.008804   -1.729360
     32          1           0        2.486681   -1.544384   -1.295693
     33          1           0        2.098741   -2.521198   -2.453210
     34          1           0       -2.490622   -1.198339   -2.465464
     35          1           0       -1.398413    0.198314   -2.233143
     36          1           0       -3.173861    0.410648   -2.060911
     37          8           0        5.416133   -1.130063    1.456160
     38          1           0        6.353958   -1.015943    1.219842
     39          1           0        5.472823   -1.533118    2.339860
 ---------------------------------------------------------------------
 Rotational constants (GHZ):           0.5281687           0.2818496           0.2273158
 Standard basis: Aug-CC-pVDZ (5D, 7F)
 There are   607 symmetry adapted cartesian basis functions of A   symmetry.
 There are   575 symmetry adapted basis functions of A   symmetry.
   575 basis functions,   941 primitive gaussians,   607 cartesian basis functions
    64 alpha electrons       64 beta electrons
       nuclear repulsion energy      1216.0523556759 Hartrees.
 NAtoms=   39 NActive=   39 NUniq=   39 SFac= 1.00D+00 NAtFMM=   60 NAOKFM=F Big=F
 Integral buffers will be    131072 words long.
 Raffenetti 2 integral format.
 Two-electron integral symmetry is turned on.
 Nuclear repulsion after empirical dispersion term =     1216.0227541096 Hartrees.
 One-electron integrals computed using PRISM.
 NBasis=   575 RedAO= T EigKep=  2.14D-06  NBF=   575
 NBsUse=   575 1.00D-06 EigRej= -1.00D+00 NBFU=   575
 ExpMin= 2.97D-02 ExpMax= 1.17D+04 ExpMxC= 4.01D+02 IAcc=3 IRadAn=         5 AccDes= 0.00D+00
 Harris functional with IExCor= 4639 and IRadAn=       5 diagonalized for initial guess.
 HarFok:  IExCor= 4639 AccDes= 0.00D+00 IRadAn=         5 IDoV= 1 UseB2=F ITyADJ=14
 ICtDFT=  3500011 ScaDFX=  1.000000  1.000000  1.000000  1.000000
 FoFCou: FMM=F IPFlag=           0 FMFlag=      100000 FMFlg1=           0
         NFxFlg=           0 DoJE=T BraDBF=F KetDBF=T FulRan=T
         wScrn=  0.000000 ICntrl=       500 IOpCl=  0 I1Cent=   200000004 NGrid=           0
         NMat0=    1 NMatS0=      1 NMatT0=    0 NMatD0=    1 NMtDS0=    0 NMtDT0=    0
 Petite list used in FoFCou.
 Requested convergence on RMS density matrix=1.00D-08 within 128 cycles.
 Requested convergence on MAX density matrix=1.00D-06.
 Requested convergence on             energy=1.00D-06.
 No special actions if energy rises.
 SCF Done:  E(RwB97XD) =  -805.032084247     A.U. after   15 cycles
            NFock= 15  Conv=0.33D-08     -V/T= 2.0063

 **********************************************************************

            Population analysis using the SCF density.

 **********************************************************************

 Orbital symmetries:
       Occupied  (A) (A) (A) (A) (A) (A) (A) (A) (A) (A) (A) (A)
                 (A) (A) (A) (A) (A) (A) (A) (A) (A) (A) (A) (A)
                 (A) (A) (A) (A) (A) (A) (A) (A) (A) (A) (A) (A)
                 (A) (A) (A) (A) (A) (A) (A) (A) (A) (A) (A) (A)
                 (A) (A) (A) (A) (A) (A) (A) (A) (A) (A) (A) (A)
                 (A) (A) (A) (A)
       Virtual   (A) (A) (A) (A) (A) (A) (A) (A) (A) (A) (A) (A)
                 (A) (A) (A) (A) (A) (A) (A) (A) (A) (A) (A) (A)
                 (A) (A) (A) (A) (A) (A) (A) (A) (A) (A) (A) (A)
                 (A) (A) (A) (A) (A) (A) (A) (A) (A) (A) (A) (A)
                 (A) (A) (A) (A) (A) (A) (A) (A) (A) (A) (A) (A)
                 (A) (A) (A) (A) (A) (A) (A) (A) (A) (A) (A) (A)
                 (A) (A) (A) (A) (A) (A) (A) (A) (A) (A) (A) (A)
                 (A) (A) (A) (A) (A) (A) (A) (A) (A) (A) (A) (A)
                 (A) (A) (A) (A) (A) (A) (A) (A) (A) (A) (A) (A)
                 (A) (A) (A) (A) (A) (A) (A) (A) (A) (A) (A) (A)
                 (A) (A) (A) (A) (A) (A) (A) (A) (A) (A) (A) (A)
                 (A) (A) (A) (A) (A) (A) (A) (A) (A) (A) (A) (A)
                 (A) (A) (A) (A) (A) (A) (A) (A) (A) (A) (A) (A)
                 (A) (A) (A) (A) (A) (A) (A) (A) (A) (A) (A) (A)
                 (A) (A) (A) (A) (A) (A) (A) (A) (A) (A) (A) (A)
                 (A) (A) (A) (A) (A) (A) (A) (A) (A) (A) (A) (A)
                 (A) (A) (A) (A) (A) (A) (A) (A) (A) (A) (A) (A)
                 (A) (A) (A) (A) (A) (A) (A) (A) (A) (A) (A) (A)
                 (A) (A) (A) (A) (A) (A) (A) (A) (A) (A) (A) (A)
                 (A) (A) (A) (A) (A) (A) (A) (A) (A) (A) (A) (A)
                 (A) (A) (A) (A) (A) (A) (A) (A) (A) (A) (A) (A)
                 (A) (A) (A) (A) (A) (A) (A) (A) (A) (A) (A) (A)
                 (A) (A) (A) (A) (A) (A) (A) (A) (A) (A) (A) (A)
                 (A) (A) (A) (A) (A) (A) (A) (A) (A) (A) (A) (A)
                 (A) (A) (A) (A) (A) (A) (A) (A) (A) (A) (A) (A)
                 (A) (A) (A) (A) (A) (A) (A) (A) (A) (A) (A) (A)
                 (A) (A) (A) (A) (A) (A) (A) (A) (A) (A) (A) (A)
                 (A) (A) (A) (A) (A) (A) (A) (A) (A) (A) (A) (A)
                 (A) (A) (A) (A) (A) (A) (A) (A) (A) (A) (A) (A)
                 (A) (A) (A) (A) (A) (A) (A) (A) (A) (A) (A) (A)
                 (A) (A) (A) (A) (A) (A) (A) (A) (A) (A) (A) (A)
                 (A) (A) (A) (A) (A) (A) (A) (A) (A) (A) (A) (A)
                 (A) (A) (A) (A) (A) (A) (A) (A) (A) (A) (A) (A)
                 (A) (A) (A) (A) (A) (A) (A) (A) (A) (A) (A) (A)
                 (A) (A) (A) (A) (A) (A) (A) (A) (A) (A) (A) (A)
                 (A) (A) (A) (A) (A) (A) (A) (A) (A) (A) (A) (A)
                 (A) (A) (A) (A) (A) (A) (A) (A) (A) (A) (A) (A)
                 (A) (A) (A) (A) (A) (A) (A) (A) (A) (A) (A) (A)
                 (A) (A) (A) (A) (A) (A) (A) (A) (A) (A) (A) (A)
                 (A) (A) (A) (A) (A) (A) (A) (A) (A) (A) (A) (A)
                 (A) (A) (A) (A) (A) (A) (A) (A) (A) (A) (A) (A)
                 (A) (A) (A) (A) (A) (A) (A) (A) (A) (A) (A) (A)
                 (A) (A) (A) (A) (A) (A) (A)
 The electronic state is 1-A.
 Alpha  occ. eigenvalues --  -19.39209 -19.38239 -19.36543 -19.33269 -14.68516
 Alpha  occ. eigenvalues --  -14.57631 -10.49499 -10.48307 -10.47708 -10.45998
 Alpha  occ. eigenvalues --  -10.45547 -10.44746 -10.44554 -10.43801 -10.43753
 Alpha  occ. eigenvalues --  -10.42887  -1.25453  -1.23479  -1.22004  -1.20730
 Alpha  occ. eigenvalues --   -1.17929  -1.17145  -1.06146  -1.04123  -1.00809
 Alpha  occ. eigenvalues --   -0.96478  -0.94143  -0.88855  -0.85272  -0.84575
 Alpha  occ. eigenvalues --   -0.83141  -0.77503  -0.75216  -0.74767  -0.72972
 Alpha  occ. eigenvalues --   -0.72238  -0.71813  -0.71645  -0.69603  -0.69435
 Alpha  occ. eigenvalues --   -0.68785  -0.66083  -0.65314  -0.64840  -0.62757
 Alpha  occ. eigenvalues --   -0.62449  -0.61966  -0.61693  -0.60806  -0.59795
 Alpha  occ. eigenvalues --   -0.59060  -0.58646  -0.57751  -0.56848  -0.56354
 Alpha  occ. eigenvalues --   -0.55126  -0.53515  -0.53034  -0.50885  -0.50314
 Alpha  occ. eigenvalues --   -0.49227  -0.47417  -0.46717  -0.46197
 Alpha virt. eigenvalues --   -0.08985  -0.08141  -0.06623  -0.05688  -0.04752
 Alpha virt. eigenvalues --   -0.04624  -0.03760  -0.03035  -0.02868  -0.02698
 Alpha virt. eigenvalues --   -0.02301  -0.01786  -0.01263  -0.00642  -0.00584
 Alpha virt. eigenvalues --   -0.00176   0.00114   0.00481   0.00938   0.01460
 Alpha virt. eigenvalues --    0.01727   0.01861   0.02252   0.02891   0.03155
 Alpha virt. eigenvalues --    0.03494   0.03919   0.04330   0.04542   0.04665
 Alpha virt. eigenvalues --    0.04903   0.05076   0.05298   0.05857   0.06039
 Alpha virt. eigenvalues --    0.06112   0.06337   0.06500   0.06841   0.06857
 Alpha virt. eigenvalues --    0.07211   0.07637   0.07750   0.07962   0.08446
 Alpha virt. eigenvalues --    0.08679   0.08863   0.09195   0.09612   0.10040
 Alpha virt. eigenvalues --    0.10236   0.10416   0.10690   0.11207   0.11328
 Alpha virt. eigenvalues --    0.11791   0.11872   0.12311   0.12533   0.12788
 Alpha virt. eigenvalues --    0.13177   0.13588   0.14100   0.14546   0.15063
 Alpha virt. eigenvalues --    0.15346   0.15552   0.15641   0.16169   0.16283
 Alpha virt. eigenvalues --    0.16417   0.16592   0.17214   0.17515   0.17717
 Alpha virt. eigenvalues --    0.18119   0.18266   0.18710   0.19044   0.19342
 Alpha virt. eigenvalues --    0.19451   0.19791   0.20057   0.20464   0.20915
 Alpha virt. eigenvalues --    0.21009   0.21293   0.21814   0.21980   0.22148
 Alpha virt. eigenvalues --    0.22435   0.22504   0.22944   0.23242   0.23610
 Alpha virt. eigenvalues --    0.23972   0.24440   0.24554   0.25007   0.25384
 Alpha virt. eigenvalues --    0.25833   0.26300   0.26526   0.26974   0.27392
 Alpha virt. eigenvalues --    0.27881   0.28101   0.28730   0.28878   0.29038
 Alpha virt. eigenvalues --    0.29347   0.29944   0.30147   0.30585   0.30944
 Alpha virt. eigenvalues --    0.31301   0.31640   0.32109   0.32538   0.32620
 Alpha virt. eigenvalues --    0.32884   0.33351   0.33519   0.33919   0.34411
 Alpha virt. eigenvalues --    0.34676   0.35125   0.35700   0.35868   0.36524
 Alpha virt. eigenvalues --    0.36957   0.37342   0.37799   0.38043   0.38223
 Alpha virt. eigenvalues --    0.38512   0.39297   0.39865   0.40269   0.40723
 Alpha virt. eigenvalues --    0.41529   0.41771   0.42050   0.42820   0.42887
 Alpha virt. eigenvalues --    0.42999   0.43294   0.43826   0.44213   0.44328
 Alpha virt. eigenvalues --    0.44998   0.45366   0.46055   0.46206   0.46551
 Alpha virt. eigenvalues --    0.46966   0.47510   0.47855   0.48598   0.48958
 Alpha virt. eigenvalues --    0.49116   0.49286   0.49730   0.49988   0.50420
 Alpha virt. eigenvalues --    0.50724   0.51209   0.51589   0.51697   0.52038
 Alpha virt. eigenvalues --    0.52882   0.53223   0.53483   0.53658   0.54029
 Alpha virt. eigenvalues --    0.54401   0.54767   0.55431   0.55744   0.55930
 Alpha virt. eigenvalues --    0.56207   0.56581   0.57067   0.57603   0.58122
 Alpha virt. eigenvalues --    0.58463   0.58816   0.59085   0.59726   0.60265
 Alpha virt. eigenvalues --    0.60921   0.60981   0.61401   0.61636   0.61843
 Alpha virt. eigenvalues --    0.62345   0.62663   0.63412   0.63739   0.63931
 Alpha virt. eigenvalues --    0.64866   0.65143   0.66237   0.66589   0.66742
 Alpha virt. eigenvalues --    0.67401   0.67633   0.67910   0.68671   0.69052
 Alpha virt. eigenvalues --    0.69682   0.69924   0.70054   0.70584   0.71530
 Alpha virt. eigenvalues --    0.71714   0.72078   0.72643   0.73080   0.73168
 Alpha virt. eigenvalues --    0.73834   0.74530   0.74925   0.75098   0.76419
 Alpha virt. eigenvalues --    0.76725   0.77006   0.77323   0.78047   0.78522
 Alpha virt. eigenvalues --    0.79031   0.79293   0.79576   0.79812   0.80016
 Alpha virt. eigenvalues --    0.81477   0.81782   0.82249   0.83176   0.83756
 Alpha virt. eigenvalues --    0.84413   0.84872   0.85298   0.85985   0.87332
 Alpha virt. eigenvalues --    0.87527   0.88492   0.88970   0.89884   0.90361
 Alpha virt. eigenvalues --    0.91241   0.91506   0.91925   0.92413   0.93113
 Alpha virt. eigenvalues --    0.93789   0.93868   0.95690   0.96158   0.96514
 Alpha virt. eigenvalues --    0.97032   0.99143   0.99593   0.99866   1.01089
 Alpha virt. eigenvalues --    1.01514   1.02266   1.02666   1.03039   1.04031
 Alpha virt. eigenvalues --    1.04695   1.05782   1.06904   1.07953   1.08291
 Alpha virt. eigenvalues --    1.09016   1.09761   1.09863   1.10037   1.10946
 Alpha virt. eigenvalues --    1.12133   1.12532   1.13280   1.14914   1.15650
 Alpha virt. eigenvalues --    1.16462   1.17311   1.17484   1.18349   1.18491
 Alpha virt. eigenvalues --    1.19923   1.20492   1.21026   1.22169   1.22963
 Alpha virt. eigenvalues --    1.23500   1.25576   1.26224   1.26672   1.28568
 Alpha virt. eigenvalues --    1.28935   1.30362   1.31620   1.32515   1.33158
 Alpha virt. eigenvalues --    1.33876   1.34819   1.35477   1.36179   1.37108
 Alpha virt. eigenvalues --    1.38137   1.39338   1.40748   1.40941   1.41751
 Alpha virt. eigenvalues --    1.43199   1.43717   1.44102   1.45067   1.46174
 Alpha virt. eigenvalues --    1.46314   1.47718   1.48016   1.49399   1.50748
 Alpha virt. eigenvalues --    1.50948   1.51803   1.53301   1.53568   1.53698
 Alpha virt. eigenvalues --    1.55000   1.55530   1.57045   1.57320   1.58145
 Alpha virt. eigenvalues --    1.58894   1.59555   1.59943   1.61142   1.62691
 Alpha virt. eigenvalues --    1.63540   1.64053   1.65459   1.66056   1.67517
 Alpha virt. eigenvalues --    1.68309   1.69148   1.69645   1.70233   1.71058
 Alpha virt. eigenvalues --    1.71714   1.71857   1.73189   1.73572   1.74179
 Alpha virt. eigenvalues --    1.75003   1.75740   1.76456   1.78140   1.78453
 Alpha virt. eigenvalues --    1.78817   1.80097   1.80906   1.81146   1.81528
 Alpha virt. eigenvalues --    1.82973   1.83319   1.83711   1.84467   1.84756
 Alpha virt. eigenvalues --    1.86153   1.86427   1.87563   1.87901   1.88936
 Alpha virt. eigenvalues --    1.89673   1.90228   1.90722   1.92123   1.92283
 Alpha virt. eigenvalues --    1.93473   1.94399   1.95364   1.97071   1.97206
 Alpha virt. eigenvalues --    1.97841   1.99204   1.99356   2.00336   2.00772
 Alpha virt. eigenvalues --    2.01805   2.03969   2.04108   2.05239   2.06001
 Alpha virt. eigenvalues --    2.07329   2.08433   2.09003   2.10635   2.11382
 Alpha virt. eigenvalues --    2.11864   2.12999   2.13508   2.14217   2.15011
 Alpha virt. eigenvalues --    2.15560   2.16645   2.17692   2.18992   2.19089
 Alpha virt. eigenvalues --    2.20851   2.21266   2.22460   2.22974   2.23952
 Alpha virt. eigenvalues --    2.25601   2.26188   2.27205   2.28393   2.29352
 Alpha virt. eigenvalues --    2.30244   2.31030   2.32112   2.32539   2.34385
 Alpha virt. eigenvalues --    2.34967   2.35833   2.37053   2.38476   2.39358
 Alpha virt. eigenvalues --    2.41357   2.42540   2.43541   2.44482   2.46810
 Alpha virt. eigenvalues --    2.48174   2.49519   2.50430   2.51067   2.52683
 Alpha virt. eigenvalues --    2.54856   2.55625   2.56632   2.57323   2.57851
 Alpha virt. eigenvalues --    2.58784   2.59249   2.60204   2.61765   2.62919
 Alpha virt. eigenvalues --    2.64173   2.64761   2.67566   2.69087   2.70515
 Alpha virt. eigenvalues --    2.70936   2.71316   2.71889   2.73288   2.74523
 Alpha virt. eigenvalues --    2.75106   2.76346   2.77940   2.78682   2.80895
 Alpha virt. eigenvalues --    2.82014   2.83222   2.85055   2.86663   2.86821
 Alpha virt. eigenvalues --    2.89317   2.89461   2.90405   2.91795   2.92900
 Alpha virt. eigenvalues --    2.93455   2.95714   2.98146   3.03782   3.09385
 Alpha virt. eigenvalues --    3.11382   3.13644   3.15461   3.25116   3.28031
 Alpha virt. eigenvalues --    3.29884   3.36316   3.38046   3.38492   3.40203
 Alpha virt. eigenvalues --    3.43300   3.45035   3.46918   3.48229   3.51189
 Alpha virt. eigenvalues --    3.52645   3.54750   3.56836   3.60537   3.65023
 Alpha virt. eigenvalues --    3.67487   3.77346   3.84797   3.87883   3.91749
 Alpha virt. eigenvalues --    3.97332   4.06030   4.10115   4.16769   4.26925
 Alpha virt. eigenvalues --    4.76848
          Condensed to atoms (all electrons):
               1          2          3          4          5          6
     1  C   14.834208  -3.763587  -1.665153  -0.047532  -1.246355  -0.084672
     2  C   -3.763587  22.857072  -8.974056   0.681318  -0.980934  -0.288935
     3  C   -1.665153  -8.974056  22.981648  -4.764600   1.896725  -0.643156
     4  C   -0.047532   0.681318  -4.764600  12.009921  -2.773654   0.373904
     5  C   -1.246355  -0.980934   1.896725  -2.773654  10.004826   0.084242
     6  N   -0.084672  -0.288935  -0.643156   0.373904   0.084242   7.743854
     7  C   -0.975838  -8.614262  -1.348888   0.552250  -0.929164   0.605777
     8  C   -0.621614   0.424799  -0.212865   0.002336  -0.105122  -0.045655
     9  C    0.059085   0.308616  -0.016342  -0.021500   0.010494   0.011484
    10  C   -0.099655  -0.265537  -0.011935  -0.017310  -0.019116   0.028650
    11  N   -0.040213   1.240762  -0.275737  -0.197606   0.138846  -0.049082
    12  O   -0.070593  -0.025226  -0.011757   0.004624  -0.004454   0.003306
    13  H    0.003886   0.116767   0.014784   0.005999  -0.004439  -0.002249
    14  H    0.023775   0.000373  -0.001776  -0.007828   0.004161  -0.000011
    15  H   -0.023176  -0.147188   0.005438   0.002880  -0.003754   0.000502
    16  H   -0.174914   0.119354   0.010701  -0.037821   0.015248   0.023925
    17  H    0.244545   0.396299  -0.025087   0.002581   0.007607  -0.020472
    18  H   -0.004883  -0.088504   0.021800  -0.002245   0.002079   0.002849
    19  H   -0.184184   1.108762   0.021889  -0.047863   0.050387  -0.002266
    20  H   -0.770859  -0.805359  -0.282603   0.149946  -0.179396  -0.090651
    21  H    0.093622  -0.067557   0.260794   0.058115  -0.449324  -0.155513
    22  H   -0.005464  -0.097390   0.678488  -1.221891   0.402287  -0.075691
    23  H    0.085568   1.317783  -2.648762   0.740282  -0.229370  -0.028959
    24  C   -0.020202   0.486306  -0.204177   0.078485  -0.029470  -0.011803
    25  H   -0.190315  -0.109328  -0.009927  -0.011280   0.007141  -0.000200
    26  H    0.014299   0.007996  -0.001318  -0.002544   0.003723   0.001649
    27  H    0.012451  -0.003694  -0.001209   0.001082  -0.001305  -0.001001
    28  H   -0.087015  -0.029490   0.009765  -0.055054   0.075089   0.125978
    29  O    0.026295  -0.071762   0.015479  -0.007910   0.010735  -0.059858
    30  H    0.009183   0.006601   0.006427   0.000371  -0.016757  -0.015179
    31  O   -0.105666   0.058520  -0.022109  -0.003290   0.017860   0.023816
    32  H   -0.011015   0.020840  -0.022037   0.013479  -0.008331   0.013993
    33  H    0.012111  -0.004348   0.003600  -0.001021  -0.000116  -0.005558
    34  H   -0.026575   0.024035  -0.028659   0.013221  -0.005097   0.000574
    35  H    0.170807  -0.010929  -0.008876   0.053981  -0.032552  -0.010636
    36  H   -0.021128   0.096821   0.023760  -0.026644   0.014732  -0.001634
    37  O   -0.007424   0.004732  -0.000546   0.000936   0.004778   0.003445
    38  H    0.000345   0.000348  -0.000168   0.000106  -0.000718   0.000364
    39  H   -0.000772  -0.000059  -0.000119  -0.000015   0.000177   0.000267
               7          8          9         10         11         12
     1  C   -0.975838  -0.621614   0.059085  -0.099655  -0.040213  -0.070593
     2  C   -8.614262   0.424799   0.308616  -0.265537   1.240762  -0.025226
     3  C   -1.348888  -0.212865  -0.016342  -0.011935  -0.275737  -0.011757
     4  C    0.552250   0.002336  -0.021500  -0.017310  -0.197606   0.004624
     5  C   -0.929164  -0.105122   0.010494  -0.019116   0.138846  -0.004454
     6  N    0.605777  -0.045655   0.011484   0.028650  -0.049082   0.003306
     7  C   25.479180  -1.810375   0.102920  -0.417087  -4.401487   0.124339
     8  C   -1.810375   7.875899  -0.736571   0.543583  -0.320647  -0.000603
     9  C    0.102920  -0.736571   6.186489  -0.082738  -0.508891   0.028109
    10  C   -0.417087   0.543583  -0.082738   5.524147   0.243888  -0.011943
    11  N   -4.401487  -0.320647  -0.508891   0.243888  13.096806  -0.285134
    12  O    0.124339  -0.000603   0.028109  -0.011943  -0.285134   8.103096
    13  H    0.159124   0.049281  -0.020541  -0.330786  -0.055110  -0.010177
    14  H   -0.255235   0.217124  -0.165571   0.195175   0.048473  -0.004368
    15  H    0.416472   0.154136  -0.360976   0.053740  -0.096364   0.022928
    16  H   -0.390704  -0.012253   0.223808   0.030816  -0.020662   0.001964
    17  H   -0.106376  -0.883739   0.149532  -0.140618   0.241400  -0.000539
    18  H    0.406529  -0.004645   0.163372  -0.134561  -1.017813   0.058463
    19  H   -3.285696   0.684377  -0.085750   0.057036  -0.307759   0.004868
    20  H    0.333327   0.011773   0.036308  -0.021597  -0.247729   0.015094
    21  H   -0.027322   0.003256   0.000621  -0.000631   0.006451  -0.000155
    22  H    0.050599   0.000712  -0.000039  -0.000022  -0.003121   0.000118
    23  H   -0.126269  -0.039287  -0.001819  -0.007887   0.009533  -0.001011
    24  C   -0.801867  -0.059397  -0.057796  -0.075208   0.940862  -0.002517
    25  H    0.120458  -0.102116   0.002789  -0.328362   0.387730  -0.089338
    26  H   -0.003717  -0.002094   0.014248   0.000464   0.030489   0.302390
    27  H   -0.007184   0.001088  -0.005044   0.000501   0.013888   0.360391
    28  H    0.025325  -0.010220  -0.001760  -0.000752  -0.011493  -0.000110
    29  O    0.013971  -0.001429  -0.001218   0.000670  -0.002818  -0.001438
    30  H   -0.004614   0.003183   0.000155   0.000187   0.001623   0.001815
    31  O    0.005658   0.001711  -0.000922  -0.000744   0.001158  -0.061977
    32  H    0.000220  -0.001189  -0.000718  -0.000017   0.000478  -0.000692
    33  H   -0.000940   0.000381  -0.000141   0.000819   0.005267   0.004160
    34  H    0.069992  -0.085344   0.079466  -0.039382  -0.135978   0.022506
    35  H    0.000209   0.068770  -0.042505  -0.094531  -0.108849   0.015451
    36  H   -0.190928   0.077920  -0.017023   0.183501  -0.388929  -0.009181
    37  O   -0.000243   0.000054   0.000025   0.000005   0.000079   0.000329
    38  H   -0.000024  -0.000004   0.000001   0.000001  -0.000005  -0.000028
    39  H    0.000014  -0.000068   0.000006  -0.000012   0.000039   0.000047
              13         14         15         16         17         18
     1  C    0.003886   0.023775  -0.023176  -0.174914   0.244545  -0.004883
     2  C    0.116767   0.000373  -0.147188   0.119354   0.396299  -0.088504
     3  C    0.014784  -0.001776   0.005438   0.010701  -0.025087   0.021800
     4  C    0.005999  -0.007828   0.002880  -0.037821   0.002581  -0.002245
     5  C   -0.004439   0.004161  -0.003754   0.015248   0.007607   0.002079
     6  N   -0.002249  -0.000011   0.000502   0.023925  -0.020472   0.002849
     7  C    0.159124  -0.255235   0.416472  -0.390704  -0.106376   0.406529
     8  C    0.049281   0.217124   0.154136  -0.012253  -0.883739  -0.004645
     9  C   -0.020541  -0.165571  -0.360976   0.223808   0.149532   0.163372
    10  C   -0.330786   0.195175   0.053740   0.030816  -0.140618  -0.134561
    11  N   -0.055110   0.048473  -0.096364  -0.020662   0.241400  -1.017813
    12  O   -0.010177  -0.004368   0.022928   0.001964  -0.000539   0.058463
    13  H    2.479782  -0.315349   0.185186  -0.062894   0.060553  -0.622293
    14  H   -0.315349   1.934222  -0.524510   0.176935  -0.266657   0.134779
    15  H    0.185186  -0.524510   2.068937  -0.338523   0.119824  -0.285529
    16  H   -0.062894   0.176935  -0.338523   2.181647  -0.591995   0.058047
    17  H    0.060553  -0.266657   0.119824  -0.591995   2.481226  -0.040404
    18  H   -0.622293   0.134779  -0.285529   0.058047  -0.040404   2.805139
    19  H   -0.140423   0.057909  -0.034792   0.214498  -0.260259   0.105641
    20  H    0.003485  -0.007474   0.013658  -0.156208   0.052034  -0.017112
    21  H   -0.000062   0.000124  -0.000114  -0.000785   0.001466   0.000049
    22  H   -0.000133  -0.000136   0.000077   0.001349  -0.002549  -0.000006
    23  H    0.000589   0.002393  -0.001758  -0.003818   0.015560  -0.001794
    24  C   -0.016180  -0.008748  -0.009855  -0.042816   0.059752  -0.089781
    25  H   -0.016946  -0.012162   0.021187   0.050355   0.001530  -0.003564
    26  H    0.000029   0.000820  -0.003340   0.005409  -0.001861   0.005009
    27  H   -0.000164  -0.000508   0.003248   0.002922   0.000915  -0.003057
    28  H   -0.000064  -0.000025  -0.000066  -0.001761  -0.000110   0.000460
    29  O    0.000067  -0.000064  -0.000166   0.000795   0.000172   0.000139
    30  H    0.000084  -0.000026   0.000022   0.000957   0.000070  -0.000075
    31  O   -0.000382  -0.000140   0.000190  -0.000622   0.000080   0.000099
    32  H   -0.000524   0.000144  -0.000194   0.001032  -0.000328   0.000629
    33  H    0.000115  -0.000030  -0.000009  -0.000182   0.000087  -0.000311
    34  H   -0.006674  -0.003976   0.010792  -0.012078   0.002112  -0.014496
    35  H    0.014162  -0.001863  -0.003715   0.001597   0.003237   0.010417
    36  H    0.014282   0.008856  -0.008292   0.008397   0.003457   0.043218
    37  O   -0.000001   0.000004  -0.000025   0.000548  -0.000023   0.000006
    38  H   -0.000001   0.000001   0.000001  -0.000087   0.000001   0.000001
    39  H   -0.000001   0.000001  -0.000007   0.000157  -0.000011  -0.000001
              19         20         21         22         23         24
     1  C   -0.184184  -0.770859   0.093622  -0.005464   0.085568  -0.020202
     2  C    1.108762  -0.805359  -0.067557  -0.097390   1.317783   0.486306
     3  C    0.021889  -0.282603   0.260794   0.678488  -2.648762  -0.204177
     4  C   -0.047863   0.149946   0.058115  -1.221891   0.740282   0.078485
     5  C    0.050387  -0.179396  -0.449324   0.402287  -0.229370  -0.029470
     6  N   -0.002266  -0.090651  -0.155513  -0.075691  -0.028959  -0.011803
     7  C   -3.285696   0.333327  -0.027322   0.050599  -0.126269  -0.801867
     8  C    0.684377   0.011773   0.003256   0.000712  -0.039287  -0.059397
     9  C   -0.085750   0.036308   0.000621  -0.000039  -0.001819  -0.057796
    10  C    0.057036  -0.021597  -0.000631  -0.000022  -0.007887  -0.075208
    11  N   -0.307759  -0.247729   0.006451  -0.003121   0.009533   0.940862
    12  O    0.004868   0.015094  -0.000155   0.000118  -0.001011  -0.002517
    13  H   -0.140423   0.003485  -0.000062  -0.000133   0.000589  -0.016180
    14  H    0.057909  -0.007474   0.000124  -0.000136   0.002393  -0.008748
    15  H   -0.034792   0.013658  -0.000114   0.000077  -0.001758  -0.009855
    16  H    0.214498  -0.156208  -0.000785   0.001349  -0.003818  -0.042816
    17  H   -0.260259   0.052034   0.001466  -0.002549   0.015560   0.059752
    18  H    0.105641  -0.017112   0.000049  -0.000006  -0.001794  -0.089781
    19  H    4.201306  -0.020298   0.000690  -0.000127  -0.175100  -0.094095
    20  H   -0.020298   4.137466   0.007712  -0.009282  -0.017069   0.019100
    21  H    0.000690   0.007712   2.047765  -0.124451  -0.004190   0.002698
    22  H   -0.000127  -0.009282  -0.124451   2.149904  -0.144935  -0.008507
    23  H   -0.175100  -0.017069  -0.004190  -0.144935   3.122587   0.051847
    24  C   -0.094095   0.019100   0.002698  -0.008507   0.051847   4.653952
    25  H   -0.019976   0.022613   0.002038   0.000282  -0.004272  -0.189673
    26  H    0.002521  -0.021383  -0.000784   0.000482  -0.000763  -0.020246
    27  H   -0.001063  -0.009618  -0.000107  -0.000004   0.000177   0.013397
    28  H    0.000220  -0.021679  -0.066561   0.006238  -0.000439  -0.004531
    29  O    0.000551   0.002012   0.004545   0.000051  -0.000016   0.000221
    30  H   -0.000218   0.001706   0.003540  -0.000048  -0.000155   0.000517
    31  O    0.000581   0.013876   0.000361  -0.000068  -0.000660   0.003387
    32  H    0.000310  -0.023983   0.002102  -0.000348   0.000403   0.001388
    33  H   -0.000322   0.007575  -0.000085  -0.000019   0.000093  -0.000549
    34  H    0.000910   0.014112   0.000407  -0.001035   0.002755   0.164635
    35  H    0.034320   0.000004  -0.003507   0.000481   0.009396   0.085160
    36  H    0.059983  -0.007188   0.000229   0.000290   0.001177   0.205305
    37  O   -0.000040  -0.004765   0.000900  -0.000030   0.000002   0.000014
    38  H   -0.000004   0.001415  -0.000045  -0.000004   0.000002  -0.000009
    39  H   -0.000002  -0.001579  -0.000057   0.000002   0.000000   0.000014
              25         26         27         28         29         30
     1  C   -0.190315   0.014299   0.012451  -0.087015   0.026295   0.009183
     2  C   -0.109328   0.007996  -0.003694  -0.029490  -0.071762   0.006601
     3  C   -0.009927  -0.001318  -0.001209   0.009765   0.015479   0.006427
     4  C   -0.011280  -0.002544   0.001082  -0.055054  -0.007910   0.000371
     5  C    0.007141   0.003723  -0.001305   0.075089   0.010735  -0.016757
     6  N   -0.000200   0.001649  -0.001001   0.125978  -0.059858  -0.015179
     7  C    0.120458  -0.003717  -0.007184   0.025325   0.013971  -0.004614
     8  C   -0.102116  -0.002094   0.001088  -0.010220  -0.001429   0.003183
     9  C    0.002789   0.014248  -0.005044  -0.001760  -0.001218   0.000155
    10  C   -0.328362   0.000464   0.000501  -0.000752   0.000670   0.000187
    11  N    0.387730   0.030489   0.013888  -0.011493  -0.002818   0.001623
    12  O   -0.089338   0.302390   0.360391  -0.000110  -0.001438   0.001815
    13  H   -0.016946   0.000029  -0.000164  -0.000064   0.000067   0.000084
    14  H   -0.012162   0.000820  -0.000508  -0.000025  -0.000064  -0.000026
    15  H    0.021187  -0.003340   0.003248  -0.000066  -0.000166   0.000022
    16  H    0.050355   0.005409   0.002922  -0.001761   0.000795   0.000957
    17  H    0.001530  -0.001861   0.000915  -0.000110   0.000172   0.000070
    18  H   -0.003564   0.005009  -0.003057   0.000460   0.000139  -0.000075
    19  H   -0.019976   0.002521  -0.001063   0.000220   0.000551  -0.000218
    20  H    0.022613  -0.021383  -0.009618  -0.021679   0.002012   0.001706
    21  H    0.002038  -0.000784  -0.000107  -0.066561   0.004545   0.003540
    22  H    0.000282   0.000482  -0.000004   0.006238   0.000051  -0.000048
    23  H   -0.004272  -0.000763   0.000177  -0.000439  -0.000016  -0.000155
    24  C   -0.189673  -0.020246   0.013397  -0.004531   0.000221   0.000517
    25  H    1.332040   0.000947  -0.030150  -0.001741  -0.006935  -0.000045
    26  H    0.000947   0.529933  -0.114672   0.001145  -0.006001  -0.002082
    27  H   -0.030150  -0.114672   0.573324   0.000031   0.001962   0.000277
    28  H   -0.001741   0.001145   0.000031   0.714015   0.297391  -0.180938
    29  O   -0.006935  -0.006001   0.001962   0.297391   7.938326   0.349163
    30  H   -0.000045  -0.002082   0.000277  -0.180938   0.349163   0.638011
    31  O    0.009270  -0.030438   0.007648  -0.003811  -0.069280   0.000926
    32  H    0.002630  -0.003172   0.001271  -0.004545   0.020138  -0.006252
    33  H   -0.001262  -0.008996   0.000452  -0.002099  -0.000576   0.002337
    34  H    0.073931  -0.003931  -0.000391  -0.000618  -0.000090  -0.000111
    35  H   -0.051695   0.007828  -0.002313   0.001336   0.001266   0.000302
    36  H   -0.100038  -0.004355   0.002920   0.000462   0.000021  -0.000027
    37  O    0.000455  -0.000666   0.000080  -0.005151  -0.061286  -0.012417
    38  H    0.000007   0.000028  -0.000016  -0.000076   0.000176  -0.006998
    39  H    0.000069  -0.000027   0.000018   0.002810   0.005245   0.004587
              31         32         33         34         35         36
     1  C   -0.105666  -0.011015   0.012111  -0.026575   0.170807  -0.021128
     2  C    0.058520   0.020840  -0.004348   0.024035  -0.010929   0.096821
     3  C   -0.022109  -0.022037   0.003600  -0.028659  -0.008876   0.023760
     4  C   -0.003290   0.013479  -0.001021   0.013221   0.053981  -0.026644
     5  C    0.017860  -0.008331  -0.000116  -0.005097  -0.032552   0.014732
     6  N    0.023816   0.013993  -0.005558   0.000574  -0.010636  -0.001634
     7  C    0.005658   0.000220  -0.000940   0.069992   0.000209  -0.190928
     8  C    0.001711  -0.001189   0.000381  -0.085344   0.068770   0.077920
     9  C   -0.000922  -0.000718  -0.000141   0.079466  -0.042505  -0.017023
    10  C   -0.000744  -0.000017   0.000819  -0.039382  -0.094531   0.183501
    11  N    0.001158   0.000478   0.005267  -0.135978  -0.108849  -0.388929
    12  O   -0.061977  -0.000692   0.004160   0.022506   0.015451  -0.009181
    13  H   -0.000382  -0.000524   0.000115  -0.006674   0.014162   0.014282
    14  H   -0.000140   0.000144  -0.000030  -0.003976  -0.001863   0.008856
    15  H    0.000190  -0.000194  -0.000009   0.010792  -0.003715  -0.008292
    16  H   -0.000622   0.001032  -0.000182  -0.012078   0.001597   0.008397
    17  H    0.000080  -0.000328   0.000087   0.002112   0.003237   0.003457
    18  H    0.000099   0.000629  -0.000311  -0.014496   0.010417   0.043218
    19  H    0.000581   0.000310  -0.000322   0.000910   0.034320   0.059983
    20  H    0.013876  -0.023983   0.007575   0.014112   0.000004  -0.007188
    21  H    0.000361   0.002102  -0.000085   0.000407  -0.003507   0.000229
    22  H   -0.000068  -0.000348  -0.000019  -0.001035   0.000481   0.000290
    23  H   -0.000660   0.000403   0.000093   0.002755   0.009396   0.001177
    24  C    0.003387   0.001388  -0.000549   0.164635   0.085160   0.205305
    25  H    0.009270   0.002630  -0.001262   0.073931  -0.051695  -0.100038
    26  H   -0.030438  -0.003172  -0.008996  -0.003931   0.007828  -0.004355
    27  H    0.007648   0.001271   0.000452  -0.000391  -0.002313   0.002920
    28  H   -0.003811  -0.004545  -0.002099  -0.000618   0.001336   0.000462
    29  O   -0.069280   0.020138  -0.000576  -0.000090   0.001266   0.000021
    30  H    0.000926  -0.006252   0.002337  -0.000111   0.000302  -0.000027
    31  O    7.926367   0.313446   0.350830   0.006353  -0.009161  -0.000355
    32  H    0.313446   0.536126  -0.123355   0.001079  -0.001830  -0.000010
    33  H    0.350830  -0.123355   0.618342   0.000357  -0.000806  -0.000029
    34  H    0.006353   0.001079   0.000357   1.948004  -0.597117  -0.348695
    35  H   -0.009161  -0.001830  -0.000806  -0.597117   1.943167  -0.399310
    36  H   -0.000355  -0.000010  -0.000029  -0.348695  -0.399310   1.920583
    37  O    0.000318   0.005103  -0.000072  -0.000003  -0.000059   0.000004
    38  H   -0.000062   0.000087  -0.000012   0.000001  -0.000008  -0.000000
    39  H    0.000144  -0.000887  -0.000019  -0.000001   0.000002   0.000002
              37         38         39
     1  C   -0.007424   0.000345  -0.000772
     2  C    0.004732   0.000348  -0.000059
     3  C   -0.000546  -0.000168  -0.000119
     4  C    0.000936   0.000106  -0.000015
     5  C    0.004778  -0.000718   0.000177
     6  N    0.003445   0.000364   0.000267
     7  C   -0.000243  -0.000024   0.000014
     8  C    0.000054  -0.000004  -0.000068
     9  C    0.000025   0.000001   0.000006
    10  C    0.000005   0.000001  -0.000012
    11  N    0.000079  -0.000005   0.000039
    12  O    0.000329  -0.000028   0.000047
    13  H   -0.000001  -0.000001  -0.000001
    14  H    0.000004   0.000001   0.000001
    15  H   -0.000025   0.000001  -0.000007
    16  H    0.000548  -0.000087   0.000157
    17  H   -0.000023   0.000001  -0.000011
    18  H    0.000006   0.000001  -0.000001
    19  H   -0.000040  -0.000004  -0.000002
    20  H   -0.004765   0.001415  -0.001579
    21  H    0.000900  -0.000045  -0.000057
    22  H   -0.000030  -0.000004   0.000002
    23  H    0.000002   0.000002   0.000000
    24  C    0.000014  -0.000009   0.000014
    25  H    0.000455   0.000007   0.000069
    26  H   -0.000666   0.000028  -0.000027
    27  H    0.000080  -0.000016   0.000018
    28  H   -0.005151  -0.000076   0.002810
    29  O   -0.061286   0.000176   0.005245
    30  H   -0.012417  -0.006998   0.004587
    31  O    0.000318  -0.000062   0.000144
    32  H    0.005103   0.000087  -0.000887
    33  H   -0.000072  -0.000012  -0.000019
    34  H   -0.000003   0.000001  -0.000001
    35  H   -0.000059  -0.000008   0.000002
    36  H    0.000004  -0.000000   0.000002
    37  O    7.705531   0.356098   0.333886
    38  H    0.356098   0.569994  -0.068665
    39  H    0.333886  -0.068665   0.564867
 Mulliken charges:
               1
     1  C    0.658623
     2  C    1.070037
     3  C    1.230564
     4  C    0.501794
     5  C    0.268291
     6  N   -0.455400
     7  C    1.231853
     8  C    0.934855
     9  C    0.750334
    10  C    1.237245
    11  N   -0.932343
    12  O   -0.482755
    13  H   -0.502780
    14  H   -0.228811
    15  H   -0.236864
    16  H   -0.282340
    17  H   -0.503010
    18  H   -0.487651
    19  H   -0.946524
    20  H   -1.127383
    21  H   -0.596236
    22  H   -0.596061
    23  H   -0.921812
    24  C    0.980385
    25  H    0.243852
    26  H    0.302982
    27  H    0.183459
    28  H    0.229848
    29  O   -0.398545
    30  H    0.213897
    31  O   -0.432912
    32  H    0.274529
    33  H    0.144332
    34  H   -0.124989
    35  H   -0.041631
    36  H   -0.142154
    37  O   -0.324582
    38  H    0.147956
    39  H    0.159946
 Sum of Mulliken charges =   1.00000
 Mulliken charges with hydrogens summed into heavy atoms:
               1
     1  C   -0.468759
     2  C    1.070037
     3  C    0.308752
     4  C   -0.094267
     5  C   -0.327945
     6  N   -0.455400
     7  C    0.285329
     8  C    0.149505
     9  C    0.284659
    10  C    0.246814
    11  N   -0.688491
    12  O    0.003685
    24  C    0.671611
    29  O    0.045201
    31  O   -0.014052
    37  O   -0.016680
 Electronic spatial extent (au):  <R**2>=           5196.1106
 Charge=              1.0000 electrons
 Dipole moment (field-independent basis, Debye):
    X=             -4.0396    Y=             -1.5837    Z=              0.9873  Tot=              4.4498
 Quadrupole moment (field-independent basis, Debye-Ang):
[...]
 ,-0.00038192,-0.00016037,-0.00019756,-0.00053246,0.00000115,-0.0001731
 5,0.00004151,0.00016378,-0.00011116,0.00008442,0.00002780,-0.00003097,
 0.00004726,-0.00031428,-0.00007649,-0.00002011,-0.00073750,0.00020988,
 -0.00014516,-0.00000856,0.00003095,-0.00004388,0.00019074,0.00037313,-
 0.00026899,-0.00022794,0.00034115,0.00034235,-0.00033439,-0.00159350,0
 .00025709,-0.00035212,-0.00003175,-0.00037360,0.00031650,0.00000667,-0
 .00011844,0.00000248,0.00002195,0.00010627,0.00001729,-0.00006144,-0.0
 0007562,0.00000813,0.00000248,0.00000502,-0.00001694,0.00000048,0.0000
 0836,-0.00029719,0.00022106,-0.00029339,-0.00008138,-0.00002768,0.0000
 4214,-0.00000205,-0.00001419,0.00013545,-0.00000644,-0.00000495,-0.000
 00514,-0.00000431,-0.00000760,-0.00000201,-0.00005123,-0.00005908,-0.0
 0002602,0.03130547,-0.05251721,0.00429435,0.00080964,0.00014901,0.0002
 9393,0.00017436,-0.00014099,0.00045865,0.00007887,0.00000019,-0.000014
 88,0.00010713,0.00025112,-0.00001534,0.00012262,-0.00026202,-0.0001535
 0,-0.00001306,-0.00002617,0.00002043,0.00018566,-0.00003351,-0.0004983
 7,-0.00031921,0.00027352,0.00030962,-0.00006821,-0.00011154,0.00006323
 ,0.02722115,-0.00098421,0.00383742,-0.03471224,0.05023951,0.00007056,0
 .00009629,-0.00023027,-0.00000204,-0.00038654,-0.00071612,0.00039957,-
 0.00041020,0.00006596,-0.00031308,-0.00008586,0.00005372,0.00008511,0.
 00021902,-0.00015974,0.00018701,-0.00013981,0.00012635,-0.00083441,0.0
 0073387,0.00141655,-0.00017058,0.00036994,0.00011591,-0.00182742,0.000
 18887,-0.00017689,0.00243841,-0.00112230,-0.00565713,-0.04069706,0.005
 10235,-0.00975526,0.00028778,0.00013577,0.00002327,-0.00008301,-0.0002
 5683,0.00001308,-0.00002783,-0.00005651,-0.00050241,-0.00005832,-0.000
 09433,-0.00020129,0.00004100,-0.00001597,-0.00003271,0.00005433,-0.000
 03388,0.00002680,-0.00012078,0.00015768,-0.00008482,0.00006265,-0.0001
 9323,-0.00018142,-0.00003996,0.00004690,-0.00003598,-0.00001236,0.0000
 1142,-0.00000276,-0.00000824,0.00001922,0.00000640,0.00003056,0.000061
 78,0.00002780,-0.01654227,0.00256078,-0.05155967,-0.00085736,-0.000380
 78,0.00118772,-0.00007683,0.00019320,-0.00012025,-0.00001203,-0.000006
 55,-0.00000129,0.00009948,0.00012100,-0.00002619,-0.00009246,-0.000115
 59,0.00002493,0.00003344,0.00002420,-0.00004280,0.00003794,-0.00012076
 ,-0.00013698,0.00002662,0.00006470,0.00000091,-0.00001388,-0.00004102,
 0.00009430,0.01194738,0.00027013,0.00211099,0.03252400,-0.00364018,0.0
 6176494,-0.00022255,-0.00004218,0.00009015,-0.00007904,0.00008745,-0.0
 0005374,0.00006714,-0.00022720,0.00004002,-0.00018350,0.00002075,-0.00
 005987,0.00002682,0.00011146,-0.00006821,0.00029724,-0.00002898,0.0000
 2942,-0.00000901,-0.00006433,0.00027941,0.00012463,0.00016801,0.000054
 20,-0.00003722,-0.00008278,0.00003529,0.00191981,0.00134386,-0.0010388
 6,0.00333688,0.00786329,-0.00597620,0.00022175,0.00017936,0.00006400,-
 0.00014152,-0.00027649,0.00003417,-0.00000026,-0.00002421,0.00001586,-
 0.00001677,0.00001146,0.00005123,-0.00009376,0.00003556,-0.00004104,-0
 .00001793,-0.00000961,0.00003836,-0.00012013,-0.00003222,-0.00002313,0
 .00007181,0.00012229,0.00037185,0.00000887,0.00000367,-0.00007852,0.00
 000773,0.00001014,-0.00000246,-0.00000556,0.00000746,0.00000999,0.0000
 5946,0.00015828,0.00006358,-0.11883850,-0.10596834,0.06217971,-0.00022
 604,-0.00000763,-0.00186393,-0.00012320,0.00011506,-0.00018595,-0.0000
 0668,0.00001522,0.00001381,-0.00002407,-0.00007744,-0.00000275,-0.0000
 6000,0.00007840,0.00006312,0.00001192,0.00001309,-0.00001384,-0.000089
 98,-0.00009307,0.00018048,0.00012522,-0.00008834,-0.00011543,0.0000111
 3,0.00002994,0.00001157,0.00478293,0.00799087,-0.00517231,-0.01048036,
 -0.02347114,0.01347914,0.11970812,0.00010984,0.00003156,-0.00000948,-0
 .00013711,-0.00009530,0.00011142,-0.00001246,0.00005569,0.00009241,0.0
 0002594,-0.00001442,0.00000399,-0.00000225,-0.00004255,0.00001218,-0.0
 0009691,0.00004101,0.00000194,0.00071814,0.00136305,-0.00100005,0.0000
 3059,0.00012022,-0.00017701,0.00020072,0.00020855,-0.00009594,-0.00026
 229,-0.00024647,-0.00013574,0.00114979,0.00098415,-0.00145506,-0.00000
 958,0.00000685,0.00026808,0.00063060,0.00006567,0.00041597,0.00001372,
 0.00002226,0.00005378,0.00004060,-0.00003764,-0.00010433,-0.00004434,-
 0.00004477,-0.00006591,0.00001229,-0.00002919,0.00004703,-0.00008441,-
 0.00000938,-0.00001592,-0.00027039,0.00027830,0.00021340,-0.00000283,-
 0.00001851,-0.00001240,-0.00000659,-0.00000305,-0.00000030,0.00000206,
 0.00000374,0.00000141,-0.00001538,-0.00002794,-0.00002988,-0.10355955,
 -0.20674538,0.09280483,0.00026571,0.00082716,-0.00096907,0.00016793,0.
 00002293,-0.00010115,-0.00004726,0.00000149,-0.00004284,0.00001019,-0.
 00000131,-0.00000059,-0.00005838,0.00001906,0.00003787,0.00001651,0.00
 001445,-0.00002072,-0.00014979,0.00003228,0.00006291,0.00006862,-0.000
 06767,-0.00005478,0.00003427,0.00001904,-0.00000533,-0.01437219,-0.016
 25374,0.01254983,0.00351079,0.00410501,-0.00326780,0.11213027,0.215418
 20,-0.00006741,0.00020021,-0.00003158,-0.00008026,-0.00030940,-0.00001
 644,0.00009460,0.00006945,-0.00001548,0.00000718,-0.00003943,0.0000314
 8,0.00002951,-0.00002247,-0.00001199,-0.00003771,-0.00007064,0.0000449
 0,0.00067587,0.00288398,0.00130556,-0.00026854,-0.00031085,0.00021114,
 -0.00008031,-0.00025322,0.00036256,0.00280395,0.00018904,0.00087649,0.
 01729617,0.02934902,-0.02626631,0.00068746,0.00118315,-0.00002080,-0.0
 0101134,-0.00019449,0.00026283,-0.00000326,-0.00001936,-0.00005841,0.0
 0003398,0.00001075,0.00013623,0.00001742,-0.00006151,0.00022670,-0.000
 07009,-0.00003605,-0.00002365,-0.00023939,-0.00007818,0.00003671,-0.00
 031788,-0.00110183,-0.00020259,-0.00005654,-0.00002032,0.00002150,-0.0
 0000628,-0.00000522,0.00000501,-0.00000238,0.00000149,0.00000092,0.000
 01279,-0.00007100,0.00000585,0.05506046,0.08371124,-0.09806062,-0.0034
 0977,-0.00363070,-0.00451891,-0.00028205,0.00014989,-0.00037249,0.0001
 3163,0.00014361,0.00004229,0.00001229,0.00003039,-0.00001090,-0.000025
 13,-0.00002170,0.00003383,0.00001023,0.00001090,-0.00001627,0.00006827
 ,-0.00002951,0.00020312,0.00002796,-0.00002039,-0.00002984,0.00004634,
 0.00001927,-0.00002430,-0.00716438,-0.00880801,0.00705337,-0.00147003,
 -0.00372300,0.00254420,-0.06241777,-0.09912181,0.11626747,0.00019963,0
 .00012586,-0.00006822,0.00000796,-0.00010894,0.00007398,-0.00004869,0.
 00001918,-0.00000385,0.00005243,-0.00006715,0.00005692,-0.00034964,0.0
 0018184,-0.00003933,-0.00019259,-0.00066992,0.00001174,0.00004646,-0.0
 0000860,0.00000187,0.00002446,0.00003577,-0.00001086,0.00000060,0.0000
 0370,-0.00000760,0.00005904,0.00000718,0.00000927,-0.00008388,-0.00007
 629,0.00004818,-0.00039697,-0.00012619,0.00010410,-0.00000410,-0.00001
 112,0.00000336,-0.00001120,-0.00000847,0.00000585,0.00001469,0.0000047
 5,0.00000594,-0.00000090,0.00000350,0.00001566,-0.00000452,-0.00000827
 ,0.00000780,0.00001225,0.00000474,-0.00001008,-0.00001426,-0.00001061,
 0.00001218,0.00011493,0.00004381,-0.00004240,0.00001788,-0.00002269,0.
 00001024,-0.00002299,-0.00002675,0.00001571,-0.00000820,-0.00001146,0.
 00000373,0.00000368,-0.00000042,-0.00003924,0.00012869,0.00021205,-0.0
 0009822,0.00039633,0.00003961,0.00003352,0.00013104,-0.00004997,-0.000
 05844,-0.00010799,0.00144988,0.00073930,-0.00125125,-0.00446462,0.0068
 5975,-0.00719901,0.00330160,-0.00104144,-0.00076505,0.00031089,0.00065
 988,0.00101500,-0.00067013,-0.00094823,-0.00004912,-0.00005331,-0.0001
 5823,0.00001275,0.00000664,-0.00001370,0.00000252,0.00001777,-0.000019
 47,-0.00000999,-0.00001287,-0.00000515,0.59975757,0.00016243,-0.000116
 02,0.00003066,-0.00004432,0.00000506,-0.00000241,0.00001332,-0.0000337
 4,0.00002622,-0.00010643,-0.00001611,0.00001930,0.00005782,0.00012906,
 -0.00007181,-0.00022760,-0.00010153,0.00012336,0.00010806,-0.00009667,
 -0.00005506,-0.00001464,0.00002812,0.00002572,0.00000026,-0.00001163,-
 0.00000886,0.00003185,0.00000024,0.00001112,-0.00003711,0.00007745,0.0
 0000005,-0.00002401,0.00018397,-0.00005581,0.00000042,-0.00000005,-0.0
 0000128,-0.00000767,0.00000215,0.00000172,-0.00000934,0.00000814,-0.00
 000221,0.00000843,-0.00001922,0.00000664,0.00001010,0.00000507,0.00000
 424,-0.00001073,0.00000378,0.00000388,-0.00001656,0.00000320,0.0000077
 8,0.00004083,-0.00000423,-0.00001651,0.00001061,0.00005291,-0.00005804
 ,-0.00000411,-0.00000541,-0.00000316,-0.00001432,-0.00000784,0.0000014
 6,0.00000808,0.00000399,-0.00001608,-0.00001863,-0.00013060,0.00003806
 ,0.00003750,-0.00008665,0.00004724,-0.00003886,-0.00006019,0.00002654,
 0.00045620,0.00036364,-0.00033522,-0.00478203,0.00139981,0.00474382,0.
 00277849,-0.00349568,0.00023299,-0.00052018,0.00072131,0.00030957,0.00
 085495,-0.00105558,-0.00058042,-0.00011492,-0.00012714,0.00013386,-0.0
 0001092,0.00000274,0.00000273,0.00000113,-0.00001911,-0.00001646,0.000
 00487,-0.00000184,-0.00000552,-0.02564598,0.28054693,-0.00031018,0.000
 06555,-0.00002792,0.00005145,0.00005258,-0.00006703,0.00002443,0.00002
 239,-0.00002387,0.00004155,0.00007286,-0.00009526,0.00026049,-0.000244
 81,0.00005681,0.00050724,0.00105544,0.00022452,-0.00011444,0.00002181,
 -0.00001708,0.00002872,-0.00001708,-0.00003070,0.00000122,0.00000196,0
 .00001299,-0.00009860,-0.00000683,-0.00003382,0.00012473,0.00004295,0.
 00000407,0.00060730,0.00013487,0.00029875,0.00000561,0.00000543,0.0000
 0579,0.00001071,0.00000778,0.00000034,0.00000491,-0.00001814,-0.000008
 13,-0.00001137,-0.00001258,-0.00003949,0.00000879,0.00001564,-0.000013
 12,-0.00000348,-0.00000048,0.00000635,0.00002503,0.00000742,0.00000173
 ,-0.00010826,-0.00008273,-0.00004800,-0.00003890,-0.00004464,-0.000005
 95,0.00002174,0.00002247,-0.00003066,0.00001600,0.00001025,-0.00000826
 ,-0.00003331,0.00000796,-0.00001151,-0.00012131,-0.00013954,0.00003746
 ,-0.00088722,-0.00009191,-0.00040575,-0.00004292,0.00003166,-0.0001018
 6,-0.00019196,-0.00229344,-0.00132064,0.00885783,0.00506727,-0.0055489
 4,-0.00357609,-0.00150179,-0.00513344,0.00167001,-0.00071438,-0.000794
 37,-0.00201169,0.00136680,0.00142951,-0.00004634,0.00009179,0.00011912
 ,-0.00002136,-0.00000719,0.00001486,-0.00000737,-0.00003096,0.00002160
 ,0.00001373,0.00001496,0.00001112,0.13898437,-0.28532774,0.32553886,-0
 .00005127,-0.00001201,0.00001103,0.00000604,0.00002862,-0.00001447,0.0
 0001229,-0.00000469,0.00000160,-0.00000502,0.00000924,-0.00001022,0.00
 006551,-0.00004511,0.00001381,0.00005974,0.00012609,-0.00003308,-0.000
 01240,0.00000370,-0.00000010,-0.00000507,-0.00000931,0.00000173,-0.000
 00051,-0.00000162,0.00000185,-0.00001539,-0.00000312,-0.00000204,0.000
 02290,0.00002113,-0.00001384,0.00009990,0.00004152,-0.00001429,0.00000
 102,0.00000325,-0.00000108,0.00000302,0.00000221,-0.00000113,-0.000003
 58,-0.00000103,-0.00000143,0.00000096,0.00000002,-0.00000372,0.0000003
 9,0.00000139,-0.00000130,-0.00000316,-0.00000147,0.00000275,0.00000408
 ,0.00000281,-0.00000342,-0.00002025,-0.00000983,0.00000395,-0.00000327
 ,-0.00000564,0.00000746,0.00000638,0.00000637,-0.00000328,0.00000357,0
 .00000191,-0.00000081,-0.00000069,-0.00000103,0.00001124,-0.00003302,-
 0.00005649,0.00002510,-0.00010752,-0.00001662,-0.00002254,-0.00002760,
 0.00000449,0.00001097,-0.00009704,-0.00024731,0.00006251,0.00075994,0.
 00043775,-0.00019330,-0.00211955,-0.00068342,-0.00021452,0.00018220,-0
 .00001881,-0.00015330,-0.00019749,0.00007184,0.00020002,-0.00001310,-0
 .00000274,0.00005867,-0.00000393,-0.00000212,0.00000359,-0.00000085,-0
 .00000515,0.00000537,0.00000312,0.00000394,0.00000154,-0.52711809,-0.0
 1056019,-0.09644620,0.53810544,0.00000109,0.00006645,-0.00002539,0.000
 02311,-0.00002737,0.00001544,-0.00001984,0.00001853,-0.00001270,0.0000
 7052,-0.00001731,0.00000591,-0.00015244,0.00000397,0.00001599,0.000058
 77,-0.00012756,-0.00002528,-0.00003554,0.00003442,0.00002269,0.0000088
 4,-0.00000585,-0.00001194,-0.00000015,0.00000362,0.00000354,-0.0000045
 9,0.00000008,-0.00000279,0.00000606,-0.00003587,0.00000255,-0.00005736
 ,-0.00007459,-0.00000506,-0.00000060,-0.00000067,0.00000051,0.00000120
 ,-0.00000136,-0.00000014,0.00000454,-0.00000236,0.00000132,-0.00000221
 ,0.00000582,-0.00000007,-0.00000436,-0.00000270,-0.00000100,0.00000514
 ,-0.00000121,-0.00000188,0.00000362,-0.00000171,-0.00000160,0.00001796
 ,0.00000542,0.00000003,-0.00000467,-0.00003686,0.00003424,-0.00000727,
 -0.00000537,0.00000688,0.00000634,0.00000137,0.00000052,-0.00000096,-0
 .00000167,0.00000474,0.00002175,0.00006622,-0.00002240,0.00008003,0.00
 003346,0.00003084,0.00001304,0.00001028,-0.00000214,-0.00025382,0.0002
 9627,-0.00006991,0.00010640,-0.00065429,0.00089120,-0.00001241,0.00061
 309,-0.00174382,-0.00007644,-0.00008686,0.00000982,0.00004842,0.000055
 81,0.00001152,0.00003411,0.00003456,-0.00003911,0.00000670,-0.00000041
 ,-0.00000207,0.00000053,0.00001164,0.00000321,-0.00000388,-0.00000111,
 0.00000094,-0.05187691,-0.02504486,0.01499874,0.01816755,0.02475987,0.
 00000754,-0.00002033,0.00000855,-0.00001121,0.00000364,0.00000020,0.00
 000617,-0.00000596,0.00000398,-0.00002772,0.00000282,0.00000034,0.0000
 4657,0.00000186,-0.00000346,-0.00004483,-0.00003003,-0.00004309,0.0000
 1434,0.00000480,0.00000590,-0.00000686,0.00000030,0.00000543,-0.000000
 57,-0.00000028,-0.00000163,0.00001528,0.00000064,0.00000508,-0.0000188
 9,-0.00000490,-0.00000835,-0.00007191,-0.00002349,-0.00006794,-0.00000
 042,0.00000039,-0.00000115,-0.00000117,-0.00000119,-0.00000048,-0.0000
 0144,0.00000303,0.00000089,0.00000228,0.00000396,0.00000573,-0.0000018
 7,-0.00000304,0.00000184,-0.00000006,-0.00000077,-0.00000015,-0.000001
 85,-0.00000066,-0.00000109,-0.00000022,0.00000899,0.00001281,0.0000065
 8,0.00002848,0.00001285,0.00000254,0.00000366,0.00000523,-0.00000334,0
 .00000055,0.00000321,0.00000844,-0.00000128,0.00001079,0.00001058,0.00
 001092,0.00000262,0.00012366,0.00001986,0.00007597,-0.00000215,0.00000
 219,0.00002296,0.00011799,0.00009198,-0.00005638,-0.00021442,0.0007675
 2,-0.00243059,0.00142935,-0.00127551,0.00432773,-0.00012886,-0.0000269
 9,-0.00006156,0.00006813,0.00004715,0.00002738,0.00007251,-0.00000717,
 -0.00000268,0.00000475,0.00000047,-0.00000131,0.00000157,0.00000583,0.
 00000106,-0.00000159,-0.00000170,-0.00000134,-0.05798902,0.02323001,-0
 .03879076,0.09201822,-0.02094106,0.04230206,0.00006357,-0.00010302,0.0
 0004076,-0.00002432,0.00003455,-0.00001010,0.00001195,-0.00002022,0.00
 001119,-0.00003566,-0.00000364,0.00001474,0.00002052,0.00003511,-0.000
 01337,-0.00011873,-0.00009999,-0.00004494,0.00003053,-0.00002421,-0.00
 000586,-0.00002531,-0.00001043,0.00002117,-0.00000057,-0.00000622,0.00
 000022,0.00000266,-0.00000188,0.00000759,0.00000416,0.00004764,-0.0000
 2791,0.00000667,0.00007335,-0.00019241,0.00000022,0.00000483,-0.000004
 29,0.00000153,0.00000343,-0.00000355,-0.00001288,0.00000442,-0.0000012
 6,0.00000700,-0.00000415,0.00000407,0.00000208,0.00000128,0.00000003,-
 0.00000839,-0.00000203,0.00000537,-0.00000412,0.00000496,-0.00000622,-
 0.00000494,0.00000073,0.00003008,0.00000259,0.00001480,-0.00000956,-0.
 00000112,-0.00000013,0.00000168,-0.00000101,0.00000015,0.00000030,0.00
 000985,-0.00000178,0.00002240,-0.00003793,-0.00010721,0.00005329,0.000
 11065,-0.00001092,0.00014690,-0.00007871,-0.00000036,0.00008567,0.0001
 8610,0.00025560,0.00005438,-0.00262268,-0.00024536,0.00187177,0.004180
 07,-0.00031287,-0.00241931,-0.00032992,0.00027408,0.00000281,0.0004468
 2,-0.00041681,-0.00015599,0.00000174,-0.00002796,0.00006827,-0.0000026
 6,-0.00000083,0.00000339,0.00000090,-0.00000322,-0.00000096,0.00000150
 ,0.00000206,-0.00000199,-0.06435947,0.03762318,-0.04719487,-0.00949767
 ,0.03382774,-0.03542812,0.07207503,-0.00002464,0.00000002,-0.00000273,
 -0.00000342,0.00000254,0.00000221,-0.00000420,0.00000740,-0.00000301,0
 .00002138,0.00000505,-0.00000294,-0.00000290,-0.00002314,0.00001630,0.
 00002247,-0.00000115,-0.00006490,-0.00002718,0.00003432,0.00002446,-0.
 00000347,-0.00001221,-0.00000179,-0.00000029,0.00000635,0.00000022,-0.
 00000456,0.00000202,0.00000069,0.00000277,-0.00003339,-0.00000363,-0.0
 0002734,-0.00009722,-0.00002248,-0.00000081,-0.00000012,-0.00000075,0.
 00000272,-0.00000154,-0.00000114,0.00000120,-0.00000060,0.00000243,-0.
 00000288,0.00000971,0.00000305,-0.00000525,-0.00000442,-0.00000018,0.0
 0000378,-0.00000162,-0.00000302,0.00000339,-0.00000158,-0.00000536,-0.
 00001816,0.00001405,0.00002511,0.00000188,-0.00000065,0.00001021,0.000
 00095,0.00000141,0.00000339,0.00000238,0.00000314,0.00000024,-0.000000
 36,-0.00000217,0.00000943,0.00001574,0.00006024,-0.00001329,0.00005029
 ,0.00004993,0.00002443,0.00001249,0.00003986,0.00000450,0.00016327,0.0
 0003812,0.00001408,0.00051008,0.00043301,-0.00062429,-0.00074454,-0.00
 099610,0.00044414,0.00002143,-0.00015801,-0.00000544,-0.00008780,0.000
 16020,0.00006126,0.00000779,0.00004954,-0.00004870,0.00000549,-0.00000
 035,-0.00000250,0.00000012,0.00000906,0.00000426,-0.00000291,-0.000000
 38,0.00000128,0.07816191,-0.25310346,0.26741565,-0.00724615,0.00010913
 ,-0.00189470,-0.07080470,0.25340298,0.00001665,0.00000789,-0.00000510,
 -0.00000456,-0.00001606,0.00000575,-0.00000463,-0.00000287,0.00000266,
 -0.00001039,-0.00000560,0.00000535,-0.00000640,0.00002094,-0.00000696,
 -0.00004954,-0.00007169,-0.00001314,0.00001519,0.00001254,0.00001358,-
 0.00000598,0.00000040,0.00000346,-0.00000006,0.00000019,-0.00000148,0.
 00002288,0.00000309,0.00000897,-0.00003156,-0.00002826,-0.00000100,-0.
 00015347,-0.00008172,-0.00003800,-0.00000182,-0.00000172,-0.00000170,-
 0.00000209,-0.00000291,0.00000020,0.00000044,0.00000487,0.00000352,0.0
 0000314,0.00000676,0.00001083,-0.00000358,-0.00000614,0.00000364,0.000
 00323,-0.00000041,-0.00000235,-0.00000277,-0.00000311,-0.00000211,0.00
 001402,0.00001889,0.00000987,0.00000600,0.00000967,0.00000262,-0.00000
 052,-0.00000099,0.00000500,-0.00000275,-0.00000060,0.00000343,0.000005
 13,-0.00000187,0.00000528,0.00003824,0.00007078,-0.00002124,0.00019362
 ,0.00004890,0.00005547,0.00004260,0.00000818,0.00002056,0.00023717,0.0
 0012611,-0.00004927,0.00063975,-0.00043132,-0.00019864,-0.00157882,0.0
 0123888,-0.00039830,-0.00014477,-0.00015860,0.00007036,0.00004541,0.00
 018973,-0.00009542,0.00005767,0.00002794,-0.00009359,0.00000772,0.0000
 0178,-0.00000433,0.00000094,0.00000965,-0.00000253,-0.00000348,-0.0000
 0418,-0.00000137,-0.08710989,0.25752959,-0.27522733,0.00469267,0.00684
 773,-0.00537063,0.08307463,-0.26536648,0.28130393\\-0.00000132,0.00000
 005,0.00000248,-0.00000001,-0.00000102,0.00000039,0.00000141,0.0000005
 8,0.00000008,0.00000046,0.00000065,0.00000023,0.00000223,0.00000246,0.
 00000082,-0.00000581,-0.00000281,-0.00000608,-0.00000062,0.00000366,0.
 00000490,-0.00000007,-0.00000072,-0.00000078,-0.00000033,-0.00000158,0
 .00000080,-0.00000125,-0.00000023,-0.00000091,0.00000034,-0.00000677,-
 0.00000486,0.00000640,0.00000545,-0.00000280,0.00000012,-0.00000103,0.
 00000022,-0.00000018,-0.00000048,0.00000016,0.00000018,-0.00000066,0.0
 0000014,-0.00000016,-0.00000040,-0.00000044,0.00000066,-0.00000067,0.0
 0000036,-0.00000029,-0.00000082,0.00000040,0.00000012,-0.00000023,0.00
 000083,-0.00000018,-0.00000057,-0.00000147,0.00000027,-0.00000007,-0.0
 0000066,0.00000071,0.00000039,0.00000009,0.00000063,-0.00000002,0.0000
 0022,0.00000034,0.00000032,0.00000270,0.00000269,0.00000529,-0.0000025
 4,0.00000065,-0.00000099,0.00000292,-0.00000729,-0.00000461,0.00000100
 ,0.00000518,0.00000849,0.00001328,0.00001208,-0.00001135,-0.00003174,-
 0.00001094,0.00000336,0.00001817,-0.00000045,-0.00001396,0.00000140,-0
 .00000862,0.00001033,0.00000574,0.00000188,0.00000751,-0.00000252,-0.0
 0000045,-0.00000057,-0.00000020,-0.00000015,-0.00000044,0.00000038,0.0
 0000112,-0.00000089,0.00000003,0.00000656,-0.00000122,-0.00000347,0.00
 000199,0.00000063,0.00000246,-0.00000787,0.00000294,-0.00000174\\\@


 In the beginning there was nothing, which exploded.
 Job cpu time:       1 days  6 hours 36 minutes 13.5 seconds.
 Elapsed time:       0 days  1 hours  5 minutes 39.9 seconds.
 File lengths (MBytes):  RWF=   1240 Int=      0 D2E=      0 Chk=     32 Scr=      8
 Normal termination of Gaussian 16 at Wed Feb  1 16:22:40 2023.
