 Entering Gaussian System, Link 0=g16
 Input=NicPyWa4h4wB07XDaVDZ130K.gjf
 Output=NicPyWa4h4wB07XDaVDZ130K.log
 Initial command:
 /sw/contrib/gaussian/g16/A03/g16/l1.exe "/gscratch/scrubbed/gds001/Gau-32766.inp" -scrdir="/gscratch/scrubbed/gds001/"
 Entering Link 1 = /sw/contrib/gaussian/g16/A03/g16/l1.exe PID=     32767.
  
 Copyright (c) 1988,1990,1992,1993,1995,1998,2003,2009,2016,
            Gaussian, Inc.  All Rights Reserved.
  
 This is part of the Gaussian(R) 16 program.  It is based on
 the Gaussian(R) 09 system (copyright 2009, Gaussian, Inc.),
 the Gaussian(R) 03 system (copyright 2003, Gaussian, Inc.),
 the Gaussian(R) 98 system (copyright 1998, Gaussian, Inc.),
 the Gaussian(R) 94 system (copyright 1995, Gaussian, Inc.),
 the Gaussian 92(TM) system (copyright 1992, Gaussian, Inc.),
 the Gaussian 90(TM) system (copyright 1990, Gaussian, Inc.),
 the Gaussian 88(TM) system (copyright 1988, Gaussian, Inc.),
 the Gaussian 86(TM) system (copyright 1986, Carnegie Mellon
 University), and the Gaussian 82(TM) system (copyright 1983,
 Carnegie Mellon University). Gaussian is a federally registered
 trademark of Gaussian, Inc.
  
 This software contains proprietary and confidential information,
 including trade secrets, belonging to Gaussian, Inc.
  
 This software is provided under written license and may be
 used, copied, transmitted, or stored only in accord with that
 written license.
  
 The following legend is applicable only to US Government
 contracts under FAR:
  
                    RESTRICTED RIGHTS LEGEND
  
 Use, reproduction and disclosure by the US Government is
 subject to restrictions as set forth in subparagraphs (a)
 and (c) of the Commercial Computer Software - Restricted
 Rights clause in FAR 52.227-19.
  
 Gaussian, Inc.
 340 Quinnipiac St., Bldg. 40, Wallingford CT 06492
  
  
 ---------------------------------------------------------------
 Warning -- This program may not be used in any manner that
 competes with the business of Gaussian, Inc. or will provide
 assistance to any competitor of Gaussian, Inc.  The licensee
 of this program is prohibited from giving any competitor of
 Gaussian, Inc. access to this program.  By using this program,
 the user acknowledges that Gaussian, Inc. is engaged in the
 business of creating and licensing software in the field of
 computational chemistry and represents and warrants to the
 licensee that it is not a competitor of Gaussian, Inc. and that
 it will not use this program in any manner prohibited above.
 ---------------------------------------------------------------
  

 Cite this work as:
 Gaussian 16, Revision A.03,
 M. J. Frisch, G. W. Trucks, H. B. Schlegel, G. E. Scuseria, 
 M. A. Robb, J. R. Cheeseman, G. Scalmani, V. Barone, 
 G. A. Petersson, H. Nakatsuji, X. Li, M. Caricato, A. V. Marenich, 
 J. Bloino, B. G. Janesko, R. Gomperts, B. Mennucci, H. P. Hratchian, 
 J. V. Ortiz, A. F. Izmaylov, J. L. Sonnenberg, D. Williams-Young, 
 F. Ding, F. Lipparini, F. Egidi, J. Goings, B. Peng, A. Petrone, 
 T. Henderson, D. Ranasinghe, V. G. Zakrzewski, J. Gao, N. Rega, 
 G. Zheng, W. Liang, M. Hada, M. Ehara, K. Toyota, R. Fukuda, 
 J. Hasegawa, M. Ishida, T. Nakajima, Y. Honda, O. Kitao, H. Nakai, 
 T. Vreven, K. Throssell, J. A. Montgomery, Jr., J. E. Peralta, 
 F. Ogliaro, M. J. Bearpark, J. J. Heyd, E. N. Brothers, K. N. Kudin, 
 V. N. Staroverov, T. A. Keith, R. Kobayashi, J. Normand, 
 K. Raghavachari, A. P. Rendell, J. C. Burant, S. S. Iyengar, 
 J. Tomasi, M. Cossi, J. M. Millam, M. Klene, C. Adamo, R. Cammi, 
 J. W. Ochterski, R. L. Martin, K. Morokuma, O. Farkas, 
 J. B. Foresman, and D. J. Fox, Gaussian, Inc., Wallingford CT, 2016.
 
 ******************************************
 Gaussian 16:  ES64L-G16RevA.03 25-Dec-2016
                27-Aug-2020 
 ******************************************
 %nprocshared=28
 Will use up to   28 processors via shared memory.
 %mem=41GB
 %chk=NicPyWa4h4.chk
 -----------------------------------------
 # wB97XD/aug-cc-pVDZ Temperature=130 Freq
 -----------------------------------------
 1/10=4,30=1,38=1,112=130000/1,3;
 2/12=2,17=6,18=5,40=1/2;
 3/5=16,7=10,11=2,25=1,30=1,71=2,74=-58,140=1/1,2,3;
 4//1;
 5/5=2,38=5,98=1/2;
 8/6=4,10=90,11=11/1;
 11/6=1,8=1,9=11,15=111,16=1/1,2,10;
 10/6=1/2;
 6/7=2,8=2,9=2,10=2,28=1/1;
 7/8=1,10=1,25=1/1,2,3,16;
 1/10=4,30=1/3;
 99//99;
 ---------------------------
 p-Py Nicotine, W anti, 4H2O
 ---------------------------
 Symbolic Z-matrix:
 Charge =  1 Multiplicity = 1
 C                    -0.1753    2.5585    0.34999 
 C                     0.2735    1.33955  -0.1596 
 C                    -0.67566   0.50259  -0.73107 
 N                    -1.96309   0.86234  -0.77749 
 C                    -2.41588   2.02302  -0.28296 
 C                    -1.52372   2.91045   0.28488 
 C                     1.72441   0.92873  -0.08741 
 N                     1.9204   -0.3566    0.59958 
 C                     3.32923  -0.67908   0.32698 
 C                     3.51492  -0.33068  -1.15578 
 C                     2.41122   0.71439  -1.44821 
 O                    -3.41897  -1.28493  -1.39087 
 O                    -1.99325  -2.71419   0.44339 
 O                     0.49535  -2.43057  -0.50827 
 H                     3.52895  -1.7311    0.56487 
 H                     4.51854   0.0608   -1.34871 
 H                     3.38256  -1.21621  -1.78739 
 H                     2.80442   1.6574   -1.84188 
 H                     1.69142   0.32899  -2.1805 
 H                     3.98866  -0.06031   0.96223 
 H                     2.26494   1.7193    0.46862 
 H                    -0.44003  -0.47661  -1.14401 
 H                    -3.48584   2.19948  -0.35186 
 H                    -1.88147   3.85583   0.68494 
 H                     0.53693   3.24127   0.81385 
 C                     1.59799  -0.3151    2.02377 
 H                    -2.63173   0.14573  -1.14169 
 H                     1.05191  -1.716    -0.08897 
 H                     1.08842  -3.12687  -0.7983 
 H                    -3.03665  -1.96883  -0.80518 
 H                    -3.75801  -1.72275  -2.17427 
 H                    -2.19618  -3.5726    0.82322 
 H                    -1.05748  -2.75121   0.13758 
 H                    -2.0289   -1.19734   1.6105 
 O                    -1.91129  -0.30249   1.96851 
 H                    -2.32258  -0.31673   2.83558 
 H                     1.82268  -1.29051   2.47092 
 H                     0.52838  -0.11316   2.15967 
 H                     2.191     0.45433   2.55049 
 

 GradGradGradGradGradGradGradGradGradGradGradGradGradGradGradGradGradGrad
 Berny optimization.
 Initialization pass.
 Trust Radius=3.00D-01 FncErr=1.00D-07 GrdErr=1.00D-07 EigMax=2.50D+02 EigMin=1.00D-04
 Number of steps in this run=      2 maximum allowed number of steps=      2.
 GradGradGradGradGradGradGradGradGradGradGradGradGradGradGradGradGradGrad

                          Input orientation:                          
 ---------------------------------------------------------------------
 Center     Atomic      Atomic             Coordinates (Angstroms)
 Number     Number       Type             X           Y           Z
 ---------------------------------------------------------------------
      1          6           0       -0.175302    2.558497    0.349992
      2          6           0        0.273503    1.339553   -0.159601
      3          6           0       -0.675656    0.502593   -0.731068
      4          7           0       -1.963086    0.862341   -0.777487
      5          6           0       -2.415883    2.023020   -0.282963
      6          6           0       -1.523716    2.910449    0.284876
      7          6           0        1.724409    0.928734   -0.087412
      8          7           0        1.920398   -0.356595    0.599578
      9          6           0        3.329230   -0.679078    0.326984
     10          6           0        3.514915   -0.330681   -1.155778
     11          6           0        2.411218    0.714391   -1.448208
     12          8           0       -3.418974   -1.284934   -1.390866
     13          8           0       -1.993248   -2.714185    0.443387
     14          8           0        0.495347   -2.430566   -0.508268
     15          1           0        3.528949   -1.731101    0.564867
     16          1           0        4.518542    0.060803   -1.348710
     17          1           0        3.382563   -1.216212   -1.787387
     18          1           0        2.804416    1.657400   -1.841884
     19          1           0        1.691415    0.328990   -2.180502
     20          1           0        3.988655   -0.060305    0.962227
     21          1           0        2.264939    1.719297    0.468624
     22          1           0       -0.440026   -0.476613   -1.144012
     23          1           0       -3.485837    2.199483   -0.351855
     24          1           0       -1.881466    3.855832    0.684943
     25          1           0        0.536925    3.241268    0.813854
     26          6           0        1.597986   -0.315104    2.023766
     27          1           0       -2.631730    0.145728   -1.141690
     28          1           0        1.051907   -1.715996   -0.088966
     29          1           0        1.088415   -3.126873   -0.798296
     30          1           0       -3.036651   -1.968826   -0.805179
     31          1           0       -3.758011   -1.722753   -2.174267
     32          1           0       -2.196180   -3.572599    0.823221
     33          1           0       -1.057477   -2.751213    0.137575
     34          1           0       -2.028901   -1.197340    1.610497
     35          8           0       -1.911291   -0.302488    1.968509
     36          1           0       -2.322580   -0.316728    2.835579
     37          1           0        1.822684   -1.290505    2.470923
     38          1           0        0.528382   -0.113163    2.159674
     39          1           0        2.190996    0.454332    2.550494
 ---------------------------------------------------------------------
                    Distance matrix (angstroms):
                    1          2          3          4          5
     1  C    0.000000
     2  C    1.395326   0.000000
     3  C    2.376086   1.388517   0.000000
     4  N    2.710042   2.368933   1.337553   0.000000
     5  C    2.389052   2.777615   2.353909   1.340431   0.000000
     6  C    1.395110   2.428018   2.747566   2.348703   1.380555
     7  C    2.540935   1.509673   2.521151   3.752097   4.286924
     8  N    3.598891   2.483049   3.041105   4.296925   5.024418
     9  C    4.771181   3.694469   4.307544   5.621782   6.378063
    10  C    4.922641   3.780053   4.293671   5.619155   6.440192
    11  C    3.650251   2.573162   3.176152   4.427899   5.135291
    12  O    5.322026   4.694500   3.340117   2.665827   3.629904
    13  O    5.578066   4.683433   3.669203   3.779283   4.811166
    14  O    5.106577   3.792701   3.166119   4.118204   5.325453
    15  H    5.671710   4.533398   4.934323   6.220153   7.081897
    16  H    5.581777   4.590157   5.249415   6.555933   7.285078
    17  H    5.610278   4.341414   4.532024   5.823765   6.810132
    18  H    3.807232   3.055589   3.831239   4.949155   5.460351
    19  H    3.854703   2.667537   2.781011   3.950733   4.831179
    20  H    4.956964   4.125585   4.993986   6.269059   6.849003
    21  H    2.583236   2.122425   3.400989   4.490363   4.750497
    22  H    3.393231   2.185554   1.088526   2.060789   3.300543
    23  H    3.403105   3.861228   3.304596   2.070720   1.086594
    24  H    2.169393   3.418890   3.834485   3.332619   2.140477
    25  H    1.090235   2.152563   3.370086   3.800226   3.377308
    26  C    3.768773   3.042899   3.664313   4.681306   5.186421
    27  H    3.752414   3.290911   2.030317   1.045592   2.075627
    28  H    4.468782   3.153931   2.884251   4.026421   5.103278
    29  H    5.936243   4.584864   4.036024   5.022541   6.250366
    30  H    5.478904   4.724327   3.418728   3.028005   4.073438
    31  H    6.126727   5.448826   4.066436   3.443176   4.405582
    32  H    6.472884   5.585205   4.618982   4.720730   5.708140
    33  H    5.386685   4.312098   3.389333   3.836045   4.981508
    34  H    4.373901   3.856182   3.194365   3.154217   3.755751
    35  O    3.717323   3.463882   3.076145   2.983287   3.275931
    36  H    4.365302   4.295814   4.013056   3.817550   3.899799
    37  H    4.827537   4.029494   4.439555   5.433136   6.043905
    38  H    3.302709   2.748524   3.191434   3.973152   4.381604
    39  H    3.856045   3.435842   4.357599   5.338382   5.631394
                    6          7          8          9         10
     6  C    0.000000
     7  C    3.823102   0.000000
     8  N    4.757577   1.470523   0.000000
     9  C    6.036353   2.309163   1.470752   0.000000
    10  C    6.161835   2.435866   2.371588   1.534419   0.000000
    11  C    4.828039   1.539291   2.362487   2.436351   1.547849
    12  O    4.899118   5.749235   5.773437   6.989730   7.003191
    13  O    5.646423   5.231977   4.571570   5.699472   6.211142
    14  O    5.764732   3.601751   2.749445   3.434567   3.734512
    15  H    6.866717   3.279719   2.116107   1.096918   2.218556
    16  H    6.877352   3.186119   3.274202   2.183996   1.094417
    17  H    6.737594   3.200029   2.928220   2.182183   1.095724
    18  H    4.982566   2.185301   3.286092   3.230874   2.219914
    19  H    4.804070   2.177569   2.872508   3.160083   2.193257
    20  H    6.298446   2.684539   2.120611   1.105104   2.187116
    21  H    3.975741   1.107402   2.108361   2.627733   2.898885
    22  H    3.832531   2.788581   2.937024   4.051187   3.957650
    23  H    2.181930   5.369488   6.055257   7.429137   7.487226
    24  H    1.087101   4.708160   5.675033   6.917001   7.073618
    25  H    2.153021   2.751402   3.860639   4.837677   5.050415
    26  C    4.813829   2.453607   1.460816   2.451276   3.712729
    27  H    3.302494   4.549785   4.899613   6.194381   6.165096
    28  H    5.308256   2.728893   1.753950   2.536615   3.020529
    29  H    6.666764   4.166268   3.212583   3.504170   3.719460
    30  H    5.223458   5.619496   5.398608   6.593154   6.762356
    31  H    5.701405   6.437568   6.465673   7.587786   7.474666
    32  H    6.540026   6.038400   5.228663   6.256906   6.858795
    33  H    5.682736   4.618606   3.849075   4.855185   5.332777
    34  H    4.345850   4.635776   4.162424   5.534037   6.255979
    35  O    3.647986   4.354427   4.069243   5.504497   6.261444
    36  H    4.190339   5.145209   4.796264   6.194135   7.071596
    37  H    5.798725   3.388179   2.093721   2.690724   4.115564
    38  H    4.107092   2.750532   2.104963   3.394667   4.467540
    39  H    4.996461   2.720535   2.130000   2.743026   4.013161
                   11         12         13         14         15
    11  C    0.000000
    12  O    6.163743   0.000000
    13  O    5.893436   2.727625   0.000000
    14  O    3.800632   4.172932   2.679401   0.000000
    15  H    3.358902   7.231707   5.610336   3.292964   0.000000
    16  H    2.208595   8.050897   7.301752   4.806179   2.802140
    17  H    2.187643   6.813432   6.009960   3.383315   2.412393
    18  H    1.094921   6.898647   6.881192   4.880758   4.218926
    19  H    1.096770   5.417043   5.451830   3.441234   3.893271
    20  H    2.983062   7.868274   6.564712   4.470312   1.777859
    21  H    2.169211   6.692531   6.147240   4.615965   3.675899
    22  H    3.104934   3.096522   3.152628   2.257659   4.499641
    23  H    6.179219   3.636644   5.196572   6.108326   8.093027
    24  H    5.731154   5.753294   6.575406   6.825818   7.778228
    25  H    3.874920   6.402846   6.481238   5.824040   5.808499
    26  C    3.711578   6.145744   4.598929   3.478820   2.803935
    27  H    5.084157   1.651858   3.331551   4.100869   6.662491
    28  H    3.098717   4.676487   3.248500   0.998090   2.561926
    29  H    4.114305   4.905144   3.347945   0.959526   3.124516
    30  H    6.106752   0.978217   1.789739   3.574405   6.711233
    31  H    6.672797   0.959348   3.308994   4.622511   7.784774
    32  H    6.690724   3.410398   0.960380   3.212697   6.019548
    33  H    5.153345   3.172188   0.985170   1.712072   4.717893
    34  H    5.720581   3.308800   1.914219   3.518784   5.680488
    35  O    5.602864   3.810998   2.854645   4.056482   5.797185
    36  H    6.467061   4.472398   3.402770   4.856988   6.434048
    37  H    4.441348   6.510639   4.549627   3.455017   2.595865
    38  H    4.152918   5.437003   4.008687   3.534029   3.763580
    39  H    4.013196   7.073269   5.655731   4.533639   3.241751
                   16         17         18         19         20
    16  H    0.000000
    17  H    1.764555   0.000000
    18  H    2.393861   2.931701   0.000000
    19  H    2.959130   2.324257   1.765816   0.000000
    20  H    2.374000   3.043657   3.495135   3.912238   0.000000
    21  H    3.336470   3.867284   2.373460   3.046269   2.526227
    22  H    4.991805   3.946280   3.945560   2.503268   4.921663
    23  H    8.344924   7.804015   6.487012   5.800572   7.918427
    24  H    7.713501   7.716738   5.759813   5.780560   7.061964
    25  H    5.535821   5.893491   3.834462   4.333633   4.778791
    26  C    4.477114   4.303673   4.504386   4.254345   2.628134
    27  H    7.153772   6.200284   5.685693   4.449977   6.949706
    28  H    4.094084   2.926837   4.186145   2.994238   3.531403
    29  H    4.714871   3.145162   5.188738   3.770556   4.573256
    30  H    7.841923   6.537390   6.952865   5.433791   7.491402
    31  H    8.506700   7.168965   7.389273   5.822880   8.521277
    32  H    7.937656   6.594711   7.711137   6.273607   7.113910
    33  H    6.419382   5.076974   6.186141   4.734716   5.777931
    34  H    7.294439   6.389829   6.590101   5.526491   6.158253
    35  O    7.244217   6.554886   6.371668   5.531053   5.990043
    36  H    8.028185   7.397942   7.215395   6.456793   6.588390
    37  H    4.866547   4.535631   5.315472   4.927043   2.912213
    38  H    5.316051   4.994232   4.932311   4.515005   3.661989
    39  H    4.558084   4.798725   4.595285   4.758951   2.453369
                   21         22         23         24         25
    21  H    0.000000
    22  H    3.839199   0.000000
    23  H    5.828824   4.131098   0.000000
    24  H    4.669502   4.918628   2.528329   0.000000
    25  H    2.328435   4.313967   4.315879   2.498584   0.000000
    26  C    2.646144   3.770198   6.149145   5.594260   3.903527
    27  H    5.389490   2.278350   2.360349   4.202899   4.842199
    28  H    3.685592   2.207953   5.999267   6.344200   5.065052
    29  H    5.145353   3.078884   7.035137   7.731647   6.592146
    30  H    6.582680   3.013962   4.216879   6.122218   6.522024
    31  H    7.423510   3.690977   4.333497   6.543479   7.212271
    32  H    6.930475   4.066843   6.030004   7.436380   7.341576
    33  H    5.579740   2.682819   5.535871   6.680690   6.237732
    34  H    5.314857   3.260566   4.184722   5.139352   5.188386
    35  O    4.876286   3.447133   3.758077   4.352018   4.459282
    36  H    5.549162   4.405306   4.224242   4.714878   4.992342
    37  H    3.641936   4.341662   6.951869   6.587506   4.993598
    38  H    3.038616   3.461828   5.269731   4.871870   3.614348
    39  H    2.437168   4.630152   6.610266   5.624538   3.676803
                   26         27         28         29         30
    26  C    0.000000
    27  H    5.303110   0.000000
    28  H    2.593133   4.259510   0.000000
    29  H    4.016185   4.966620   1.579575   0.000000
    30  H    5.676054   2.179114   4.158508   4.284541   0.000000
    31  H    6.949220   2.413700   5.242503   5.229980   1.566944
    32  H    5.142789   4.228065   3.850861   3.690061   2.435193
    33  H    4.067410   3.536532   2.360613   2.371039   2.327669
    34  H    3.755455   3.121181   3.556481   4.386689   2.728780
    35  O    3.509735   3.223859   3.874500   4.962922   3.425852
    36  H    4.003733   4.015982   4.679538   5.721612   4.061335
    37  H    1.096287   5.912321   2.707060   3.820889   5.899670
    38  H    1.096952   4.577372   2.810611   4.259774   4.994327
    39  H    1.105050   6.081624   3.602027   5.025446   6.667873
                   31         32         33         34         35
    31  H    0.000000
    32  H    3.853074   0.000000
    33  H    3.700706   1.562508   0.000000
    34  H    4.194081   2.507916   2.351103   0.000000
    35  O    4.752907   3.476560   3.174519   0.970961   0.000000
    36  H    5.397770   3.829655   3.847912   1.537059   0.959777
    37  H    7.273843   4.906541   3.984157   3.947622   3.895018
    38  H    6.304521   4.601852   3.682817   2.831383   2.454464
    39  H    7.902768   6.200561   5.162390   4.628082   4.211917
                   36         37         38         39
    36  H    0.000000
    37  H    4.273690   0.000000
    38  H    2.937051   1.777140   0.000000
    39  H    4.587829   1.785061   1.799743   0.000000
 Stoichiometry    C10H23N2O4(1+)
 Framework group  C1[X(C10H23N2O4)]
 Deg. of freedom   111
 Full point group                 C1      NOp   1
 Largest Abelian subgroup         C1      NOp   1
 Largest concise Abelian subgroup C1      NOp   1
                         Standard orientation:                         
 ---------------------------------------------------------------------
 Center     Atomic      Atomic             Coordinates (Angstroms)
 Number     Number       Type             X           Y           Z
 ---------------------------------------------------------------------
      1          6           0       -0.175302    2.558497    0.349992
      2          6           0        0.273503    1.339553   -0.159601
      3          6           0       -0.675656    0.502593   -0.731068
      4          7           0       -1.963086    0.862341   -0.777487
      5          6           0       -2.415883    2.023020   -0.282963
      6          6           0       -1.523716    2.910449    0.284876
      7          6           0        1.724409    0.928734   -0.087412
      8          7           0        1.920398   -0.356595    0.599578
      9          6           0        3.329230   -0.679078    0.326984
     10          6           0        3.514915   -0.330681   -1.155778
     11          6           0        2.411218    0.714391   -1.448208
     12          8           0       -3.418974   -1.284933   -1.390866
     13          8           0       -1.993248   -2.714185    0.443387
     14          8           0        0.495347   -2.430566   -0.508268
     15          1           0        3.528949   -1.731101    0.564867
     16          1           0        4.518542    0.060803   -1.348710
     17          1           0        3.382563   -1.216212   -1.787387
     18          1           0        2.804416    1.657400   -1.841884
     19          1           0        1.691415    0.328990   -2.180502
     20          1           0        3.988655   -0.060305    0.962227
     21          1           0        2.264939    1.719297    0.468624
     22          1           0       -0.440026   -0.476613   -1.144012
     23          1           0       -3.485837    2.199484   -0.351855
     24          1           0       -1.881466    3.855832    0.684943
     25          1           0        0.536925    3.241268    0.813854
     26          6           0        1.597986   -0.315104    2.023766
     27          1           0       -2.631730    0.145728   -1.141690
     28          1           0        1.051907   -1.715996   -0.088966
     29          1           0        1.088415   -3.126873   -0.798296
     30          1           0       -3.036651   -1.968826   -0.805179
     31          1           0       -3.758011   -1.722752   -2.174267
     32          1           0       -2.196181   -3.572599    0.823221
     33          1           0       -1.057477   -2.751213    0.137575
     34          1           0       -2.028901   -1.197340    1.610497
     35          8           0       -1.911291   -0.302488    1.968509
     36          1           0       -2.322580   -0.316728    2.835579
     37          1           0        1.822684   -1.290505    2.470923
     38          1           0        0.528382   -0.113163    2.159674
     39          1           0        2.190996    0.454332    2.550494
 ---------------------------------------------------------------------
 Rotational constants (GHZ):           0.5715292           0.3718161           0.2963391
 Standard basis: Aug-CC-pVDZ (5D, 7F)
 There are   607 symmetry adapted cartesian basis functions of A   symmetry.
 There are   575 symmetry adapted basis functions of A   symmetry.
   575 basis functions,   941 primitive gaussians,   607 cartesian basis functions
    64 alpha electrons       64 beta electrons
       nuclear repulsion energy      1276.4859818231 Hartrees.
 NAtoms=   39 NActive=   39 NUniq=   39 SFac= 1.00D+00 NAtFMM=   60 NAOKFM=F Big=F
 Integral buffers will be    131072 words long.
 Raffenetti 2 integral format.
 Two-electron integral symmetry is turned on.
 Nuclear repulsion after empirical dispersion term =     1276.4530271482 Hartrees.
 One-electron integrals computed using PRISM.
 NBasis=   575 RedAO= T EigKep=  1.77D-06  NBF=   575
 NBsUse=   575 1.00D-06 EigRej= -1.00D+00 NBFU=   575
 ExpMin= 2.97D-02 ExpMax= 1.17D+04 ExpMxC= 4.01D+02 IAcc=3 IRadAn=         5 AccDes= 0.00D+00
 Harris functional with IExCor= 4639 and IRadAn=       5 diagonalized for initial guess.
 HarFok:  IExCor= 4639 AccDes= 0.00D+00 IRadAn=         5 IDoV= 1 UseB2=F ITyADJ=14
 ICtDFT=  3500011 ScaDFX=  1.000000  1.000000  1.000000  1.000000
 FoFCou: FMM=F IPFlag=           0 FMFlag=      100000 FMFlg1=           0
         NFxFlg=           0 DoJE=T BraDBF=F KetDBF=T FulRan=T
         wScrn=  0.000000 ICntrl=       500 IOpCl=  0 I1Cent=   200000004 NGrid=           0
         NMat0=    1 NMatS0=      1 NMatT0=    0 NMatD0=    1 NMtDS0=    0 NMtDT0=    0
 Petite list used in FoFCou.
 Requested convergence on RMS density matrix=1.00D-08 within 128 cycles.
 Requested convergence on MAX density matrix=1.00D-06.
 Requested convergence on             energy=1.00D-06.
 No special actions if energy rises.
 SCF Done:  E(RwB97XD) =  -805.035951634     A.U. after   16 cycles
            NFock= 16  Conv=0.15D-08     -V/T= 2.0062
 DoSCS=F DFT=T ScalE2(SS,OS)=  1.000000  1.000000
 Range of M.O.s used for correlation:     1   575
 NBasis=   575 NAE=    64 NBE=    64 NFC=     0 NFV=     0
 NROrb=    575 NOA=    64 NOB=    64 NVA=   511 NVB=   511

 **** Warning!!: The largest alpha MO coefficient is  0.11844731D+03

 Symmetrizing basis deriv contribution to polar:
 IMax=3 JMax=2 DiffMx= 0.00D+00
 G2DrvN: will do    40 centers at a time, making    1 passes.
 Calling FoFCou, ICntrl=  3107 FMM=F I1Cent=   0 AccDes= 0.00D+00.
 End of G2Drv F.D. properties file   721 does not exist.
 End of G2Drv F.D. properties file   722 does not exist.
 End of G2Drv F.D. properties file   788 does not exist.
          IDoAtm=111111111111111111111111111111111111111
          Differentiating once with respect to electric field.
                with respect to dipole field.
          Differentiating once with respect to nuclear coordinates.
 CalDSu exits because no D1Ps are significant.
          There are   120 degrees of freedom in the 1st order CPHF.  IDoFFX=6 NUNeed=     3.
    117 vectors produced by pass  0 Test12= 3.27D-14 1.00D-09 XBig12= 7.60D+01 3.19D+00.
 AX will form   117 AO Fock derivatives at one time.
    117 vectors produced by pass  1 Test12= 3.27D-14 1.00D-09 XBig12= 9.14D+00 6.80D-01.
    117 vectors produced by pass  2 Test12= 3.27D-14 1.00D-09 XBig12= 2.18D-01 5.16D-02.
    117 vectors produced by pass  3 Test12= 3.27D-14 1.00D-09 XBig12= 2.10D-03 3.71D-03.
    117 vectors produced by pass  4 Test12= 3.27D-14 1.00D-09 XBig12= 1.89D-05 3.38D-04.
    117 vectors produced by pass  5 Test12= 3.27D-14 1.00D-09 XBig12= 1.19D-07 1.91D-05.
    116 vectors produced by pass  6 Test12= 3.27D-14 1.00D-09 XBig12= 7.11D-10 1.65D-06.
     44 vectors produced by pass  7 Test12= 3.27D-14 1.00D-09 XBig12= 3.68D-12 1.32D-07.
      3 vectors produced by pass  8 Test12= 3.27D-14 1.00D-09 XBig12= 2.10D-14 8.52D-09.
      3 vectors produced by pass  9 Test12= 3.27D-14 1.00D-09 XBig12= 4.21D-15 5.94D-09.
      1 vectors produced by pass 10 Test12= 3.27D-14 1.00D-09 XBig12= 2.43D-16 1.20D-09.
 InvSVY:  IOpt=1 It=  1 EMax= 1.42D-14
 Solved reduced A of dimension   869 with   120 vectors.
 Isotropic polarizability for W=    0.000000      160.79 Bohr**3.
 End of Minotr F.D. properties file   721 does not exist.
 End of Minotr F.D. properties file   722 does not exist.
 End of Minotr F.D. properties file   788 does not exist.

 **********************************************************************

            Population analysis using the SCF density.

 **********************************************************************

 Orbital symmetries:
       Occupied  (A) (A) (A) (A) (A) (A) (A) (A) (A) (A) (A) (A)
                 (A) (A) (A) (A) (A) (A) (A) (A) (A) (A) (A) (A)
                 (A) (A) (A) (A) (A) (A) (A) (A) (A) (A) (A) (A)
                 (A) (A) (A) (A) (A) (A) (A) (A) (A) (A) (A) (A)
                 (A) (A) (A) (A) (A) (A) (A) (A) (A) (A) (A) (A)
                 (A) (A) (A) (A)
       Virtual   (A) (A) (A) (A) (A) (A) (A) (A) (A) (A) (A) (A)
                 (A) (A) (A) (A) (A) (A) (A) (A) (A) (A) (A) (A)
                 (A) (A) (A) (A) (A) (A) (A) (A) (A) (A) (A) (A)
                 (A) (A) (A) (A) (A) (A) (A) (A) (A) (A) (A) (A)
                 (A) (A) (A) (A) (A) (A) (A) (A) (A) (A) (A) (A)
                 (A) (A) (A) (A) (A) (A) (A) (A) (A) (A) (A) (A)
                 (A) (A) (A) (A) (A) (A) (A) (A) (A) (A) (A) (A)
                 (A) (A) (A) (A) (A) (A) (A) (A) (A) (A) (A) (A)
                 (A) (A) (A) (A) (A) (A) (A) (A) (A) (A) (A) (A)
                 (A) (A) (A) (A) (A) (A) (A) (A) (A) (A) (A) (A)
                 (A) (A) (A) (A) (A) (A) (A) (A) (A) (A) (A) (A)
                 (A) (A) (A) (A) (A) (A) (A) (A) (A) (A) (A) (A)
                 (A) (A) (A) (A) (A) (A) (A) (A) (A) (A) (A) (A)
                 (A) (A) (A) (A) (A) (A) (A) (A) (A) (A) (A) (A)
                 (A) (A) (A) (A) (A) (A) (A) (A) (A) (A) (A) (A)
                 (A) (A) (A) (A) (A) (A) (A) (A) (A) (A) (A) (A)
                 (A) (A) (A) (A) (A) (A) (A) (A) (A) (A) (A) (A)
                 (A) (A) (A) (A) (A) (A) (A) (A) (A) (A) (A) (A)
                 (A) (A) (A) (A) (A) (A) (A) (A) (A) (A) (A) (A)
                 (A) (A) (A) (A) (A) (A) (A) (A) (A) (A) (A) (A)
                 (A) (A) (A) (A) (A) (A) (A) (A) (A) (A) (A) (A)
                 (A) (A) (A) (A) (A) (A) (A) (A) (A) (A) (A) (A)
                 (A) (A) (A) (A) (A) (A) (A) (A) (A) (A) (A) (A)
                 (A) (A) (A) (A) (A) (A) (A) (A) (A) (A) (A) (A)
                 (A) (A) (A) (A) (A) (A) (A) (A) (A) (A) (A) (A)
                 (A) (A) (A) (A) (A) (A) (A) (A) (A) (A) (A) (A)
                 (A) (A) (A) (A) (A) (A) (A) (A) (A) (A) (A) (A)
                 (A) (A) (A) (A) (A) (A) (A) (A) (A) (A) (A) (A)
                 (A) (A) (A) (A) (A) (A) (A) (A) (A) (A) (A) (A)
                 (A) (A) (A) (A) (A) (A) (A) (A) (A) (A) (A) (A)
                 (A) (A) (A) (A) (A) (A) (A) (A) (A) (A) (A) (A)
                 (A) (A) (A) (A) (A) (A) (A) (A) (A) (A) (A) (A)
                 (A) (A) (A) (A) (A) (A) (A) (A) (A) (A) (A) (A)
                 (A) (A) (A) (A) (A) (A) (A) (A) (A) (A) (A) (A)
                 (A) (A) (A) (A) (A) (A) (A) (A) (A) (A) (A) (A)
                 (A) (A) (A) (A) (A) (A) (A) (A) (A) (A) (A) (A)
                 (A) (A) (A) (A) (A) (A) (A) (A) (A) (A) (A) (A)
                 (A) (A) (A) (A) (A) (A) (A) (A) (A) (A) (A) (A)
                 (A) (A) (A) (A) (A) (A) (A) (A) (A) (A) (A) (A)
                 (A) (A) (A) (A) (A) (A) (A) (A) (A) (A) (A) (A)
                 (A) (A) (A) (A) (A) (A) (A) (A) (A) (A) (A) (A)
                 (A) (A) (A) (A) (A) (A) (A) (A) (A) (A) (A) (A)
                 (A) (A) (A) (A) (A) (A) (A)
 The electronic state is 1-A.
 Alpha  occ. eigenvalues --  -19.40144 -19.39780 -19.39004 -19.37069 -14.67050
 Alpha  occ. eigenvalues --  -14.58054 -10.50429 -10.50085 -10.47223 -10.46678
 Alpha  occ. eigenvalues --  -10.46226 -10.46217 -10.43433 -10.42344 -10.41505
 Alpha  occ. eigenvalues --  -10.40678  -1.25642  -1.24847  -1.23703  -1.22770
 Alpha  occ. eigenvalues --   -1.21182  -1.17361  -1.07803  -1.04198  -1.00423
 Alpha  occ. eigenvalues --   -0.95760  -0.90202  -0.89395  -0.88407  -0.82319
 Alpha  occ. eigenvalues --   -0.79730  -0.79544  -0.76071  -0.75406  -0.74352
 Alpha  occ. eigenvalues --   -0.74314  -0.73064  -0.72344  -0.70854  -0.69431
 Alpha  occ. eigenvalues --   -0.68375  -0.67530  -0.65433  -0.64332  -0.63615
 Alpha  occ. eigenvalues --   -0.63295  -0.62047  -0.61379  -0.59224  -0.58925
 Alpha  occ. eigenvalues --   -0.58440  -0.57684  -0.56994  -0.56248  -0.55493
 Alpha  occ. eigenvalues --   -0.54010  -0.53718  -0.53180  -0.52785  -0.52526
 Alpha  occ. eigenvalues --   -0.52011  -0.50291  -0.48655  -0.44509
 Alpha virt. eigenvalues --   -0.13262  -0.10429  -0.06647  -0.05371  -0.04875
 Alpha virt. eigenvalues --   -0.04635  -0.03676  -0.03093  -0.03067  -0.02675
 Alpha virt. eigenvalues --   -0.02352  -0.01420  -0.00996  -0.00534  -0.00404
 Alpha virt. eigenvalues --    0.00007   0.00088   0.01001   0.01134   0.01274
 Alpha virt. eigenvalues --    0.01718   0.02336   0.02531   0.02673   0.03028
 Alpha virt. eigenvalues --    0.03306   0.03469   0.04024   0.04268   0.04474
 Alpha virt. eigenvalues --    0.04584   0.05340   0.05464   0.05671   0.06138
 Alpha virt. eigenvalues --    0.06342   0.06725   0.06851   0.06955   0.07472
 Alpha virt. eigenvalues --    0.07625   0.07919   0.08028   0.08419   0.08824
 Alpha virt. eigenvalues --    0.09315   0.09395   0.09806   0.09866   0.10243
 Alpha virt. eigenvalues --    0.10371   0.10988   0.11166   0.11414   0.11847
 Alpha virt. eigenvalues --    0.12039   0.12209   0.13018   0.13156   0.13522
 Alpha virt. eigenvalues --    0.13673   0.13835   0.14531   0.14986   0.15199
 Alpha virt. eigenvalues --    0.15450   0.15624   0.15866   0.16265   0.16550
 Alpha virt. eigenvalues --    0.16743   0.16940   0.17161   0.17384   0.17670
 Alpha virt. eigenvalues --    0.18002   0.18262   0.18456   0.18861   0.18980
 Alpha virt. eigenvalues --    0.19148   0.19200   0.19834   0.19900   0.20504
 Alpha virt. eigenvalues --    0.20957   0.21080   0.21701   0.21791   0.22296
 Alpha virt. eigenvalues --    0.22442   0.23268   0.23385   0.23581   0.24204
 Alpha virt. eigenvalues --    0.24539   0.24949   0.25226   0.25365   0.25631
 Alpha virt. eigenvalues --    0.25986   0.26235   0.26640   0.26855   0.27175
 Alpha virt. eigenvalues --    0.27551   0.27685   0.28327   0.28745   0.29011
 Alpha virt. eigenvalues --    0.29328   0.29921   0.30728   0.30885   0.31178
 Alpha virt. eigenvalues --    0.31864   0.32089   0.32635   0.32978   0.33275
 Alpha virt. eigenvalues --    0.33841   0.34233   0.34913   0.35312   0.35686
 Alpha virt. eigenvalues --    0.35965   0.36598   0.36919   0.37567   0.37674
 Alpha virt. eigenvalues --    0.38101   0.38279   0.38921   0.38943   0.39606
 Alpha virt. eigenvalues --    0.39727   0.39960   0.40309   0.41017   0.41597
 Alpha virt. eigenvalues --    0.41734   0.42476   0.42917   0.43379   0.43465
 Alpha virt. eigenvalues --    0.44004   0.44732   0.44869   0.45349   0.45518
 Alpha virt. eigenvalues --    0.45912   0.46682   0.47192   0.47428   0.47616
 Alpha virt. eigenvalues --    0.48062   0.48431   0.48746   0.49039   0.49266
 Alpha virt. eigenvalues --    0.49838   0.50321   0.50739   0.51459   0.51577
 Alpha virt. eigenvalues --    0.51778   0.52012   0.52442   0.53301   0.53494
 Alpha virt. eigenvalues --    0.53656   0.54196   0.54382   0.55251   0.55407
 Alpha virt. eigenvalues --    0.55852   0.56087   0.56438   0.56746   0.57271
 Alpha virt. eigenvalues --    0.57897   0.58035   0.58600   0.58902   0.59183
 Alpha virt. eigenvalues --    0.59467   0.60084   0.60255   0.60741   0.61192
 Alpha virt. eigenvalues --    0.61697   0.61821   0.62417   0.62914   0.63356
 Alpha virt. eigenvalues --    0.63760   0.64112   0.65065   0.65478   0.65847
 Alpha virt. eigenvalues --    0.66079   0.66363   0.66790   0.67645   0.67823
 Alpha virt. eigenvalues --    0.68529   0.68688   0.69058   0.69469   0.69647
 Alpha virt. eigenvalues --    0.69997   0.70306   0.71456   0.71670   0.72042
 Alpha virt. eigenvalues --    0.72603   0.72986   0.73463   0.73664   0.74143
 Alpha virt. eigenvalues --    0.74525   0.74927   0.75542   0.76579   0.76707
 Alpha virt. eigenvalues --    0.77270   0.77716   0.78510   0.79267   0.79743
 Alpha virt. eigenvalues --    0.80090   0.80261   0.80794   0.82506   0.82738
 Alpha virt. eigenvalues --    0.83281   0.83947   0.84072   0.84751   0.84994
 Alpha virt. eigenvalues --    0.86079   0.86229   0.86897   0.87813   0.88336
 Alpha virt. eigenvalues --    0.88906   0.89650   0.90129   0.90714   0.91539
 Alpha virt. eigenvalues --    0.91791   0.92564   0.93306   0.93595   0.94487
 Alpha virt. eigenvalues --    0.95667   0.96383   0.96761   0.97165   0.98126
 Alpha virt. eigenvalues --    0.98782   0.99317   1.00817   1.01141   1.02283
 Alpha virt. eigenvalues --    1.03244   1.03913   1.04299   1.05092   1.06088
 Alpha virt. eigenvalues --    1.06779   1.08276   1.08457   1.09799   1.10529
 Alpha virt. eigenvalues --    1.10716   1.11450   1.12163   1.12362   1.13512
 Alpha virt. eigenvalues --    1.13878   1.14600   1.15904   1.17080   1.17597
 Alpha virt. eigenvalues --    1.18351   1.19060   1.19388   1.20287   1.20872
 Alpha virt. eigenvalues --    1.21591   1.22708   1.23965   1.24771   1.25543
 Alpha virt. eigenvalues --    1.25829   1.27360   1.28602   1.29908   1.30438
 Alpha virt. eigenvalues --    1.30891   1.32019   1.32195   1.33244   1.33777
 Alpha virt. eigenvalues --    1.34442   1.35451   1.36021   1.37003   1.38018
 Alpha virt. eigenvalues --    1.38769   1.40165   1.41887   1.42476   1.43830
 Alpha virt. eigenvalues --    1.43891   1.45046   1.46088   1.46314   1.46966
 Alpha virt. eigenvalues --    1.47511   1.49533   1.49913   1.50267   1.52926
 Alpha virt. eigenvalues --    1.53501   1.54531   1.54720   1.55165   1.55410
 Alpha virt. eigenvalues --    1.58129   1.58731   1.59529   1.60289   1.60931
 Alpha virt. eigenvalues --    1.62439   1.62757   1.63402   1.64237   1.64787
 Alpha virt. eigenvalues --    1.65399   1.65996   1.67089   1.67242   1.68003
 Alpha virt. eigenvalues --    1.68412   1.69526   1.70852   1.71459   1.72551
 Alpha virt. eigenvalues --    1.72776   1.72916   1.73760   1.75986   1.76587
 Alpha virt. eigenvalues --    1.78123   1.78792   1.79736   1.80190   1.80871
 Alpha virt. eigenvalues --    1.81758   1.81959   1.82675   1.83185   1.83829
 Alpha virt. eigenvalues --    1.85610   1.86173   1.86634   1.87303   1.88878
 Alpha virt. eigenvalues --    1.89188   1.89575   1.90561   1.91160   1.92555
 Alpha virt. eigenvalues --    1.93461   1.94168   1.94536   1.95117   1.95640
 Alpha virt. eigenvalues --    1.96418   1.96745   1.97992   1.98608   1.99187
 Alpha virt. eigenvalues --    1.99989   2.00450   2.00895   2.01713   2.03261
 Alpha virt. eigenvalues --    2.03564   2.04221   2.05101   2.06449   2.07918
 Alpha virt. eigenvalues --    2.08185   2.08645   2.10114   2.11708   2.12483
 Alpha virt. eigenvalues --    2.12750   2.13694   2.14719   2.15665   2.15900
 Alpha virt. eigenvalues --    2.17737   2.18292   2.18745   2.20176   2.21451
 Alpha virt. eigenvalues --    2.22356   2.23745   2.24636   2.24883   2.25200
 Alpha virt. eigenvalues --    2.27096   2.28308   2.28507   2.29531   2.29859
 Alpha virt. eigenvalues --    2.31366   2.32522   2.32739   2.33390   2.35211
 Alpha virt. eigenvalues --    2.35589   2.37075   2.38684   2.40443   2.41207
 Alpha virt. eigenvalues --    2.43022   2.43848   2.44129   2.46353   2.46739
 Alpha virt. eigenvalues --    2.47421   2.49112   2.50975   2.51776   2.52997
 Alpha virt. eigenvalues --    2.54387   2.54897   2.56147   2.57456   2.57703
 Alpha virt. eigenvalues --    2.58374   2.60776   2.61837   2.62142   2.63899
 Alpha virt. eigenvalues --    2.64488   2.66079   2.66473   2.68055   2.68603
 Alpha virt. eigenvalues --    2.70252   2.70795   2.72625   2.73843   2.75335
 Alpha virt. eigenvalues --    2.76576   2.77174   2.77649   2.79946   2.80188
 Alpha virt. eigenvalues --    2.83440   2.84383   2.86284   2.86789   2.88237
 Alpha virt. eigenvalues --    2.90720   2.92714   2.94429   2.95242   2.97530
 Alpha virt. eigenvalues --    2.99111   3.00715   3.04355   3.05957   3.10605
 Alpha virt. eigenvalues --    3.13181   3.18073   3.22253   3.24665   3.30531
 Alpha virt. eigenvalues --    3.37535   3.39229   3.40034   3.41636   3.43761
 Alpha virt. eigenvalues --    3.45065   3.48495   3.48920   3.49582   3.51940
 Alpha virt. eigenvalues --    3.54443   3.55036   3.58939   3.66760   3.69466
 Alpha virt. eigenvalues --    3.75254   3.79048   3.82003   3.86860   3.93712
 Alpha virt. eigenvalues --    4.00318   4.02830   4.03398   4.12150   4.37710
 Alpha virt. eigenvalues --    5.01801
          Condensed to atoms (all electrons):
               1          2          3          4          5          6
     1  C   26.747675 -12.635964  -1.566521  -0.867059   1.694102  -4.887351
     2  C  -12.635964  29.556118  -5.404976   0.486329  -1.049289   0.870001
     3  C   -1.566521  -5.404976  18.435981  -1.558770  -1.051250  -0.332287
     4  N   -0.867059   0.486329  -1.558770   8.259469   0.053507   0.310239
     5  C    1.694102  -1.049289  -1.051250   0.053507  10.129699  -2.662537
     6  C   -4.887351   0.870001  -0.332287   0.310239  -2.662537  12.163065
     7  C   -0.647095 -10.835546  -1.892888   0.617160  -0.660649   0.374410
     8  N   -0.640058   2.595048   0.689654  -0.133857   0.072796  -0.188632
     9  C    0.195774  -0.740210  -0.120484  -0.002358  -0.022987  -0.028562
    10  C   -0.113779   0.403504  -0.067474   0.037263   0.014680  -0.025471
    11  C    0.180794  -0.272524  -0.661518  -0.027661  -0.080338  -0.008890
    12  O    0.007446  -0.066629  -0.031926  -0.077734   0.023682   0.002953
    13  O    0.024076  -0.035146   0.017425   0.002518   0.036770  -0.021366
    14  O   -0.041645  -0.017365  -0.147562   0.027631  -0.010188   0.011891
    15  H    0.044350  -0.252006  -0.007579  -0.002455  -0.001007  -0.000991
    16  H    0.000932   0.023448   0.036157  -0.002830   0.002455  -0.002062
    17  H   -0.005397  -0.100015  -0.041549   0.008548  -0.000760  -0.000735
    18  H   -0.091973   0.404507   0.232032  -0.008176  -0.000626   0.000399
    19  H    0.126574  -0.090182  -0.045195  -0.003882   0.008729  -0.027277
    20  H    0.014964   0.220973   0.030764  -0.000112  -0.001230  -0.001822
    21  H    0.090140   1.031150  -0.201838  -0.001675   0.039993  -0.024670
    22  H   -0.266637  -0.792834  -1.430795   0.135688  -0.018821   0.039780
    23  H    0.229435  -0.040017   0.136266  -0.155278  -0.577168   0.095289
    24  H    0.643304   0.020209  -0.119745  -0.001014   0.337098  -1.163484
    25  H   -2.733316   1.255997   0.252534  -0.092554  -0.241354   0.783698
    26  C   -0.397185   0.958967  -0.214017  -0.016533  -0.036385   0.096040
    27  H   -0.023995  -0.364921   0.438752  -0.007972  -0.539032  -0.000432
    28  H   -0.041425  -0.098758  -0.226599   0.074226   0.013910  -0.001252
    29  H    0.004629   0.011747   0.025290  -0.006020   0.000094   0.000056
    30  H   -0.004697   0.011869  -0.041228   0.036964  -0.004783   0.005159
    31  H   -0.002086   0.007655  -0.002108  -0.011528  -0.007319   0.003556
    32  H    0.002688   0.002519   0.000474   0.000716   0.001769  -0.001309
    33  H   -0.015263  -0.002109   0.011341   0.008704  -0.007313   0.005016
    34  H   -0.028692   0.049032  -0.049395   0.003005  -0.008982   0.018082
    35  O   -0.190936   0.239408  -0.130479  -0.052443  -0.069684   0.057828
    36  H    0.021877  -0.041471   0.030203   0.020339   0.003864  -0.014086
    37  H   -0.068826   0.142369  -0.110368   0.005925   0.001552   0.008041
    38  H    0.078902  -0.244268   0.100639  -0.004454  -0.078001   0.081834
    39  H    0.025571   0.062850   0.044400  -0.005794   0.015800  -0.021041
               7          8          9         10         11         12
     1  C   -0.647095  -0.640058   0.195774  -0.113779   0.180794   0.007446
     2  C  -10.835546   2.595048  -0.740210   0.403504  -0.272524  -0.066629
     3  C   -1.892888   0.689654  -0.120484  -0.067474  -0.661518  -0.031926
     4  N    0.617160  -0.133857  -0.002358   0.037263  -0.027661  -0.077734
     5  C   -0.660649   0.072796  -0.022987   0.014680  -0.080338   0.023682
     6  C    0.374410  -0.188632  -0.028562  -0.025471  -0.008890   0.002953
     7  C   28.917402  -7.047259  -0.265224   0.100004  -1.365951  -0.011950
     8  N   -7.047259  16.594526  -0.369393  -0.342001  -1.131852   0.008614
     9  C   -0.265224  -0.369393   5.942913  -0.001744   0.857479  -0.000797
    10  C    0.100004  -0.342001  -0.001744   6.317533  -1.055401  -0.000520
    11  C   -1.365951  -1.131852   0.857479  -1.055401   8.606055  -0.003560
    12  O   -0.011950   0.008614  -0.000797  -0.000520  -0.003560   7.910004
    13  O   -0.000200  -0.023363   0.002484  -0.002806   0.000503  -0.045412
    14  O    0.095341  -0.067684   0.031060  -0.011044   0.016509   0.002276
    15  H    0.690219  -1.183764  -0.128505   0.115715   0.092591  -0.000312
    16  H   -0.046739  -0.133555   0.142841  -0.240909   0.205250  -0.000061
    17  H    0.234273   0.148033  -0.064492  -0.382263   0.230825   0.000063
    18  H   -0.024069   0.495787  -0.219436   0.184113  -1.094662   0.000112
    19  H   -0.115318  -0.168208   0.053315   0.316508  -0.172192   0.000059
    20  H    0.041517  -0.271933  -0.310573  -0.020873   0.025320   0.000001
    21  H   -2.759374  -0.391010   0.054736  -0.065401   0.773076  -0.000051
    22  H    0.225984  -0.193350   0.043791  -0.025362   0.109145  -0.007428
    23  H   -0.005530   0.005877  -0.000002   0.000403   0.005556   0.010729
    24  H    0.027019   0.001481  -0.000655   0.000677  -0.003755   0.000256
    25  H   -0.127907   0.014858  -0.001585  -0.010629  -0.036763   0.000014
    26  C   -1.401115   1.142749  -0.207069   0.014275  -0.194809   0.000993
    27  H   -0.065923   0.022682  -0.004175  -0.002114  -0.035111   0.012580
    28  H    0.637323  -0.229701  -0.182093   0.028246  -0.085112   0.003489
    29  H   -0.043819  -0.038547   0.030685  -0.012899   0.028898  -0.000111
    30  H    0.000955   0.003419  -0.001087   0.000000  -0.000985   0.308912
    31  H    0.001041   0.000439   0.000211   0.000010   0.000596   0.366325
    32  H   -0.001470   0.001415  -0.000878  -0.000783  -0.000144   0.001078
    33  H    0.014288  -0.016864   0.004987   0.012454  -0.002566  -0.000829
    34  H    0.009049  -0.004224  -0.001899   0.001691   0.001221   0.002466
    35  O   -0.083163   0.062551  -0.008980   0.002747  -0.002514   0.004315
    36  H    0.006949   0.004783   0.000583  -0.000300  -0.000308  -0.000425
    37  H    0.072480  -0.204535  -0.060331   0.078112  -0.087364   0.000014
    38  H    0.181663   0.118049  -0.017285  -0.054085   0.088951  -0.000560
    39  H   -0.213931  -0.669067   0.126395   0.006867   0.060071   0.000044
              13         14         15         16         17         18
     1  C    0.024076  -0.041645   0.044350   0.000932  -0.005397  -0.091973
     2  C   -0.035146  -0.017365  -0.252006   0.023448  -0.100015   0.404507
     3  C    0.017425  -0.147562  -0.007579   0.036157  -0.041549   0.232032
     4  N    0.002518   0.027631  -0.002455  -0.002830   0.008548  -0.008176
     5  C    0.036770  -0.010188  -0.001007   0.002455  -0.000760  -0.000626
     6  C   -0.021366   0.011891  -0.000991  -0.002062  -0.000735   0.000399
     7  C   -0.000200   0.095341   0.690219  -0.046739   0.234273  -0.024069
     8  N   -0.023363  -0.067684  -1.183764  -0.133555   0.148033   0.495787
     9  C    0.002484   0.031060  -0.128505   0.142841  -0.064492  -0.219436
    10  C   -0.002806  -0.011044   0.115715  -0.240909  -0.382263   0.184113
    11  C    0.000503   0.016509   0.092591   0.205250   0.230825  -1.094662
    12  O   -0.045412   0.002276  -0.000312  -0.000061   0.000063   0.000112
    13  O    8.212576  -0.064759   0.000001  -0.000159  -0.000589  -0.000056
    14  O   -0.064759   8.005231   0.030529  -0.004853   0.011157   0.002448
    15  H    0.000001   0.030529   2.912750   0.122117  -0.321210  -0.043181
    16  H   -0.000159  -0.004853   0.122117   2.111088  -0.616520  -0.316776
    17  H   -0.000589   0.011157  -0.321210  -0.616520   2.251982   0.186317
    18  H   -0.000056   0.002448  -0.043181  -0.316776   0.186317   2.655048
    19  H    0.001327  -0.022132   0.056624   0.202317  -0.443412  -0.681645
    20  H    0.000214   0.000638  -0.564673  -0.248632   0.192701   0.063780
    21  H   -0.000081  -0.002391   0.098139   0.067656  -0.063867  -0.371857
    22  H    0.051572   0.093754  -0.012075  -0.005687   0.021756   0.054075
    23  H    0.001445  -0.000781   0.000054   0.000081  -0.000068   0.000774
    24  H   -0.000564   0.000397  -0.000016  -0.000046   0.000071  -0.001699
    25  H    0.000911  -0.002245  -0.002223   0.002672  -0.001414   0.008777
    26  C    0.005242  -0.002348  -0.161995  -0.023946   0.015047   0.090251
    27  H   -0.015236  -0.001541  -0.000378  -0.000078   0.000428   0.002147
    28  H   -0.000395   0.089156   0.045542   0.001404   0.029818  -0.015210
    29  H    0.012388   0.373811   0.005834   0.000606  -0.002853   0.000678
    30  H    0.014667  -0.002082  -0.000124  -0.000005   0.000154  -0.000130
    31  H   -0.005051   0.000382   0.000020   0.000008  -0.000088  -0.000064
    32  H    0.314913  -0.006392  -0.000410  -0.000023  -0.000097   0.000052
    33  H    0.268865   0.039326   0.002586   0.000127  -0.000154  -0.000527
    34  H   -0.028857   0.001596   0.000381  -0.000012   0.000288  -0.000044
    35  O   -0.058161   0.008641  -0.001887   0.000082   0.000416   0.000267
    36  H    0.004871  -0.000220   0.000090   0.000014  -0.000013  -0.000012
    37  H    0.004437   0.010414  -0.017137  -0.002554   0.011810   0.002093
    38  H   -0.009721  -0.000101   0.012241  -0.002984  -0.005397   0.000183
    39  H   -0.001108  -0.004097   0.036085   0.004995  -0.005501   0.008752
              19         20         21         22         23         24
     1  C    0.126574   0.014964   0.090140  -0.266637   0.229435   0.643304
     2  C   -0.090182   0.220973   1.031150  -0.792834  -0.040017   0.020209
     3  C   -0.045195   0.030764  -0.201838  -1.430795   0.136266  -0.119745
     4  N   -0.003882  -0.000112  -0.001675   0.135688  -0.155278  -0.001014
     5  C    0.008729  -0.001230   0.039993  -0.018821  -0.577168   0.337098
     6  C   -0.027277  -0.001822  -0.024670   0.039780   0.095289  -1.163484
     7  C   -0.115318   0.041517  -2.759374   0.225984  -0.005530   0.027019
     8  N   -0.168208  -0.271933  -0.391010  -0.193350   0.005877   0.001481
     9  C    0.053315  -0.310573   0.054736   0.043791  -0.000002  -0.000655
    10  C    0.316508  -0.020873  -0.065401  -0.025362   0.000403   0.000677
    11  C   -0.172192   0.025320   0.773076   0.109145   0.005556  -0.003755
    12  O    0.000059   0.000001  -0.000051  -0.007428   0.010729   0.000256
    13  O    0.001327   0.000214  -0.000081   0.051572   0.001445  -0.000564
    14  O   -0.022132   0.000638  -0.002391   0.093754  -0.000781   0.000397
    15  H    0.056624  -0.564673   0.098139  -0.012075   0.000054  -0.000016
    16  H    0.202317  -0.248632   0.067656  -0.005687   0.000081  -0.000046
    17  H   -0.443412   0.192701  -0.063867   0.021756  -0.000068   0.000071
    18  H   -0.681645   0.063780  -0.371857   0.054075   0.000774  -0.001699
    19  H    2.336120  -0.057741   0.235283  -0.169307   0.000289  -0.000665
    20  H   -0.057741   2.509466  -0.090185   0.011459   0.000041  -0.000279
    21  H    0.235283  -0.090185   3.601670  -0.033950   0.001651   0.000505
    22  H   -0.169307   0.011459  -0.033950   4.536924   0.016862  -0.008949
    23  H    0.000289   0.000041   0.001651   0.016862   2.203405  -0.103823
    24  H   -0.000665  -0.000279   0.000505  -0.008949  -0.103823   2.074796
    25  H    0.001207   0.002383  -0.172848  -0.017229  -0.011169  -0.129958
    26  C   -0.048444  -0.059993  -0.092297   0.028092   0.001887  -0.008063
    27  H   -0.006012   0.000278  -0.005354  -0.070868  -0.170988   0.009199
    28  H    0.003295   0.023256   0.003085  -0.010943  -0.000857   0.000896
    29  H    0.010943   0.000138   0.001093   0.004954   0.000018  -0.000056
    30  H   -0.000391  -0.000100   0.000173  -0.006175  -0.001810   0.000283
    31  H    0.000915   0.000006   0.000066   0.002009   0.003434  -0.000168
    32  H   -0.000085   0.000011  -0.000160   0.004041   0.000096  -0.000077
    33  H    0.000040   0.000173   0.000786  -0.040151  -0.001595   0.000760
    34  H   -0.000303   0.000207   0.000874  -0.008364   0.002851   0.001169
    35  O   -0.001983  -0.000436  -0.002466   0.010588   0.009233   0.001485
    36  H   -0.000036  -0.000120  -0.000346   0.003123  -0.002666  -0.000821
    37  H   -0.011922  -0.001635   0.009612  -0.003954   0.000446  -0.001011
    38  H    0.010296   0.016193   0.000574   0.018781   0.000366  -0.000827
    39  H    0.006048   0.023772   0.099729   0.005006   0.000241  -0.000401
              25         26         27         28         29         30
     1  C   -2.733316  -0.397185  -0.023995  -0.041425   0.004629  -0.004697
     2  C    1.255997   0.958967  -0.364921  -0.098758   0.011747   0.011869
     3  C    0.252534  -0.214017   0.438752  -0.226599   0.025290  -0.041228
     4  N   -0.092554  -0.016533  -0.007972   0.074226  -0.006020   0.036964
     5  C   -0.241354  -0.036385  -0.539032   0.013910   0.000094  -0.004783
     6  C    0.783698   0.096040  -0.000432  -0.001252   0.000056   0.005159
     7  C   -0.127907  -1.401115  -0.065923   0.637323  -0.043819   0.000955
     8  N    0.014858   1.142749   0.022682  -0.229701  -0.038547   0.003419
     9  C   -0.001585  -0.207069  -0.004175  -0.182093   0.030685  -0.001087
    10  C   -0.010629   0.014275  -0.002114   0.028246  -0.012899   0.000000
    11  C   -0.036763  -0.194809  -0.035111  -0.085112   0.028898  -0.000985
    12  O    0.000014   0.000993   0.012580   0.003489  -0.000111   0.308912
    13  O    0.000911   0.005242  -0.015236  -0.000395   0.012388   0.014667
    14  O   -0.002245  -0.002348  -0.001541   0.089156   0.373811  -0.002082
    15  H   -0.002223  -0.161995  -0.000378   0.045542   0.005834  -0.000124
    16  H    0.002672  -0.023946  -0.000078   0.001404   0.000606  -0.000005
    17  H   -0.001414   0.015047   0.000428   0.029818  -0.002853   0.000154
    18  H    0.008777   0.090251   0.002147  -0.015210   0.000678  -0.000130
    19  H    0.001207  -0.048444  -0.006012   0.003295   0.010943  -0.000391
    20  H    0.002383  -0.059993   0.000278   0.023256   0.000138  -0.000100
    21  H   -0.172848  -0.092297  -0.005354   0.003085   0.001093   0.000173
    22  H   -0.017229   0.028092  -0.070868  -0.010943   0.004954  -0.006175
    23  H   -0.011169   0.001887  -0.170988  -0.000857   0.000018  -0.001810
    24  H   -0.129958  -0.008063   0.009199   0.000896  -0.000056   0.000283
    25  H    3.114956   0.058039   0.009501  -0.010795   0.000669  -0.000667
    26  C    0.058039   4.995428  -0.000587  -0.161636   0.014319   0.000026
    27  H    0.009501  -0.000587   1.768368  -0.003152  -0.000044  -0.013808
    28  H   -0.010795  -0.161636  -0.003152   0.743240  -0.194325   0.006333
    29  H    0.000669   0.014319  -0.000044  -0.194325   0.612098  -0.001795
    30  H   -0.000667   0.000026  -0.013808   0.006333  -0.001795   0.572822
    31  H    0.000071  -0.000113   0.002036  -0.000903   0.000194  -0.119808
    32  H    0.000053   0.000643   0.001440   0.002464   0.001004   0.002943
    33  H   -0.000404  -0.015521   0.002751  -0.015391  -0.002855  -0.006451
    34  H    0.000849  -0.011952  -0.005184   0.000226  -0.000904   0.008591
    35  O    0.001316  -0.018661   0.022222   0.018542  -0.001692  -0.000677
    36  H    0.000430   0.001485   0.001860   0.000459  -0.000184  -0.000317
    37  H    0.000689   0.164298  -0.002569   0.089731  -0.002588   0.000213
    38  H    0.003719   0.102448   0.003551  -0.046762   0.003531  -0.001244
    39  H    0.010551   0.208528   0.000822  -0.044212   0.005326  -0.000157
              31         32         33         34         35         36
     1  C   -0.002086   0.002688  -0.015263  -0.028692  -0.190936   0.021877
     2  C    0.007655   0.002519  -0.002109   0.049032   0.239408  -0.041471
     3  C   -0.002108   0.000474   0.011341  -0.049395  -0.130479   0.030203
     4  N   -0.011528   0.000716   0.008704   0.003005  -0.052443   0.020339
     5  C   -0.007319   0.001769  -0.007313  -0.008982  -0.069684   0.003864
     6  C    0.003556  -0.001309   0.005016   0.018082   0.057828  -0.014086
     7  C    0.001041  -0.001470   0.014288   0.009049  -0.083163   0.006949
     8  N    0.000439   0.001415  -0.016864  -0.004224   0.062551   0.004783
     9  C    0.000211  -0.000878   0.004987  -0.001899  -0.008980   0.000583
    10  C    0.000010  -0.000783   0.012454   0.001691   0.002747  -0.000300
    11  C    0.000596  -0.000144  -0.002566   0.001221  -0.002514  -0.000308
    12  O    0.366325   0.001078  -0.000829   0.002466   0.004315  -0.000425
    13  O   -0.005051   0.314913   0.268865  -0.028857  -0.058161   0.004871
    14  O    0.000382  -0.006392   0.039326   0.001596   0.008641  -0.000220
    15  H    0.000020  -0.000410   0.002586   0.000381  -0.001887   0.000090
    16  H    0.000008  -0.000023   0.000127  -0.000012   0.000082   0.000014
    17  H   -0.000088  -0.000097  -0.000154   0.000288   0.000416  -0.000013
    18  H   -0.000064   0.000052  -0.000527  -0.000044   0.000267  -0.000012
    19  H    0.000915  -0.000085   0.000040  -0.000303  -0.001983  -0.000036
    20  H    0.000006   0.000011   0.000173   0.000207  -0.000436  -0.000120
    21  H    0.000066  -0.000160   0.000786   0.000874  -0.002466  -0.000346
    22  H    0.002009   0.004041  -0.040151  -0.008364   0.010588   0.003123
    23  H    0.003434   0.000096  -0.001595   0.002851   0.009233  -0.002666
    24  H   -0.000168  -0.000077   0.000760   0.001169   0.001485  -0.000821
    25  H    0.000071   0.000053  -0.000404   0.000849   0.001316   0.000430
    26  C   -0.000113   0.000643  -0.015521  -0.011952  -0.018661   0.001485
    27  H    0.002036   0.001440   0.002751  -0.005184   0.022222   0.001860
    28  H   -0.000903   0.002464  -0.015391   0.000226   0.018542   0.000459
    29  H    0.000194   0.001004  -0.002855  -0.000904  -0.001692  -0.000184
    30  H   -0.119808   0.002943  -0.006451   0.008591  -0.000677  -0.000317
    31  H    0.583988  -0.000271   0.001386   0.000338   0.002359  -0.000341
    32  H   -0.000271   0.580274  -0.141192   0.002966   0.001635   0.000902
    33  H    0.001386  -0.141192   0.514170   0.004964   0.004446  -0.001858
    34  H    0.000338   0.002966   0.004964   0.584288   0.345419  -0.128968
    35  O    0.002359   0.001635   0.004446   0.345419   8.024294   0.247376
    36  H   -0.000341   0.000902  -0.001858  -0.128968   0.247376   0.650119
    37  H    0.000059   0.001019  -0.003443  -0.000782   0.000367   0.000127
    38  H    0.000506  -0.001554   0.007183   0.007112  -0.059401   0.004523
    39  H   -0.000054   0.000263  -0.001210  -0.002820   0.013019   0.000676
              37         38         39
     1  C   -0.068826   0.078902   0.025571
     2  C    0.142369  -0.244268   0.062850
     3  C   -0.110368   0.100639   0.044400
     4  N    0.005925  -0.004454  -0.005794
     5  C    0.001552  -0.078001   0.015800
     6  C    0.008041   0.081834  -0.021041
     7  C    0.072480   0.181663  -0.213931
     8  N   -0.204535   0.118049  -0.669067
     9  C   -0.060331  -0.017285   0.126395
    10  C    0.078112  -0.054085   0.006867
    11  C   -0.087364   0.088951   0.060071
    12  O    0.000014  -0.000560   0.000044
    13  O    0.004437  -0.009721  -0.001108
    14  O    0.010414  -0.000101  -0.004097
    15  H   -0.017137   0.012241   0.036085
    16  H   -0.002554  -0.002984   0.004995
    17  H    0.011810  -0.005397  -0.005501
    18  H    0.002093   0.000183   0.008752
    19  H   -0.011922   0.010296   0.006048
    20  H   -0.001635   0.016193   0.023772
    21  H    0.009612   0.000574   0.099729
    22  H   -0.003954   0.018781   0.005006
    23  H    0.000446   0.000366   0.000241
    24  H   -0.001011  -0.000827  -0.000401
    25  H    0.000689   0.003719   0.010551
    26  C    0.164298   0.102448   0.208528
    27  H   -0.002569   0.003551   0.000822
    28  H    0.089731  -0.046762  -0.044212
    29  H   -0.002588   0.003531   0.005326
    30  H    0.000213  -0.001244  -0.000157
    31  H    0.000059   0.000506  -0.000054
    32  H    0.001019  -0.001554   0.000263
    33  H   -0.003443   0.007183  -0.001210
    34  H   -0.000782   0.007112  -0.002820
    35  O    0.000367  -0.059401   0.013019
    36  H    0.000127   0.004523   0.000676
    37  H    2.205985  -0.663333  -0.356430
    38  H   -0.663333   2.052375  -0.485435
    39  H   -0.356430  -0.485435   2.180972
 Mulliken charges:
               1
     1  C    1.136665
     2  C    0.730530
     3  C    0.974643
     4  N   -0.048072
     5  C    0.679205
     6  C    0.486918
     7  C    1.368044
     8  N   -1.533905
     9  C    1.273548
    10  C    0.801057
    11  C    1.041138
    12  O   -0.418124
    13  O   -0.664176
    14  O   -0.442758
    15  H   -0.563944
    16  H   -0.275822
    17  H   -0.287297
    18  H   -0.522450
    19  H   -0.303557
    20  H   -0.547919
    21  H   -0.830170
    22  H   -1.294506
    23  H   -0.654977
    24  H   -0.573532
    25  H   -0.930836
    26  C    1.173912
    27  H    0.040856
    28  H    0.554881
    29  H    0.159690
    30  H    0.235039
    31  H    0.172291
    32  H    0.229464
    33  H    0.371345
    34  H    0.234715
    35  O   -0.394994
    36  H    0.187840
    37  H   -0.211011
    38  H   -0.218207
    39  H   -0.135523
 Sum of Mulliken charges =   1.00000
 Mulliken charges with hydrogens summed into heavy atoms:
               1
     1  C    0.205829
     2  C    0.730530
     3  C   -0.319863
     4  N   -0.007215
     5  C    0.024228
     6  C   -0.086614
     7  C    0.537874
     8  N   -1.533905
     9  C    0.161685
    10  C    0.237939
    11  C    0.215130
    12  O   -0.010794
    13  O   -0.063367
    14  O    0.271812
    26  C    0.609171
    35  O    0.027560
 APT charges:
               1
     1  C    0.150112
     2  C   -0.035979
     3  C    0.096271
     4  N   -0.303504
     5  C    0.140332
     6  C   -0.110636
     7  C    0.322934
     8  N   -0.693091
     9  C    0.312627
    10  C    0.069617
    11  C    0.045037
    12  O   -0.737104
    13  O   -0.724785
    14  O   -0.783990
    15  H   -0.016756
    16  H   -0.007069
    17  H   -0.017975
    18  H   -0.003626
    19  H   -0.009242
    20  H   -0.053580
    21  H   -0.068788
    22  H    0.149855
    23  H    0.107289
    24  H    0.088046
    25  H    0.079362
    26  C    0.249345
    27  H    0.541630
    28  H    0.491809
    29  H    0.259932
    30  H    0.415439
    31  H    0.285626
    32  H    0.279445
    33  H    0.457341
    34  H    0.346356
    35  O   -0.577185
    36  H    0.249050
    37  H    0.004555
    38  H    0.041681
    39  H   -0.040380
 Sum of APT charges =   1.00000
 APT charges with hydrogens summed into heavy atoms:
               1
     1  C    0.229474
     2  C   -0.035979
     3  C    0.246126
     4  N    0.238126
     5  C    0.247621
     6  C   -0.022591
     7  C    0.254146
     8  N   -0.693091
     9  C    0.242290
    10  C    0.044573
    11  C    0.032169
    12  O   -0.036038
    13  O    0.012001
    14  O   -0.032248
    26  C    0.255200
    35  O    0.018221
 Electronic spatial extent (au):  <R**2>=           4185.8316
 Charge=              1.0000 electrons
 Dipole moment (field-independent basis, Debye):
    X=             -1.8233    Y=             -0.1025    Z=             -0.3833  Tot=              1.8659
 Quadrupole moment (field-independent basis, Debye-Ang):
   XX=            -61.6965   YY=            -59.4217   ZZ=            -84.5029
   XY=             -0.4876   XZ=              1.9930   YZ=              2.4010
 Traceless Quadrupole moment (field-independent basis, Debye-Ang):
   XX=              6.8439   YY=              9.1186   ZZ=            -15.9626
   XY=             -0.4876   XZ=              1.9930   YZ=              2.4010
 Octapole moment (field-independent basis, Debye-Ang**2):
  XXX=            -48.2749  YYY=            -59.8871  ZZZ=             13.2282  XYY=            -54.4863
  XXY=            -21.9116  XXZ=            -17.9024  XZZ=            -36.6451  YZZ=            -28.0912
  YYZ=             12.8895  XYZ=             -2.3463
 Hexadecapole moment (field-independent basis, Debye-Ang**3):
 XXXX=          -2508.1127 YYYY=          -1133.9140 ZZZZ=           -690.1254 XXXY=             45.1333
 XXXZ=             54.2540 YYYX=             58.8730 YYYZ=             44.2258 ZZZX=             -2.4026
 ZZZY=             16.8307 XXYY=           -531.9519 XXZZ=           -470.8567 YYZZ=           -362.9351
 XXYZ=             27.0232 YYXZ=            -17.8036 ZZXY=             63.8460
 N-N= 1.276453027148D+03 E-N=-4.416197586565D+03  KE= 8.000538553782D+02
  Exact polarizability: 184.447  -9.363 163.051   1.961   8.782 134.883
 Approx polarizability: 188.890  -4.884 182.367   4.839  16.103 153.348
 Calling FoFJK, ICntrl=    100127 FMM=F ISym2X=0 I1Cent= 0 IOpClX= 0 NMat=1 NMatS=1 NMatT=0.
 Full mass-weighted force constant matrix:
 Low frequencies ---   -5.2784   -0.0008    0.0006    0.0009    7.3142   10.6163
 Low frequencies ---   40.0970   43.5760   58.5555
 Diagonal vibrational polarizability:
      169.7754950      77.3787752     103.3402738
 Harmonic frequencies (cm**-1), IR intensities (KM/Mole), Raman scattering
 activities (A**4/AMU), depolarization ratios for plane and unpolarized
 incident light, reduced masses (AMU), force constants (mDyne/A),
 and normal coordinates:
                      1                      2                      3
                      A                      A                      A
 Frequencies --     40.0697                43.5128                58.5455
 Red. masses --      4.6726                 3.8170                 4.6212
 Frc consts  --      0.0044                 0.0043                 0.0093
 IR Inten    --      1.1401                 0.4221                 0.8737
  Atom  AN      X      Y      Z        X      Y      Z        X      Y      Z
     1   6     0.05   0.10  -0.13     0.02   0.02  -0.02     0.01   0.09  -0.02
     2   6     0.01   0.03  -0.00     0.00   0.02  -0.03    -0.00   0.06   0.05
     3   6    -0.02   0.01   0.09    -0.02   0.02   0.01    -0.01   0.05   0.08
     4   7    -0.01   0.04   0.06    -0.02   0.02   0.05    -0.00   0.06   0.04
     5   6     0.03   0.11  -0.07     0.00   0.03   0.06     0.01   0.09  -0.02
     6   6     0.06   0.14  -0.17     0.02   0.02   0.03     0.02   0.11  -0.05
     7   6    -0.00   0.00   0.03     0.00   0.01  -0.06    -0.01   0.04   0.04
     8   7    -0.03  -0.02  -0.01     0.01   0.07   0.07    -0.03   0.01  -0.02
     9   6    -0.02  -0.02   0.03    -0.00   0.04   0.05    -0.06  -0.04  -0.09
    10   6     0.04   0.06   0.06    -0.05  -0.13   0.01    -0.14  -0.05  -0.10
    11   6     0.02   0.03   0.04    -0.05  -0.15  -0.06    -0.02   0.10   0.02
    12   8    -0.06   0.02   0.24    -0.05   0.06  -0.01     0.27  -0.07  -0.13
    13   8     0.09  -0.16  -0.01    -0.03  -0.10  -0.16    -0.07  -0.13   0.08
    14   8     0.03  -0.02  -0.11     0.04   0.04   0.07    -0.07  -0.05   0.13
    15   1    -0.04  -0.03  -0.01    -0.00   0.06   0.16    -0.08  -0.05  -0.10
    16   1     0.04   0.11   0.13    -0.06  -0.15  -0.07    -0.10  -0.20  -0.19
    17   1     0.12   0.08   0.01    -0.08  -0.19   0.11    -0.33  -0.03  -0.09
    18   1    -0.00   0.04   0.04    -0.06  -0.19  -0.18     0.09   0.10   0.12
    19   1     0.03   0.00   0.04    -0.08  -0.22   0.01    -0.06   0.27  -0.03
    20   1    -0.05  -0.05   0.09     0.02   0.10  -0.03     0.00  -0.07  -0.13
    21   1    -0.00  -0.02   0.06     0.04   0.06  -0.16     0.00   0.01   0.07
    22   1    -0.06  -0.04   0.18    -0.03   0.02   0.00    -0.02   0.02   0.13
    23   1     0.04   0.14  -0.08     0.00   0.03   0.09     0.02   0.11  -0.05
    24   1     0.10   0.20  -0.27     0.04   0.02   0.04     0.03   0.13  -0.10
    25   1     0.07   0.13  -0.21     0.04   0.02  -0.04     0.02   0.10  -0.05
    26   6    -0.09  -0.08  -0.02     0.05   0.22   0.07     0.03  -0.03  -0.00
    27   1    -0.04   0.02   0.14    -0.03   0.03   0.05     0.02   0.05   0.04
    28   1     0.02  -0.02  -0.08    -0.00   0.05   0.12    -0.07  -0.01   0.06
    29   1     0.05   0.04  -0.21     0.08   0.07   0.10    -0.05  -0.02   0.09
    30   1    -0.01  -0.01   0.16    -0.03   0.01  -0.08     0.15  -0.08  -0.05
    31   1    -0.14   0.06   0.25    -0.07   0.13  -0.04     0.33  -0.07  -0.15
    32   1     0.12  -0.19  -0.06    -0.03  -0.12  -0.22    -0.10  -0.14   0.05
    33   1     0.07  -0.12  -0.06    -0.01  -0.05  -0.10    -0.05  -0.13   0.12
    34   1    -0.01  -0.16  -0.02     0.02  -0.15  -0.08    -0.02  -0.10   0.02
    35   8    -0.07  -0.14  -0.05     0.06  -0.17  -0.04     0.02  -0.09  -0.01
    36   1    -0.09  -0.14  -0.06     0.07  -0.20  -0.04     0.04  -0.05   0.00
    37   1    -0.11  -0.09  -0.05     0.08   0.27   0.17     0.01  -0.05  -0.04
    38   1    -0.09  -0.08  -0.05     0.05   0.21   0.08     0.04   0.01   0.04
    39   1    -0.10  -0.10   0.03     0.05   0.29  -0.03     0.08  -0.07  -0.00
                      4                      5                      6
                      A                      A                      A
 Frequencies --     62.3458                73.0695                77.9765
 Red. masses --      5.2850                 4.9828                 2.5931
 Frc consts  --      0.0121                 0.0157                 0.0093
 IR Inten    --      0.8833                 0.2944                 0.4497
  Atom  AN      X      Y      Z        X      Y      Z        X      Y      Z
     1   6    -0.02   0.00  -0.03    -0.05   0.01  -0.04     0.03   0.01  -0.05
     2   6     0.02  -0.01   0.02    -0.06  -0.04   0.08    -0.03  -0.04   0.01
     3   6     0.05  -0.05   0.03    -0.06  -0.06   0.10    -0.07  -0.03   0.08
     4   7     0.04  -0.07  -0.03    -0.05  -0.02  -0.00    -0.05   0.01   0.08
     5   6     0.01  -0.05  -0.09    -0.03   0.04  -0.13    -0.00   0.06   0.02
     6   6    -0.02  -0.02  -0.09    -0.04   0.05  -0.14     0.04   0.05  -0.04
     7   6     0.03   0.04   0.05    -0.06  -0.03   0.10    -0.03  -0.05  -0.03
     8   7     0.07   0.00  -0.02    -0.02  -0.04   0.08     0.01  -0.03  -0.02
     9   6     0.07   0.05  -0.05    -0.03  -0.03   0.00     0.04   0.03   0.00
    10   6     0.06   0.14  -0.03    -0.14  -0.08  -0.02     0.11   0.13   0.03
    11   6     0.06   0.16   0.04    -0.07   0.02   0.08    -0.10  -0.11  -0.05
    12   8    -0.21   0.09   0.01    -0.07   0.01  -0.05     0.06  -0.00  -0.12
    13   8    -0.21  -0.02  -0.09     0.12   0.14  -0.10    -0.02   0.05  -0.02
    14   8    -0.05  -0.09   0.25     0.11  -0.01  -0.10     0.00  -0.04   0.03
    15   1     0.10   0.04  -0.12    -0.01  -0.02   0.02     0.06   0.02  -0.06
    16   1     0.06   0.16  -0.01    -0.12  -0.19  -0.13     0.04   0.39   0.17
    17   1     0.06   0.18  -0.08    -0.30  -0.08   0.02     0.40   0.14  -0.04
    18   1     0.06   0.20   0.13    -0.01   0.02   0.16    -0.30  -0.09  -0.23
    19   1     0.08   0.22  -0.01    -0.10   0.13   0.04    -0.09  -0.36   0.08
    20   1     0.06   0.03  -0.02     0.00  -0.00  -0.06    -0.01   0.00   0.08
    21   1    -0.01   0.02   0.11    -0.07  -0.03   0.11     0.00  -0.03  -0.09
    22   1     0.08  -0.06   0.07    -0.07  -0.09   0.17    -0.11  -0.06   0.12
    23   1     0.01  -0.07  -0.13    -0.02   0.08  -0.22     0.00   0.10   0.02
    24   1    -0.04  -0.01  -0.14    -0.03   0.10  -0.24     0.08   0.09  -0.08
    25   1    -0.04   0.03  -0.04    -0.05   0.03  -0.06     0.06   0.01  -0.11
    26   6     0.09  -0.07  -0.02     0.06  -0.05   0.09     0.01  -0.03  -0.02
    27   1     0.04  -0.07  -0.02    -0.05  -0.01  -0.02    -0.07   0.03   0.07
    28   1    -0.01  -0.05   0.12     0.06  -0.02  -0.01     0.03  -0.04   0.00
    29   1    -0.07  -0.12   0.26     0.14  -0.02  -0.02    -0.02  -0.05   0.02
    30   1    -0.21   0.05  -0.04     0.01   0.03  -0.08     0.03  -0.01  -0.10
    31   1    -0.19   0.14  -0.03     0.02   0.01  -0.09     0.15   0.01  -0.16
    32   1    -0.25  -0.02  -0.10     0.09   0.16  -0.07    -0.06   0.06  -0.02
    33   1    -0.17  -0.03   0.02     0.11   0.08  -0.12    -0.01   0.02   0.01
    34   1    -0.04  -0.06  -0.02     0.21   0.08   0.03    -0.02   0.01   0.05
    35   8     0.10  -0.09   0.00     0.25   0.04   0.11    -0.01  -0.01   0.10
    36   1     0.12  -0.05   0.01     0.21  -0.01   0.09     0.02  -0.06   0.11
    37   1     0.12  -0.08  -0.06     0.06  -0.06   0.07     0.05  -0.02  -0.01
    38   1     0.09  -0.10   0.01     0.07  -0.02   0.15    -0.00  -0.08  -0.02
    39   1     0.08  -0.08   0.01     0.11  -0.07   0.07    -0.03  -0.01  -0.02
                      7                      8                      9
                      A                      A                      A
 Frequencies --     91.5880               107.1269               119.7707
 Red. masses --      5.0783                 4.5534                 4.2648
 Frc consts  --      0.0251                 0.0308                 0.0360
 IR Inten    --      3.6505                 3.0791                 1.6246
  Atom  AN      X      Y      Z        X      Y      Z        X      Y      Z
     1   6    -0.02  -0.02   0.02     0.03   0.06  -0.13     0.00  -0.04   0.02
     2   6    -0.01   0.01  -0.03     0.05   0.04  -0.07    -0.00  -0.07   0.08
     3   6    -0.01   0.04  -0.10     0.06  -0.03   0.01    -0.00  -0.06   0.06
     4   7    -0.01   0.04  -0.09     0.03  -0.10   0.09     0.01  -0.02  -0.02
     5   6    -0.01   0.02  -0.04     0.01  -0.10   0.07     0.02   0.01  -0.10
     6   6    -0.02  -0.01   0.01     0.01  -0.01  -0.06     0.02  -0.00  -0.07
     7   6    -0.02  -0.01  -0.00     0.05   0.05  -0.03     0.01  -0.04   0.06
     8   7    -0.05  -0.01   0.01    -0.02   0.04  -0.03     0.12  -0.02   0.07
     9   6    -0.04  -0.02   0.06    -0.02  -0.00   0.04     0.12   0.05  -0.02
    10   6     0.08   0.07   0.10     0.02  -0.06   0.03    -0.01   0.01  -0.04
    11   6     0.00  -0.04   0.02     0.14   0.06   0.01    -0.06  -0.02   0.02
    12   8     0.06  -0.03   0.02    -0.02  -0.03  -0.08    -0.01  -0.04  -0.02
    13   8    -0.10  -0.09   0.11    -0.07   0.04  -0.01    -0.08  -0.06   0.05
    14   8    -0.18   0.11  -0.09    -0.08   0.09  -0.12    -0.12   0.23  -0.11
    15   1    -0.08  -0.04   0.01    -0.05   0.00   0.08     0.20   0.08   0.01
    16   1     0.06   0.20   0.24     0.07  -0.19   0.01    -0.04   0.01  -0.15
    17   1     0.27   0.09   0.03    -0.09  -0.07   0.06    -0.06  -0.02  -0.00
    18   1    -0.08  -0.04  -0.05     0.27   0.05   0.10    -0.10  -0.01   0.00
    19   1     0.03  -0.15   0.05     0.17   0.18  -0.08    -0.09  -0.04   0.06
    20   1    -0.07  -0.08   0.15    -0.02   0.01   0.03     0.13   0.12  -0.09
    21   1    -0.02  -0.01  -0.00     0.02   0.04   0.01     0.00  -0.00   0.02
    22   1    -0.01   0.06  -0.14     0.08  -0.02   0.02    -0.01  -0.07   0.09
    23   1    -0.01   0.03  -0.05    -0.01  -0.17   0.15     0.03   0.05  -0.17
    24   1    -0.03  -0.03   0.05    -0.01  -0.01  -0.09     0.03   0.03  -0.14
    25   1    -0.03  -0.05   0.08     0.02   0.12  -0.22    -0.00  -0.05   0.03
    26   6    -0.06   0.01   0.01    -0.08   0.06  -0.04     0.22   0.00   0.09
    27   1     0.00   0.04  -0.10     0.04  -0.12   0.10     0.01  -0.02  -0.03
    28   1    -0.13   0.04  -0.04    -0.04   0.04  -0.08    -0.01   0.07   0.00
    29   1    -0.21   0.15  -0.24    -0.11   0.08  -0.15    -0.21   0.25  -0.34
    30   1    -0.02  -0.02   0.08    -0.06  -0.04  -0.08    -0.07  -0.04   0.01
    31   1    -0.06  -0.08   0.09     0.14   0.02  -0.18    -0.05  -0.05   0.00
    32   1    -0.05  -0.10   0.11    -0.05   0.02  -0.04     0.01  -0.08   0.03
    33   1    -0.12  -0.05   0.05    -0.08   0.06  -0.03    -0.09   0.04   0.02
    34   1     0.19  -0.06   0.03    -0.06  -0.05   0.19    -0.14  -0.02   0.03
    35   8     0.36  -0.06  -0.03    -0.03  -0.09   0.30    -0.14  -0.00  -0.02
    36   1     0.37   0.06  -0.02    -0.00  -0.20   0.31    -0.17   0.05  -0.03
    37   1    -0.07   0.01   0.02    -0.13   0.05  -0.03     0.31   0.03   0.11
    38   1    -0.05   0.02   0.00    -0.08   0.08  -0.08     0.21  -0.06   0.16
    39   1    -0.04   0.00   0.00    -0.09   0.04  -0.02     0.20   0.06   0.03
                     10                     11                     12
                      A                      A                      A
 Frequencies --    151.3419               162.8036               173.7435
 Red. masses --      4.6993                 2.1250                 4.7386
 Frc consts  --      0.0634                 0.0332                 0.0843
 IR Inten    --      6.2471                 5.3431                 9.6535
  Atom  AN      X      Y      Z        X      Y      Z        X      Y      Z
     1   6    -0.03  -0.07   0.11     0.02  -0.04  -0.01     0.01  -0.01  -0.05
     2   6    -0.02  -0.01  -0.01    -0.03  -0.05  -0.03    -0.01  -0.03  -0.03
     3   6     0.01   0.06  -0.15    -0.07  -0.01  -0.02    -0.04  -0.02  -0.01
     4   7     0.02   0.10  -0.21    -0.06   0.04   0.01    -0.04  -0.01   0.03
     5   6     0.02   0.08  -0.18    -0.01   0.05   0.03    -0.02  -0.01   0.04
     6   6    -0.01  -0.01   0.01     0.04   0.02   0.02     0.01  -0.00  -0.01
     7   6    -0.02  -0.02  -0.01    -0.03  -0.04  -0.02    -0.01  -0.03  -0.02
     8   7     0.00  -0.01  -0.01     0.04  -0.02  -0.01     0.00  -0.03  -0.03
     9   6     0.01   0.01  -0.02     0.10   0.19   0.07    -0.01  -0.06  -0.02
    10   6    -0.01   0.01  -0.02    -0.01  -0.05   0.01     0.01  -0.04  -0.02
    11   6    -0.04  -0.02  -0.02     0.05   0.02  -0.00     0.02  -0.02  -0.01
    12   8     0.07   0.08   0.06     0.01   0.00  -0.02    -0.01  -0.04   0.00
    13   8     0.05   0.01   0.01    -0.02   0.00   0.03     0.10   0.11  -0.02
    14   8     0.04   0.00   0.06    -0.01  -0.04  -0.00     0.01   0.33   0.24
    15   1     0.02   0.01  -0.02     0.31   0.27   0.26    -0.04  -0.07  -0.05
    16   1    -0.02   0.03  -0.03     0.01  -0.20  -0.18     0.01  -0.05  -0.00
    17   1     0.01  -0.00  -0.02    -0.20  -0.14   0.18    -0.00  -0.02  -0.03
    18   1    -0.07  -0.02  -0.05     0.13   0.03   0.11     0.04  -0.01   0.02
    19   1    -0.04  -0.05  -0.00     0.09   0.11  -0.09     0.03   0.01  -0.03
    20   1     0.00   0.02  -0.03    -0.02   0.45  -0.06     0.00  -0.10  -0.00
    21   1    -0.01  -0.01  -0.03    -0.07  -0.02  -0.00    -0.02  -0.03   0.00
    22   1     0.01   0.08  -0.20    -0.11  -0.02  -0.02    -0.06  -0.02  -0.01
    23   1     0.03   0.13  -0.27    -0.00   0.10   0.04    -0.02  -0.01   0.09
    24   1    -0.01  -0.04   0.07     0.08   0.03   0.03     0.03   0.01  -0.01
[...]
 065,0.00175189,-0.00090808,0.00111312,-0.00743462,-0.00854491,0.001777
 20,0.00128414,-0.00051549,-0.00007781,0.00003708,-0.00002699,-0.000018
 34,0.00004454,0.00000501,-0.00004864,0.00004576,0.00003838,0.00001717,
 0.00002221,-0.00000424,0.00001345,-0.00004879,-0.00001300,0.00003507,0
 .00002596,0.00000959,0.00000284,0.00013848,0.00000119,-0.00000779,-0.0
 0033056,0.00017561,-0.00016939,0.00014750,-0.00028584,-0.00000956,0.00
 018853,-0.00008304,0.00006617,0.00006550,-0.00004256,0.00009248,0.0005
 1294,0.00000632,-0.00077859,-0.00157251,-0.00051300,-0.00069594,-0.001
 28175,-0.00032659,-0.00006665,0.00004746,0.00004863,0.00147505,-0.0015
 5007,0.00199469,0.00010093,0.00006811,0.00012332,0.00062241,0.00092781
 ,-0.00088658,-0.00331123,-0.00116482,0.00117419,-0.07592129,-0.4256395
 0,-0.12342368,0.07999079,0.47750347,0.00083946,-0.00084659,-0.00026023
 ,-0.00006308,0.00116275,-0.00024141,-0.00217763,0.00102053,-0.00127813
 ,0.00204826,0.00279444,-0.00471005,0.00084310,-0.00128263,-0.00117534,
 -0.00063196,-0.00017818,0.00010694,-0.00054872,0.00026769,-0.00025182,
 -0.00024828,0.00030094,0.00060671,-0.00001328,-0.00016687,0.00027699,-
 0.00007298,0.00002739,-0.00006430,0.00003112,-0.00014569,0.00014210,-0
 .00054756,0.00000979,-0.00086919,-0.00018783,-0.00815557,-0.00138067,0
 .00110497,0.00021090,0.00005227,0.00002656,-0.00004858,-0.00002798,0.0
 0003264,-0.00001458,0.00004684,-0.00000296,-0.00001742,0.00004684,-0.0
 0000646,0.00000821,0.00004153,0.00000908,0.00000975,0.00009495,0.00008
 634,0.00004641,-0.00000879,0.00013189,0.00001930,0.00001729,-0.0002255
 0,0.00005789,0.00039496,0.00007261,-0.00007089,0.00002458,0.00004342,0
 .00010876,-0.00009515,0.00007805,0.00009400,-0.00005209,0.00069390,-0.
 00007066,0.00001714,0.00021183,-0.00016826,0.00105029,-0.00060659,-0.0
 0049121,-0.00038628,0.00001805,0.00009100,-0.00003828,0.00060841,0.000
 27071,0.00106686,0.00016203,-0.00000022,0.00012285,0.00051634,-0.00066
 589,-0.00206315,-0.00156755,0.00007854,0.00055902,-0.01279131,-0.17168
 802,-0.09735412,-0.20542396,0.14801730,0.55063180,-0.00008221,0.000159
 90,0.00007041,0.00007685,-0.00012245,0.00010694,-0.00012261,-0.0000207
 9,-0.00009777,-0.00005861,0.00031368,-0.00030598,0.00018249,-0.0001716
 2,-0.00018152,0.00003791,0.00001535,-0.00001906,0.00016726,-0.00013303
 ,0.00010026,0.00028759,-0.00002352,-0.00025315,-0.00009673,0.00007884,
 -0.00011022,0.00003215,-0.00000787,0.00001632,-0.00001750,0.00004050,-
 0.00004394,-0.00026262,0.00005366,0.00000005,-0.00035602,-0.00074046,-
 0.00054700,-0.00008361,-0.00000982,-0.00014444,-0.00001499,0.00001353,
 0.00000995,0.00000092,0.00001221,-0.00002122,-0.00000768,-0.00000110,-
 0.00001605,0.00001032,0.00000890,-0.00001799,-0.00000562,-0.00000961,-
 0.00002157,-0.00001382,-0.00000125,0.00001497,-0.00002723,0.00000759,0
 .00000494,0.00002558,-0.00002208,-0.00002227,-0.00000140,0.00004980,-0
 .00009137,0.00003360,0.00001641,0.00000929,-0.00002042,-0.00004132,0.0
 0001791,-0.00043390,-0.00005233,-0.00006821,0.00014182,0.00000561,0.00
 011261,0.00011840,0.00005356,0.00009663,-0.00000191,0.00001354,0.00004
 273,0.00029048,-0.00004896,0.00015013,0.00002495,-0.00000856,-0.000032
 66,0.00027794,-0.00005888,0.00000755,0.00003190,-0.00002297,0.00009908
 ,0.00152325,-0.00277396,-0.00537424,-0.10496032,-0.00421493,0.21721842
 ,0.10368743,-0.00027826,0.00032072,0.00007174,-0.00008984,-0.00028100,
 -0.00005742,0.00073802,-0.00019810,-0.00004491,-0.00045742,-0.00024425
 ,0.00061442,-0.00023151,0.00043225,0.00005578,0.00019449,0.00012498,-0
 .00013499,0.00001498,0.00005263,-0.00000539,-0.00000692,-0.00014025,-0
 .00002310,0.00002425,0.00001377,0.00001333,0.00000239,0.00000516,-0.00
 000536,-0.00000075,-0.00000859,0.00000938,0.00002256,-0.00008321,0.000
 08500,-0.00075809,-0.00204207,0.00009584,-0.00007151,-0.00011575,0.000
 06479,0.00000542,-0.00000787,-0.00000166,-0.00000305,-0.00000280,0.000
 00339,0.00000357,-0.00000241,-0.00000177,-0.00000035,-0.00000420,0.000
 00423,-0.00000092,0.00000513,0.00000167,-0.00000327,-0.00000442,-0.000
 00398,-0.00002465,-0.00001751,-0.00001048,-0.00000025,0.00001376,-0.00
 002187,0.00003975,-0.00002701,0.00010619,-0.00001089,-0.00011292,0.000
 07235,-0.00003647,-0.00001829,0.00003305,-0.00002250,0.00002008,-0.000
 05104,-0.00003155,0.00003316,-0.00006165,0.00003601,0.00008657,0.00000
 518,0.00001768,0.00001030,-0.00003163,0.00000057,0.00005352,-0.0001019
 1,-0.00000670,0.00001117,-0.00001780,0.00011075,-0.00044494,-0.0007212
 4,0.00011512,0.00021507,0.00010586,0.01979494,0.00211223,-0.04058067,-
 0.02677266,-0.04184932,0.02945057,0.00760567,0.04197393,0.00003446,-0.
 00000176,0.00003713,-0.00003533,-0.00010140,0.00000656,-0.00022441,0.0
 0012308,-0.00016645,0.00021743,0.00003375,-0.00029577,0.00010686,-0.00
 016909,-0.00007106,-0.00006147,0.00000515,0.00013049,0.00007283,0.0000
 3509,0.00001826,-0.00009281,-0.00007790,-0.00009911,0.00004320,0.00000
 200,0.,-0.00000064,-0.00000184,0.00001259,-0.00000373,0.00001857,-0.00
 001993,-0.00004216,-0.00010349,0.00026562,-0.00043814,0.00013784,0.000
 89024,-0.00025116,-0.00008101,0.00007830,0.00000053,0.00000732,0.00000
 520,-0.00000853,-0.00000178,-0.00000019,0.00000295,0.00000311,-0.00000
 675,-0.00000134,-0.00000459,-0.00000042,-0.00000459,-0.00000011,-0.000
 01304,-0.00001799,-0.00001311,-0.00000350,-0.00001500,-0.00001384,-0.0
 0000654,0.00000621,0.00003147,0.00001642,-0.00002968,0.00008170,-0.000
 07027,0.00000860,0.00001770,0.00001136,-0.00001376,0.00000183,0.000014
 07,-0.00023035,-0.00002780,0.00001597,0.00018106,0.00016186,-0.0000134
 4,0.00012070,0.00011815,0.00002592,0.00000142,-0.00002232,0.00000480,0
 .00002408,0.00005429,-0.00026710,-0.00004073,-0.00002237,-0.00004143,0
 .00007142,-0.00025140,-0.00014896,0.00035061,0.00008963,-0.00017310,0.
 00982660,0.00765735,-0.01601911,0.20166774,-0.01877568,-0.44383901,-0.
 21146167,0.01096587,0.45956008,0.00004264,-0.00019509,-0.00008714,0.00
 001992,-0.00003741,0.00004097,0.00025367,0.00013937,0.00008968,-0.0000
 9920,-0.00006160,-0.00002632,0.00001020,0.00001962,0.00002657,0.000020
 92,-0.00001437,-0.00004809,-0.00051362,0.00007574,0.00168215,0.0004455
 3,-0.00805039,0.00486063,0.00075305,-0.00138243,0.00042015,0.00006971,
 -0.00008200,-0.00007420,0.00027064,-0.00017154,0.00048480,0.00000615,-
 0.00012335,0.00004973,0.00019282,-0.00005206,0.00022125,-0.00013136,-0
 .00018669,0.00038836,0.00014784,0.00029067,0.00011175,0.00001080,-0.00
 000244,-0.00002747,-0.00001519,0.00001282,-0.00005014,-0.00000757,-0.0
 0000933,0.00008362,-0.00006728,0.00000767,0.00011895,-0.00006817,-0.00
 012135,-0.00014441,0.00002340,0.00035511,-0.00010463,-0.00002613,0.000
 06521,0.00000143,0.00000494,0.00000049,-0.00000269,-0.00000503,-0.0000
 0391,0.00000472,-0.00003414,-0.00000954,0.00000202,-0.05960417,0.05433
 525,-0.02460189,0.00008297,0.00013456,0.00003467,0.00023537,0.00039431
 ,-0.00037591,0.00007383,0.00000018,-0.00003141,-0.00008145,0.00009201,
 -0.00011057,-0.00000554,-0.00000327,-0.00000558,-0.00007709,-0.0000470
 3,-0.00007174,-0.00009273,-0.00001091,-0.00020438,-0.00026844,0.000139
 15,-0.00008207,0.00000361,-0.00049810,0.00020897,-0.00015334,0.0000643
 7,-0.00001138,0.05842762,-0.00003625,-0.00002870,-0.00003835,-0.000134
 05,0.00013503,-0.00009133,-0.00009000,-0.00006690,-0.00004382,0.000129
 19,0.00005419,0.00004621,-0.00000542,-0.00002024,-0.00001354,0.0000018
 4,0.00004008,0.00003755,-0.00012171,0.00112522,-0.00044231,-0.00091676
 ,0.00364454,-0.00105885,0.00031350,0.00073683,-0.00054846,-0.00017880,
 0.00012385,0.00013798,0.00034400,0.00018912,-0.00021239,0.00003473,0.0
 0007668,-0.00000451,0.00000385,0.00003881,-0.00007465,0.00023845,0.000
 30846,0.00003735,-0.00038088,0.00008641,0.00036477,-0.00001346,0.00000
 734,-0.00000530,-0.00000942,-0.00000124,-0.00000556,-0.00003158,0.0000
 3553,-0.00007572,-0.00009296,0.00004381,0.00007856,-0.00003246,-0.0004
 2701,-0.00009159,0.00020111,0.00050726,-0.00022374,0.00000641,-0.00002
 814,0.00000017,-0.00000225,0.00000354,0.00000413,-0.00000125,0.0000026
 5,-0.00000232,-0.00002256,0.00007997,-0.00001702,0.05199165,-0.2696481
 2,0.09760612,-0.00006787,-0.00010873,-0.00003476,-0.00020535,-0.000281
 46,0.00002277,-0.00000889,-0.00001384,-0.00000497,0.00001176,-0.000034
 79,0.00003559,-0.00000536,0.00000093,-0.00000436,0.00000953,0.00000590
 ,0.00002700,-0.00002424,-0.00000854,0.00007866,0.00007281,-0.00005021,
 0.00003362,0.00003616,0.00014716,-0.00010180,0.00006593,-0.00003834,0.
 00003367,-0.05620096,0.28489240,-0.00017969,-0.00010120,0.00005811,0.0
 0081594,-0.00020335,0.00007458,-0.00011747,-0.00003273,0.00003435,-0.0
 0002400,-0.00006303,-0.00003021,-0.00004822,0.00003682,-0.00000638,-0.
 00003852,0.00004421,0.00002405,0.00251502,-0.00242278,-0.00513299,-0.0
 0852775,0.03299543,-0.02002620,-0.00110421,0.00134390,0.00114715,-0.00
 045965,-0.00006441,0.00002343,-0.00005283,0.00183161,-0.00070945,0.000
 00956,-0.00007410,0.00003458,0.00016680,-0.00000824,0.00005470,-0.0000
 7120,-0.00064891,0.00029845,0.00046101,-0.00049630,-0.00012865,0.00001
 294,-0.00006547,0.00008905,0.00005341,-0.00004297,-0.00000151,0.000229
 04,-0.00015042,-0.00057247,0.00001332,-0.00002021,-0.00009604,0.000288
 35,-0.00020611,-0.00005266,0.00018128,0.00016930,0.00003221,0.00001617
 ,0.00008585,-0.00001297,0.00000420,0.00000254,-0.00000209,-0.00002003,
 0.00000295,-0.00000582,0.00002156,0.00006161,-0.00005908,-0.02053270,0
 .08809002,-0.08663596,0.00003441,0.00008375,0.00001051,0.00028792,0.00
 126067,-0.00028891,-0.00002390,-0.00006588,-0.00018798,-0.00005192,0.0
 0005073,-0.00006695,-0.00000595,0.00000097,-0.00000335,-0.00003850,-0.
 00002365,0.00000132,-0.00018947,-0.00001327,-0.00005154,-0.00004927,0.
 00005922,-0.00000224,0.00010586,-0.00004299,0.00001010,-0.00001217,-0.
 00001180,0.00001858,0.02257935,-0.10470541,0.10398978,-0.00000506,0.00
 015146,-0.00023655,0.00010531,-0.00020779,-0.00025711,0.00046714,0.000
 25277,-0.00026619,-0.00029866,-0.00001397,0.00003705,-0.00014052,-0.00
 003301,-0.00004136,0.00015150,-0.00001613,-0.00001995,0.00016556,0.000
 27187,-0.00030151,-0.00359654,0.00111449,0.00182378,0.00119652,-0.0004
 8300,0.00086531,-0.00008031,0.00020145,-0.00008204,-0.00013883,0.00011
 406,0.00007292,-0.00001821,-0.00007467,0.00009423,-0.00011945,0.000258
 03,0.00026868,-0.00011533,0.00004284,0.00002416,0.00000026,0.00004033,
 -0.00007762,0.00001617,-0.00001222,0.00004954,0.00000272,-0.00004037,0
 .00008343,0.00002688,-0.00002604,-0.00003780,0.00001655,-0.00001355,-0
 .00002210,0.00036894,0.00007891,-0.00005734,-0.00016147,-0.00006060,-0
 .00007140,0.00001329,-0.00000291,0.00002177,-0.00000626,0.00001231,-0.
 00003157,-0.00000246,0.00000266,0.00001251,-0.00003004,-0.00011616,0.0
 0006938,-0.31005035,0.05001190,0.03024080,0.00007393,0.00013855,-0.000
 02194,-0.00000798,0.00001235,0.00018505,-0.00000227,0.00003436,0.00001
 621,-0.00003200,0.00000763,-0.00012530,-0.00000347,-0.00000337,-0.0000
 1018,0.00001608,-0.00002541,0.00001616,0.00025463,0.00003330,-0.000060
 63,0.00002448,-0.00067402,-0.00048418,-0.00220994,0.00023120,0.0000345
 1,-0.00015581,0.00012882,0.00039530,-0.00339194,-0.00062667,0.00022479
 ,0.32982163,0.00000133,-0.00010023,0.00017692,0.00001321,-0.00022095,0
 .00047203,0.00031048,0.00016988,0.00023089,-0.00031529,-0.00008250,-0.
 00007199,0.00001551,0.00004343,-0.00004438,0.00010487,-0.00009003,-0.0
 0000404,-0.00078491,0.00033208,0.00010063,0.00087613,-0.00165777,-0.00
 015549,-0.00026156,0.00044745,-0.00035329,0.00026929,0.00045405,0.0002
 6980,0.00000677,0.00003064,-0.00006095,-0.00000342,-0.00017687,0.00009
 218,0.00018685,0.00009561,0.00032390,-0.00037282,-0.00009454,0.0002299
 6,-0.00030679,0.00033121,0.00015368,0.00000945,0.00003715,-0.00013579,
 -0.00002390,-0.00006610,0.00010365,-0.00001591,0.00001807,-0.00001750,
 0.00000767,-0.00000193,-0.00000885,0.00043806,0.00002562,0.00005034,-0
 .00010658,-0.00002416,-0.00019900,-0.00002857,0.00002036,-0.00007743,0
 .00000359,0.00000059,-0.00000962,0.00000188,0.00000013,-0.00000687,-0.
 00005885,-0.00006170,0.00000860,0.04864425,-0.05864626,-0.00617088,0.0
 0013323,0.00022513,0.00004070,0.00057722,0.00022343,-0.00019591,0.0000
 7181,-0.00001341,0.00007380,-0.00011116,0.00010352,-0.00017690,-0.0000
 0535,-0.00000456,-0.00000874,-0.00004372,-0.00006209,-0.00003346,0.000
 02466,-0.00012014,-0.00029625,-0.00101730,-0.00008562,-0.00027141,0.00
 129608,-0.00118644,0.00004258,-0.00003979,0.00018188,0.00013276,0.0276
 0776,-0.00374587,-0.00384470,-0.05458297,0.05887455,-0.00036153,0.0004
 1482,-0.00000161,-0.00009078,0.00041539,-0.00084384,-0.00006004,0.0000
 8045,-0.00031115,-0.00014835,0.00018772,0.00010149,-0.00002845,-0.0002
 4629,-0.00014116,0.00025510,0.00011776,0.00007151,0.00090281,-0.000505
 72,0.00142354,0.03813858,-0.00979673,-0.00825656,-0.00116380,0.0017249
 3,-0.00602232,0.00202520,-0.00028368,-0.00026582,0.00006600,-0.0004551
 1,0.00014671,0.00006002,0.00007891,0.00002451,0.00004699,0.00007105,-0
 .00004317,-0.00044195,-0.00026650,-0.00007966,-0.00005320,-0.00024555,
 0.00002014,0.00002092,0.00005982,-0.00059948,0.00004785,0.00001230,-0.
 00012713,-0.00006181,0.00002527,0.00006304,-0.00005334,0.00003743,-0.0
 0003396,0.00023915,0.00026781,0.00001095,-0.00013591,0.00025512,-0.000
 23581,0.00005838,-0.00006605,-0.00002026,-0.00000925,-0.00000334,0.000
 00135,0.00000604,-0.00000998,0.00001052,-0.00001590,-0.00004603,0.0000
 3150,0.01918112,-0.00366645,-0.05223423,-0.00010475,-0.00012205,-0.000
 06015,0.00080444,0.00055450,0.00016525,0.00001236,0.00000369,0.0000034
 3,-0.00001247,-0.00001930,0.00001729,-0.00000459,0.00000227,-0.0000132
 9,0.00000514,-0.00000056,0.00004039,-0.00000779,-0.00012516,-0.0000648
 4,-0.00037258,0.00005355,0.00018827,-0.00010451,-0.00028414,-0.0013217
 2,0.00082043,0.00010676,0.00013499,-0.01254104,0.00103582,0.00171363,-
 0.03357108,0.00675613,0.06422522,-0.00008654,-0.00029854,-0.00015420,-
 0.00004723,0.00004806,0.00015016,-0.00022609,-0.00008775,-0.00007566,0
 .00026896,0.00001807,0.00005375,-0.00000123,0.00001620,0.00005015,-0.0
 0008317,0.00002381,0.00004910,0.00035672,0.00046248,0.00023807,0.00465
 978,0.00622999,0.00326905,0.00352973,0.00212123,0.00185367,-0.00006245
 ,-0.00008589,0.00000800,0.00013083,0.00014581,-0.00003033,-0.00003980,
 0.00007450,-0.00006618,-0.00013710,-0.00011498,-0.00014923,-0.00007809
 ,-0.00019099,-0.00022828,-0.00019049,-0.00012481,-0.00004974,-0.000010
 26,-0.00004754,-0.00003650,-0.00005655,-0.00002057,-0.00003002,-0.0000
 0898,-0.00000121,-0.00006141,-0.00009675,0.00006233,0.00006284,0.00035
 877,-0.00086353,-0.00104017,-0.00024230,0.00037878,-0.00087399,0.00004
 407,-0.00003021,0.00006677,0.00001100,0.00000460,0.00000358,-0.0000152
 5,0.00000366,-0.00001304,0.00002464,0.00014867,-0.00007716,-0.12680050
 ,-0.09736544,-0.06025265,-0.00003440,-0.00008255,0.00000364,0.00014244
 ,0.00051368,0.00062563,-0.00002361,0.00004201,0.00000925,0.00007698,-0
 .00004625,0.00010469,0.00001481,0.00000118,0.00001238,0.00002421,0.000
 04068,-0.00000565,0.00007692,0.00008324,0.00009691,0.00029180,0.000115
 43,0.00013882,-0.00104348,0.00031282,0.00009568,-0.00007451,-0.0001117
 6,-0.00014712,0.00354678,0.00574822,0.00352652,-0.01215470,-0.02252122
 ,-0.01334740,0.12795504,-0.00005527,-0.00006682,-0.00008848,0.00004922
 ,-0.00014802,-0.00009863,0.00001906,-0.00005748,-0.00001339,-0.0000492
 9,0.00002034,0.00000155,0.00000278,0.00000442,-0.00000959,-0.00003214,
 -0.00000295,0.00001686,0.00172604,0.00291235,0.00199327,0.00090714,-0.
 00007728,-0.00509627,-0.00082028,0.00021654,0.00040017,0.00022530,0.00
 022335,0.00013662,0.00004413,0.00003825,0.00019793,-0.00007030,0.00002
 775,-0.00003563,-0.00023333,0.00002153,0.00000336,-0.00040678,-0.00054
 851,-0.00041120,-0.00013342,-0.00015408,0.00008608,0.00003731,0.000032
 26,-0.00010074,0.00004503,-0.00004668,0.00016581,-0.00000387,-0.000020
 71,-0.00006618,-0.00005011,-0.00004245,0.00008022,0.00098913,-0.000232
 82,-0.00055095,-0.00048220,0.00071000,-0.00136618,0.00006646,-0.000043
 71,0.00002980,0.00000006,0.00000017,0.00000484,-0.00000954,0.00000006,
 -0.00000553,0.00000101,0.00002067,-0.00002644,-0.09570754,-0.17208105,
 -0.07579207,0.00001970,0.00001750,0.00000053,0.00061311,0.00109354,0.0
 0068934,-0.00008372,0.00002351,0.00010953,0.00007287,-0.00004296,0.000
 05317,0.00001949,-0.00000059,0.00001238,0.00004617,0.00003084,0.000002
 65,0.00029527,0.00003747,-0.00001714,0.00005659,-0.00008839,-0.0000291
 3,0.00009041,0.00009042,0.00002360,0.00001062,-0.00002304,-0.00004267,
 -0.01647053,-0.01778359,-0.01281167,0.00387358,0.00482640,0.00388113,0
 .10539782,0.18111374,-0.00014325,-0.00012057,-0.00009485,0.00020219,0.
 00047541,0.00002813,0.00001095,-0.00020147,-0.00009850,0.00007531,0.00
 007261,0.00005672,-0.00004405,0.00006319,-0.00001151,-0.00005665,0.000
 02203,0.00004079,-0.00076090,-0.00536896,0.00158217,-0.01472463,-0.024
 84773,-0.03413626,-0.00456965,0.00012007,0.00071424,0.00013116,0.00036
 750,0.00051523,0.00039198,0.00032431,0.00044720,-0.00002815,0.00000985
 ,0.00002821,-0.00018930,0.00005962,0.00024088,-0.00154211,-0.00193505,
 -0.00026406,0.00038542,0.00005675,0.00002833,0.00004870,0.00009819,-0.
 00008123,-0.00003385,0.00001151,0.00022452,0.00012666,0.00008233,-0.00
 007315,-0.00004981,0.00005939,0.00026685,0.00151722,0.00062149,0.00065
 547,0.00062865,0.00182868,0.00037693,0.00014545,-0.00002131,0.00005092
 ,0.00000208,0.00001033,0.00000577,-0.00001160,0.00000690,-0.00000589,-
 0.00001058,0.00006801,-0.00001463,-0.05866892,-0.07444363,-0.09450638,
 0.00001070,-0.00001476,-0.00002080,0.00205603,0.00291328,-0.00003898,-
 0.00007844,0.00004019,-0.00002485,0.00001701,-0.00000187,-0.00002666,0
 .00001281,-0.00000041,-0.00000338,-0.00002091,-0.00001011,-0.00004052,
 0.00037281,-0.00000817,-0.00029167,-0.00011079,-0.00008114,-0.00012567
 ,0.00031293,-0.00005846,0.00010766,-0.00005612,0.00002327,0.00000859,0
 .00719129,0.00822080,0.00645887,0.00124030,0.00288487,0.00228244,0.066
 22005,0.08867305,0.11573905\\0.00000180,0.00000004,0.00000034,0.000002
 87,0.00000291,0.00000585,-0.00000153,-0.00000286,0.00000009,0.00000174
 ,0.00000192,-0.00000056,-0.00000214,-0.00000076,-0.00000093,-0.0000003
 0,0.00000234,0.00000107,0.00000633,-0.00000419,-0.00000101,-0.00001114
 ,0.00000331,0.00001307,0.00000502,0.00000038,-0.00000561,0.00000017,0.
 00000125,-0.00000086,0.00000304,-0.00000067,0.00000051,-0.00000606,0.0
 0000719,-0.00000056,-0.00000403,0.00000300,0.00000058,0.00000646,0.000
 01132,0.00000798,0.00000011,-0.00000023,-0.00000099,-0.00000048,0.0000
 0014,-0.00000060,-0.00000037,0.00000004,-0.00000069,-0.00000082,0.0000
 0066,-0.00000015,0.00000008,-0.00000058,-0.00000009,0.00000003,-0.0000
 0214,-0.00000379,-0.00000086,-0.00000050,-0.00000125,-0.00000054,0.000
 00037,-0.00000049,-0.00000003,-0.00000021,0.00000026,0.00000005,-0.000
 00045,0.00000030,-0.00000024,-0.00000032,0.00000008,-0.00000297,0.0000
 0321,0.00000067,-0.00000435,-0.00000478,0.00000167,-0.00000532,-0.0000
 0855,-0.00000677,0.00000115,0.00000011,-0.00000069,0.00000266,-0.00000
 401,-0.00000210,0.00000312,-0.00000357,0.00000266,0.00000282,-0.000000
 10,0.00000017,0.00000029,-0.00000203,-0.00000031,-0.00000717,-0.000005
 76,0.00000191,0.00000853,0.00000626,0.00000493,-0.00000489,-0.00000354
 ,-0.00000590,0.00000269,0.00000318,-0.00000378,0.00001015,0.00000035,-
 0.00000799,-0.00000588,-0.00000276,0.00000297\\\@


 OLD HORSE! OLD HORSE! WHAT BROUGHT YOU HERE?
 FROM SACARAP' TO PORTLAND PIER
 I'VE CARTED STONE THIS MANY A YEAR;
 TILL, KILLED BY BLOWS AND SORE ABUSE,
 THEY SALTED ME DOWN FOR SAILORS' USE.
 THE SAILORS THEY DO ME DESPISE;
 THEY TURN ME OVER AND DAMN MY EYES;
 CUT OFF MY MEAT, AND SCRAPE MY BONES,
 AND PITCH ME OVER TO DAVY JONES.

    SAILORS' COMPLAINT ABOUT THE BEEF
    SERVED ON SHIPBOARD, CIRCA 1835.
 Job cpu time:       1 days 14 hours  4 minutes 35.0 seconds.
 Elapsed time:       0 days  1 hours 21 minutes 40.8 seconds.
 File lengths (MBytes):  RWF=   1232 Int=      0 D2E=      0 Chk=     28 Scr=      8
 Normal termination of Gaussian 16 at Thu Aug 27 14:00:59 2020.
