 Entering Gaussian System, Link 0=g16
 Input=NicPyrNa4h3bRMidDon.gjf
 Output=NicPyrNa4h3bRMidDon.log
 Initial command:
 /sw/contrib/gaussian/g16/A03/g16/l1.exe "/gscratch/scrubbed/gds001/Gau-25804.inp" -scrdir="/gscratch/scrubbed/gds001/"
 Entering Link 1 = /sw/contrib/gaussian/g16/A03/g16/l1.exe PID=     25805.
  
 Copyright (c) 1988,1990,1992,1993,1995,1998,2003,2009,2016,
            Gaussian, Inc.  All Rights Reserved.
  
 This is part of the Gaussian(R) 16 program.  It is based on
 the Gaussian(R) 09 system (copyright 2009, Gaussian, Inc.),
 the Gaussian(R) 03 system (copyright 2003, Gaussian, Inc.),
 the Gaussian(R) 98 system (copyright 1998, Gaussian, Inc.),
 the Gaussian(R) 94 system (copyright 1995, Gaussian, Inc.),
 the Gaussian 92(TM) system (copyright 1992, Gaussian, Inc.),
 the Gaussian 90(TM) system (copyright 1990, Gaussian, Inc.),
 the Gaussian 88(TM) system (copyright 1988, Gaussian, Inc.),
 the Gaussian 86(TM) system (copyright 1986, Carnegie Mellon
 University), and the Gaussian 82(TM) system (copyright 1983,
 Carnegie Mellon University). Gaussian is a federally registered
 trademark of Gaussian, Inc.
  
 This software contains proprietary and confidential information,
 including trade secrets, belonging to Gaussian, Inc.
  
 This software is provided under written license and may be
 used, copied, transmitted, or stored only in accord with that
 written license.
  
 The following legend is applicable only to US Government
 contracts under FAR:
  
                    RESTRICTED RIGHTS LEGEND
  
 Use, reproduction and disclosure by the US Government is
 subject to restrictions as set forth in subparagraphs (a)
 and (c) of the Commercial Computer Software - Restricted
 Rights clause in FAR 52.227-19.
  
 Gaussian, Inc.
 340 Quinnipiac St., Bldg. 40, Wallingford CT 06492
  
  
 ---------------------------------------------------------------
 Warning -- This program may not be used in any manner that
 competes with the business of Gaussian, Inc. or will provide
 assistance to any competitor of Gaussian, Inc.  The licensee
 of this program is prohibited from giving any competitor of
 Gaussian, Inc. access to this program.  By using this program,
 the user acknowledges that Gaussian, Inc. is engaged in the
 business of creating and licensing software in the field of
 computational chemistry and represents and warrants to the
 licensee that it is not a competitor of Gaussian, Inc. and that
 it will not use this program in any manner prohibited above.
 ---------------------------------------------------------------
  

 Cite this work as:
 Gaussian 16, Revision A.03,
 M. J. Frisch, G. W. Trucks, H. B. Schlegel, G. E. Scuseria, 
 M. A. Robb, J. R. Cheeseman, G. Scalmani, V. Barone, 
 G. A. Petersson, H. Nakatsuji, X. Li, M. Caricato, A. V. Marenich, 
 J. Bloino, B. G. Janesko, R. Gomperts, B. Mennucci, H. P. Hratchian, 
 J. V. Ortiz, A. F. Izmaylov, J. L. Sonnenberg, D. Williams-Young, 
 F. Ding, F. Lipparini, F. Egidi, J. Goings, B. Peng, A. Petrone, 
 T. Henderson, D. Ranasinghe, V. G. Zakrzewski, J. Gao, N. Rega, 
 G. Zheng, W. Liang, M. Hada, M. Ehara, K. Toyota, R. Fukuda, 
 J. Hasegawa, M. Ishida, T. Nakajima, Y. Honda, O. Kitao, H. Nakai, 
 T. Vreven, K. Throssell, J. A. Montgomery, Jr., J. E. Peralta, 
 F. Ogliaro, M. J. Bearpark, J. J. Heyd, E. N. Brothers, K. N. Kudin, 
 V. N. Staroverov, T. A. Keith, R. Kobayashi, J. Normand, 
 K. Raghavachari, A. P. Rendell, J. C. Burant, S. S. Iyengar, 
 J. Tomasi, M. Cossi, J. M. Millam, M. Klene, C. Adamo, R. Cammi, 
 J. W. Ochterski, R. L. Martin, K. Morokuma, O. Farkas, 
 J. B. Foresman, and D. J. Fox, Gaussian, Inc., Wallingford CT, 2016.
 
 ******************************************
 Gaussian 16:  ES64L-G16RevA.03 25-Dec-2016
                 1-Feb-2023 
 ******************************************
 %nprocshared=28
 Will use up to   28 processors via shared memory.
 %mem=41GB
 -----------------------------
 # wB97XD/aug-cc-pVDZ opt freq
 -----------------------------
 1/18=20,19=15,26=3,38=1/1,3;
 2/9=110,12=2,17=6,18=5,40=1/2;
 3/5=16,7=10,11=2,25=1,30=1,71=1,74=-58/1,2,3;
 4//1;
 5/5=2,38=5/2;
 6/7=2,8=2,9=2,10=2,28=1/1;
 7//1,2,3,16;
 1/18=20,19=15,26=3/3(2);
 2/9=110/2;
 99//99;
 2/9=110/2;
 3/5=16,7=10,11=2,25=1,30=1,71=1,74=-58/1,2,3;
 4/5=5,16=3,69=1/1;
 5/5=2,38=5/2;
 7//1,2,3,16;
 1/18=20,19=15,26=3/3(-5);
 2/9=110/2;
 6/7=2,8=2,9=2,10=2,19=2,28=1/1;
 99/9=1/99;
 ----
 blah
 ----
 Symbolic Z-matrix:
 Charge =  1 Multiplicity = 1
 C                     1.01624  -0.4455   -0.52611 
 C                     0.03573  -1.32987  -0.07067 
 C                     0.45877  -2.55561   0.44638 
 C                     1.81723  -2.84916   0.48057 
 C                     2.71332  -1.89369   0.00902 
 N                     2.32228  -0.71357  -0.48106 
 C                    -1.43027  -0.99351  -0.14022 
 C                    -2.0183   -0.68504  -1.51933 
 C                    -3.31148   0.11146  -1.22734 
 C                    -3.22536   0.49859   0.25985 
 N                    -1.80007   0.24595   0.63546 
 O                    -0.62766   2.48515  -0.29769 
 H                    -3.84895  -0.14241   0.89376 
 H                    -4.20819  -0.48918  -1.40773 
 H                    -3.3779    0.99931  -1.86335 
 H                    -1.30643  -0.08315  -2.09625 
 H                    -2.19848  -1.60874  -2.07667 
 H                    -3.46119   1.5453    0.47357 
 H                    -2.00247  -1.80418   0.3334 
 H                     0.74657   0.53018  -0.93559 
 H                     3.78772  -2.07783   0.02741 
 H                     2.18017  -3.79784   0.87081 
 H                    -0.26815  -3.28046   0.81578 
 C                    -1.54595   0.17979   2.08936 
 H                    -1.26584   1.0647    0.25131 
 H                     0.24228   2.75962   0.09558 
 H                    -0.95825   3.22251  -0.81383 
 H                     3.35251   0.79683  -0.72316 
 O                     3.64257   1.72955  -0.63663 
 H                     4.0687    1.97854  -1.4592 
 O                     1.70512   2.88144   0.78582 
 H                     2.47426   2.56408   0.25781 
 H                     2.02056   3.59962   1.33777 
 H                    -1.87679   1.11709   2.54609 
 H                    -0.47293   0.04812   2.25626 
 H                    -2.1024   -0.66264   2.51435 
 O                     0.74761   0.99249   2.79075 
 H                     1.27378   0.79631   3.58167 
 H                     1.23217   1.61494   2.22625 
 
 Add virtual bond connecting atoms O31        and H26        Dist= 3.07D+00.
 Add virtual bond connecting atoms O37        and H35        Dist= 3.09D+00.
 Add virtual bond connecting atoms H25        and O12        Dist= 3.12D+00.
 Add virtual bond connecting atoms N6         and H28        Dist= 3.49D+00.
 Add virtual bond connecting atoms H32        and O29        Dist= 3.20D+00.

 GradGradGradGradGradGradGradGradGradGradGradGradGradGradGradGradGradGrad
 Berny optimization.
 Initialization pass.
                           ----------------------------
                           !    Initial Parameters    !
                           ! (Angstroms and Degrees)  !
 --------------------------                            --------------------------
 ! Name  Definition              Value          Derivative Info.                !
 --------------------------------------------------------------------------------
 ! R1    R(1,2)                  1.3968         estimate D2E/DX2                !
 ! R2    R(1,6)                  1.334          estimate D2E/DX2                !
 ! R3    R(1,20)                 1.092          estimate D2E/DX2                !
 ! R4    R(2,3)                  1.396          estimate D2E/DX2                !
 ! R5    R(2,7)                  1.5057         estimate D2E/DX2                !
 ! R6    R(3,4)                  1.3902         estimate D2E/DX2                !
 ! R7    R(3,23)                 1.091          estimate D2E/DX2                !
 ! R8    R(4,5)                  1.3922         estimate D2E/DX2                !
 ! R9    R(4,22)                 1.0881         estimate D2E/DX2                !
 ! R10   R(5,6)                  1.3363         estimate D2E/DX2                !
 ! R11   R(5,21)                 1.0902         estimate D2E/DX2                !
 ! R12   R(6,28)                 1.8443         estimate D2E/DX2                !
 ! R13   R(7,8)                  1.5306         estimate D2E/DX2                !
 ! R14   R(7,11)                 1.5082         estimate D2E/DX2                !
 ! R15   R(7,19)                 1.0995         estimate D2E/DX2                !
 ! R16   R(8,9)                  1.5466         estimate D2E/DX2                !
 ! R17   R(8,16)                 1.0963         estimate D2E/DX2                !
 ! R18   R(8,17)                 1.0938         estimate D2E/DX2                !
 ! R19   R(9,10)                 1.5392         estimate D2E/DX2                !
 ! R20   R(9,14)                 1.0943         estimate D2E/DX2                !
 ! R21   R(9,15)                 1.0942         estimate D2E/DX2                !
 ! R22   R(10,11)                1.4954         estimate D2E/DX2                !
 ! R23   R(10,13)                1.0962         estimate D2E/DX2                !
 ! R24   R(10,18)                1.094          estimate D2E/DX2                !
 ! R25   R(11,24)                1.4774         estimate D2E/DX2                !
 ! R26   R(11,25)                1.0504         estimate D2E/DX2                !
 ! R27   R(12,25)                1.6512         estimate D2E/DX2                !
 ! R28   R(12,26)                0.9934         estimate D2E/DX2                !
 ! R29   R(12,27)                0.9588         estimate D2E/DX2                !
 ! R30   R(24,34)                1.0939         estimate D2E/DX2                !
 ! R31   R(24,35)                1.0939         estimate D2E/DX2                !
 ! R32   R(24,36)                1.0954         estimate D2E/DX2                !
 ! R33   R(26,31)                1.6221         estimate D2E/DX2                !
 ! R34   R(28,29)                0.9806         estimate D2E/DX2                !
 ! R35   R(29,30)                0.9593         estimate D2E/DX2                !
 ! R36   R(29,32)                1.6916         estimate D2E/DX2                !
 ! R37   R(31,32)                0.9854         estimate D2E/DX2                !
 ! R38   R(31,33)                0.9591         estimate D2E/DX2                !
 ! R39   R(35,37)                1.6332         estimate D2E/DX2                !
 ! R40   R(37,38)                0.97           estimate D2E/DX2                !
 ! R41   R(37,39)                0.97           estimate D2E/DX2                !
 ! A1    A(2,1,6)              123.2997         estimate D2E/DX2                !
 ! A2    A(2,1,20)             120.9745         estimate D2E/DX2                !
 ! A3    A(6,1,20)             115.7212         estimate D2E/DX2                !
 ! A4    A(1,2,3)              117.6444         estimate D2E/DX2                !
 ! A5    A(1,2,7)              121.8015         estimate D2E/DX2                !
 ! A6    A(3,2,7)              120.5515         estimate D2E/DX2                !
 ! A7    A(2,3,4)              119.3824         estimate D2E/DX2                !
 ! A8    A(2,3,23)             120.4554         estimate D2E/DX2                !
 ! A9    A(4,3,23)             120.1614         estimate D2E/DX2                !
 ! A10   A(3,4,5)              118.4038         estimate D2E/DX2                !
 ! A11   A(3,4,22)             121.2547         estimate D2E/DX2                !
 ! A12   A(5,4,22)             120.3403         estimate D2E/DX2                !
 ! A13   A(4,5,6)              122.816          estimate D2E/DX2                !
 ! A14   A(4,5,21)             120.8418         estimate D2E/DX2                !
 ! A15   A(6,5,21)             116.3418         estimate D2E/DX2                !
 ! A16   A(1,6,5)              118.4458         estimate D2E/DX2                !
 ! A17   A(1,6,28)             112.2029         estimate D2E/DX2                !
 ! A18   A(5,6,28)             127.4393         estimate D2E/DX2                !
 ! A19   A(2,7,8)              117.4311         estimate D2E/DX2                !
 ! A20   A(2,7,11)             113.4878         estimate D2E/DX2                !
 ! A21   A(2,7,19)             108.7895         estimate D2E/DX2                !
 ! A22   A(8,7,11)             101.7459         estimate D2E/DX2                !
 ! A23   A(8,7,19)             109.68           estimate D2E/DX2                !
 ! A24   A(11,7,19)            104.8795         estimate D2E/DX2                !
 ! A25   A(7,8,9)              104.7682         estimate D2E/DX2                !
 ! A26   A(7,8,16)             109.5926         estimate D2E/DX2                !
 ! A27   A(7,8,17)             110.622          estimate D2E/DX2                !
 ! A28   A(9,8,16)             111.0724         estimate D2E/DX2                !
 ! A29   A(9,8,17)             113.1659         estimate D2E/DX2                !
 ! A30   A(16,8,17)            107.6059         estimate D2E/DX2                !
 ! A31   A(8,9,10)             105.3769         estimate D2E/DX2                !
 ! A32   A(8,9,14)             111.8012         estimate D2E/DX2                !
 ! A33   A(8,9,15)             111.033          estimate D2E/DX2                !
 ! A34   A(10,9,14)            110.0719         estimate D2E/DX2                !
 ! A35   A(10,9,15)            111.1583         estimate D2E/DX2                !
 ! A36   A(14,9,15)            107.4476         estimate D2E/DX2                !
 ! A37   A(9,10,11)            104.6863         estimate D2E/DX2                !
 ! A38   A(9,10,13)            112.3246         estimate D2E/DX2                !
 ! A39   A(9,10,18)            114.6666         estimate D2E/DX2                !
 ! A40   A(11,10,13)           107.3465         estimate D2E/DX2                !
 ! A41   A(11,10,18)           108.543          estimate D2E/DX2                !
 ! A42   A(13,10,18)           108.8975         estimate D2E/DX2                !
 ! A43   A(7,11,10)            104.0841         estimate D2E/DX2                !
 ! A44   A(7,11,24)            115.2861         estimate D2E/DX2                !
 ! A45   A(7,11,25)            109.134          estimate D2E/DX2                !
 ! A46   A(10,11,24)           114.7507         estimate D2E/DX2                !
 ! A47   A(10,11,25)           105.1413         estimate D2E/DX2                !
 ! A48   A(24,11,25)           107.8981         estimate D2E/DX2                !
 ! A49   A(25,12,26)           116.3936         estimate D2E/DX2                !
 ! A50   A(25,12,27)           135.0137         estimate D2E/DX2                !
 ! A51   A(26,12,27)           107.6118         estimate D2E/DX2                !
 ! A52   A(11,24,34)           108.6925         estimate D2E/DX2                !
 ! A53   A(11,24,35)           108.9213         estimate D2E/DX2                !
 ! A54   A(11,24,36)           109.1996         estimate D2E/DX2                !
 ! A55   A(34,24,35)           109.6401         estimate D2E/DX2                !
 ! A56   A(34,24,36)           110.0797         estimate D2E/DX2                !
 ! A57   A(35,24,36)           110.2753         estimate D2E/DX2                !
 ! A58   A(6,28,29)            158.8495         estimate D2E/DX2                !
 ! A59   A(28,29,30)           107.6153         estimate D2E/DX2                !
 ! A60   A(28,29,32)           108.1561         estimate D2E/DX2                !
 ! A61   A(30,29,32)           129.21           estimate D2E/DX2                !
 ! A62   A(26,31,32)           116.8524         estimate D2E/DX2                !
 ! A63   A(26,31,33)           126.7057         estimate D2E/DX2                !
 ! A64   A(32,31,33)           107.0254         estimate D2E/DX2                !
 ! A65   A(24,35,37)           135.5144         estimate D2E/DX2                !
 ! A66   A(35,37,38)           123.7305         estimate D2E/DX2                !
 ! A67   A(35,37,39)           123.6376         estimate D2E/DX2                !
 ! A68   A(38,37,39)           109.471          estimate D2E/DX2                !
 ! A69   L(11,25,12,1,-1)      188.5998         estimate D2E/DX2                !
 ! A70   L(12,26,31,1,-1)      168.9322         estimate D2E/DX2                !
 ! A71   L(29,32,31,1,-1)      169.1391         estimate D2E/DX2                !
 ! A72   L(11,25,12,1,-2)      179.5682         estimate D2E/DX2                !
 ! A73   L(12,26,31,1,-2)      184.0097         estimate D2E/DX2                !
 ! A74   L(29,32,31,1,-2)      177.6389         estimate D2E/DX2                !
 ! D1    D(6,1,2,3)             -0.4559         estimate D2E/DX2                !
 ! D2    D(6,1,2,7)           -179.8776         estimate D2E/DX2                !
 ! D3    D(20,1,2,3)          -179.6434         estimate D2E/DX2                !
 ! D4    D(20,1,2,7)             0.935          estimate D2E/DX2                !
 ! D5    D(2,1,6,5)              0.8468         estimate D2E/DX2                !
 ! D6    D(2,1,6,28)          -164.5907         estimate D2E/DX2                !
 ! D7    D(20,1,6,5)          -179.9265         estimate D2E/DX2                !
 ! D8    D(20,1,6,28)           14.636          estimate D2E/DX2                !
 ! D9    D(1,2,3,4)             -0.3922         estimate D2E/DX2                !
 ! D10   D(1,2,3,23)           179.9427         estimate D2E/DX2                !
 ! D11   D(7,2,3,4)            179.037          estimate D2E/DX2                !
 ! D12   D(7,2,3,23)            -0.6281         estimate D2E/DX2                !
 ! D13   D(1,2,7,8)             58.4701         estimate D2E/DX2                !
 ! D14   D(1,2,7,11)           -59.9305         estimate D2E/DX2                !
 ! D15   D(1,2,7,19)          -176.2639         estimate D2E/DX2                !
 ! D16   D(3,2,7,8)           -120.935          estimate D2E/DX2                !
 ! D17   D(3,2,7,11)           120.6644         estimate D2E/DX2                !
 ! D18   D(3,2,7,19)             4.331          estimate D2E/DX2                !
 ! D19   D(2,3,4,5)              0.8063         estimate D2E/DX2                !
 ! D20   D(2,3,4,22)          -179.5845         estimate D2E/DX2                !
 ! D21   D(23,3,4,5)          -179.5276         estimate D2E/DX2                !
 ! D22   D(23,3,4,22)            0.0816         estimate D2E/DX2                !
 ! D23   D(3,4,5,6)             -0.4279         estimate D2E/DX2                !
 ! D24   D(3,4,5,21)           179.3267         estimate D2E/DX2                !
 ! D25   D(22,4,5,6)           179.9592         estimate D2E/DX2                !
 ! D26   D(22,4,5,21)           -0.2863         estimate D2E/DX2                !
 ! D27   D(4,5,6,1)             -0.3913         estimate D2E/DX2                !
 ! D28   D(4,5,6,28)           162.5596         estimate D2E/DX2                !
 ! D29   D(21,5,6,1)           179.8438         estimate D2E/DX2                !
 ! D30   D(21,5,6,28)          -17.2053         estimate D2E/DX2                !
 ! D31   D(1,6,28,29)           41.295          estimate D2E/DX2                !
 ! D32   D(5,6,28,29)         -122.5379         estimate D2E/DX2                !
 ! D33   D(2,7,8,9)           -159.3283         estimate D2E/DX2                !
 ! D34   D(2,7,8,16)           -40.0853         estimate D2E/DX2                !
 ! D35   D(2,7,8,17)            78.403          estimate D2E/DX2                !
 ! D36   D(11,7,8,9)           -34.8171         estimate D2E/DX2                !
 ! D37   D(11,7,8,16)           84.4259         estimate D2E/DX2                !
 ! D38   D(11,7,8,17)         -157.0858         estimate D2E/DX2                !
 ! D39   D(19,7,8,9)            75.8487         estimate D2E/DX2                !
 ! D40   D(19,7,8,16)         -164.9084         estimate D2E/DX2                !
 ! D41   D(19,7,8,17)          -46.42           estimate D2E/DX2                !
 ! D42   D(2,7,11,10)          171.7242         estimate D2E/DX2                !
 ! D43   D(2,7,11,24)          -61.6986         estimate D2E/DX2                !
 ! D44   D(2,7,11,25)           59.8798         estimate D2E/DX2                !
 ! D45   D(8,7,11,10)           44.6105         estimate D2E/DX2                !
 ! D46   D(8,7,11,24)          171.1877         estimate D2E/DX2                !
 ! D47   D(8,7,11,25)          -67.2339         estimate D2E/DX2                !
 ! D48   D(19,7,11,10)         -69.6665         estimate D2E/DX2                !
 ! D49   D(19,7,11,24)          56.9107         estimate D2E/DX2                !
 ! D50   D(19,7,11,25)         178.4891         estimate D2E/DX2                !
 ! D51   D(7,8,9,10)            12.8575         estimate D2E/DX2                !
 ! D52   D(7,8,9,14)          -106.7044         estimate D2E/DX2                !
 ! D53   D(7,8,9,15)           133.3095         estimate D2E/DX2                !
 ! D54   D(16,8,9,10)         -105.3856         estimate D2E/DX2                !
 ! D55   D(16,8,9,14)          135.0525         estimate D2E/DX2                !
 ! D56   D(16,8,9,15)           15.0664         estimate D2E/DX2                !
 ! D57   D(17,8,9,10)          133.4532         estimate D2E/DX2                !
 ! D58   D(17,8,9,14)           13.8914         estimate D2E/DX2                !
 ! D59   D(17,8,9,15)         -106.0947         estimate D2E/DX2                !
 ! D60   D(8,9,10,11)           14.3188         estimate D2E/DX2                !
 ! D61   D(8,9,10,13)         -101.8372         estimate D2E/DX2                !
 ! D62   D(8,9,10,18)          133.1434         estimate D2E/DX2                !
 ! D63   D(14,9,10,11)         135.0206         estimate D2E/DX2                !
 ! D64   D(14,9,10,13)          18.8646         estimate D2E/DX2                !
 ! D65   D(14,9,10,18)        -106.1548         estimate D2E/DX2                !
 ! D66   D(15,9,10,11)        -106.0509         estimate D2E/DX2                !
 ! D67   D(15,9,10,13)         137.7931         estimate D2E/DX2                !
 ! D68   D(15,9,10,18)          12.7738         estimate D2E/DX2                !
 ! D69   D(9,10,11,7)          -36.7663         estimate D2E/DX2                !
 ! D70   D(9,10,11,24)        -163.6782         estimate D2E/DX2                !
 ! D71   D(9,10,11,25)          77.9408         estimate D2E/DX2                !
 ! D72   D(13,10,11,7)          82.7887         estimate D2E/DX2                !
 ! D73   D(13,10,11,24)        -44.1232         estimate D2E/DX2                !
 ! D74   D(13,10,11,25)       -162.5043         estimate D2E/DX2                !
 ! D75   D(18,10,11,7)        -159.6523         estimate D2E/DX2                !
 ! D76   D(18,10,11,24)         73.4357         estimate D2E/DX2                !
 ! D77   D(18,10,11,25)        -44.9453         estimate D2E/DX2                !
 ! D78   D(7,11,12,26)         -91.9425         estimate D2E/DX2                !
 ! D79   D(7,11,12,27)         104.6174         estimate D2E/DX2                !
 ! D80   D(10,11,12,26)        157.3962         estimate D2E/DX2                !
 ! D81   D(10,11,12,27)         -6.0439         estimate D2E/DX2                !
 ! D82   D(24,11,12,26)         36.8688         estimate D2E/DX2                !
 ! D83   D(24,11,12,27)       -126.5713         estimate D2E/DX2                !
 ! D84   D(7,11,24,34)        -178.4308         estimate D2E/DX2                !
 ! D85   D(7,11,24,35)          62.158          estimate D2E/DX2                !
 ! D86   D(7,11,24,36)         -58.3242         estimate D2E/DX2                !
 ! D87   D(10,11,24,34)        -57.4906         estimate D2E/DX2                !
 ! D88   D(10,11,24,35)       -176.9018         estimate D2E/DX2                !
 ! D89   D(10,11,24,36)         62.6159         estimate D2E/DX2                !
 ! D90   D(25,11,24,34)         59.3261         estimate D2E/DX2                !
 ! D91   D(25,11,24,35)        -60.0851         estimate D2E/DX2                !
 ! D92   D(25,11,24,36)        179.4327         estimate D2E/DX2                !
 ! D93   D(25,12,31,32)         93.8993         estimate D2E/DX2                !
 ! D94   D(25,12,31,33)       -120.185          estimate D2E/DX2                !
 ! D95   D(27,12,31,32)        -93.5201         estimate D2E/DX2                !
 ! D96   D(27,12,31,33)         52.3956         estimate D2E/DX2                !
 ! D97   D(11,24,35,37)        106.9604         estimate D2E/DX2                !
 ! D98   D(34,24,35,37)        -11.8595         estimate D2E/DX2                !
 ! D99   D(36,24,35,37)       -133.2218         estimate D2E/DX2                !
 ! D100  D(6,28,29,30)        -147.8133         estimate D2E/DX2                !
 ! D101  D(6,28,29,32)          -4.4782         estimate D2E/DX2                !
 ! D102  D(28,29,31,26)        -57.9981         estimate D2E/DX2                !
 ! D103  D(28,29,31,33)        149.0032         estimate D2E/DX2                !
 ! D104  D(30,29,31,26)         72.1421         estimate D2E/DX2                !
 ! D105  D(30,29,31,33)        -80.8567         estimate D2E/DX2                !
 ! D106  D(24,35,37,38)        119.2445         estimate D2E/DX2                !
 ! D107  D(24,35,37,39)        -82.9887         estimate D2E/DX2                !
 ! D108  D(35,37,38,39)        160.4805         estimate D2E/DX2                !
 --------------------------------------------------------------------------------
 Trust Radius=3.00D-01 FncErr=1.00D-07 GrdErr=1.00D-06 EigMax=2.50D+02 EigMin=1.00D-04
 Number of steps in this run=    233 maximum allowed number of steps=    234.
 GradGradGradGradGradGradGradGradGradGradGradGradGradGradGradGradGradGrad

                          Input orientation:                          
 ---------------------------------------------------------------------
 Center     Atomic      Atomic             Coordinates (Angstroms)
 Number     Number       Type             X           Y           Z
 ---------------------------------------------------------------------
      1          6           0        1.016236   -0.445502   -0.526106
      2          6           0        0.035726   -1.329872   -0.070671
      3          6           0        0.458768   -2.555605    0.446377
      4          6           0        1.817225   -2.849164    0.480568
      5          6           0        2.713317   -1.893685    0.009022
      6          7           0        2.322278   -0.713574   -0.481058
      7          6           0       -1.430270   -0.993513   -0.140218
      8          6           0       -2.018305   -0.685040   -1.519329
      9          6           0       -3.311483    0.111459   -1.227340
     10          6           0       -3.225359    0.498594    0.259851
     11          7           0       -1.800067    0.245952    0.635463
     12          8           0       -0.627662    2.485151   -0.297692
     13          1           0       -3.848945   -0.142407    0.893757
     14          1           0       -4.208190   -0.489176   -1.407729
     15          1           0       -3.377900    0.999307   -1.863347
     16          1           0       -1.306430   -0.083147   -2.096252
     17          1           0       -2.198476   -1.608744   -2.076669
     18          1           0       -3.461188    1.545295    0.473569
     19          1           0       -2.002470   -1.804183    0.333396
     20          1           0        0.746570    0.530183   -0.935588
     21          1           0        3.787718   -2.077831    0.027409
     22          1           0        2.180166   -3.797839    0.870810
     23          1           0       -0.268147   -3.280455    0.815777
     24          6           0       -1.545946    0.179787    2.089356
     25          1           0       -1.265835    1.064699    0.251311
     26          1           0        0.242283    2.759624    0.095581
     27          1           0       -0.958251    3.222507   -0.813831
     28          1           0        3.352505    0.796828   -0.723160
     29          8           0        3.642573    1.729551   -0.636632
     30          1           0        4.068696    1.978543   -1.459202
     31          8           0        1.705121    2.881440    0.785820
     32          1           0        2.474262    2.564075    0.257812
     33          1           0        2.020564    3.599617    1.337774
     34          1           0       -1.876790    1.117086    2.546091
     35          1           0       -0.472925    0.048117    2.256264
     36          1           0       -2.102400   -0.662636    2.514346
     37          8           0        0.747611    0.992492    2.790747
     38          1           0        1.273782    0.796306    3.581667
     39          1           0        1.232169    1.614942    2.226247
 ---------------------------------------------------------------------
                    Distance matrix (angstroms):
                    1          2          3          4          5
     1  C    0.000000
     2  C    1.396757   0.000000
     3  C    2.389357   1.395967   0.000000
     4  C    2.726273   2.405380   1.390234   0.000000
     5  C    2.294271   2.737468   2.390065   1.392220   0.000000
     6  N    1.334031   2.403448   2.779547   2.395944   1.336320
     7  C    2.536655   1.505695   2.520454   3.791443   4.242864
     8  C    3.201923   2.594891   3.674085   4.836767   5.117121
     9  C    4.419399   3.823497   4.912164   6.163269   6.468957
    10  C    4.415900   3.753293   4.789125   6.056720   6.407323
    11  N    3.123926   2.520314   3.603722   4.763249   5.033995
    12  O    3.367982   3.878920   5.209913   5.919297   5.516377
    13  H    5.077191   4.175029   4.957829   6.293071   6.849307
    14  H    5.298471   4.528280   5.430316   6.740982   7.203269
    15  H    4.814989   4.504620   5.717713   6.877063   6.998435
    16  H    2.826913   2.731059   3.961557   4.903883   4.885549
    17  H    3.753898   3.015536   3.784607   4.919752   5.343876
    18  H    5.000995   4.559736   5.673110   6.868258   7.082860
    19  H    3.420138   2.131310   2.575867   3.962791   4.727777
    20  H    1.091951   2.170987   3.393338   3.817301   3.261214
    21  H    3.263739   3.827075   3.389057   2.164059   1.090223
    22  H    3.813695   3.402333   2.164833   1.088117   2.157019
    23  H    3.389284   2.164002   1.090995   2.155726   3.385722
    24  C    3.714351   3.073512   3.768372   4.803505   5.173818
    25  H    2.844808   2.744395   4.014836   4.987599   4.964312
    26  H    3.355344   4.098083   5.331190   5.838421   5.269420
    27  H    4.175605   4.718520   6.081336   6.800289   6.350820
    28  H    2.653369   3.993697   4.580430   4.135130   2.860684
    29  O    3.411850   4.763373   5.447209   5.054173   3.795817
    30  H    4.008014   5.398007   6.100927   5.669090   4.357394
    31  O    3.642013   4.610380   5.588388   5.739823   4.941831
    32  H    3.434810   4.606211   5.505352   5.457515   4.471092
    33  H    4.565710   5.497560   6.412531   6.508681   5.694019
    34  H    4.499964   4.061128   4.832421   5.800282   6.047358
    35  H    3.194189   2.751764   3.305013   4.097819   4.355781
    36  H    4.360893   3.420395   3.797290   4.927537   5.566261
    37  O    3.625121   3.753381   4.262452   4.608614   4.464528
    38  H    4.299095   4.403747   4.661502   4.816803   4.698096
    39  H    3.444925   3.921637   4.599951   4.828864   4.406853
                    6          7          8          9         10
     6  N    0.000000
     7  C    3.778380   0.000000
     8  C    4.463125   1.530650   0.000000
     9  C    5.742550   2.437573   1.546602   0.000000
    10  C    5.726655   2.368287   2.454272   1.539165   0.000000
    11  N    4.377332   1.508212   2.357436   2.402603   1.495450
    12  O    4.355182   3.573525   3.671021   3.701561   3.317423
    13  H    6.348255   2.764683   3.077122   2.202809   1.096165
    14  H    6.599703   3.094799   2.201457   1.094251   2.173124
    15  H    6.110378   3.276243   2.191774   1.094162   2.186767
    16  H    4.021668   2.161058   1.096303   2.193882   3.093854
    17  H    4.876938   2.172209   1.093763   2.217937   3.309787
    18  H    6.281901   3.308611   3.320835   2.229661   1.094017
    19  H    4.533896   1.099504   2.164560   2.796265   2.608380
    20  H    2.058248   2.773607   3.076045   4.090018   4.148047
    21  H    2.065732   5.332096   6.167833   7.534324   7.474975
    22  H    3.370524   4.682058   5.747125   7.059961   6.931977
    23  H    3.870525   2.737619   3.905375   4.994127   4.830670
    24  C    4.729511   2.522105   3.740810   3.757960   2.503828
    25  H    4.071016   2.101564   2.600570   2.698101   2.039677
    26  H    4.089254   4.115710   4.425370   4.625165   4.142920
    27  H    5.134719   4.295507   4.109789   3.922666   3.703009
    28  H    1.844260   5.140047   5.628092   6.718085   6.657593
    29  O    2.781410   5.778862   6.217310   7.164220   7.034730
    30  H    3.354733   6.388385   6.644537   7.616220   7.638628
    31  O    3.861345   5.069860   5.647778   6.073872   5.501294
    32  H    3.363333   5.297191   5.822211   6.457232   6.062334
    33  H    4.690714   5.932079   6.544753   6.868608   6.188535
    34  H    5.490639   3.445325   4.449194   4.160338   2.725447
    35  H    3.985758   2.782917   4.144975   4.494098   3.429940
    36  H    5.343483   2.758251   4.034614   4.007658   2.773489
    37  O    4.011851   4.156674   5.388985   5.779056   4.736440
    38  H    4.459240   4.936373   6.249191   6.679837   5.600479
    39  H    3.733608   4.415063   5.466703   5.901907   4.998250
                   11         12         13         14         15
    11  N    0.000000
    12  O    2.694313   0.000000
    13  H    2.101295   4.324382   0.000000
    14  H    3.242546   4.785288   2.355025   0.000000
    15  H    3.049779   3.496115   3.021095   1.764242   0.000000
    16  H    2.795398   3.208068   3.925309   3.009840   2.348817
    17  H    3.309726   4.732039   3.701030   2.395801   2.870275
    18  H    2.115142   3.083349   1.781924   2.869907   2.401295
    19  H    2.082130   4.548269   2.546561   3.102573   3.817989
    20  H    3.005719   2.473323   4.991757   5.080517   4.253477
    21  H    6.082190   6.357836   7.925594   8.277559   8.024327
    22  H    5.678899   6.980348   7.050737   7.546528   7.834559
    23  H    3.849005   5.883135   4.761884   5.315934   5.929977
    24  C    1.477417   3.443247   2.614779   4.445746   4.433005
    25  H    1.050392   1.651167   2.922721   3.718117   2.989460
    26  H    3.283476   0.993380   5.079076   5.711511   4.476811
    27  H    3.415990   0.958844   4.753379   4.969045   3.449464
    28  H    5.357081   4.344328   7.440260   7.699776   6.829303
    29  O    5.782873   4.349795   7.872049   8.194621   7.164156
    30  H    6.467756   4.864312   8.527830   8.637079   7.521571
    31  O    4.388023   2.602483   6.324789   7.151221   6.033043
    32  H    4.877110   3.152260   6.907418   7.533361   6.418381
    33  H    5.132010   3.306038   6.975029   7.940617   6.793541
    34  H    2.101252   3.393969   2.864599   4.862941   4.659436
    35  H    2.104148   3.533521   3.645578   5.259823   5.129799
    36  H    2.108824   4.471127   2.438722   4.455010   4.853159
    37  O    3.419537   3.695654   5.100480   6.662019   6.219363
    38  H    4.293199   4.638654   5.860748   7.523201   7.164324
    39  H    3.687707   3.253691   5.539091   6.872453   6.193265
                   16         17         18         19         20
    16  H    0.000000
    17  H    1.767364   0.000000
    18  H    3.728107   4.248072   0.000000
    19  H    3.057716   2.425908   3.656024   0.000000
    20  H    2.436827   3.814495   4.552077   3.823193   0.000000
    21  H    5.868479   6.362524   8.116202   5.804721   4.120398
    22  H    5.895655   5.714217   7.780216   4.664539   4.904085
    23  H    4.447552   3.858372   5.796592   2.328078   4.314846
    24  C    4.200692   4.580437   2.853687   2.688484   3.811652
    25  H    2.613475   3.665598   2.258306   2.963082   2.396708
    26  H    3.909474   5.455146   3.915759   5.091543   2.507593
    27  H    3.562749   5.145280   3.276451   5.260621   3.189020
    28  H    4.936133   6.199367   6.958360   6.046265   2.628140
    29  O    5.468912   6.880100   7.192351   6.730137   3.148760
    30  H    5.792096   7.247575   7.786043   7.374380   3.661754
    31  O    5.115130   6.602550   5.345422   5.992160   3.067650
    32  H    5.181026   6.685559   6.026112   6.255279   2.923327
    33  H    6.035244   7.522350   5.917491   6.811361   4.026495
    34  H    4.828791   5.376201   2.643677   3.666828   4.398700
    35  H    4.433549   4.949447   3.788042   3.077003   3.450721
    36  H    4.714551   4.688472   3.299399   2.463668   4.630496
    37  O    5.409144   6.256005   4.836206   4.628489   3.754904
    38  H    6.298388   7.060992   5.713248   5.296002   4.555696
    39  H    5.292636   6.377818   5.010423   5.073085   3.377827
                   21         22         23         24         25
    21  H    0.000000
    22  H    2.500795   0.000000
    23  H    4.303239   2.502988   0.000000
    24  C    6.147881   5.584825   3.902313   0.000000
    25  H    5.955168   5.991909   4.493814   2.059112   0.000000
    26  H    5.997977   6.881620   6.104242   3.718664   2.274081
    27  H    7.164181   7.872289   6.739464   4.246413   2.425958
    28  H    3.002737   5.002608   5.665835   5.682060   4.727622
    29  O    3.867580   5.912957   6.519462   6.062467   5.032190
    30  H    4.329334   6.508617   7.186153   6.881278   5.676107
    31  O    5.432013   6.696690   6.470211   4.423525   3.523184
    32  H    4.829653   6.398141   6.480020   5.020105   4.029454
    33  H    6.088785   7.413898   7.269530   4.998010   4.290295
    34  H    6.974088   6.589533   4.992002   1.093889   2.375295
    35  H    5.257426   4.873372   3.632675   1.093878   2.383691
    36  H    6.548368   5.556175   3.619751   1.095415   2.967298
    37  O    5.128857   5.355898   4.815636   2.532359   3.241591
    38  H    5.216636   5.410771   5.162138   3.249300   4.196780
    39  H    5.000229   5.659868   5.310865   3.129910   3.231589
                   26         27         28         29         30
    26  H    0.000000
    27  H    1.575618   0.000000
    28  H    3.767809   4.947197   0.000000
    29  O    3.627555   4.840237   0.980611   0.000000
    30  H    4.203436   5.218635   1.565611   0.959270   0.000000
    31  O    1.622086   3.125502   3.055569   2.665321   3.382578
    32  H    2.246395   3.655694   2.203810   1.691571   2.415203
    33  H    2.326137   3.693908   3.725204   3.166439   3.826983
    34  H    3.632272   4.070084   6.175443   6.400641   7.220338
    35  H    3.540105   4.442722   4.906266   5.304092   6.177180
    36  H    4.802065   5.242154   6.509030   6.975381   7.800470
    37  O    3.262212   4.569017   4.378504   4.546536   5.483062
    38  H    4.131756   5.494436   4.780442   4.927085   5.883842
    39  H    2.613410   4.077289   3.723458   3.744230   4.664829
                   31         32         33         34         35
    31  O    0.000000
    32  H    0.985439   0.000000
    33  H    0.959133   1.563492   0.000000
    34  H    4.363667   5.124612   4.776228   0.000000
    35  H    3.864429   4.360019   4.435568   1.788164   0.000000
    36  H    5.481377   6.037338   6.045656   1.794246   1.796375
    37  O    2.916279   3.444845   3.244786   2.638723   1.633164
    38  H    3.514342   3.951478   3.667601   3.331879   2.316779
    39  H    1.975483   2.513640   2.312982   3.164773   2.315856
                   36         37         38         39
    36  H    0.000000
    37  O    3.307327   0.000000
    38  H    3.829659   0.970000   0.000000
    39  H    4.048421   0.970000   1.584001   0.000000
 Stoichiometry    C10H23N2O4(1+)
 Framework group  C1[X(C10H23N2O4)]
 Deg. of freedom   111
 Full point group                 C1      NOp   1
 Largest Abelian subgroup         C1      NOp   1
 Largest concise Abelian subgroup C1      NOp   1
                         Standard orientation:                         
 ---------------------------------------------------------------------
 Center     Atomic      Atomic             Coordinates (Angstroms)
 Number     Number       Type             X           Y           Z
 ---------------------------------------------------------------------
      1          6           0       -0.881638    0.667095   -0.715042
      2          6           0        0.109788    1.432248   -0.096539
      3          6           0       -0.286839    2.600359    0.556860
      4          6           0       -1.630486    2.957218    0.560548
      5          6           0       -2.539983    2.119372   -0.079066
      6          7           0       -2.174776    0.994577   -0.701330
      7          6           0        1.560799    1.032033   -0.135439
      8          6           0        2.212586    0.876001   -1.511562
      9          6           0        3.449856   -0.017981   -1.262690
     10          6           0        3.261252   -0.590875    0.153378
     11          7           0        1.829518   -0.315605    0.486145
     12          8           0        0.613369   -2.349825   -0.795361
     13          1           0        3.875546   -0.071399    0.897935
     14          1           0        4.381468    0.553587   -1.315565
     15          1           0        3.512784   -0.817479   -2.007024
     16          1           0        1.508721    0.392402   -2.199012
     17          1           0        2.465685    1.853904   -1.931045
     18          1           0        3.437253   -1.667355    0.237575
     19          1           0        2.140651    1.743087    0.470434
     20          1           0       -0.632940   -0.259505   -1.236500
     21          1           0       -3.604328    2.355188   -0.091110
     22          1           0       -1.972318    3.864440    1.054612
     23          1           0        0.449450    3.231995    1.056043
     24          6           0        1.495600   -0.426610    1.921045
     25          1           0        1.282036   -1.048307   -0.030320
     26          1           0       -0.289144   -2.627639   -0.486988
     27          1           0        0.939636   -3.029710   -1.387550
     28          1           0       -3.256102   -0.415654   -1.194563
     29          8           0       -3.592191   -1.335327   -1.247885
     30          1           0       -3.981141   -1.452335   -2.116923
     31          8           0       -1.793172   -2.762219    0.105424
     32          1           0       -2.515737   -2.339082   -0.414139
     33          1           0       -2.171658   -3.528893    0.540045
     34          1           0        1.757323   -1.431430    2.265185
     35          1           0        0.421755   -0.262203    2.049088
     36          1           0        2.063963    0.323047    2.482215
     37          8           0       -0.868561   -1.203465    2.390169
     38          1           0       -1.429928   -1.085065    3.172313
     39          1           0       -1.347349   -1.720864    1.723866
 ---------------------------------------------------------------------
 Rotational constants (GHZ):           0.5266422           0.3788642           0.2979069
 Standard basis: Aug-CC-pVDZ (5D, 7F)
 There are   607 symmetry adapted cartesian basis functions of A   symmetry.
 There are   575 symmetry adapted basis functions of A   symmetry.
   575 basis functions,   941 primitive gaussians,   607 cartesian basis functions
    64 alpha electrons       64 beta electrons
       nuclear repulsion energy      1270.5292329079 Hartrees.
 NAtoms=   39 NActive=   39 NUniq=   39 SFac= 1.00D+00 NAtFMM=   60 NAOKFM=F Big=F
 Integral buffers will be    131072 words long.
 Raffenetti 2 integral format.
 Two-electron integral symmetry is turned on.
 Nuclear repulsion after empirical dispersion term =     1270.4964598811 Hartrees.
 One-electron integrals computed using PRISM.
 NBasis=   575 RedAO= T EigKep=  1.87D-06  NBF=   575
 NBsUse=   575 1.00D-06 EigRej= -1.00D+00 NBFU=   575
 ExpMin= 2.97D-02 ExpMax= 1.17D+04 ExpMxC= 4.01D+02 IAcc=3 IRadAn=         5 AccDes= 0.00D+00
 Harris functional with IExCor= 4639 and IRadAn=       5 diagonalized for initial guess.
 HarFok:  IExCor= 4639 AccDes= 0.00D+00 IRadAn=         5 IDoV= 1 UseB2=F ITyADJ=14
 ICtDFT=  3500011 ScaDFX=  1.000000  1.000000  1.000000  1.000000
 FoFCou: FMM=F IPFlag=           0 FMFlag=      100000 FMFlg1=           0
         NFxFlg=           0 DoJE=T BraDBF=F KetDBF=T FulRan=T
         wScrn=  0.000000 ICntrl=       500 IOpCl=  0 I1Cent=   200000004 NGrid=           0
         NMat0=    1 NMatS0=      1 NMatT0=    0 NMatD0=    1 NMtDS0=    0 NMtDT0=    0
 Petite list used in FoFCou.
 Requested convergence on RMS density matrix=1.00D-08 within 128 cycles.
 Requested convergence on MAX density matrix=1.00D-06.
 Requested convergence on             energy=1.00D-06.
 No special actions if energy rises.
 SCF Done:  E(RwB97XD) =  -805.020647906     A.U. after   15 cycles
            NFock= 15  Conv=0.36D-08     -V/T= 2.0060

 **********************************************************************

            Population analysis using the SCF density.

 **********************************************************************

 Orbital symmetries:
       Occupied  (A) (A) (A) (A) (A) (A) (A) (A) (A) (A) (A) (A)
                 (A) (A) (A) (A) (A) (A) (A) (A) (A) (A) (A) (A)
                 (A) (A) (A) (A) (A) (A) (A) (A) (A) (A) (A) (A)
                 (A) (A) (A) (A) (A) (A) (A) (A) (A) (A) (A) (A)
                 (A) (A) (A) (A) (A) (A) (A) (A) (A) (A) (A) (A)
                 (A) (A) (A) (A)
       Virtual   (A) (A) (A) (A) (A) (A) (A) (A) (A) (A) (A) (A)
                 (A) (A) (A) (A) (A) (A) (A) (A) (A) (A) (A) (A)
                 (A) (A) (A) (A) (A) (A) (A) (A) (A) (A) (A) (A)
                 (A) (A) (A) (A) (A) (A) (A) (A) (A) (A) (A) (A)
                 (A) (A) (A) (A) (A) (A) (A) (A) (A) (A) (A) (A)
                 (A) (A) (A) (A) (A) (A) (A) (A) (A) (A) (A) (A)
                 (A) (A) (A) (A) (A) (A) (A) (A) (A) (A) (A) (A)
                 (A) (A) (A) (A) (A) (A) (A) (A) (A) (A) (A) (A)
                 (A) (A) (A) (A) (A) (A) (A) (A) (A) (A) (A) (A)
                 (A) (A) (A) (A) (A) (A) (A) (A) (A) (A) (A) (A)
                 (A) (A) (A) (A) (A) (A) (A) (A) (A) (A) (A) (A)
                 (A) (A) (A) (A) (A) (A) (A) (A) (A) (A) (A) (A)
                 (A) (A) (A) (A) (A) (A) (A) (A) (A) (A) (A) (A)
                 (A) (A) (A) (A) (A) (A) (A) (A) (A) (A) (A) (A)
                 (A) (A) (A) (A) (A) (A) (A) (A) (A) (A) (A) (A)
                 (A) (A) (A) (A) (A) (A) (A) (A) (A) (A) (A) (A)
                 (A) (A) (A) (A) (A) (A) (A) (A) (A) (A) (A) (A)
                 (A) (A) (A) (A) (A) (A) (A) (A) (A) (A) (A) (A)
                 (A) (A) (A) (A) (A) (A) (A) (A) (A) (A) (A) (A)
                 (A) (A) (A) (A) (A) (A) (A) (A) (A) (A) (A) (A)
                 (A) (A) (A) (A) (A) (A) (A) (A) (A) (A) (A) (A)
                 (A) (A) (A) (A) (A) (A) (A) (A) (A) (A) (A) (A)
                 (A) (A) (A) (A) (A) (A) (A) (A) (A) (A) (A) (A)
                 (A) (A) (A) (A) (A) (A) (A) (A) (A) (A) (A) (A)
                 (A) (A) (A) (A) (A) (A) (A) (A) (A) (A) (A) (A)
                 (A) (A) (A) (A) (A) (A) (A) (A) (A) (A) (A) (A)
                 (A) (A) (A) (A) (A) (A) (A) (A) (A) (A) (A) (A)
                 (A) (A) (A) (A) (A) (A) (A) (A) (A) (A) (A) (A)
                 (A) (A) (A) (A) (A) (A) (A) (A) (A) (A) (A) (A)
                 (A) (A) (A) (A) (A) (A) (A) (A) (A) (A) (A) (A)
                 (A) (A) (A) (A) (A) (A) (A) (A) (A) (A) (A) (A)
                 (A) (A) (A) (A) (A) (A) (A) (A) (A) (A) (A) (A)
                 (A) (A) (A) (A) (A) (A) (A) (A) (A) (A) (A) (A)
                 (A) (A) (A) (A) (A) (A) (A) (A) (A) (A) (A) (A)
                 (A) (A) (A) (A) (A) (A) (A) (A) (A) (A) (A) (A)
                 (A) (A) (A) (A) (A) (A) (A) (A) (A) (A) (A) (A)
                 (A) (A) (A) (A) (A) (A) (A) (A) (A) (A) (A) (A)
                 (A) (A) (A) (A) (A) (A) (A) (A) (A) (A) (A) (A)
                 (A) (A) (A) (A) (A) (A) (A) (A) (A) (A) (A) (A)
                 (A) (A) (A) (A) (A) (A) (A) (A) (A) (A) (A) (A)
                 (A) (A) (A) (A) (A) (A) (A) (A) (A) (A) (A) (A)
                 (A) (A) (A) (A) (A) (A) (A) (A) (A) (A) (A) (A)
                 (A) (A) (A) (A) (A) (A) (A)
 The electronic state is 1-A.
 Alpha  occ. eigenvalues --  -19.40496 -19.39999 -19.38190 -19.37600 -14.67319
 Alpha  occ. eigenvalues --  -14.58265 -10.48918 -10.47382 -10.46340 -10.45921
 Alpha  occ. eigenvalues --  -10.44827 -10.44654 -10.43747 -10.43403 -10.43201
 Alpha  occ. eigenvalues --  -10.43148  -1.25749  -1.24389  -1.23345  -1.22671
 Alpha  occ. eigenvalues --   -1.21680  -1.17918  -1.05761  -1.03486  -1.00822
 Alpha  occ. eigenvalues --   -0.96253  -0.92303  -0.88351  -0.85411  -0.84364
 Alpha  occ. eigenvalues --   -0.82555  -0.77390  -0.76473  -0.75904  -0.74228
 Alpha  occ. eigenvalues --   -0.73999  -0.73149  -0.72275  -0.71312  -0.69096
 Alpha  occ. eigenvalues --   -0.68528  -0.66305  -0.65544  -0.64707  -0.63308
 Alpha  occ. eigenvalues --   -0.62664  -0.61992  -0.61774  -0.61110  -0.60529
 Alpha  occ. eigenvalues --   -0.58779  -0.58188  -0.57280  -0.56844  -0.56360
 Alpha  occ. eigenvalues --   -0.54797  -0.54648  -0.53739  -0.52571  -0.51466
 Alpha  occ. eigenvalues --   -0.51168  -0.49455  -0.47702  -0.46338
 Alpha virt. eigenvalues --   -0.09234  -0.08328  -0.06735  -0.05644  -0.05232
 Alpha virt. eigenvalues --   -0.04489  -0.03613  -0.03222  -0.03153  -0.02693
 Alpha virt. eigenvalues --   -0.02477  -0.01681  -0.01156  -0.00707  -0.00676
 Alpha virt. eigenvalues --   -0.00180   0.00305   0.00483   0.01259   0.01373
 Alpha virt. eigenvalues --    0.01731   0.01937   0.02457   0.02788   0.02884
 Alpha virt. eigenvalues --    0.02995   0.03655   0.04066   0.04398   0.04729
 Alpha virt. eigenvalues --    0.04935   0.05081   0.05410   0.05831   0.06053
 Alpha virt. eigenvalues --    0.06094   0.06469   0.06676   0.07045   0.07175
 Alpha virt. eigenvalues --    0.07355   0.07525   0.07908   0.08335   0.08403
 Alpha virt. eigenvalues --    0.08886   0.09089   0.09635   0.09860   0.10087
 Alpha virt. eigenvalues --    0.10116   0.10431   0.10892   0.11172   0.11284
 Alpha virt. eigenvalues --    0.11757   0.11860   0.12299   0.12730   0.13021
 Alpha virt. eigenvalues --    0.13172   0.13835   0.14134   0.14628   0.15155
 Alpha virt. eigenvalues --    0.15460   0.15733   0.16071   0.16150   0.16209
 Alpha virt. eigenvalues --    0.16408   0.17055   0.17164   0.17276   0.17578
 Alpha virt. eigenvalues --    0.17773   0.18074   0.18303   0.18717   0.18915
 Alpha virt. eigenvalues --    0.19079   0.19278   0.20056   0.20437   0.20689
 Alpha virt. eigenvalues --    0.21231   0.21280   0.21729   0.21995   0.22118
 Alpha virt. eigenvalues --    0.22672   0.22797   0.23119   0.23219   0.23670
 Alpha virt. eigenvalues --    0.23883   0.24408   0.24794   0.25123   0.25433
 Alpha virt. eigenvalues --    0.25909   0.26133   0.26490   0.26888   0.27042
 Alpha virt. eigenvalues --    0.27430   0.28055   0.28317   0.29098   0.29340
 Alpha virt. eigenvalues --    0.29525   0.30054   0.30162   0.30759   0.31354
 Alpha virt. eigenvalues --    0.31827   0.32101   0.32350   0.33120   0.33401
 Alpha virt. eigenvalues --    0.33577   0.33726   0.34365   0.34865   0.35142
 Alpha virt. eigenvalues --    0.35629   0.36127   0.36818   0.36923   0.37383
 Alpha virt. eigenvalues --    0.37610   0.38171   0.38266   0.39082   0.39297
 Alpha virt. eigenvalues --    0.39820   0.40078   0.40671   0.41293   0.41380
 Alpha virt. eigenvalues --    0.41712   0.42208   0.42558   0.42974   0.43767
 Alpha virt. eigenvalues --    0.44017   0.44217   0.45096   0.45336   0.45922
 Alpha virt. eigenvalues --    0.46580   0.46810   0.46984   0.47405   0.47749
 Alpha virt. eigenvalues --    0.47953   0.48157   0.48507   0.48887   0.49359
 Alpha virt. eigenvalues --    0.49665   0.49779   0.50556   0.50840   0.51098
 Alpha virt. eigenvalues --    0.51318   0.51985   0.52170   0.52556   0.52739
 Alpha virt. eigenvalues --    0.53356   0.53776   0.53947   0.54334   0.54910
 Alpha virt. eigenvalues --    0.55424   0.55767   0.56482   0.56648   0.57063
 Alpha virt. eigenvalues --    0.57819   0.57882   0.58473   0.58670   0.59458
 Alpha virt. eigenvalues --    0.59655   0.59931   0.60716   0.60942   0.61001
 Alpha virt. eigenvalues --    0.61400   0.61558   0.61690   0.62496   0.63176
 Alpha virt. eigenvalues --    0.63474   0.63877   0.64585   0.65044   0.65559
 Alpha virt. eigenvalues --    0.65852   0.66406   0.66547   0.67163   0.67753
 Alpha virt. eigenvalues --    0.67909   0.68246   0.68643   0.68942   0.69660
 Alpha virt. eigenvalues --    0.70140   0.70380   0.70957   0.71445   0.71862
 Alpha virt. eigenvalues --    0.72257   0.73208   0.73459   0.73930   0.74262
 Alpha virt. eigenvalues --    0.74298   0.75276   0.76261   0.76456   0.76972
 Alpha virt. eigenvalues --    0.77340   0.77823   0.78172   0.78786   0.79528
 Alpha virt. eigenvalues --    0.80062   0.80849   0.81054   0.81513   0.81704
 Alpha virt. eigenvalues --    0.82592   0.83046   0.83822   0.84226   0.84890
 Alpha virt. eigenvalues --    0.85202   0.86519   0.87137   0.87258   0.88326
 Alpha virt. eigenvalues --    0.89241   0.89720   0.90390   0.91052   0.91173
 Alpha virt. eigenvalues --    0.91400   0.92584   0.93260   0.94011   0.94584
 Alpha virt. eigenvalues --    0.95236   0.96857   0.97606   0.98331   0.99299
 Alpha virt. eigenvalues --    0.99736   1.00579   1.00784   1.01534   1.02421
 Alpha virt. eigenvalues --    1.02769   1.03715   1.03858   1.04639   1.05666
 Alpha virt. eigenvalues --    1.06793   1.07029   1.08140   1.08695   1.09563
 Alpha virt. eigenvalues --    1.09775   1.10466   1.11304   1.11748   1.12638
 Alpha virt. eigenvalues --    1.13949   1.15401   1.15856   1.17219   1.17701
 Alpha virt. eigenvalues --    1.18021   1.19537   1.19933   1.20475   1.21161
 Alpha virt. eigenvalues --    1.22367   1.22704   1.23186   1.23771   1.25447
 Alpha virt. eigenvalues --    1.26639   1.27171   1.27878   1.28564   1.31008
 Alpha virt. eigenvalues --    1.31973   1.32760   1.33831   1.34564   1.34945
 Alpha virt. eigenvalues --    1.36080   1.36470   1.36918   1.38456   1.39853
 Alpha virt. eigenvalues --    1.40120   1.41205   1.41644   1.42495   1.43866
 Alpha virt. eigenvalues --    1.44918   1.45617   1.46487   1.46948   1.47881
 Alpha virt. eigenvalues --    1.48378   1.49168   1.50520   1.50954   1.51764
 Alpha virt. eigenvalues --    1.52698   1.53420   1.54616   1.54829   1.55345
 Alpha virt. eigenvalues --    1.56129   1.57420   1.58376   1.58788   1.59756
 Alpha virt. eigenvalues --    1.60761   1.61749   1.62616   1.63314   1.64348
 Alpha virt. eigenvalues --    1.64649   1.65652   1.66012   1.67821   1.68121
 Alpha virt. eigenvalues --    1.69152   1.69971   1.70652   1.71558   1.71987
 Alpha virt. eigenvalues --    1.72529   1.74033   1.74174   1.74832   1.76251
 Alpha virt. eigenvalues --    1.77291   1.77603   1.78221   1.79436   1.79895
 Alpha virt. eigenvalues --    1.81302   1.81485   1.82307   1.82891   1.83380
 Alpha virt. eigenvalues --    1.84334   1.85224   1.85829   1.87333   1.87463
 Alpha virt. eigenvalues --    1.87660   1.87966   1.89400   1.89911   1.91045
 Alpha virt. eigenvalues --    1.91597   1.92582   1.93450   1.94155   1.95564
 Alpha virt. eigenvalues --    1.95896   1.97253   1.97740   1.98886   1.99220
 Alpha virt. eigenvalues --    1.99679   2.00392   2.01456   2.01767   2.02841
 Alpha virt. eigenvalues --    2.03727   2.04510   2.05061   2.05836   2.07302
 Alpha virt. eigenvalues --    2.07926   2.09981   2.10398   2.11153   2.12663
 Alpha virt. eigenvalues --    2.13129   2.13875   2.14936   2.15683   2.16891
 Alpha virt. eigenvalues --    2.17443   2.19171   2.19535   2.20426   2.21407
 Alpha virt. eigenvalues --    2.22612   2.23574   2.23782   2.25709   2.26377
 Alpha virt. eigenvalues --    2.26404   2.27902   2.28695   2.29616   2.31199
 Alpha virt. eigenvalues --    2.32839   2.33805   2.34006   2.35689   2.37227
 Alpha virt. eigenvalues --    2.37911   2.39488   2.41167   2.43026   2.43178
 Alpha virt. eigenvalues --    2.44803   2.45524   2.46444   2.47650   2.49156
 Alpha virt. eigenvalues --    2.50158   2.51780   2.52187   2.53278   2.54423
 Alpha virt. eigenvalues --    2.55863   2.56644   2.58110   2.58637   2.59016
 Alpha virt. eigenvalues --    2.59269   2.59929   2.61538   2.63066   2.64732
 Alpha virt. eigenvalues --    2.65021   2.67224   2.69028   2.70307   2.71936
 Alpha virt. eigenvalues --    2.72688   2.74011   2.74139   2.75344   2.76533
 Alpha virt. eigenvalues --    2.77353   2.78318   2.79419   2.81374   2.82818
 Alpha virt. eigenvalues --    2.83445   2.85137   2.86027   2.86880   2.89605
 Alpha virt. eigenvalues --    2.90317   2.91088   2.92745   2.94322   2.95506
 Alpha virt. eigenvalues --    2.98230   2.98894   3.02739   3.05735   3.10900
 Alpha virt. eigenvalues --    3.13570   3.14108   3.21277   3.27796   3.30143
 Alpha virt. eigenvalues --    3.35428   3.37385   3.38441   3.40739   3.41207
 Alpha virt. eigenvalues --    3.41895   3.48742   3.49792   3.51001   3.52974
 Alpha virt. eigenvalues --    3.53874   3.55662   3.60145   3.61614   3.66053
 Alpha virt. eigenvalues --    3.78525   3.80283   3.83700   3.84934   3.91441
 Alpha virt. eigenvalues --    3.99491   4.05234   4.05898   4.10034   4.28729
 Alpha virt. eigenvalues --    4.78388
          Condensed to atoms (all electrons):
               1          2          3          4          5          6
     1  C   16.637901  -4.193053  -1.431088  -0.402372  -1.374009  -0.770444
     2  C   -4.193053  27.106397 -10.265071   0.320316  -0.500610   0.109144
     3  C   -1.431088 -10.265071  23.291719  -4.200934   1.471692  -0.786024
     4  C   -0.402372   0.320316  -4.200934  11.700729  -2.576238   0.435994
     5  C   -1.374009  -0.500610   1.471692  -2.576238   9.903322   0.328274
     6  N   -0.770444   0.109144  -0.786024   0.435994   0.328274   8.050788
     7  C   -1.252240 -12.236503  -0.500356   0.722355  -1.190126   0.382868
     8  C   -0.639512   0.381122  -0.158822   0.026720  -0.103088  -0.037116
     9  C   -0.027395   0.139309   0.023111  -0.024477   0.010567   0.011118
    10  C   -0.033575  -0.608571   0.075759   0.000350  -0.035528   0.014430
    11  N    0.290623   1.774352  -0.498977  -0.136775   0.104149  -0.069384
    12  O   -0.113058  -0.004568  -0.025479   0.004203  -0.003557   0.000371
    13  H    0.010495   0.164934   0.007665   0.008080  -0.006012  -0.001632
    14  H    0.035932   0.028456  -0.003136  -0.007236   0.004053  -0.000821
    15  H   -0.035893  -0.178270   0.005958   0.001614  -0.003135   0.001630
    16  H   -0.142843   0.096987   0.030093  -0.024513   0.006030   0.024302
    17  H    0.249104   0.465906  -0.050653   0.004227   0.006445  -0.018078
    18  H    0.003040  -0.156861   0.038685  -0.001539   0.000728   0.001148
    19  H   -0.152035   1.270228   0.045399  -0.076695   0.058052  -0.003173
    20  H   -1.262905  -0.497011  -0.265588   0.070364  -0.072357   0.033849
    21  H    0.258810  -0.160302   0.283334   0.003749  -0.482658  -0.262630
    22  H    0.029923   0.015684   0.557415  -1.198447   0.390493  -0.070155
    23  H    0.139635   1.212844  -2.589626   0.713317  -0.233416  -0.030087
    24  C   -0.142590   0.367163  -0.208727   0.096014  -0.049844   0.015848
    25  H   -0.266952   0.089393  -0.086014  -0.030773   0.035319   0.003356
    26  H   -0.012833   0.026184   0.001072  -0.005303   0.006095   0.004821
    27  H    0.016994  -0.005130  -0.001753   0.001974  -0.001974  -0.000703
    28  H   -0.130665  -0.003808   0.011717  -0.053153   0.076807   0.155470
    29  O    0.004745  -0.057168   0.003539  -0.004266   0.023218  -0.026012
    30  H    0.005739   0.010229  -0.003552   0.007035  -0.010416  -0.007436
    31  O   -0.059867   0.004204  -0.001640  -0.014020   0.030004   0.011572
    32  H   -0.025776   0.021601  -0.012714   0.008102  -0.004160   0.014087
    33  H    0.019921  -0.004009   0.004010  -0.000934  -0.002170  -0.008108
    34  H   -0.065034   0.068936  -0.047516   0.005845  -0.003501   0.003767
    35  H    0.131838  -0.262091   0.126961   0.088416  -0.061571  -0.013752
    36  H   -0.003239   0.413989  -0.055834  -0.024889   0.017268   0.001800
    37  O   -0.026326   0.060906  -0.027347   0.015739   0.017933   0.022510
    38  H   -0.010811   0.001299  -0.000001  -0.004809  -0.001289   0.001798
    39  H    0.026717   0.020706  -0.015818   0.009793  -0.005300  -0.000843
               7          8          9         10         11         12
     1  C   -1.252240  -0.639512  -0.027395  -0.033575   0.290623  -0.113058
     2  C  -12.236503   0.381122   0.139309  -0.608571   1.774352  -0.004568
     3  C   -0.500356  -0.158822   0.023111   0.075759  -0.498977  -0.025479
     4  C    0.722355   0.026720  -0.024477   0.000350  -0.136775   0.004203
     5  C   -1.190126  -0.103088   0.010567  -0.035528   0.104149  -0.003557
     6  N    0.382868  -0.037116   0.011118   0.014430  -0.069384   0.000371
     7  C   29.579439  -1.755164   0.191230  -0.187370  -5.332561   0.114348
     8  C   -1.755164   7.872264  -0.687880   0.579042  -0.481265   0.004755
     9  C    0.191230  -0.687880   6.267921  -0.015137  -0.675987   0.050626
    10  C   -0.187370   0.579042  -0.015137   5.637241   0.165841  -0.025830
    11  N   -5.332561  -0.481265  -0.675987   0.165841  14.685107  -0.384673
    12  O    0.114348   0.004755   0.050626  -0.025830  -0.384673   8.142701
    13  H    0.278233  -0.006923  -0.091766  -0.336474  -0.101231  -0.013242
    14  H   -0.261883   0.225429  -0.189878   0.177009   0.054258  -0.004585
    15  H    0.453567   0.117902  -0.343254   0.039117  -0.056007   0.022430
    16  H   -0.393770  -0.012946   0.226790   0.029422  -0.068487   0.002069
    17  H   -0.140829  -0.924160   0.152816  -0.148550   0.256479  -0.000161
    18  H    0.411216   0.036534   0.188998  -0.088022  -1.127289   0.065778
    19  H   -3.442531   0.706835  -0.097020   0.039946  -0.384328   0.005458
    20  H    0.161202   0.069168   0.035291  -0.018728  -0.170971   0.037899
    21  H    0.000186   0.001633   0.000500  -0.000710   0.004786  -0.000228
    22  H    0.001939   0.000583  -0.000195  -0.000332  -0.002349   0.000159
    23  H   -0.089637  -0.045756  -0.005363  -0.002784   0.007555  -0.001912
    24  C   -0.481511  -0.126004   0.055664  -0.086876   0.532791   0.047341
    25  H    0.009762  -0.132858  -0.010597  -0.433771   0.421904  -0.100571
    26  H   -0.014884   0.001047   0.015109   0.000164   0.018490   0.327057
    27  H   -0.007315   0.001759  -0.006325   0.004548   0.022432   0.347983
    28  H    0.017058  -0.007772  -0.000092  -0.000746  -0.005913   0.001159
    29  O   -0.000030  -0.001486  -0.001021  -0.000038   0.000329   0.000123
    30  H   -0.003943   0.001576   0.000003   0.000074   0.001069   0.000428
    31  O   -0.017353   0.002850  -0.000813  -0.005037  -0.016968  -0.063715
    32  H   -0.006345   0.001476  -0.001124  -0.000903  -0.001486   0.000986
    33  H    0.002207  -0.000329  -0.000056   0.001569   0.009001  -0.002005
    34  H   -0.025598  -0.093704   0.095123  -0.085801  -0.210365   0.036623
    35  H    0.282784   0.110439  -0.042953  -0.039002  -0.355814   0.004367
    36  H   -0.401689   0.066461  -0.005336   0.103327  -0.259868  -0.004351
    37  O   -0.147808   0.012605  -0.009850  -0.000913   0.112094  -0.009420
    38  H    0.007216  -0.001483   0.000679  -0.004763  -0.007705   0.002370
    39  H    0.004078   0.003177  -0.000734   0.006998   0.006616  -0.002817
              13         14         15         16         17         18
     1  C    0.010495   0.035932  -0.035893  -0.142843   0.249104   0.003040
     2  C    0.164934   0.028456  -0.178270   0.096987   0.465906  -0.156861
     3  C    0.007665  -0.003136   0.005958   0.030093  -0.050653   0.038685
     4  C    0.008080  -0.007236   0.001614  -0.024513   0.004227  -0.001539
     5  C   -0.006012   0.004053  -0.003135   0.006030   0.006445   0.000728
     6  N   -0.001632  -0.000821   0.001630   0.024302  -0.018078   0.001148
     7  C    0.278233  -0.261883   0.453567  -0.393770  -0.140829   0.411216
     8  C   -0.006923   0.225429   0.117902  -0.012946  -0.924160   0.036534
     9  C   -0.091766  -0.189878  -0.343254   0.226790   0.152816   0.188998
    10  C   -0.336474   0.177009   0.039117   0.029422  -0.148550  -0.088022
    11  N   -0.101231   0.054258  -0.056007  -0.068487   0.256479  -1.127289
    12  O   -0.013242  -0.004585   0.022430   0.002069  -0.000161   0.065778
    13  H    2.517242  -0.313688   0.183172  -0.064301   0.056177  -0.611244
    14  H   -0.313688   1.958274  -0.537975   0.173960  -0.264512   0.134622
    15  H    0.183172  -0.537975   2.075051  -0.346868   0.118479  -0.294145
    16  H   -0.064301   0.173960  -0.346868   2.180413  -0.598958   0.061813
    17  H    0.056177  -0.264512   0.118479  -0.598958   2.497347  -0.040378
    18  H   -0.611244   0.134622  -0.294145   0.061813  -0.040378   2.853196
    19  H   -0.119470   0.058931  -0.034645   0.217419  -0.256315   0.101950
    20  H    0.004368  -0.006318   0.011126  -0.131007   0.049179  -0.014201
    21  H   -0.000070   0.000091  -0.000079  -0.000792   0.001617   0.000053
    22  H   -0.000171  -0.000089   0.000031   0.000583  -0.002788  -0.000048
    23  H    0.001458   0.002442  -0.002045  -0.002399   0.015204  -0.001204
    24  C   -0.056527  -0.020837  -0.003360  -0.048029   0.057720  -0.059978
    25  H   -0.000975  -0.007022   0.039560   0.048175   0.008512  -0.056298
    26  H   -0.000693   0.000719  -0.004409   0.004486  -0.001761   0.004105
    27  H   -0.000008  -0.000448   0.003118   0.002743   0.000845  -0.001592
    28  H   -0.000041   0.000107  -0.000056  -0.000471  -0.000469   0.000239
    29  O    0.000034  -0.000035  -0.000270   0.002867  -0.000015  -0.000037
    30  H    0.000013  -0.000002  -0.000024   0.000748   0.000055  -0.000017
    31  O   -0.000515  -0.000156   0.000047  -0.002051   0.000195   0.000082
    32  H    0.000028  -0.000048   0.000069   0.000469  -0.000115  -0.000038
    33  H    0.000011   0.000003  -0.000067  -0.000116   0.000032  -0.000082
    34  H   -0.010534  -0.003624   0.012680  -0.015457   0.002648  -0.033524
    35  H    0.037448  -0.005567  -0.003246   0.006834   0.004453   0.027472
    36  H   -0.031487   0.007958  -0.008425   0.007573   0.002369   0.040544
    37  O   -0.002721   0.000126  -0.001062   0.002899  -0.000173  -0.000393
    38  H   -0.000516   0.000101   0.000050  -0.000287  -0.000175  -0.000703
    39  H    0.000719  -0.000146   0.000082   0.000268   0.000408   0.001677
              19         20         21         22         23         24
     1  C   -0.152035  -1.262905   0.258810   0.029923   0.139635  -0.142590
     2  C    1.270228  -0.497011  -0.160302   0.015684   1.212844   0.367163
     3  C    0.045399  -0.265588   0.283334   0.557415  -2.589626  -0.208727
     4  C   -0.076695   0.070364   0.003749  -1.198447   0.713317   0.096014
     5  C    0.058052  -0.072357  -0.482658   0.390493  -0.233416  -0.049844
     6  N   -0.003173   0.033849  -0.262630  -0.070155  -0.030087   0.015848
     7  C   -3.442531   0.161202   0.000186   0.001939  -0.089637  -0.481511
     8  C    0.706835   0.069168   0.001633   0.000583  -0.045756  -0.126004
     9  C   -0.097020   0.035291   0.000500  -0.000195  -0.005363   0.055664
    10  C    0.039946  -0.018728  -0.000710  -0.000332  -0.002784  -0.086876
    11  N   -0.384328  -0.170971   0.004786  -0.002349   0.007555   0.532791
    12  O    0.005458   0.037899  -0.000228   0.000159  -0.001912   0.047341
    13  H   -0.119470   0.004368  -0.000070  -0.000171   0.001458  -0.056527
    14  H    0.058931  -0.006318   0.000091  -0.000089   0.002442  -0.020837
    15  H   -0.034645   0.011126  -0.000079   0.000031  -0.002045  -0.003360
    16  H    0.217419  -0.131007  -0.000792   0.000583  -0.002399  -0.048029
    17  H   -0.256315   0.049179   0.001617  -0.002788   0.015204   0.057720
    18  H    0.101950  -0.014201   0.000053  -0.000048  -0.001204  -0.059978
    19  H    4.231984  -0.032818   0.001804   0.000961  -0.175248  -0.090751
    20  H   -0.032818   4.089401   0.022823  -0.008311  -0.017875   0.057597
    21  H    0.001804   0.022823   2.130846  -0.131184  -0.003667   0.002810
    22  H    0.000961  -0.008311  -0.131184   2.164389  -0.141302  -0.010460
    23  H   -0.175248  -0.017875  -0.003667  -0.141302   3.137454   0.044471
    24  C   -0.090751   0.057597   0.002810  -0.010460   0.044471   4.780796
    25  H   -0.023757   0.052570  -0.000785   0.002221  -0.009012  -0.220949
    26  H    0.001156  -0.010266  -0.000796   0.000460  -0.000843  -0.009719
    27  H   -0.000643  -0.010621  -0.000149   0.000004   0.000282   0.005769
    28  H   -0.000256  -0.029033  -0.054800   0.007893  -0.001929  -0.004367
    29  O    0.000240  -0.015418   0.001363   0.000148  -0.000053  -0.000657
    30  H   -0.000154   0.001472   0.003451  -0.000399   0.000186   0.000365
    31  O   -0.000254   0.052444   0.001453  -0.000394   0.000022   0.018412
    32  H    0.000335  -0.022388  -0.000056  -0.000087  -0.000233   0.000226
    33  H   -0.000158   0.008941   0.000101  -0.000015   0.000030  -0.001487
    34  H   -0.009728   0.005681   0.000597  -0.001143   0.000350   0.268457
    35  H    0.065783  -0.006817  -0.000307  -0.005964   0.007076   0.260361
    36  H    0.046557  -0.002954   0.000218   0.000349   0.003364  -0.199392
    37  O   -0.003107  -0.002005  -0.002063   0.001376   0.002755  -0.251228
    38  H   -0.000569   0.003670  -0.000269   0.000450  -0.000956   0.011899
    39  H    0.000334  -0.012218  -0.001080  -0.000243   0.002529  -0.004616
              25         26         27         28         29         30
     1  C   -0.266952  -0.012833   0.016994  -0.130665   0.004745   0.005739
     2  C    0.089393   0.026184  -0.005130  -0.003808  -0.057168   0.010229
     3  C   -0.086014   0.001072  -0.001753   0.011717   0.003539  -0.003552
     4  C   -0.030773  -0.005303   0.001974  -0.053153  -0.004266   0.007035
     5  C    0.035319   0.006095  -0.001974   0.076807   0.023218  -0.010416
     6  N    0.003356   0.004821  -0.000703   0.155470  -0.026012  -0.007436
     7  C    0.009762  -0.014884  -0.007315   0.017058  -0.000030  -0.003943
     8  C   -0.132858   0.001047   0.001759  -0.007772  -0.001486   0.001576
     9  C   -0.010597   0.015109  -0.006325  -0.000092  -0.001021   0.000003
    10  C   -0.433771   0.000164   0.004548  -0.000746  -0.000038   0.000074
    11  N    0.421904   0.018490   0.022432  -0.005913   0.000329   0.001069
    12  O   -0.100571   0.327057   0.347983   0.001159   0.000123   0.000428
    13  H   -0.000975  -0.000693  -0.000008  -0.000041   0.000034   0.000013
    14  H   -0.007022   0.000719  -0.000448   0.000107  -0.000035  -0.000002
    15  H    0.039560  -0.004409   0.003118  -0.000056  -0.000270  -0.000024
    16  H    0.048175   0.004486   0.002743  -0.000471   0.002867   0.000748
    17  H    0.008512  -0.001761   0.000845  -0.000469  -0.000015   0.000055
    18  H   -0.056298   0.004105  -0.001592   0.000239  -0.000037  -0.000017
    19  H   -0.023757   0.001156  -0.000643  -0.000256   0.000240  -0.000154
    20  H    0.052570  -0.010266  -0.010621  -0.029033  -0.015418   0.001472
    21  H   -0.000785  -0.000796  -0.000149  -0.054800   0.001363   0.003451
    22  H    0.002221   0.000460   0.000004   0.007893   0.000148  -0.000399
    23  H   -0.009012  -0.000843   0.000282  -0.001929  -0.000053   0.000186
    24  C   -0.220949  -0.009719   0.005769  -0.004367  -0.000657   0.000365
    25  H    1.534367  -0.002007  -0.031370   0.001693   0.000085  -0.000510
    26  H   -0.002007   0.560686  -0.117724   0.001454  -0.003904  -0.000426
    27  H   -0.031370  -0.117724   0.566145   0.000018   0.001685   0.000004
    28  H    0.001693   0.001454   0.000018   0.620199   0.287461  -0.120339
    29  O    0.000085  -0.003904   0.001685   0.287461   7.841672   0.371547
    30  H   -0.000510  -0.000426   0.000004  -0.120339   0.371547   0.580755
    31  O   -0.001820  -0.082873   0.000091  -0.004350  -0.075372   0.005279
    32  H    0.003907   0.001642   0.000345  -0.000905   0.014261  -0.003876
    33  H   -0.003097  -0.001574   0.001222  -0.001188  -0.001914   0.000029
    34  H    0.142842  -0.001518  -0.003274  -0.000986  -0.000108   0.000018
    35  H   -0.200514   0.008633   0.001822  -0.000130  -0.000757   0.000599
    36  H   -0.025002  -0.001271   0.001122  -0.000403   0.000012   0.000020
    37  O    0.048825  -0.005247   0.001464   0.000841   0.003697   0.000117
    38  H    0.005851  -0.000527  -0.000240   0.001165   0.000324  -0.000272
    39  H   -0.007337   0.012671  -0.000184  -0.002819  -0.001587   0.000968
              31         32         33         34         35         36
     1  C   -0.059867  -0.025776   0.019921  -0.065034   0.131838  -0.003239
     2  C    0.004204   0.021601  -0.004009   0.068936  -0.262091   0.413989
     3  C   -0.001640  -0.012714   0.004010  -0.047516   0.126961  -0.055834
     4  C   -0.014020   0.008102  -0.000934   0.005845   0.088416  -0.024889
     5  C    0.030004  -0.004160  -0.002170  -0.003501  -0.061571   0.017268
     6  N    0.011572   0.014087  -0.008108   0.003767  -0.013752   0.001800
     7  C   -0.017353  -0.006345   0.002207  -0.025598   0.282784  -0.401689
     8  C    0.002850   0.001476  -0.000329  -0.093704   0.110439   0.066461
     9  C   -0.000813  -0.001124  -0.000056   0.095123  -0.042953  -0.005336
    10  C   -0.005037  -0.000903   0.001569  -0.085801  -0.039002   0.103327
    11  N   -0.016968  -0.001486   0.009001  -0.210365  -0.355814  -0.259868
    12  O   -0.063715   0.000986  -0.002005   0.036623   0.004367  -0.004351
    13  H   -0.000515   0.000028   0.000011  -0.010534   0.037448  -0.031487
    14  H   -0.000156  -0.000048   0.000003  -0.003624  -0.005567   0.007958
    15  H    0.000047   0.000069  -0.000067   0.012680  -0.003246  -0.008425
    16  H   -0.002051   0.000469  -0.000116  -0.015457   0.006834   0.007573
    17  H    0.000195  -0.000115   0.000032   0.002648   0.004453   0.002369
    18  H    0.000082  -0.000038  -0.000082  -0.033524   0.027472   0.040544
    19  H   -0.000254   0.000335  -0.000158  -0.009728   0.065783   0.046557
    20  H    0.052444  -0.022388   0.008941   0.005681  -0.006817  -0.002954
    21  H    0.001453  -0.000056   0.000101   0.000597  -0.000307   0.000218
    22  H   -0.000394  -0.000087  -0.000015  -0.001143  -0.005964   0.000349
    23  H    0.000022  -0.000233   0.000030   0.000350   0.007076   0.003364
    24  C    0.018412   0.000226  -0.001487   0.268457   0.260361  -0.199392
    25  H   -0.001820   0.003907  -0.003097   0.142842  -0.200514  -0.025002
    26  H   -0.082873   0.001642  -0.001574  -0.001518   0.008633  -0.001271
    27  H    0.000091   0.000345   0.001222  -0.003274   0.001822   0.001122
    28  H   -0.004350  -0.000905  -0.001188  -0.000986  -0.000130  -0.000403
    29  O   -0.075372   0.014261  -0.001914  -0.000108  -0.000757   0.000012
    30  H    0.005279  -0.003876   0.000029   0.000018   0.000599   0.000020
    31  O    8.393298   0.296308   0.298675   0.008434  -0.021442   0.001394
    32  H    0.296308   0.461519  -0.125378   0.000783  -0.000958   0.000147
    33  H    0.298675  -0.125378   0.598752   0.000060   0.001382  -0.000882
    34  H    0.008434   0.000783   0.000060   2.343999  -0.702796  -0.403492
    35  H   -0.021442  -0.000958   0.001382  -0.702796   2.644245  -0.716051
    36  H    0.001394   0.000147  -0.000882  -0.403492  -0.716051   2.503439
    37  O   -0.045893   0.002645  -0.002900  -0.068515  -0.258576   0.100309
    38  H    0.008291   0.001055  -0.000921   0.010024   0.013543  -0.008341
    39  H   -0.031510  -0.006520   0.011700   0.005347  -0.019650   0.013573
              37         38         39
     1  C   -0.026326  -0.010811   0.026717
     2  C    0.060906   0.001299   0.020706
     3  C   -0.027347  -0.000001  -0.015818
     4  C    0.015739  -0.004809   0.009793
     5  C    0.017933  -0.001289  -0.005300
     6  N    0.022510   0.001798  -0.000843
     7  C   -0.147808   0.007216   0.004078
     8  C    0.012605  -0.001483   0.003177
     9  C   -0.009850   0.000679  -0.000734
    10  C   -0.000913  -0.004763   0.006998
    11  N    0.112094  -0.007705   0.006616
    12  O   -0.009420   0.002370  -0.002817
    13  H   -0.002721  -0.000516   0.000719
    14  H    0.000126   0.000101  -0.000146
    15  H   -0.001062   0.000050   0.000082
    16  H    0.002899  -0.000287   0.000268
    17  H   -0.000173  -0.000175   0.000408
    18  H   -0.000393  -0.000703   0.001677
    19  H   -0.003107  -0.000569   0.000334
    20  H   -0.002005   0.003670  -0.012218
    21  H   -0.002063  -0.000269  -0.001080
    22  H    0.001376   0.000450  -0.000243
    23  H    0.002755  -0.000956   0.002529
    24  C   -0.251228   0.011899  -0.004616
    25  H    0.048825   0.005851  -0.007337
    26  H   -0.005247  -0.000527   0.012671
    27  H    0.001464  -0.000240  -0.000184
    28  H    0.000841   0.001165  -0.002819
    29  O    0.003697   0.000324  -0.001587
    30  H    0.000117  -0.000272   0.000968
    31  O   -0.045893   0.008291  -0.031510
    32  H    0.002645   0.001055  -0.006520
    33  H   -0.002900  -0.000921   0.011700
    34  H   -0.068515   0.010024   0.005347
    35  H   -0.258576   0.013543  -0.019650
    36  H    0.100309  -0.008341   0.013573
    37  O    8.381391   0.308776   0.240303
    38  H    0.308776   0.579241  -0.129713
    39  H    0.240303  -0.129713   0.622946
 Mulliken charges:
               1
     1  C    0.713103
     2  C    0.962736
     3  C    1.258539
     4  C    0.542437
     5  C    0.230510
     6  N   -0.522546
     7  C    1.269757
     8  C    0.992892
     9  C    0.772396
    10  C    1.284626
    11  N   -1.119473
    12  O   -0.459058
    13  H   -0.499836
    14  H   -0.234464
    15  H   -0.232447
    16  H   -0.273648
    17  H   -0.502124
    18  H   -0.484290
    19  H   -0.949719
    20  H   -1.157233
    21  H   -0.617596
    22  H   -0.600985
    23  H   -0.935625
    24  C    1.454203
    25  H    0.203648
    26  H    0.282527
    27  H    0.207085
    28  H    0.241413
    29  O   -0.367200
    30  H    0.159588
    31  O   -0.687010
    32  H    0.383118
    33  H    0.199747
    34  H   -0.225996
    35  H   -0.106498
    36  H   -0.178886
    37  O   -0.471764
    38  H    0.216548
    39  H    0.251524
 Sum of Mulliken charges =   1.00000
 Mulliken charges with hydrogens summed into heavy atoms:
               1
     1  C   -0.444130
     2  C    0.962736
     3  C    0.322914
     4  C   -0.058548
     5  C   -0.387087
     6  N   -0.522546
     7  C    0.320037
     8  C    0.217121
     9  C    0.305485
    10  C    0.300501
    11  N   -0.915826
    12  O    0.030554
    24  C    0.942823
    29  O    0.033801
    31  O   -0.104145
    37  O   -0.003692
 Electronic spatial extent (au):  <R**2>=           4216.8216
 Charge=              1.0000 electrons
 Dipole moment (field-independent basis, Debye):
    X=              2.3214    Y=             -1.1169    Z=              0.4930  Tot=              2.6229
[...]
 0132,0.00042539,0.00164857,0.00658551,-0.00239254,0.00260903,-0.000347
 76,-0.00004671,-0.00037979,0.00029826,0.00004745,-0.00010392,-0.000010
 48,0.00001565,0.00021754,0.00002867,-0.00003049,-0.00000816,-0.0000093
 6,0.00001296,0.00001852,-0.00002196,0.00000910,0.00002537,-0.00023542,
 0.00025357,-0.00030367,-0.00013669,-0.00000344,0.00007583,-0.00001876,
 -0.00002122,0.00007302,-0.00001915,-0.00000197,0.00000964,0.00000257,-
 0.00000652,0.00000492,-0.00008985,-0.00017415,-0.00005220,0.01533031,-
 0.05139288,0.00476529,0.00098344,0.00043298,0.00030561,0.00009730,-0.0
 0009146,0.00034744,0.00010279,-0.00000544,-0.00001744,0.00012967,0.000
 26996,-0.00000354,0.00004267,-0.00024052,-0.00013254,0.00000267,-0.000
 01198,-0.00000092,0.00013341,0.00021691,-0.00049838,-0.00021210,0.0001
 7198,0.00029312,-0.00001941,-0.00007584,0.00003006,0.02427871,-0.00056
 135,0.00667666,-0.02268452,0.05024381,0.00026063,0.00015515,-0.0001422
 3,0.00002127,-0.00030746,-0.00063908,0.00037589,-0.00039474,0.00002250
 ,-0.00010113,-0.00010267,0.00003301,0.00000922,0.00009833,-0.00005980,
 -0.00010721,-0.00009254,0.00004535,-0.00096429,0.00049900,0.00124580,-
 0.00023465,0.00036766,0.00010425,-0.00168199,0.00026187,-0.00043632,0.
 00300963,-0.00015204,-0.00520396,-0.03893965,0.00448547,-0.01508641,0.
 00014387,0.00002962,0.00002043,-0.00002123,-0.00024918,-0.00006898,0.0
 0002548,0.00001000,-0.00046740,-0.00003657,-0.00006120,-0.00020027,0.0
 0003979,-0.00001470,-0.00002055,0.00005201,-0.00004790,0.00003440,-0.0
 0016770,0.00022263,-0.00012110,0.00005330,-0.00020079,-0.00020541,-0.0
 0002096,-0.00000007,0.00000025,-0.00001206,0.00000515,0.00000366,-0.00
 001522,0.00002576,0.00001747,0.00000948,-0.00000305,0.00001298,-0.0504
 5873,0.00506515,-0.06423590,-0.00088949,-0.00030451,0.00097467,0.00006
 221,0.00013422,-0.00002168,-0.00001065,-0.00002949,-0.00000860,0.00010
 391,0.00016994,-0.00002188,-0.00004327,-0.00014577,-0.00002070,0.00000
 900,0.00000426,-0.00000992,0.00000271,0.00006012,-0.00019044,-0.000051
 21,0.00006401,0.00008535,-0.00001062,-0.00000428,0.00001946,0.01467049
 ,0.00002745,0.00484220,0.06736993,-0.00754489,0.07858193,-0.00016728,-
 0.00009230,0.00005541,-0.00003304,0.00005938,-0.00004602,-0.00009346,-
 0.00033690,0.00009756,-0.00004237,0.00005874,-0.00011745,-0.00000113,0
 .00001278,-0.00000874,0.00021424,0.00009949,-0.00000679,-0.00005904,-0
 .00058557,-0.00007235,0.00016929,0.00023054,0.00006914,-0.00004192,-0.
 00008762,0.00000386,0.00143768,0.00147268,-0.00066546,0.00037716,0.003
 75956,-0.00131839,0.00006085,-0.00003491,0.00009412,-0.00007238,-0.000
 18090,-0.00014105,0.00000224,-0.00002705,0.00001367,-0.00003096,0.0000
 0896,0.00004729,-0.00008521,0.00005250,-0.00007732,-0.00000380,-0.0000
 0703,0.00004749,-0.00004358,-0.00002514,-0.00006748,0.00008823,0.00025
 815,0.00042327,0.00001278,0.00002673,-0.00003351,0.00001873,0.00000970
 ,-0.00000464,-0.00001172,0.00000141,0.00000758,0.00005230,0.00026661,0
 .00008429,-0.12036392,-0.11847827,0.03282012,0.00044524,0.00064999,-0.
 00088759,-0.00000631,0.00004697,-0.00008386,-0.00003094,-0.00000432,0.
 00001556,-0.00005391,-0.00011812,0.00000038,-0.00001120,0.00010309,0.0
 0004031,0.00000117,0.00000345,0.00000239,-0.00005974,-0.00009601,0.000
 16910,0.00008202,-0.00006022,-0.00010427,0.00000172,0.00002369,-0.0000
 0454,0.00684133,0.01185120,-0.00417760,-0.00728959,-0.02477395,0.00840
 456,0.12025150,0.00008662,0.00002526,0.00000565,-0.00013241,-0.0001046
 8,0.00006220,-0.00002186,-0.00000383,0.00004404,0.00000920,-0.00000705
 ,0.00000774,0.00000672,-0.00002765,0.00000734,-0.00005336,0.00003226,-
 0.00000097,0.00073465,0.00104691,-0.00128496,0.00014809,0.00023761,-0.
 00015501,0.00023521,0.00027357,-0.00010067,-0.00068355,-0.00027396,-0.
 00038713,-0.00199717,-0.00418670,0.00172072,-0.00012924,-0.00019509,0.
 00022812,0.00076650,0.00002538,0.00047655,0.00001013,0.00001545,0.0000
 8002,0.00004705,-0.00002226,-0.00013033,-0.00004449,-0.00000686,-0.000
 12244,0.00001679,-0.00003413,0.00005621,-0.00003379,0.00006048,-0.0000
 5199,-0.00020395,0.00050123,0.00023361,-0.00000218,-0.00000216,-0.0000
 0518,-0.00000629,-0.00000387,-0.00000287,0.00000366,0.00000115,-0.0000
 0174,0.00002121,-0.00001376,-0.00004374,-0.11547857,-0.24171730,0.0545
 3397,0.00090346,0.00134356,0.00001038,0.00015497,0.00000669,-0.0000211
 0,-0.00005882,-0.00001502,-0.00007531,0.00001227,0.00000324,-0.0000081
 7,-0.00003540,0.00000994,0.00002419,0.00000626,0.00000482,-0.00000518,
 -0.00009931,0.00000788,0.00001696,0.00004507,-0.00003074,-0.00004373,0
 .00001492,0.00001309,-0.00000520,-0.01324979,-0.01676343,0.00647781,0.
 00273844,0.00393372,-0.00204304,0.12609269,0.25574180,-0.00004638,0.00
 015520,-0.00007014,-0.00004959,-0.00035365,-0.00003669,0.00004466,0.00
 008527,-0.00003780,0.00000943,-0.00003412,0.00002762,0.00002361,-0.000
 03462,0.00000139,-0.00005430,-0.00004269,0.00004597,0.00054340,0.00307
 257,0.00162617,-0.00025467,-0.00025816,0.00016900,-0.00012570,-0.00025
 887,0.00030092,0.00281453,0.00022844,0.00096836,0.01937642,0.03436764,
 -0.01910499,0.00066245,0.00102970,0.00004470,-0.00089936,-0.00023356,0
 .00018430,0.00000873,-0.00001859,-0.00005939,0.00002582,-0.00001614,0.
 00012977,-0.00000555,-0.00007752,0.00019240,-0.00005606,-0.00003839,-0
 .00001863,-0.00024286,-0.00008503,-0.00001114,-0.00023955,-0.00106521,
 -0.00037936,-0.00004129,-0.00001125,0.00002651,-0.00000420,-0.00000736
 ,0.00000161,-0.00000439,0.00000173,0.00000309,0.00003716,-0.00006725,0
 .00002900,0.02620605,0.04395357,-0.06086401,-0.00257933,-0.00216176,-0
 .00565420,-0.00022197,0.00016717,-0.00025450,0.00013599,0.00010764,-0.
 00002426,0.00001432,0.00003189,-0.00001865,-0.00001243,-0.00002576,0.0
 0002406,0.00000029,0.00000561,-0.00000300,0.00009964,-0.00006672,0.000
 16722,0.00000767,0.00000109,-0.00002584,0.00001584,0.00001220,-0.00002
 080,-0.00879373,-0.01150329,0.00494741,-0.00160603,-0.00731063,0.00272
 010,-0.03416684,-0.05956497,0.07511307,-0.00080088,-0.00011595,-0.0002
 4775,0.00012881,-0.00060598,-0.00048613,-0.00054879,0.00041433,-0.0004
 9079,0.00049277,0.00001268,-0.00001692,0.00002683,-0.00107580,0.000668
 11,0.00023928,0.00124125,0.00046349,-0.00067939,0.00086712,0.00058316,
 0.00009081,-0.00021317,-0.00012815,-0.00009883,0.00005109,0.00006850,0
 .00043553,-0.00019427,-0.00027687,-0.00016830,-0.00010472,-0.00022948,
 0.00098513,0.00077822,-0.00066254,0.00008692,0.00005460,0.00000360,0.0
 0001447,-0.00002401,-0.00008388,0.00001976,-0.00000323,-0.00007043,-0.
 00000528,0.00004706,-0.00004896,-0.00002168,0.00000067,-0.00009057,0.0
 0005046,-0.00003988,0.00002046,0.00009156,0.00001725,-0.00000804,-0.00
 006978,-0.00002017,0.00023315,0.00013828,-0.00013314,-0.00012043,0.000
 02967,-0.00002542,-0.00000873,0.00003626,0.00012266,0.00003274,-0.0020
 1260,-0.00296927,0.00106625,0.00028593,-0.00053015,0.00086205,-0.00186
 180,-0.00074724,0.00026718,-0.00002052,-0.00004856,-0.00000041,-0.0002
 3207,-0.00032375,-0.00055431,0.00007891,-0.00001515,0.00057258,0.00003
 904,0.00009666,-0.00002985,0.00350607,-0.00261135,0.00254729,0.0000969
 3,0.00055779,-0.00106436,0.00003413,0.00063895,0.00014166,0.00029328,0
 .00006191,-0.00007454,-0.00366156,0.00059070,-0.00058047,-0.00119169,0
 .00007193,-0.00055774,0.36690554,0.00013501,-0.00111324,0.00004142,0.0
 0039328,0.00009660,-0.00019009,0.00059855,-0.00005860,-0.00020586,-0.0
 0048399,0.00032470,-0.00047652,-0.00049729,0.00030373,0.00004857,0.000
 24236,0.00021983,-0.00068264,0.00053969,-0.00027309,-0.00015341,-0.000
 13904,0.00004621,0.00017411,-0.00007403,0.00000109,-0.00008234,0.00021
 626,-0.00005128,-0.00023985,-0.00070106,0.00061679,-0.00034767,0.00193
 500,0.00113128,0.00101578,0.00008291,0.00004389,0.00003454,-0.00002146
 ,0.00002689,-0.00002622,-0.00007109,0.00003414,-0.00006772,0.00003933,
 -0.00004875,-0.00002940,0.00003217,0.00002192,0.00000631,-0.00011557,0
 .00001480,0.00002447,-0.00001396,0.00007428,0.00004634,-0.00004520,-0.
 00005455,-0.00022656,-0.00012306,0.00004666,0.00010062,-0.00003875,0.0
 0014720,0.00006254,0.00003050,0.00008914,0.00006411,-0.00065234,-0.000
 11632,-0.00004081,-0.00099120,-0.00143783,-0.00008586,-0.00256430,-0.0
 0053227,-0.00159430,-0.00019816,0.00009477,-0.00011957,-0.00078688,-0.
 00173091,0.00044550,-0.00080753,0.00212858,0.00090359,-0.00001719,0.00
 009179,-0.00000001,-0.00295729,-0.00608035,0.01007762,0.00277931,-0.00
 326494,-0.00218184,0.00043708,0.00094908,0.00061815,-0.00068360,0.0000
 4913,-0.00010657,0.00032538,-0.00101204,0.00080339,-0.00006872,0.00011
 614,-0.00000280,0.09737792,0.36002055,0.00144412,-0.00108012,-0.000960
 94,0.00022244,-0.00059293,-0.00061853,-0.00049609,0.00068809,-0.000242
 14,0.00041138,0.00023483,0.00037011,-0.00068383,0.00083167,-0.00037397
 ,-0.00084317,-0.00110974,-0.00169329,0.00076667,-0.00035116,-0.0001042
 1,-0.00005449,0.00013470,0.00013115,0.00006672,-0.00000016,-0.00005227
 ,-0.00001957,0.00003504,0.00029602,0.00049385,-0.00004289,0.00063911,-
 0.00149562,0.00010319,-0.00036342,-0.00006918,-0.00003169,-0.00005783,
 -0.00003599,-0.00000486,0.00003449,0.00000013,0.00002595,0.00004997,0.
 00001003,-0.00002247,0.00009226,0.00000283,-0.00001826,0.00005539,-0.0
 0000572,0.00004420,-0.00004785,-0.00011638,-0.00005933,-0.00001221,0.0
 0009214,0.00000878,0.00040960,0.00003400,-0.00003840,-0.00002033,0.000
 00599,-0.00013462,-0.00007006,-0.00010203,-0.00014061,-0.00005706,-0.0
 0070580,-0.00075626,0.00045721,0.00120946,0.00040892,0.00036145,0.0015
 8833,-0.00040914,0.00069322,0.00017389,-0.00012645,-0.00010399,-0.0003
 7854,-0.00003572,0.00040194,0.00084316,-0.00010144,-0.00061081,-0.0001
 0692,-0.00014437,0.00006157,0.00206288,0.00869551,-0.00306072,-0.00117
 241,0.00049612,0.00133372,0.00006427,0.00036064,-0.00242751,-0.0002156
 4,0.00006217,-0.00005925,-0.00142542,0.00018958,-0.00207878,-0.0003812
 3,0.00004058,-0.00005556,0.19512963,-0.26733565,0.43014275,-0.00006604
 ,-0.00008631,-0.00001670,-0.00005990,0.00009506,0.00005814,0.00002786,
 -0.00000102,0.00001967,-0.00008107,0.00000200,0.00001205,0.00023612,0.
 00007625,-0.00000604,-0.00010997,-0.00000771,0.00009909,0.00005409,0.0
 0000060,0.00002435,-0.00000712,0.00000591,0.00001478,0.00000569,0.0000
 0498,-0.00000353,-0.00001547,0.00000075,0.00002099,0.00016239,0.000025
 98,0.00017091,0.00006074,0.00010148,0.00002766,-0.00000162,0.00000410,
 -0.00000892,-0.00000305,0.00000117,0.00000241,-0.00000047,0.00000027,-
 0.00000032,0.00000348,-0.00000346,0.00000538,0.00000075,0.00000410,0.0
 0000376,-0.00000299,0.00000859,-0.00000508,-0.00000953,-0.00000464,-0.
 00000637,-0.00001056,0.00000847,-0.00003595,-0.00006569,0.00006223,0.0
 0007475,0.00002555,0.00001015,-0.00000395,-0.00002805,-0.00002296,-0.0
 0001822,-0.00033114,-0.00068229,0.00014633,0.00010646,-0.00004799,0.00
 012037,-0.00023000,-0.00003267,-0.00010239,0.00001459,0.00000480,-0.00
 004592,0.00012495,-0.00000214,0.00010527,-0.00024048,0.00015665,-0.000
 03511,-0.00001021,-0.00000520,0.00000943,-0.00073445,-0.00119258,0.000
 85816,0.00043094,-0.00022589,-0.00019122,0.00011496,-0.00011180,0.0001
 2160,-0.00007393,0.00005144,-0.00004441,-0.00009476,0.00059390,-0.0007
 3092,-0.00031443,0.00002539,-0.00010354,-0.27115722,0.05587721,-0.2742
 7803,0.26416428,0.00026178,-0.00003758,0.00006406,-0.00000362,-0.00033
 686,-0.00015003,-0.00049714,0.00031195,-0.00018504,0.00029244,0.000028
 11,0.00026851,0.00003125,-0.00000375,-0.00002322,-0.00026059,-0.000051
 06,-0.00014620,-0.00012337,0.00015378,0.00012645,0.00003601,-0.0000395
 8,-0.00004415,-0.00000938,0.00000787,0.00002364,0.00001782,-0.00001961
 ,-0.00001746,0.00013433,-0.00012020,0.00006544,-0.00010964,-0.00012728
 ,-0.00007213,0.00000287,0.00000844,-0.00000460,0.00000669,-0.00000395,
 -0.00000876,0.00001070,-0.00000732,-0.00000229,-0.00000245,0.00000925,
 -0.00000326,-0.00000599,-0.00000010,-0.00001429,0.00001213,-0.00000691
 ,0.00000108,-0.00000091,-0.00000451,-0.00000393,0.00001131,-0.00001293
 ,0.00009154,0.00009676,-0.00003387,-0.00008341,0.00002422,-0.00012699,
 -0.00006965,-0.00002198,-0.00001572,-0.00002540,-0.00050098,-0.0002524
 7,0.00023559,0.00013030,0.00003695,0.00006773,0.00015340,0.00013502,-0
 .00003482,0.00001089,0.00001672,0.00003882,0.00012499,0.00031935,-0.00
 005229,0.00001225,-0.00028015,-0.00011178,0.00000263,-0.00000391,-0.00
 000440,-0.00100235,-0.00108312,-0.00021567,-0.00021303,0.00002308,0.00
 035461,-0.00001015,-0.00035907,0.00062911,0.00001120,-0.00000685,0.000
 00478,0.00062810,0.00056515,-0.00045506,-0.00023984,0.00001500,-0.0000
 7584,0.02176884,-0.04036166,0.05665812,-0.04895916,0.04565580,-0.00011
 026,-0.00000945,-0.00011023,0.00008787,-0.00007319,-0.00016898,-0.0002
 3019,0.00007903,-0.00008536,0.00016196,-0.00009049,0.00016788,0.000120
 55,-0.00031376,0.00007969,-0.00007796,0.00034943,0.00005735,-0.0001618
 2,0.00006979,0.00003399,0.00002496,-0.00003892,-0.00003411,-0.00000038
 ,0.00000262,0.00002001,-0.00004432,-0.00000907,-0.00002662,0.00008017,
 0.00003617,-0.00009191,0.00024074,0.00000420,0.00010433,-0.00000025,0.
 00000533,0.00000943,0.00001219,0.00000048,-0.00000090,0.00000213,-0.00
 000912,-0.00000468,-0.00000191,0.00001486,-0.00001790,-0.00000137,0.00
 000361,-0.00000805,0.00000402,-0.00001043,0.00000772,0.00001811,0.0000
 0710,-0.00000573,-0.00000509,-0.00001223,0.00009358,0.00006671,-0.0000
 7602,-0.00005732,-0.00000057,0.00001059,0.00001054,0.00003368,0.000015
 49,0.00002214,0.00058581,0.00021779,0.00012936,-0.00009231,-0.00006761
 ,-0.00004696,-0.00024908,-0.00007483,-0.00008481,-0.00002788,0.0000263
 5,-0.00000847,-0.00000537,0.00003596,-0.00024671,-0.00008963,-0.000156
 14,0.00026881,0.00006457,0.00004944,-0.00001433,0.00066000,-0.00001180
 ,0.00066111,-0.00010461,0.00018832,-0.00027708,0.00002229,0.00030910,-
 0.00015525,-0.00002844,-0.00003349,0.00002651,-0.00055248,-0.00027644,
 0.00009841,0.00013751,0.00005780,0.00007182,-0.24105848,0.08425944,-0.
 27931408,0.26147951,-0.08355715,0.29499617,0.00030151,-0.00021285,0.00
 000159,-0.00009806,0.00007507,0.00007675,0.00004710,-0.00012887,0.0000
 9746,-0.00025235,-0.00001484,0.00011848,0.00003571,0.00047392,-0.00026
 529,-0.00017221,-0.00049733,-0.00005437,0.00011453,-0.00019039,-0.0001
 3189,-0.00002275,0.00003407,0.00002871,-0.00001450,0.00000261,-0.00002
 777,-0.00006151,0.00006246,-0.00013593,-0.00023102,0.00007813,-0.00000
 391,-0.00057327,-0.00073315,0.00086086,0.00004714,0.00000897,0.0000216
 0,0.00000025,0.00001451,0.00000840,-0.00001483,-0.00000077,-0.00001011
 ,0.00000674,-0.00002171,-0.00001960,0.00001254,0.00001039,0.00001211,-
 0.00003899,0.00000978,0.00000594,-0.00001561,0.00003022,0.00002549,0.0
 0004615,0.00003793,-0.00017629,-0.00001065,0.00004543,-0.00001185,-0.0
 0001098,-0.00002821,-0.00000795,-0.00000675,-0.00001962,-0.00001884,-0
 .00046840,-0.00021329,-0.00018268,-0.00060878,-0.00040936,-0.00038751,
 0.00162202,0.00176920,-0.00164475,0.00005589,0.00010210,0.00005754,0.0
 0024882,0.00061406,0.00034749,0.00004468,-0.00012227,-0.00061181,-0.00
 003553,-0.00010663,-0.00000810,-0.00583945,0.00300567,-0.00221607,-0.0
 0047015,-0.00197549,0.00277352,-0.00018053,-0.00113716,0.00015697,-0.0
 0024502,0.00002895,0.00002324,0.00077404,-0.00022961,0.00045464,-0.000
 04888,0.00007897,0.00003948,-0.09157597,-0.14899025,0.07796416,0.00811
 529,0.02817966,-0.02096040,0.08952377,-0.00075116,0.00018229,-0.000970
 74,-0.00010922,-0.00009750,0.00021384,-0.00007116,-0.00011184,0.000059
 74,0.00001888,-0.00017638,0.00005355,0.00020218,-0.00043785,0.00004757
 ,0.00011382,-0.00036578,0.00068484,-0.00040437,0.00011717,0.00003917,0
 .00009158,-0.00000574,-0.00011305,0.00003637,0.00002588,0.00003356,-0.
 00015736,0.00010457,0.00003356,0.00010014,-0.00055993,0.00020646,-0.00
 271874,-0.00159295,-0.00081996,-0.00001771,-0.00004533,0.00000058,0.00
 001110,-0.00002560,0.00002597,0.00006358,-0.00002950,0.00005526,-0.000
 03948,0.00004319,0.00002587,-0.00001713,-0.00002414,0.00000718,0.00009
 068,0.00000262,-0.00003154,0.00003341,-0.00004296,-0.00002051,0.000029
 92,0.00012064,-0.00004689,0.00006559,-0.00001005,-0.00005842,0.0000022
 6,-0.00002760,-0.00000963,0.00001098,-0.00000998,-0.00001705,0.0001759
 0,0.00021577,-0.00007365,0.00031498,0.00144180,-0.00054716,0.00470664,
 0.00106835,0.00237374,0.00019677,-0.00014956,0.00012356,0.00092534,0.0
 0171430,-0.00083141,0.00132170,-0.00272007,-0.00113437,0.00000046,-0.0
 0013780,0.00001545,0.00172795,-0.00214340,-0.00799887,-0.00394878,0.00
 522197,0.00299236,-0.00059561,-0.00254059,0.00026564,0.00000617,0.0000
 1346,-0.00002432,-0.00120789,-0.00054602,-0.00033581,0.00012856,-0.000
 00672,0.00009447,-0.11497043,-0.31055337,0.20351817,-0.00573567,-0.003
 99104,-0.00092279,0.12036974,0.31607971,-0.00056538,-0.00084117,0.0001
 4013,0.00004201,0.00015452,-0.00007735,0.00020702,-0.00000834,-0.00013
 276,-0.00016740,0.00016142,-0.00033657,0.00022362,-0.00026923,0.000229
 78,0.00040966,0.00061994,-0.00011070,-0.00017791,0.00019542,0.00013101
 ,-0.00002748,-0.00008491,0.00000536,-0.00004423,-0.00001065,0.00002116
 ,0.00009695,-0.00006171,-0.00014584,0.00007146,0.00027476,-0.00025812,
 0.00242074,0.00048364,0.00033262,0.00005774,0.00004696,0.00001503,0.00
 001348,0.00001506,-0.00003603,-0.00003268,0.00000554,-0.00005650,0.000
 02242,-0.00000772,-0.00007638,0.00001635,0.00002414,-0.00004136,-0.000
 03863,-0.00002832,0.00004538,0.00005704,0.00005873,0.00001445,-0.00014
 201,0.00002055,-0.00034647,-0.00007272,0.00004337,0.00005843,0.0000084
 7,0.00009215,0.00003275,0.00003564,0.00009786,0.00002846,-0.00043183,-
 0.00016739,0.00052334,-0.00066354,-0.00106348,0.00048954,-0.00407185,0
 .00064874,-0.00182941,-0.00011109,0.00015990,0.00006349,-0.00005926,-0
 .00113596,-0.00009840,-0.00123457,0.00116191,0.00108405,0.00003818,0.0
 0020421,-0.00005797,-0.00016833,-0.00543312,-0.00347782,0.00281554,0.0
 0004569,-0.00399216,-0.00035532,-0.00111164,0.00414766,0.00004212,0.00
 000781,-0.00005284,0.00166156,0.00044529,0.00037720,-0.00016849,-0.000
 03018,-0.00015551,0.04423001,0.17546920,-0.14314516,0.01226202,0.02673
 136,-0.01609936,-0.05619932,-0.19691436,0.16278687\\0.00000565,-0.0000
 0111,-0.00000310,-0.00000234,0.00000233,0.00000242,-0.00000021,0.00000
 388,0.00000220,0.00000171,-0.00000130,-0.00000024,-0.00000240,-0.00000
 164,0.00000370,-0.00000608,-0.00001083,0.00000018,-0.00000103,-0.00001
 021,-0.00000347,0.00000179,0.00001044,0.00000222,-0.00000242,-0.000000
 32,0.00000013,0.00000437,-0.00000280,0.00000339,-0.00000972,0.00000085
 ,0.00000292,-0.00001458,-0.00003453,0.00001664,-0.00000118,0.00000085,
 0.00000026,-0.00000014,0.00000141,-0.00000149,0.00000026,0.00000133,0.
 00000030,-0.00000256,-0.00000184,-0.00000239,-0.00000209,-0.00000023,0
 .00000148,0.00000057,0.00000113,-0.00000041,-0.00000022,0.00000108,-0.
 00000016,0.00000117,-0.00000178,0.00000121,0.00000008,-0.00000063,-0.0
 0000161,-0.00000127,-0.00000057,-0.00000013,-0.00000107,-0.00000089,-0
 .00000113,0.00001668,0.00000192,0.00001163,0.00000876,0.00001391,-0.00
 001601,0.00001365,0.00002106,-0.00000558,0.00000853,0.00000618,-0.0000
 0076,-0.00000298,0.00003006,-0.00000729,0.00000334,-0.00001947,0.00000
 224,0.00000095,0.00000244,0.00000350,-0.00001796,-0.00000631,0.0000110
 0,0.00000607,-0.00000912,-0.00001229,0.00000086,-0.00000191,-0.0000009
 2,-0.00000697,-0.00000655,-0.00000278,-0.00000660,0.00002871,-0.000010
 37,0.00000552,-0.00000422,0.00000106,-0.00001192,-0.00001385,0.0000025
 6,0.00001061,0.00000980,-0.00000419,0.00000318,-0.00000726,0.00000526\
 \\@


 YE HAVE SOWN MUCH, AND BRING IN LITTLE.
 YE EAT, BUT YE HAVE NOT ENOUGH.
 YE DRINK, BUT YE ARE NOT FILLED WITH DRINK.
 YE CLOTHE YOU, BUT THERE IS NONE WARM.
 AND HE THAT EARNETH WAGES EARNETH WAGES TO PUT
 IT INTO A BAG WITH HOLES.
                                     HAGGAI I,6
 Job cpu time:       1 days 10 hours 34 minutes 14.3 seconds.
 Elapsed time:       0 days  1 hours 14 minutes 10.5 seconds.
 File lengths (MBytes):  RWF=   1240 Int=      0 D2E=      0 Chk=     32 Scr=      8
 Normal termination of Gaussian 16 at Wed Feb  1 16:34:24 2023.
