 Entering Gaussian System, Link 0=g16
 Input=NicPyrNa4h1wB97XDaVDZ180K.gjf
 Output=NicPyrNa4h1wB97XDaVDZ180K.log
 Initial command:
 /sw/contrib/gaussian/g16/A03/g16/l1.exe "/gscratch/scrubbed/gds001/Gau-3617.inp" -scrdir="/gscratch/scrubbed/gds001/"
 Entering Link 1 = /sw/contrib/gaussian/g16/A03/g16/l1.exe PID=      3619.
  
 Copyright (c) 1988,1990,1992,1993,1995,1998,2003,2009,2016,
            Gaussian, Inc.  All Rights Reserved.
  
 This is part of the Gaussian(R) 16 program.  It is based on
 the Gaussian(R) 09 system (copyright 2009, Gaussian, Inc.),
 the Gaussian(R) 03 system (copyright 2003, Gaussian, Inc.),
 the Gaussian(R) 98 system (copyright 1998, Gaussian, Inc.),
 the Gaussian(R) 94 system (copyright 1995, Gaussian, Inc.),
 the Gaussian 92(TM) system (copyright 1992, Gaussian, Inc.),
 the Gaussian 90(TM) system (copyright 1990, Gaussian, Inc.),
 the Gaussian 88(TM) system (copyright 1988, Gaussian, Inc.),
 the Gaussian 86(TM) system (copyright 1986, Carnegie Mellon
 University), and the Gaussian 82(TM) system (copyright 1983,
 Carnegie Mellon University). Gaussian is a federally registered
 trademark of Gaussian, Inc.
  
 This software contains proprietary and confidential information,
 including trade secrets, belonging to Gaussian, Inc.
  
 This software is provided under written license and may be
 used, copied, transmitted, or stored only in accord with that
 written license.
  
 The following legend is applicable only to US Government
 contracts under FAR:
  
                    RESTRICTED RIGHTS LEGEND
  
 Use, reproduction and disclosure by the US Government is
 subject to restrictions as set forth in subparagraphs (a)
 and (c) of the Commercial Computer Software - Restricted
 Rights clause in FAR 52.227-19.
  
 Gaussian, Inc.
 340 Quinnipiac St., Bldg. 40, Wallingford CT 06492
  
  
 ---------------------------------------------------------------
 Warning -- This program may not be used in any manner that
 competes with the business of Gaussian, Inc. or will provide
 assistance to any competitor of Gaussian, Inc.  The licensee
 of this program is prohibited from giving any competitor of
 Gaussian, Inc. access to this program.  By using this program,
 the user acknowledges that Gaussian, Inc. is engaged in the
 business of creating and licensing software in the field of
 computational chemistry and represents and warrants to the
 licensee that it is not a competitor of Gaussian, Inc. and that
 it will not use this program in any manner prohibited above.
 ---------------------------------------------------------------
  

 Cite this work as:
 Gaussian 16, Revision A.03,
 M. J. Frisch, G. W. Trucks, H. B. Schlegel, G. E. Scuseria, 
 M. A. Robb, J. R. Cheeseman, G. Scalmani, V. Barone, 
 G. A. Petersson, H. Nakatsuji, X. Li, M. Caricato, A. V. Marenich, 
 J. Bloino, B. G. Janesko, R. Gomperts, B. Mennucci, H. P. Hratchian, 
 J. V. Ortiz, A. F. Izmaylov, J. L. Sonnenberg, D. Williams-Young, 
 F. Ding, F. Lipparini, F. Egidi, J. Goings, B. Peng, A. Petrone, 
 T. Henderson, D. Ranasinghe, V. G. Zakrzewski, J. Gao, N. Rega, 
 G. Zheng, W. Liang, M. Hada, M. Ehara, K. Toyota, R. Fukuda, 
 J. Hasegawa, M. Ishida, T. Nakajima, Y. Honda, O. Kitao, H. Nakai, 
 T. Vreven, K. Throssell, J. A. Montgomery, Jr., J. E. Peralta, 
 F. Ogliaro, M. J. Bearpark, J. J. Heyd, E. N. Brothers, K. N. Kudin, 
 V. N. Staroverov, T. A. Keith, R. Kobayashi, J. Normand, 
 K. Raghavachari, A. P. Rendell, J. C. Burant, S. S. Iyengar, 
 J. Tomasi, M. Cossi, J. M. Millam, M. Klene, C. Adamo, R. Cammi, 
 J. W. Ochterski, R. L. Martin, K. Morokuma, O. Farkas, 
 J. B. Foresman, and D. J. Fox, Gaussian, Inc., Wallingford CT, 2016.
 
 ******************************************
 Gaussian 16:  ES64L-G16RevA.03 25-Dec-2016
                15-Nov-2021 
 ******************************************
 %nprocshared=28
 Will use up to   28 processors via shared memory.
 %mem=41GB
 ---------------------------------------------
 # wB97XD/aug-cc-pVDZ opt freq temperature=180
 ---------------------------------------------
 1/18=20,19=15,26=3,38=1,112=180000/1,3;
 2/9=110,12=2,17=6,18=5,40=1/2;
 3/5=16,7=10,11=2,25=1,30=1,71=1,74=-58/1,2,3;
 4//1;
 5/5=2,38=5/2;
 6/7=2,8=2,9=2,10=2,28=1/1;
 7//1,2,3,16;
 1/18=20,19=15,26=3/3(2);
 2/9=110/2;
 99//99;
 2/9=110/2;
 3/5=16,7=10,11=2,25=1,30=1,71=1,74=-58/1,2,3;
 4/5=5,16=3,69=1/1;
 5/5=2,38=5/2;
 7//1,2,3,16;
 1/18=20,19=15,26=3/3(-5);
 2/9=110/2;
 6/7=2,8=2,9=2,10=2,19=2,28=1/1;
 99/9=1/99;
 --------
 Nicotine
 --------
 Symbolic Z-matrix:
 Charge =  1 Multiplicity = 1
 N                     2.3185   -0.35815   0.63332 
 C                     1.95452   0.4296   -0.60407 
 C                     1.81704  -0.67141  -1.66297 
 C                     2.80348  -1.78315  -1.22984 
 C                     3.31855  -1.35943   0.15272 
 C                     0.76978   1.3321   -0.3797 
 C                    -0.51344   0.80443  -0.22962 
 N                    -1.59971   1.54505  -0.00869 
 C                    -1.44995   2.87106   0.06058 
 C                    -0.21649   3.50308  -0.0846 
 C                     0.91091   2.71849  -0.30458 
 O                     0.42529  -2.11282   1.40436 
 O                    -1.35917  -2.47499  -0.50903 
 O                    -3.24388  -0.78172   0.20758 
 H                     4.28828  -0.85018   0.09825 
 H                     3.63884  -1.8904   -1.92823 
 H                     2.29311  -2.74924  -1.17109 
 H                     0.7912   -1.05507  -1.68421 
 H                     2.03756  -0.26676  -2.655 
 H                     3.37777  -2.17215   0.88214 
 H                     2.84112   1.04414  -0.81595 
 H                    -0.68104  -0.26977  -0.29449 
 H                    -2.35534   3.45248   0.237 
 H                    -0.14607   4.58757  -0.02757 
 H                     1.89047   3.1841   -0.42434 
 C                     2.76922   0.45417   1.78059 
 H                     1.48039  -0.91734   0.94175 
 H                     0.0035   -2.18069   2.26406 
 H                    -0.26767  -2.35435   0.73901 
 H                    -2.97163   0.15064   0.14552 
 H                    -4.21175  -0.80937   0.13325 
 H                    -2.16423  -1.93112  -0.30759 
 H                    -1.66778  -3.32327  -0.83419 
 O                    -6.02764  -0.84837   0.03785 
 H                    -6.57069  -0.9408   -0.7488 
 H                    -6.61121  -1.01337   0.78262 
 H                     3.64829   1.0379    1.48633 
 H                     3.02773  -0.21483   2.60686 
 H                     1.95906   1.12307   2.08516 
 
 Add virtual bond connecting atoms H32        and O14        Dist= 3.13D+00.
 Add virtual bond connecting atoms H27        and O12        Dist= 3.14D+00.
 Add virtual bond connecting atoms H29        and O13        Dist= 3.14D+00.
 Add virtual bond connecting atoms O34        and H31        Dist= 3.44D+00.

 GradGradGradGradGradGradGradGradGradGradGradGradGradGradGradGradGradGrad
 Berny optimization.
 Initialization pass.
                           ----------------------------
                           !    Initial Parameters    !
                           ! (Angstroms and Degrees)  !
 --------------------------                            --------------------------
 ! Name  Definition              Value          Derivative Info.                !
 --------------------------------------------------------------------------------
 ! R1    R(1,2)                  1.5114         estimate D2E/DX2                !
 ! R2    R(1,5)                  1.4945         estimate D2E/DX2                !
 ! R3    R(1,26)                 1.4762         estimate D2E/DX2                !
 ! R4    R(1,27)                 1.0537         estimate D2E/DX2                !
 ! R5    R(2,3)                  1.5337         estimate D2E/DX2                !
 ! R6    R(2,6)                  1.5061         estimate D2E/DX2                !
 ! R7    R(2,21)                 1.0994         estimate D2E/DX2                !
 ! R8    R(3,4)                  1.5481         estimate D2E/DX2                !
 ! R9    R(3,18)                 1.0954         estimate D2E/DX2                !
 ! R10   R(3,19)                 1.0939         estimate D2E/DX2                !
 ! R11   R(4,5)                  1.535          estimate D2E/DX2                !
 ! R12   R(4,16)                 1.0941         estimate D2E/DX2                !
 ! R13   R(4,17)                 1.0942         estimate D2E/DX2                !
 ! R14   R(5,15)                 1.0967         estimate D2E/DX2                !
 ! R15   R(5,20)                 1.0936         estimate D2E/DX2                !
 ! R16   R(6,7)                  1.3956         estimate D2E/DX2                !
 ! R17   R(6,11)                 1.3956         estimate D2E/DX2                !
 ! R18   R(7,8)                  1.3332         estimate D2E/DX2                !
 ! R19   R(7,22)                 1.0891         estimate D2E/DX2                !
 ! R20   R(8,9)                  1.3362         estimate D2E/DX2                !
 ! R21   R(9,10)                 1.3935         estimate D2E/DX2                !
 ! R22   R(9,23)                 1.0904         estimate D2E/DX2                !
 ! R23   R(10,11)                1.391          estimate D2E/DX2                !
 ! R24   R(10,24)                1.0883         estimate D2E/DX2                !
 ! R25   R(11,25)                1.0912         estimate D2E/DX2                !
 ! R26   R(12,27)                1.6602         estimate D2E/DX2                !
 ! R27   R(12,28)                0.96           estimate D2E/DX2                !
 ! R28   R(12,29)                0.9906         estimate D2E/DX2                !
 ! R29   R(13,29)                1.6624         estimate D2E/DX2                !
 ! R30   R(13,32)                0.9922         estimate D2E/DX2                !
 ! R31   R(13,33)                0.9595         estimate D2E/DX2                !
 ! R32   R(14,30)                0.9733         estimate D2E/DX2                !
 ! R33   R(14,31)                0.9711         estimate D2E/DX2                !
 ! R34   R(14,32)                1.659          estimate D2E/DX2                !
 ! R35   R(26,37)                1.0955         estimate D2E/DX2                !
 ! R36   R(26,38)                1.0941         estimate D2E/DX2                !
 ! R37   R(26,39)                1.0939         estimate D2E/DX2                !
 ! R38   R(31,34)                1.8188         estimate D2E/DX2                !
 ! R39   R(34,35)                0.9603         estimate D2E/DX2                !
 ! R40   R(34,36)                0.9605         estimate D2E/DX2                !
 ! A1    A(2,1,5)              104.3039         estimate D2E/DX2                !
 ! A2    A(2,1,26)             115.0249         estimate D2E/DX2                !
 ! A3    A(2,1,27)             108.9477         estimate D2E/DX2                !
 ! A4    A(5,1,26)             114.4738         estimate D2E/DX2                !
 ! A5    A(5,1,27)             105.7124         estimate D2E/DX2                !
 ! A6    A(26,1,27)            107.9026         estimate D2E/DX2                !
 ! A7    A(1,2,3)              102.2791         estimate D2E/DX2                !
 ! A8    A(1,2,6)              112.321          estimate D2E/DX2                !
 ! A9    A(1,2,21)             104.7694         estimate D2E/DX2                !
 ! A10   A(3,2,6)              117.5482         estimate D2E/DX2                !
 ! A11   A(3,2,21)             109.9078         estimate D2E/DX2                !
 ! A12   A(6,2,21)             109.1548         estimate D2E/DX2                !
 ! A13   A(2,3,4)              105.3815         estimate D2E/DX2                !
 ! A14   A(2,3,18)             110.4108         estimate D2E/DX2                !
 ! A15   A(2,3,19)             110.0292         estimate D2E/DX2                !
 ! A16   A(4,3,18)             110.5255         estimate D2E/DX2                !
 ! A17   A(4,3,19)             113.0129         estimate D2E/DX2                !
 ! A18   A(18,3,19)            107.5034         estimate D2E/DX2                !
 ! A19   A(3,4,5)              105.5193         estimate D2E/DX2                !
 ! A20   A(3,4,16)             112.2288         estimate D2E/DX2                !
 ! A21   A(3,4,17)             110.6011         estimate D2E/DX2                !
 ! A22   A(5,4,16)             110.2299         estimate D2E/DX2                !
 ! A23   A(5,4,17)             110.6014         estimate D2E/DX2                !
 ! A24   A(16,4,17)            107.6897         estimate D2E/DX2                !
 ! A25   A(1,5,4)              104.4802         estimate D2E/DX2                !
 ! A26   A(1,5,15)             107.2506         estimate D2E/DX2                !
 ! A27   A(1,5,20)             108.6401         estimate D2E/DX2                !
 ! A28   A(4,5,15)             112.3428         estimate D2E/DX2                !
 ! A29   A(4,5,20)             114.4407         estimate D2E/DX2                !
 ! A30   A(15,5,20)            109.2885         estimate D2E/DX2                !
 ! A31   A(2,6,7)              120.8461         estimate D2E/DX2                !
 ! A32   A(2,6,11)             121.5837         estimate D2E/DX2                !
 ! A33   A(7,6,11)             117.5687         estimate D2E/DX2                !
 ! A34   A(6,7,8)              123.8475         estimate D2E/DX2                !
 ! A35   A(6,7,22)             120.5317         estimate D2E/DX2                !
 ! A36   A(8,7,22)             115.6201         estimate D2E/DX2                !
 ! A37   A(7,8,9)              117.9406         estimate D2E/DX2                !
 ! A38   A(8,9,10)             122.9473         estimate D2E/DX2                !
 ! A39   A(8,9,23)             116.3897         estimate D2E/DX2                !
 ! A40   A(10,9,23)            120.6627         estimate D2E/DX2                !
 ! A41   A(9,10,11)            118.5573         estimate D2E/DX2                !
 ! A42   A(9,10,24)            120.2504         estimate D2E/DX2                !
 ! A43   A(11,10,24)           121.1922         estimate D2E/DX2                !
 ! A44   A(6,11,10)            119.1349         estimate D2E/DX2                !
 ! A45   A(6,11,25)            120.5819         estimate D2E/DX2                !
 ! A46   A(10,11,25)           120.2814         estimate D2E/DX2                !
 ! A47   A(27,12,28)           125.4267         estimate D2E/DX2                !
 ! A48   A(27,12,29)           115.6574         estimate D2E/DX2                !
 ! A49   A(28,12,29)           106.0755         estimate D2E/DX2                !
 ! A50   A(29,13,32)           109.9103         estimate D2E/DX2                !
 ! A51   A(29,13,33)           121.9911         estimate D2E/DX2                !
 ! A52   A(32,13,33)           107.0039         estimate D2E/DX2                !
 ! A53   A(30,14,31)           107.5294         estimate D2E/DX2                !
 ! A54   A(30,14,32)           117.5073         estimate D2E/DX2                !
 ! A55   A(31,14,32)           127.238          estimate D2E/DX2                !
 ! A56   A(1,26,37)            109.236          estimate D2E/DX2                !
 ! A57   A(1,26,38)            108.8192         estimate D2E/DX2                !
 ! A58   A(1,26,39)            109.0718         estimate D2E/DX2                !
 ! A59   A(37,26,38)           109.8198         estimate D2E/DX2                !
 ! A60   A(37,26,39)           110.0766         estimate D2E/DX2                !
 ! A61   A(38,26,39)           109.7925         estimate D2E/DX2                !
 ! A62   A(31,34,35)           127.5605         estimate D2E/DX2                !
 ! A63   A(31,34,36)           124.7247         estimate D2E/DX2                !
 ! A64   A(35,34,36)           105.9658         estimate D2E/DX2                !
 ! A65   L(1,27,12,7,-1)       192.5126         estimate D2E/DX2                !
 ! A66   L(12,29,13,2,-1)      169.4051         estimate D2E/DX2                !
 ! A67   L(14,31,34,23,-1)     179.6022         estimate D2E/DX2                !
 ! A68   L(13,32,14,6,-1)      167.7564         estimate D2E/DX2                !
 ! A69   L(1,27,12,7,-2)       173.1472         estimate D2E/DX2                !
 ! A70   L(12,29,13,2,-2)      183.442          estimate D2E/DX2                !
 ! A71   L(14,31,34,23,-2)     181.5285         estimate D2E/DX2                !
 ! A72   L(13,32,14,6,-2)      186.5256         estimate D2E/DX2                !
 ! D1    D(5,1,2,3)             42.7287         estimate D2E/DX2                !
 ! D2    D(5,1,2,6)            169.6718         estimate D2E/DX2                !
 ! D3    D(5,1,2,21)           -71.9651         estimate D2E/DX2                !
 ! D4    D(26,1,2,3)           168.9462         estimate D2E/DX2                !
 ! D5    D(26,1,2,6)           -64.1107         estimate D2E/DX2                !
 ! D6    D(26,1,2,21)           54.2524         estimate D2E/DX2                !
 ! D7    D(27,1,2,3)           -69.7919         estimate D2E/DX2                !
 ! D8    D(27,1,2,6)            57.1512         estimate D2E/DX2                !
 ! D9    D(27,1,2,21)          175.5143         estimate D2E/DX2                !
 ! D10   D(2,1,5,4)            -38.3161         estimate D2E/DX2                !
 ! D11   D(2,1,5,15)            81.1102         estimate D2E/DX2                !
 ! D12   D(2,1,5,20)          -160.8701         estimate D2E/DX2                !
 ! D13   D(26,1,5,4)          -164.8783         estimate D2E/DX2                !
 ! D14   D(26,1,5,15)          -45.452          estimate D2E/DX2                !
 ! D15   D(26,1,5,20)           72.5677         estimate D2E/DX2                !
 ! D16   D(27,1,5,4)            76.5077         estimate D2E/DX2                !
 ! D17   D(27,1,5,15)         -164.066          estimate D2E/DX2                !
 ! D18   D(27,1,5,20)          -46.0463         estimate D2E/DX2                !
 ! D19   D(2,1,12,28)         -125.1741         estimate D2E/DX2                !
 ! D20   D(2,1,12,29)           17.1576         estimate D2E/DX2                !
 ! D21   D(5,1,12,28)          125.6497         estimate D2E/DX2                !
 ! D22   D(5,1,12,29)          -92.0186         estimate D2E/DX2                !
 ! D23   D(26,1,12,28)           6.0857         estimate D2E/DX2                !
 ! D24   D(26,1,12,29)         148.4174         estimate D2E/DX2                !
 ! D25   D(2,1,26,37)          -58.7554         estimate D2E/DX2                !
 ! D26   D(2,1,26,38)         -178.6439         estimate D2E/DX2                !
 ! D27   D(2,1,26,39)           61.5979         estimate D2E/DX2                !
 ! D28   D(5,1,26,37)           62.0464         estimate D2E/DX2                !
 ! D29   D(5,1,26,38)          -57.8421         estimate D2E/DX2                !
 ! D30   D(5,1,26,39)         -177.6004         estimate D2E/DX2                !
 ! D31   D(27,1,26,37)         179.4156         estimate D2E/DX2                !
 ! D32   D(27,1,26,38)          59.527          estimate D2E/DX2                !
 ! D33   D(27,1,26,39)         -60.2312         estimate D2E/DX2                !
 ! D34   D(1,2,3,4)            -30.323          estimate D2E/DX2                !
 ! D35   D(1,2,3,18)            89.0424         estimate D2E/DX2                !
 ! D36   D(1,2,3,19)          -152.4535         estimate D2E/DX2                !
 ! D37   D(6,2,3,4)           -153.8224         estimate D2E/DX2                !
 ! D38   D(6,2,3,18)           -34.4569         estimate D2E/DX2                !
 ! D39   D(6,2,3,19)            84.0472         estimate D2E/DX2                !
 ! D40   D(21,2,3,4)            80.5502         estimate D2E/DX2                !
 ! D41   D(21,2,3,18)         -160.0843         estimate D2E/DX2                !
 ! D42   D(21,2,3,19)          -41.5802         estimate D2E/DX2                !
 ! D43   D(1,2,6,7)            -71.0121         estimate D2E/DX2                !
 ! D44   D(1,2,6,11)           108.5302         estimate D2E/DX2                !
 ! D45   D(3,2,6,7)             47.2472         estimate D2E/DX2                !
 ! D46   D(3,2,6,11)          -133.2105         estimate D2E/DX2                !
 ! D47   D(21,2,6,7)           173.2448         estimate D2E/DX2                !
 ! D48   D(21,2,6,11)           -7.2129         estimate D2E/DX2                !
 ! D49   D(2,3,4,5)              7.5274         estimate D2E/DX2                !
 ! D50   D(2,3,4,16)          -112.55           estimate D2E/DX2                !
 ! D51   D(2,3,4,17)           127.1647         estimate D2E/DX2                !
 ! D52   D(18,3,4,5)          -111.7619         estimate D2E/DX2                !
 ! D53   D(18,3,4,16)          128.1607         estimate D2E/DX2                !
 ! D54   D(18,3,4,17)            7.8754         estimate D2E/DX2                !
 ! D55   D(19,3,4,5)           127.7116         estimate D2E/DX2                !
 ! D56   D(19,3,4,16)            7.6342         estimate D2E/DX2                !
 ! D57   D(19,3,4,17)         -112.6511         estimate D2E/DX2                !
 ! D58   D(3,4,5,1)             18.5579         estimate D2E/DX2                !
 ! D59   D(3,4,5,15)           -97.3727         estimate D2E/DX2                !
 ! D60   D(3,4,5,20)           137.2414         estimate D2E/DX2                !
 ! D61   D(16,4,5,1)           139.9416         estimate D2E/DX2                !
 ! D62   D(16,4,5,15)           24.011          estimate D2E/DX2                !
 ! D63   D(16,4,5,20)         -101.3749         estimate D2E/DX2                !
 ! D64   D(17,4,5,1)          -101.0793         estimate D2E/DX2                !
 ! D65   D(17,4,5,15)          142.9901         estimate D2E/DX2                !
 ! D66   D(17,4,5,20)           17.6042         estimate D2E/DX2                !
 ! D67   D(2,6,7,8)            178.9485         estimate D2E/DX2                !
 ! D68   D(2,6,7,22)            -1.3523         estimate D2E/DX2                !
 ! D69   D(11,6,7,8)            -0.6116         estimate D2E/DX2                !
 ! D70   D(11,6,7,22)          179.0876         estimate D2E/DX2                !
 ! D71   D(2,6,11,10)         -179.4631         estimate D2E/DX2                !
 ! D72   D(2,6,11,25)            1.0174         estimate D2E/DX2                !
 ! D73   D(7,6,11,10)            0.0936         estimate D2E/DX2                !
 ! D74   D(7,6,11,25)         -179.4259         estimate D2E/DX2                !
 ! D75   D(6,7,8,9)              0.631          estimate D2E/DX2                !
 ! D76   D(22,7,8,9)          -179.0816         estimate D2E/DX2                !
 ! D77   D(7,8,9,10)            -0.1361         estimate D2E/DX2                !
 ! D78   D(7,8,9,23)           179.6989         estimate D2E/DX2                !
 ! D79   D(8,9,10,11)           -0.3459         estimate D2E/DX2                !
 ! D80   D(8,9,10,24)          179.5431         estimate D2E/DX2                !
 ! D81   D(23,9,10,11)         179.826          estimate D2E/DX2                !
 ! D82   D(23,9,10,24)          -0.285          estimate D2E/DX2                !
 ! D83   D(9,10,11,6)            0.3501         estimate D2E/DX2                !
 ! D84   D(9,10,11,25)         179.8711         estimate D2E/DX2                !
 ! D85   D(24,10,11,6)        -179.5378         estimate D2E/DX2                !
 ! D86   D(24,10,11,25)         -0.0168         estimate D2E/DX2                !
 ! D87   D(27,12,13,32)        -94.5687         estimate D2E/DX2                !
 ! D88   D(27,12,13,33)        136.4444         estimate D2E/DX2                !
 ! D89   D(28,12,13,32)         46.5356         estimate D2E/DX2                !
 ! D90   D(28,12,13,33)        -82.4513         estimate D2E/DX2                !
 ! D91   D(29,13,14,30)         70.9173         estimate D2E/DX2                !
 ! D92   D(29,13,14,31)       -141.8009         estimate D2E/DX2                !
 ! D93   D(33,13,14,30)       -153.9571         estimate D2E/DX2                !
 ! D94   D(33,13,14,31)         -6.6753         estimate D2E/DX2                !
 ! D95   D(30,14,34,35)         91.0964         estimate D2E/DX2                !
 ! D96   D(30,14,34,36)       -105.8985         estimate D2E/DX2                !
 ! D97   D(32,14,34,35)        -57.7688         estimate D2E/DX2                !
 ! D98   D(32,14,34,36)        105.2363         estimate D2E/DX2                !
 --------------------------------------------------------------------------------
 Trust Radius=3.00D-01 FncErr=1.00D-07 GrdErr=1.00D-06 EigMax=2.50D+02 EigMin=1.00D-04
 Number of steps in this run=    220 maximum allowed number of steps=    234.
 GradGradGradGradGradGradGradGradGradGradGradGradGradGradGradGradGradGrad

                          Input orientation:                          
 ---------------------------------------------------------------------
 Center     Atomic      Atomic             Coordinates (Angstroms)
 Number     Number       Type             X           Y           Z
 ---------------------------------------------------------------------
      1          7           0        2.318502   -0.358145    0.633324
      2          6           0        1.954517    0.429603   -0.604074
      3          6           0        1.817039   -0.671414   -1.662965
      4          6           0        2.803484   -1.783153   -1.229843
      5          6           0        3.318548   -1.359432    0.152719
      6          6           0        0.769784    1.332103   -0.379701
      7          6           0       -0.513437    0.804431   -0.229617
      8          7           0       -1.599711    1.545052   -0.008694
      9          6           0       -1.449951    2.871056    0.060576
     10          6           0       -0.216491    3.503079   -0.084602
     11          6           0        0.910914    2.718489   -0.304575
     12          8           0        0.425293   -2.112817    1.404358
     13          8           0       -1.359169   -2.474986   -0.509025
     14          8           0       -3.243884   -0.781721    0.207580
     15          1           0        4.288282   -0.850183    0.098249
     16          1           0        3.638839   -1.890396   -1.928230
     17          1           0        2.293105   -2.749244   -1.171089
     18          1           0        0.791204   -1.055071   -1.684214
     19          1           0        2.037560   -0.266757   -2.655003
     20          1           0        3.377766   -2.172152    0.882136
     21          1           0        2.841116    1.044142   -0.815954
     22          1           0       -0.681042   -0.269770   -0.294491
     23          1           0       -2.355344    3.452476    0.236999
     24          1           0       -0.146068    4.587566   -0.027568
     25          1           0        1.890466    3.184099   -0.424343
     26          6           0        2.769220    0.454172    1.780587
     27          1           0        1.480393   -0.917341    0.941748
     28          1           0        0.003498   -2.180693    2.264061
     29          1           0       -0.267672   -2.354345    0.739005
     30          1           0       -2.971627    0.150636    0.145521
     31          1           0       -4.211754   -0.809373    0.133249
     32          1           0       -2.164233   -1.931119   -0.307590
     33          1           0       -1.667784   -3.323269   -0.834186
     34          8           0       -6.027637   -0.848368    0.037846
     35          1           0       -6.570690   -0.940803   -0.748798
     36          1           0       -6.611210   -1.013365    0.782620
     37          1           0        3.648287    1.037899    1.486331
     38          1           0        3.027733   -0.214831    2.606863
     39          1           0        1.959064    1.123070    2.085164
 ---------------------------------------------------------------------
                    Distance matrix (angstroms):
                    1          2          3          4          5
     1  N    0.000000
     2  C    1.511352   0.000000
     3  C    2.371191   1.533750   0.000000
     4  C    2.395255   2.451249   1.548106   0.000000
     5  C    1.494540   2.373597   2.454507   1.535027   0.000000
     6  C    2.506329   1.506135   2.599536   3.816215   3.744867
     7  C    3.180586   2.524185   3.108653   4.324119   4.417306
     8  N    4.403037   3.772432   4.395852   5.652989   5.714136
     9  C    4.995700   4.241799   5.117901   6.435725   6.375273
    10  C    4.674469   3.798603   4.904372   6.194843   6.016381
    11  C    3.510931   2.533339   3.762676   4.970183   4.757653
    12  O    2.693995   3.582768   3.663751   3.564195   3.241159
    13  O    4.394456   4.407515   3.830502   4.280875   4.854215
    14  O    5.594713   5.399024   5.396670   6.296008   6.588040
    15  H    2.099629   2.752738   3.039881   2.199747   1.096670
    16  H    3.263839   3.157962   2.207994   1.094104   2.171372
    17  H    2.995648   3.246724   2.187683   1.094199   2.176138
    18  H    2.861700   2.173535   1.095437   2.187653   3.139176
    19  H    3.301572   2.167515   1.093854   2.217471   3.273862
    20  H    2.115318   3.317166   3.341500   2.222965   1.093650
    21  H    2.083252   1.099368   2.170091   2.857677   2.635040
    22  H    3.141005   2.744291   2.876534   3.912433   4.169422
    23  H    6.043405   5.331047   6.166451   7.495128   7.440068
    24  H    5.565154   4.693983   5.846810   7.122597   6.884973
    25  H    3.721474   2.761097   4.050254   5.114296   4.797509
    26  C    1.476217   2.520110   3.745883   3.750931   2.498174
    27  H    1.053685   2.104428   2.637867   2.686263   2.048615
    28  H    3.367525   4.341235   4.581308   4.495033   4.015195
    29  H    3.268682   3.806882   3.598296   3.692509   3.767566
    30  H    5.336879   4.990652   5.184372   6.243643   6.468899
    31  H    6.564901   6.332583   6.292199   7.212477   7.550390
    32  H    4.842982   4.756576   4.390265   5.054766   5.531690
    33  H    5.180350   5.220926   4.456815   4.745602   5.449233
    34  O    8.381703   8.109257   8.028886   8.970483   9.360852
    35  H    9.014848   8.635862   8.441698   9.424229   9.939065
    36  H    8.954963   8.796406   8.782551   9.658108   9.955734
    37  H    2.108290   2.758382   4.024088   4.006199   2.763050
    38  H    2.102000   3.446332   4.461578   4.150932   2.723510
    39  H    2.105002   2.777214   4.157982   4.488702   3.427150
                    6          7          8          9         10
     6  C    0.000000
     7  C    1.395571   0.000000
     8  N    2.407800   1.333161   0.000000
     9  C    2.736685   2.287402   1.336231   0.000000
    10  C    2.402698   2.718806   2.398526   1.393540   0.000000
    11  C    1.395574   2.387051   2.787066   2.393804   1.391047
    12  O    3.894742   3.472956   4.413317   5.491929   5.845270
    13  O    4.363839   3.398221   4.058189   5.377067   6.101074
    14  O    4.574132   3.187846   2.857263   4.072172   5.254521
    15  H    4.167810   5.089376   6.357440   6.839324   6.267161
    16  H    4.584094   5.233429   6.552048   7.247245   6.881287
    17  H    4.427662   4.625111   5.911527   6.864054   6.824227
    18  H    2.720443   2.697348   3.909537   4.845776   4.934667
    19  H    3.056241   3.679338   4.849262   5.420606   5.089142
    20  H    4.546824   5.023694   6.275863   7.029634   6.786863
    21  H    2.136271   3.413836   4.541313   4.745437   3.991266
    22  H    2.162904   1.089132   2.054072   3.253011   3.807132
    23  H    3.826581   3.259217   2.066304   1.090372   2.163488
    24  H    3.400121   3.806297   3.371991   2.157380   1.088267
    25  H    2.165135   3.388139   3.878218   3.389916   2.157879
    26  C    3.071702   3.865157   4.845524   5.157632   4.657170
    27  H    2.703921   2.883046   4.056323   4.869839   4.844886
    28  H    4.462780   3.923852   4.649395   5.699827   6.153851
    29  H    3.989701   3.313079   4.187921   5.400265   5.915265
    30  H    3.958520   2.571162   1.962226   3.118236   4.345412
    31  H    5.446536   4.051368   3.519408   4.601999   5.882757
    32  H    4.388881   3.196004   3.534372   4.868945   5.777017
    33  H    5.274541   4.328502   4.938281   6.262405   7.019057
    34  O    7.150785   5.762784   5.033602   5.898291   7.260820
    35  H    7.693172   6.325006   5.606948   6.434852   7.782358
    36  H    7.831429   6.442968   5.682147   6.499898   7.876723
    37  H    3.443024   4.507653   5.480309   5.602256   4.845766
    38  H    4.051037   4.650204   5.599247   6.004659   5.620661
    39  H    2.744748   3.401912   4.150565   4.333105   3.886562
                   11         12         13         14         15
    11  C    0.000000
    12  O    5.147601   0.000000
    13  O    5.671619   2.641308   0.000000
    14  O    5.456750   4.082518   2.633025   0.000000
    15  H    4.929939   4.268823   5.907831   7.533271   0.000000
    16  H    5.596396   4.634921   5.228381   7.291277   2.368636
    17  H    5.705909   3.244486   3.721915   6.035737   3.032884
    18  H    4.019638   3.285117   2.832196   4.464923   3.930484
    19  H    3.963021   4.741915   4.584677   6.029363   3.603683
    20  H    5.604642   2.998889   4.946270   6.799601   1.786371
    21  H    2.605883   4.553282   5.488248   6.434953   2.553140
    22  H    3.385870   2.739870   2.317080   2.661264   5.018496
    23  H    3.391236   6.329862   6.056709   4.326522   7.916432
    24  H    2.165039   6.875463   7.182134   6.203306   7.017721
    25  H    1.091173   5.792081   6.526296   6.518328   4.722082
    26  C    3.595599   3.496423   5.555707   6.337129   2.615177
    27  H    3.885471   1.660243   3.548818   4.782906   2.932617
    28  H    5.605647   0.960004   3.103784   4.090443   4.982005
    29  H    5.311475   0.990571   1.662377   3.407843   4.840433
    30  H    4.676599   4.271646   3.149975   0.973275   7.328721
    31  H    6.235321   4.981655   3.365119   0.971114   8.500206
    32  H    5.574531   3.109570   0.992217   1.658964   6.555004
    33  H    6.590373   3.295033   0.959457   3.166833   6.516158
    34  O    7.809175   6.716137   4.973887   2.789719  10.316096
    35  H    8.340393   7.413061   5.437937   3.465199  10.892336
    36  H    8.467058   7.148967   5.602555   3.423918  10.922176
    37  H    3.677627   4.507929   6.434005   7.242116   2.429242
    38  H    4.643464   3.438177   5.836263   6.738776   2.878507
    39  H    3.058567   3.645122   5.539539   5.850147   3.642364
                   16         17         18         19         20
    16  H    0.000000
    17  H    1.766885   0.000000
    18  H    2.977639   2.321471   0.000000
    19  H    2.393428   2.903454   1.765580   0.000000
    20  H    2.836495   2.392751   3.811079   4.235332   0.000000
    21  H    3.238060   3.849184   3.059855   2.397136   3.676418
    22  H    4.894579   3.970109   2.171528   3.600392   4.634375
    23  H    8.316533   7.877317   5.823212   6.441582   8.057369
    24  H    7.739640   7.815752   5.955024   5.936000   7.677158
    25  H    5.573956   5.993689   4.556996   4.111677   5.710374
    26  C    4.473093   4.381889   4.265584   4.552969   2.841676
    27  H    3.720551   2.912121   2.718387   3.697339   2.275550
    28  H    5.556553   4.167230   4.180476   5.656655   3.646296
    29  H    4.752917   3.219003   2.946408   4.603413   3.652793
    30  H    7.222501   6.153062   4.354372   5.754051   6.800936
    31  H    8.188414   6.912133   5.328520   6.864598   7.747181
    32  H    6.025262   4.613331   3.375968   5.092692   5.673385
    33  H    5.604490   4.016423   3.451651   5.136849   5.452376
    34  O    9.919276   8.620302   7.035965   8.522741   9.535556
    35  H   10.321205   9.056249   7.421964   8.842507  10.156178
    36  H   10.638675   9.279929   7.802739   9.336803  10.056457
    37  H    4.498247   4.820877   4.753504   4.631114   3.277600
    38  H    4.873196   4.608237   4.911355   5.354472   2.632169
    39  H    5.292443   5.070462   4.507372   4.940340   3.783977
                   21         22         23         24         25
    21  H    0.000000
    22  H    3.795245   0.000000
    23  H    5.823399   4.115931   0.000000
    24  H    4.701135   4.893992   2.497864   0.000000
    25  H    2.374134   4.307984   4.305381   2.504919   0.000000
    26  C    2.663693   4.090764   6.134627   5.371524   3.617517
    27  H    2.964540   2.572827   5.857034   5.821422   4.342370
    28  H    5.285653   3.265947   6.434727   7.147256   6.290402
    29  H    4.861293   2.363142   6.191087   6.985166   6.056839
    30  H    5.959091   2.370049   3.360107   5.263088   5.759044
    31  H    7.353875   3.597230   4.649772   6.758892   7.314083
    32  H    5.845009   2.227130   5.414443   6.829689   6.528374
    33  H    6.277324   3.254042   6.894265   8.096145   7.427984
    34  O    9.108532   5.388070   5.658857   8.009152   8.897795
    35  H    9.619075   5.945135   6.167807   8.506398   9.418665
    36  H    9.804858   6.072890   6.193047   8.592141   9.557926
    37  H    2.439689   4.860495   6.590493   5.411946   3.368499
    38  H    3.651782   4.709128   6.931300   6.330581   4.694072
    39  H    3.033271   3.817450   5.239844   4.571428   3.248103
                   26         27         28         29         30
    26  C    0.000000
    27  H    2.060528   0.000000
    28  H    3.850387   2.350700   0.000000
    29  H    4.265604   2.271963   1.558680   0.000000
    30  H    5.976864   4.647046   4.332975   3.733434   0.000000
    31  H    7.283149   5.750293   4.918255   4.278979   1.568338
    32  H    5.864218   3.983954   3.372645   2.207130   2.278354
    33  H    6.386948   4.342056   3.701054   2.318201   3.837688
    34  O    9.061923   7.562560   6.565494   5.994730   3.216955
    35  H    9.776383   8.226690   7.337206   6.628702   3.865786
    36  H    9.546836   8.093737   6.878349   6.483873   3.873933
    37  H    1.095483   2.969730   4.924295   5.234554   6.812361
    38  H    1.094133   2.379157   3.623275   4.350415   6.494928
    39  H    1.093867   2.387426   3.843318   4.343145   5.386980
                   31         32         33         34         35
    31  H    0.000000
    32  H    2.375920   0.000000
    33  H    3.705049   1.569027   0.000000
    34  O    1.818805   4.027104   5.088604   0.000000
    35  H    2.521876   4.537869   5.451782   0.960343   0.000000
    36  H    2.494130   4.669736   5.690973   0.960453   1.533671
    37  H    8.186787   6.768944   7.257079   9.963916  10.646058
    38  H    7.673488   6.196466   6.599325   9.434031  10.193980
    39  H    6.754502   5.661706   6.437900   8.477351   9.222126
                   36         37         38         39
    36  H    0.000000
    37  H   10.486190   0.000000
    38  H    9.842497   1.791651   0.000000
    39  H    8.928078   1.794249   1.790029   0.000000
 Stoichiometry    C10H23N2O4(1+)
 Framework group  C1[X(C10H23N2O4)]
 Deg. of freedom   111
 Full point group                 C1      NOp   1
 Largest Abelian subgroup         C1      NOp   1
 Largest concise Abelian subgroup C1      NOp   1
                         Standard orientation:                         
 ---------------------------------------------------------------------
 Center     Atomic      Atomic             Coordinates (Angstroms)
 Number     Number       Type             X           Y           Z
 ---------------------------------------------------------------------
      1          7           0        2.318502   -0.358145    0.633324
      2          6           0        1.954517    0.429603   -0.604074
      3          6           0        1.817039   -0.671414   -1.662965
      4          6           0        2.803484   -1.783153   -1.229843
      5          6           0        3.318548   -1.359432    0.152719
      6          6           0        0.769784    1.332103   -0.379701
      7          6           0       -0.513437    0.804431   -0.229617
      8          7           0       -1.599711    1.545052   -0.008694
      9          6           0       -1.449951    2.871056    0.060576
     10          6           0       -0.216491    3.503079   -0.084602
     11          6           0        0.910914    2.718489   -0.304575
     12          8           0        0.425293   -2.112817    1.404358
     13          8           0       -1.359169   -2.474986   -0.509025
     14          8           0       -3.243884   -0.781721    0.207580
     15          1           0        4.288282   -0.850183    0.098249
     16          1           0        3.638839   -1.890396   -1.928230
     17          1           0        2.293105   -2.749244   -1.171089
     18          1           0        0.791204   -1.055071   -1.684214
     19          1           0        2.037560   -0.266757   -2.655003
     20          1           0        3.377766   -2.172152    0.882136
     21          1           0        2.841116    1.044142   -0.815954
     22          1           0       -0.681042   -0.269770   -0.294491
     23          1           0       -2.355344    3.452476    0.236999
     24          1           0       -0.146068    4.587566   -0.027568
     25          1           0        1.890466    3.184099   -0.424343
     26          6           0        2.769220    0.454172    1.780587
     27          1           0        1.480393   -0.917341    0.941748
     28          1           0        0.003498   -2.180693    2.264061
     29          1           0       -0.267672   -2.354345    0.739005
     30          1           0       -2.971627    0.150636    0.145521
     31          1           0       -4.211754   -0.809373    0.133249
     32          1           0       -2.164233   -1.931119   -0.307590
     33          1           0       -1.667784   -3.323269   -0.834186
     34          8           0       -6.027637   -0.848368    0.037846
     35          1           0       -6.570690   -0.940803   -0.748798
     36          1           0       -6.611210   -1.013365    0.782620
     37          1           0        3.648287    1.037899    1.486331
     38          1           0        3.027733   -0.214831    2.606863
     39          1           0        1.959064    1.123070    2.085164
 ---------------------------------------------------------------------
 Rotational constants (GHZ):           0.5421527           0.2898640           0.2179756
 Standard basis: Aug-CC-pVDZ (5D, 7F)
 There are   607 symmetry adapted cartesian basis functions of A   symmetry.
 There are   575 symmetry adapted basis functions of A   symmetry.
   575 basis functions,   941 primitive gaussians,   607 cartesian basis functions
    64 alpha electrons       64 beta electrons
       nuclear repulsion energy      1222.0536274752 Hartrees.
 NAtoms=   39 NActive=   39 NUniq=   39 SFac= 1.00D+00 NAtFMM=   60 NAOKFM=F Big=F
 Integral buffers will be    131072 words long.
 Raffenetti 2 integral format.
 Two-electron integral symmetry is turned on.
 Nuclear repulsion after empirical dispersion term =     1222.0231523420 Hartrees.
 One-electron integrals computed using PRISM.
 NBasis=   575 RedAO= T EigKep=  1.75D-06  NBF=   575
 NBsUse=   575 1.00D-06 EigRej= -1.00D+00 NBFU=   575
 ExpMin= 2.97D-02 ExpMax= 1.17D+04 ExpMxC= 4.01D+02 IAcc=3 IRadAn=         5 AccDes= 0.00D+00
 Harris functional with IExCor= 4639 and IRadAn=       5 diagonalized for initial guess.
 HarFok:  IExCor= 4639 AccDes= 0.00D+00 IRadAn=         5 IDoV= 1 UseB2=F ITyADJ=14
 ICtDFT=  3500011 ScaDFX=  1.000000  1.000000  1.000000  1.000000
 FoFCou: FMM=F IPFlag=           0 FMFlag=      100000 FMFlg1=           0
         NFxFlg=           0 DoJE=T BraDBF=F KetDBF=T FulRan=T
         wScrn=  0.000000 ICntrl=       500 IOpCl=  0 I1Cent=   200000004 NGrid=           0
         NMat0=    1 NMatS0=      1 NMatT0=    0 NMatD0=    1 NMtDS0=    0 NMtDT0=    0
 Petite list used in FoFCou.
 Requested convergence on RMS density matrix=1.00D-08 within 128 cycles.
 Requested convergence on MAX density matrix=1.00D-06.
 Requested convergence on             energy=1.00D-06.
 No special actions if energy rises.
 SCF Done:  E(RwB97XD) =  -805.035569951     A.U. after   15 cycles
            NFock= 15  Conv=0.36D-08     -V/T= 2.0062

 **********************************************************************

            Population analysis using the SCF density.

 **********************************************************************

 Orbital symmetries:
       Occupied  (A) (A) (A) (A) (A) (A) (A) (A) (A) (A) (A) (A)
                 (A) (A) (A) (A) (A) (A) (A) (A) (A) (A) (A) (A)
                 (A) (A) (A) (A) (A) (A) (A) (A) (A) (A) (A) (A)
                 (A) (A) (A) (A) (A) (A) (A) (A) (A) (A) (A) (A)
                 (A) (A) (A) (A) (A) (A) (A) (A) (A) (A) (A) (A)
                 (A) (A) (A) (A)
       Virtual   (A) (A) (A) (A) (A) (A) (A) (A) (A) (A) (A) (A)
                 (A) (A) (A) (A) (A) (A) (A) (A) (A) (A) (A) (A)
                 (A) (A) (A) (A) (A) (A) (A) (A) (A) (A) (A) (A)
                 (A) (A) (A) (A) (A) (A) (A) (A) (A) (A) (A) (A)
                 (A) (A) (A) (A) (A) (A) (A) (A) (A) (A) (A) (A)
                 (A) (A) (A) (A) (A) (A) (A) (A) (A) (A) (A) (A)
                 (A) (A) (A) (A) (A) (A) (A) (A) (A) (A) (A) (A)
                 (A) (A) (A) (A) (A) (A) (A) (A) (A) (A) (A) (A)
                 (A) (A) (A) (A) (A) (A) (A) (A) (A) (A) (A) (A)
                 (A) (A) (A) (A) (A) (A) (A) (A) (A) (A) (A) (A)
                 (A) (A) (A) (A) (A) (A) (A) (A) (A) (A) (A) (A)
                 (A) (A) (A) (A) (A) (A) (A) (A) (A) (A) (A) (A)
                 (A) (A) (A) (A) (A) (A) (A) (A) (A) (A) (A) (A)
                 (A) (A) (A) (A) (A) (A) (A) (A) (A) (A) (A) (A)
                 (A) (A) (A) (A) (A) (A) (A) (A) (A) (A) (A) (A)
                 (A) (A) (A) (A) (A) (A) (A) (A) (A) (A) (A) (A)
                 (A) (A) (A) (A) (A) (A) (A) (A) (A) (A) (A) (A)
                 (A) (A) (A) (A) (A) (A) (A) (A) (A) (A) (A) (A)
                 (A) (A) (A) (A) (A) (A) (A) (A) (A) (A) (A) (A)
                 (A) (A) (A) (A) (A) (A) (A) (A) (A) (A) (A) (A)
                 (A) (A) (A) (A) (A) (A) (A) (A) (A) (A) (A) (A)
                 (A) (A) (A) (A) (A) (A) (A) (A) (A) (A) (A) (A)
                 (A) (A) (A) (A) (A) (A) (A) (A) (A) (A) (A) (A)
                 (A) (A) (A) (A) (A) (A) (A) (A) (A) (A) (A) (A)
                 (A) (A) (A) (A) (A) (A) (A) (A) (A) (A) (A) (A)
                 (A) (A) (A) (A) (A) (A) (A) (A) (A) (A) (A) (A)
                 (A) (A) (A) (A) (A) (A) (A) (A) (A) (A) (A) (A)
                 (A) (A) (A) (A) (A) (A) (A) (A) (A) (A) (A) (A)
                 (A) (A) (A) (A) (A) (A) (A) (A) (A) (A) (A) (A)
                 (A) (A) (A) (A) (A) (A) (A) (A) (A) (A) (A) (A)
                 (A) (A) (A) (A) (A) (A) (A) (A) (A) (A) (A) (A)
                 (A) (A) (A) (A) (A) (A) (A) (A) (A) (A) (A) (A)
                 (A) (A) (A) (A) (A) (A) (A) (A) (A) (A) (A) (A)
                 (A) (A) (A) (A) (A) (A) (A) (A) (A) (A) (A) (A)
                 (A) (A) (A) (A) (A) (A) (A) (A) (A) (A) (A) (A)
                 (A) (A) (A) (A) (A) (A) (A) (A) (A) (A) (A) (A)
                 (A) (A) (A) (A) (A) (A) (A) (A) (A) (A) (A) (A)
                 (A) (A) (A) (A) (A) (A) (A) (A) (A) (A) (A) (A)
                 (A) (A) (A) (A) (A) (A) (A) (A) (A) (A) (A) (A)
                 (A) (A) (A) (A) (A) (A) (A) (A) (A) (A) (A) (A)
                 (A) (A) (A) (A) (A) (A) (A) (A) (A) (A) (A) (A)
                 (A) (A) (A) (A) (A) (A) (A) (A) (A) (A) (A) (A)
                 (A) (A) (A) (A) (A) (A) (A)
 The electronic state is 1-A.
 Alpha  occ. eigenvalues --  -19.39161 -19.38352 -19.37501 -19.34830 -14.68170
 Alpha  occ. eigenvalues --  -14.57527 -10.49150 -10.47779 -10.47712 -10.45627
 Alpha  occ. eigenvalues --  -10.45483 -10.44502 -10.44446 -10.43071 -10.43017
 Alpha  occ. eigenvalues --  -10.42825  -1.25124  -1.23487  -1.22685  -1.21542
 Alpha  occ. eigenvalues --   -1.18923  -1.17311  -1.05790  -1.03785  -1.00609
 Alpha  occ. eigenvalues --   -0.96103  -0.93937  -0.88390  -0.85138  -0.84486
 Alpha  occ. eigenvalues --   -0.82472  -0.77187  -0.74874  -0.74616  -0.73414
 Alpha  occ. eigenvalues --   -0.73145  -0.72507  -0.71427  -0.70566  -0.68948
 Alpha  occ. eigenvalues --   -0.68777  -0.65750  -0.65011  -0.64582  -0.62458
 Alpha  occ. eigenvalues --   -0.62116  -0.61717  -0.61602  -0.60558  -0.60301
 Alpha  occ. eigenvalues --   -0.59484  -0.58221  -0.57461  -0.57113  -0.55949
 Alpha  occ. eigenvalues --   -0.54588  -0.54261  -0.52709  -0.51321  -0.51258
 Alpha  occ. eigenvalues --   -0.49348  -0.48463  -0.46812  -0.46076
 Alpha virt. eigenvalues --   -0.08929  -0.07982  -0.06404  -0.05334  -0.04701
 Alpha virt. eigenvalues --   -0.04538  -0.03719  -0.02940  -0.02847  -0.02449
 Alpha virt. eigenvalues --   -0.02168  -0.01787  -0.00881  -0.00755  -0.00599
 Alpha virt. eigenvalues --   -0.00189  -0.00040   0.00744   0.01079   0.01424
 Alpha virt. eigenvalues --    0.01888   0.02164   0.02544   0.02846   0.03123
 Alpha virt. eigenvalues --    0.03616   0.03923   0.04039   0.04694   0.04982
 Alpha virt. eigenvalues --    0.05103   0.05466   0.05731   0.05862   0.06118
 Alpha virt. eigenvalues --    0.06397   0.06603   0.06794   0.06841   0.07233
 Alpha virt. eigenvalues --    0.07403   0.07637   0.08017   0.08273   0.08747
 Alpha virt. eigenvalues --    0.08948   0.09129   0.09618   0.09758   0.10016
 Alpha virt. eigenvalues --    0.10479   0.10887   0.11253   0.11345   0.11690
 Alpha virt. eigenvalues --    0.11934   0.12258   0.12671   0.12920   0.13058
 Alpha virt. eigenvalues --    0.13286   0.13573   0.13868   0.14406   0.14857
 Alpha virt. eigenvalues --    0.15049   0.15323   0.15873   0.16081   0.16493
 Alpha virt. eigenvalues --    0.16578   0.16776   0.17195   0.17483   0.17810
 Alpha virt. eigenvalues --    0.18283   0.18319   0.18948   0.19224   0.19385
 Alpha virt. eigenvalues --    0.19625   0.19923   0.20199   0.20537   0.20910
 Alpha virt. eigenvalues --    0.21001   0.21440   0.21657   0.21812   0.22272
 Alpha virt. eigenvalues --    0.22533   0.22883   0.23483   0.23751   0.23797
 Alpha virt. eigenvalues --    0.24147   0.24508   0.25037   0.25167   0.25626
 Alpha virt. eigenvalues --    0.25861   0.26652   0.26766   0.27002   0.27523
 Alpha virt. eigenvalues --    0.27653   0.28187   0.28262   0.28723   0.28880
 Alpha virt. eigenvalues --    0.29579   0.29840   0.29973   0.30155   0.31051
 Alpha virt. eigenvalues --    0.31334   0.31709   0.31805   0.32330   0.32568
 Alpha virt. eigenvalues --    0.33089   0.33179   0.33761   0.34333   0.34876
 Alpha virt. eigenvalues --    0.34931   0.35365   0.35920   0.36197   0.36897
 Alpha virt. eigenvalues --    0.37448   0.37660   0.38169   0.38501   0.39108
 Alpha virt. eigenvalues --    0.39451   0.40050   0.40274   0.40955   0.41554
 Alpha virt. eigenvalues --    0.41674   0.41961   0.42393   0.42976   0.43076
 Alpha virt. eigenvalues --    0.43427   0.43664   0.44004   0.44501   0.45073
 Alpha virt. eigenvalues --    0.45369   0.45713   0.46012   0.46812   0.47093
 Alpha virt. eigenvalues --    0.47380   0.47864   0.48202   0.48591   0.48774
 Alpha virt. eigenvalues --    0.49508   0.49552   0.49890   0.50154   0.50800
 Alpha virt. eigenvalues --    0.51280   0.51914   0.52146   0.52374   0.52721
 Alpha virt. eigenvalues --    0.52887   0.53351   0.53745   0.54006   0.54425
 Alpha virt. eigenvalues --    0.54536   0.55052   0.55358   0.55960   0.56205
 Alpha virt. eigenvalues --    0.56544   0.56667   0.57385   0.57982   0.58525
 Alpha virt. eigenvalues --    0.58685   0.59348   0.59809   0.60133   0.60392
 Alpha virt. eigenvalues --    0.60492   0.60903   0.61438   0.61682   0.62100
 Alpha virt. eigenvalues --    0.62210   0.62997   0.63655   0.64004   0.64775
 Alpha virt. eigenvalues --    0.64911   0.65686   0.66111   0.66379   0.67290
 Alpha virt. eigenvalues --    0.67846   0.68009   0.68380   0.68859   0.69330
 Alpha virt. eigenvalues --    0.69447   0.69678   0.70083   0.70414   0.70942
 Alpha virt. eigenvalues --    0.71058   0.72270   0.72845   0.73048   0.73811
 Alpha virt. eigenvalues --    0.74119   0.74478   0.75107   0.75571   0.76337
 Alpha virt. eigenvalues --    0.77326   0.77529   0.77951   0.78252   0.78576
 Alpha virt. eigenvalues --    0.79100   0.80342   0.80390   0.80869   0.81334
 Alpha virt. eigenvalues --    0.81473   0.82385   0.83078   0.83303   0.83554
 Alpha virt. eigenvalues --    0.85325   0.86478   0.86684   0.87026   0.87863
 Alpha virt. eigenvalues --    0.87952   0.88912   0.89574   0.90309   0.91773
 Alpha virt. eigenvalues --    0.92246   0.93178   0.93488   0.93513   0.94198
 Alpha virt. eigenvalues --    0.94548   0.94899   0.95810   0.96354   0.97992
 Alpha virt. eigenvalues --    0.98258   0.98514   0.98973   0.99994   1.00701
 Alpha virt. eigenvalues --    1.01895   1.02596   1.03672   1.04267   1.04602
 Alpha virt. eigenvalues --    1.04787   1.05560   1.06592   1.07534   1.08402
 Alpha virt. eigenvalues --    1.09246   1.10505   1.11187   1.11787   1.12135
 Alpha virt. eigenvalues --    1.13115   1.13539   1.14556   1.15103   1.16027
 Alpha virt. eigenvalues --    1.16633   1.17863   1.18988   1.19446   1.19795
 Alpha virt. eigenvalues --    1.20763   1.20986   1.21397   1.22084   1.23930
 Alpha virt. eigenvalues --    1.24626   1.25692   1.25941   1.28519   1.29292
 Alpha virt. eigenvalues --    1.30292   1.31064   1.32132   1.34162   1.34387
 Alpha virt. eigenvalues --    1.34771   1.36104   1.37085   1.37461   1.38290
 Alpha virt. eigenvalues --    1.38984   1.40252   1.40954   1.41041   1.41425
 Alpha virt. eigenvalues --    1.43489   1.44227   1.45400   1.46146   1.46492
 Alpha virt. eigenvalues --    1.47563   1.47794   1.49017   1.50119   1.50812
 Alpha virt. eigenvalues --    1.51636   1.52549   1.52963   1.53603   1.55309
 Alpha virt. eigenvalues --    1.55857   1.57045   1.57605   1.58093   1.58815
 Alpha virt. eigenvalues --    1.59187   1.60604   1.61563   1.63466   1.64020
 Alpha virt. eigenvalues --    1.64750   1.65202   1.65671   1.66668   1.66900
 Alpha virt. eigenvalues --    1.67344   1.68260   1.69563   1.71050   1.71702
 Alpha virt. eigenvalues --    1.72193   1.73043   1.74162   1.74651   1.75564
 Alpha virt. eigenvalues --    1.75978   1.76805   1.77404   1.77761   1.79507
 Alpha virt. eigenvalues --    1.80415   1.80811   1.81359   1.81525   1.82745
 Alpha virt. eigenvalues --    1.83741   1.84563   1.85276   1.85537   1.87027
 Alpha virt. eigenvalues --    1.87187   1.87796   1.88669   1.89213   1.89585
 Alpha virt. eigenvalues --    1.90736   1.91344   1.93003   1.93628   1.94457
 Alpha virt. eigenvalues --    1.95009   1.96270   1.96975   1.97573   1.97908
 Alpha virt. eigenvalues --    1.98079   1.99128   1.99577   1.99865   2.01272
 Alpha virt. eigenvalues --    2.02498   2.03474   2.04608   2.05348   2.06464
 Alpha virt. eigenvalues --    2.07411   2.08705   2.09386   2.09979   2.11172
 Alpha virt. eigenvalues --    2.11500   2.13283   2.14233   2.14778   2.15547
 Alpha virt. eigenvalues --    2.16341   2.16934   2.17552   2.19458   2.20274
 Alpha virt. eigenvalues --    2.20403   2.22281   2.23248   2.23314   2.24659
 Alpha virt. eigenvalues --    2.25850   2.26721   2.27836   2.28724   2.29857
 Alpha virt. eigenvalues --    2.30748   2.31886   2.32297   2.33431   2.34504
 Alpha virt. eigenvalues --    2.35316   2.36763   2.37054   2.39430   2.41126
 Alpha virt. eigenvalues --    2.41910   2.42764   2.43862   2.45782   2.46788
 Alpha virt. eigenvalues --    2.49094   2.49922   2.50717   2.51504   2.52423
 Alpha virt. eigenvalues --    2.53438   2.54768   2.55464   2.56086   2.57439
 Alpha virt. eigenvalues --    2.59077   2.60171   2.61287   2.62819   2.63562
 Alpha virt. eigenvalues --    2.64834   2.67304   2.68045   2.68203   2.69360
 Alpha virt. eigenvalues --    2.70059   2.71571   2.72882   2.73890   2.74512
 Alpha virt. eigenvalues --    2.75137   2.76648   2.77452   2.79746   2.80953
 Alpha virt. eigenvalues --    2.81844   2.82541   2.84253   2.84894   2.85919
 Alpha virt. eigenvalues --    2.87357   2.89335   2.90574   2.92392   2.95304
 Alpha virt. eigenvalues --    2.96126   3.01078   3.05247   3.06467   3.13211
 Alpha virt. eigenvalues --    3.14568   3.15512   3.18731   3.29640   3.29992
 Alpha virt. eigenvalues --    3.32196   3.36498   3.37690   3.40396   3.42345
 Alpha virt. eigenvalues --    3.42811   3.44377   3.47433   3.47966   3.49766
 Alpha virt. eigenvalues --    3.52137   3.54983   3.58800   3.60606   3.69398
 Alpha virt. eigenvalues --    3.69654   3.78183   3.87027   3.90584   3.92056
 Alpha virt. eigenvalues --    3.97190   4.05247   4.08951   4.15690   4.30548
 Alpha virt. eigenvalues --    4.88498
          Condensed to atoms (all electrons):
               1          2          3          4          5          6
     1  N   12.613445  -2.267655  -0.816953  -0.385841   0.051568   0.879865
     2  C   -2.267655  25.729731  -2.493511   0.365426  -0.476301  -8.301775
     3  C   -0.816953  -2.493511   9.381613  -1.058023   0.626645   0.545986
     4  C   -0.385841   0.365426  -1.058023   6.430809  -0.068237   0.135725
     5  C    0.051568  -0.476301   0.626645  -0.068237   5.490064  -0.170367
     6  C    0.879865  -8.301775   0.545986   0.135725  -0.170367  24.542869
     7  C   -0.901485  -2.237046  -0.932348   0.083976  -0.243940  -4.969033
     8  N    0.011494   0.619105  -0.078121  -0.003692   0.029664  -0.186882
     9  C    0.037019  -0.292161  -0.096414   0.013922  -0.056593  -1.089000
    10  C    0.041483  -0.361740  -0.112526  -0.041031   0.039967   0.661571
    11  C   -0.519041  -1.313733   0.021098  -0.066820  -0.017275  -9.879112
    12  O   -0.240268   0.172137   0.013170   0.053197  -0.021270  -0.041595
    13  O    0.010157   0.011581  -0.062609   0.022437  -0.005460  -0.027986
    14  O   -0.004011   0.000178  -0.005215  -0.003935   0.001588  -0.087111
    15  H    0.105103  -0.041457   0.031852   0.051898  -0.294975   0.110418
    16  H   -0.056644  -0.150452   0.301397  -0.299560   0.178469   0.031355
    17  H    0.115431   0.257004   0.175133  -0.356635   0.039411  -0.132038
    18  H   -0.002117  -0.394906   0.067893   0.342206   0.029424  -0.000240
    19  H    0.175724   0.506662  -1.222303   0.139140  -0.166595   0.205847
    20  H   -1.118554   0.477986   0.048223   0.102594  -0.216490  -0.066479
    21  H   -0.333125  -3.854262   0.750068  -0.104618   0.042397   1.447816
    22  H   -0.172762  -0.436093  -0.005774  -0.099098   0.086938   0.028934
    23  H    0.000751  -0.052346   0.002134   0.000672  -0.001601  -0.259912
    24  H   -0.000272   0.075005   0.009697   0.000487  -0.000242   0.100479
    25  H    0.011449  -0.070799  -0.122758  -0.001981  -0.000131   1.391317
    26  C    0.918986  -0.465688  -0.224813  -0.029781   0.002167   0.372758
    27  H    0.521238   0.099902   0.023295   0.018697  -0.249223  -0.181219
    28  H    0.020462  -0.040246   0.001397   0.003619   0.006571   0.019984
    29  H    0.004799   0.010278   0.041912  -0.040158   0.020484   0.006507
    30  H    0.002183   0.089698  -0.009966   0.007289  -0.006991  -0.036496
    31  H    0.000306  -0.016869   0.002539  -0.002772   0.001781   0.009540
    32  H    0.003388   0.044136   0.019533   0.018401  -0.009511   0.008380
    33  H    0.004956  -0.004841  -0.002232  -0.004312   0.003353   0.001514
    34  O    0.000028  -0.000081   0.000042   0.000025  -0.000008   0.001478
    35  H    0.000006  -0.000001   0.000010   0.000012  -0.000003   0.000288
    36  H   -0.000005   0.000090   0.000015   0.000020  -0.000012   0.000340
    37  H   -0.396906  -0.113236   0.039609   0.015539   0.149853   0.010909
    38  H   -0.299016   0.029237  -0.101779   0.052278   0.015906   0.015602
    39  H    0.110664  -0.053890   0.130680  -0.051098  -0.084282   0.177635
               7          8          9         10         11         12
     1  N   -0.901485   0.011494   0.037019   0.041483  -0.519041  -0.240268
     2  C   -2.237046   0.619105  -0.292161  -0.361740  -1.313733   0.172137
     3  C   -0.932348  -0.078121  -0.096414  -0.112526   0.021098   0.013170
     4  C    0.083976  -0.003692   0.013922  -0.041031  -0.066820   0.053197
     5  C   -0.243940   0.029664  -0.056593   0.039967  -0.017275  -0.021270
     6  C   -4.969033  -0.186882  -1.089000   0.661571  -9.879112  -0.041595
     7  C   18.697373  -0.431757  -2.066782   0.263680  -1.034089  -0.058154
     8  N   -0.431757   7.673836   0.235201   0.245911  -0.461544   0.000757
     9  C   -2.066782   0.235201  11.059894  -2.991349   1.496777  -0.005884
    10  C    0.263680   0.245911  -2.991349  11.843259  -3.998459  -0.005319
    11  C   -1.034089  -0.461544   1.496777  -3.998459  22.767706  -0.008121
    12  O   -0.058154   0.000757  -0.005884  -0.005319  -0.008121   8.036798
    13  O   -0.010624   0.009563  -0.005363   0.005991   0.006863  -0.066866
    14  O    0.008899  -0.048770   0.000530   0.011882   0.022568  -0.000728
    15  H   -0.005628  -0.000953  -0.002568  -0.000244   0.005082  -0.007734
    16  H    0.008424  -0.000914   0.002141  -0.002500  -0.000814  -0.000636
    17  H   -0.005286   0.000809  -0.002442   0.000580   0.002553   0.007362
    18  H   -0.233438  -0.017205  -0.006463  -0.066062   0.088061   0.053439
    19  H    0.293315  -0.005119   0.012288  -0.003068  -0.052851  -0.007782
    20  H    0.009983   0.001789  -0.001374   0.001718   0.022460   0.050407
    21  H    0.101385  -0.032799   0.035093  -0.005917   0.061913   0.014939
    22  H   -1.430884   0.014214  -0.314962   0.473987  -0.520211  -0.121863
    23  H    0.425912  -0.200719  -0.581780   0.146665   0.230502  -0.000103
    24  H   -0.135457  -0.069162   0.436001  -1.245957   0.536411  -0.000133
    25  H    0.001129  -0.004918  -0.200336   0.598751  -2.495883  -0.001315
    26  C   -0.102576   0.018330  -0.060515   0.137658  -0.251676  -0.049110
    27  H   -0.084107  -0.013275   0.060848  -0.074001   0.003017  -0.015564
    28  H    0.002507   0.002558  -0.000451   0.001425  -0.002138   0.384047
    29  H   -0.027275   0.001014  -0.004400   0.003459   0.001357   0.254620
    30  H   -0.159245   0.126073   0.188838  -0.135029   0.070511   0.002974
    31  H    0.045908  -0.017061  -0.029062   0.020632  -0.013882   0.000351
    32  H   -0.056356  -0.021881   0.004140  -0.018375   0.019055   0.010743
    33  H    0.034175  -0.000356   0.000906   0.000949  -0.002955  -0.003762
    34  O    0.002501   0.001392  -0.002419   0.000061  -0.000331  -0.000130
    35  H    0.000051  -0.000056   0.000029  -0.000084  -0.000031  -0.000015
    36  H   -0.000483   0.000077   0.000350  -0.000172  -0.000012  -0.000024
    37  H   -0.001211  -0.000578   0.000029  -0.007253   0.077539  -0.011052
    38  H    0.036635  -0.000421  -0.002468   0.017664  -0.016544   0.016025
    39  H    0.026516  -0.003481  -0.010765  -0.011924  -0.047134   0.010146
              13         14         15         16         17         18
     1  N    0.010157  -0.004011   0.105103  -0.056644   0.115431  -0.002117
     2  C    0.011581   0.000178  -0.041457  -0.150452   0.257004  -0.394906
     3  C   -0.062609  -0.005215   0.031852   0.301397   0.175133   0.067893
     4  C    0.022437  -0.003935   0.051898  -0.299560  -0.356635   0.342206
     5  C   -0.005460   0.001588  -0.294975   0.178469   0.039411   0.029424
     6  C   -0.027986  -0.087111   0.110418   0.031355  -0.132038  -0.000240
     7  C   -0.010624   0.008899  -0.005628   0.008424  -0.005286  -0.233438
     8  N    0.009563  -0.048770  -0.000953  -0.000914   0.000809  -0.017205
     9  C   -0.005363   0.000530  -0.002568   0.002141  -0.002442  -0.006463
    10  C    0.005991   0.011882  -0.000244  -0.002500   0.000580  -0.066062
    11  C    0.006863   0.022568   0.005082  -0.000814   0.002553   0.088061
    12  O   -0.066866  -0.000728  -0.007734  -0.000636   0.007362   0.053439
    13  O    8.112059  -0.038271   0.000010  -0.002276   0.004101   0.025826
    14  O   -0.038271   7.966331   0.000035  -0.000107  -0.000471  -0.000566
    15  H    0.000010   0.000035   2.421415  -0.303449   0.204009  -0.059724
    16  H   -0.002276  -0.000107  -0.303449   2.033721  -0.611428   0.196133
    17  H    0.004101  -0.000471   0.204009  -0.611428   2.182451  -0.424729
    18  H    0.025826  -0.000566  -0.059724   0.196133  -0.424729   2.747583
    19  H   -0.002075  -0.000296   0.065301  -0.295213   0.169935  -0.815250
    20  H    0.001484   0.000247  -0.657593   0.153749  -0.327237   0.060766
    21  H    0.002693   0.000276  -0.155179   0.063168  -0.058569   0.276695
    22  H   -0.004847   0.080804  -0.006882  -0.003272   0.025007  -0.475904
    23  H    0.000284   0.004662   0.000005   0.000068   0.000000  -0.002208
    24  H    0.000098  -0.000031  -0.000395   0.000016   0.000008   0.003763
    25  H    0.000289   0.000518   0.001755   0.001402  -0.000384  -0.023345
    26  C   -0.003800  -0.000932   0.047210  -0.018334   0.028482  -0.101960
    27  H   -0.004337  -0.007986  -0.058968   0.006355  -0.024288   0.104632
    28  H   -0.000578  -0.000223   0.001074  -0.000654  -0.000736  -0.005060
    29  H    0.009693   0.000592  -0.002006   0.003083   0.000018   0.008076
    30  H   -0.007967   0.292361  -0.000203   0.000138  -0.000582   0.014286
    31  H    0.009378   0.324679   0.000050   0.000009  -0.000321  -0.001807
    32  H    0.250047  -0.021743   0.000536  -0.001960   0.001549   0.025533
    33  H    0.328570  -0.004107  -0.000182   0.000707  -0.000682  -0.005026
    34  O   -0.001012  -0.066586  -0.000001   0.000002   0.000016   0.000046
    35  H    0.000036   0.005053   0.000000   0.000000   0.000003   0.000095
    36  H   -0.000403   0.003725  -0.000001   0.000001   0.000006  -0.000017
    37  H   -0.000356   0.000041   0.022333   0.003308  -0.001984  -0.003595
    38  H   -0.000287  -0.000071   0.008788  -0.003485   0.010225  -0.022181
    39  H   -0.001058  -0.000076   0.007932  -0.000445  -0.004326   0.013683
              19         20         21         22         23         24
     1  N    0.175724  -1.118554  -0.333125  -0.172762   0.000751  -0.000272
     2  C    0.506662   0.477986  -3.854262  -0.436093  -0.052346   0.075005
     3  C   -1.222303   0.048223   0.750068  -0.005774   0.002134   0.009697
     4  C    0.139140   0.102594  -0.104618  -0.099098   0.000672   0.000487
     5  C   -0.166595  -0.216490   0.042397   0.086938  -0.001601  -0.000242
     6  C    0.205847  -0.066479   1.447816   0.028934  -0.259912   0.100479
     7  C    0.293315   0.009983   0.101385  -1.430884   0.425912  -0.135457
     8  N   -0.005119   0.001789  -0.032799   0.014214  -0.200719  -0.069162
     9  C    0.012288  -0.001374   0.035093  -0.314962  -0.581780   0.436001
    10  C   -0.003068   0.001718  -0.005917   0.473987   0.146665  -1.245957
    11  C   -0.052851   0.022460   0.061913  -0.520211   0.230502   0.536411
    12  O   -0.007782   0.050407   0.014939  -0.121863  -0.000103  -0.000133
    13  O   -0.002075   0.001484   0.002693  -0.004847   0.000284   0.000098
    14  O   -0.000296   0.000247   0.000276   0.080804   0.004662  -0.000031
    15  H    0.065301  -0.657593  -0.155179  -0.006882   0.000005  -0.000395
    16  H   -0.295213   0.153749   0.063168  -0.003272   0.000068   0.000016
    17  H    0.169935  -0.327237  -0.058569   0.025007   0.000000   0.000008
    18  H   -0.815250   0.060766   0.276695  -0.475904  -0.002208   0.003763
    19  H    2.632688  -0.037845  -0.325368   0.175351   0.000953  -0.002115
    20  H   -0.037845   2.928462   0.110500   0.004487  -0.000060   0.000038
    21  H   -0.325368   0.110500   4.117394  -0.021984   0.000049   0.004311
    22  H    0.175351   0.004487  -0.021984   5.226434   0.045973  -0.035295
    23  H    0.000953  -0.000060   0.000049   0.045973   1.991607  -0.113958
    24  H   -0.002115   0.000038   0.004311  -0.035295  -0.113958   2.202658
    25  H    0.010765  -0.002050  -0.145333   0.026185  -0.002549  -0.152157
    26  C    0.068524  -0.210125  -0.154391   0.118339   0.001077  -0.010481
    27  H   -0.027080   0.141174   0.007746  -0.244697  -0.001369   0.004390
    28  H    0.000570  -0.003143  -0.000998   0.000110   0.000066   0.000078
    29  H   -0.003049   0.004449   0.003288  -0.009806   0.000103  -0.000067
    30  H   -0.004982   0.000388   0.001260  -0.214838  -0.061529   0.008874
    31  H    0.000626   0.000049  -0.000329   0.034625   0.007177  -0.000601
    32  H   -0.004521  -0.000620   0.000566  -0.108165  -0.000453   0.000611
    33  H    0.001935   0.000345  -0.000412  -0.002732   0.000008  -0.000035
    34  O   -0.000002  -0.000001  -0.000001  -0.008967  -0.000110   0.000039
    35  H   -0.000004  -0.000001  -0.000001  -0.000649  -0.000121   0.000002
    36  H    0.000000  -0.000002   0.000002  -0.000152  -0.000003  -0.000001
    37  H    0.006591   0.031996   0.060681   0.014218   0.000109   0.001261
    38  H    0.003698  -0.015750  -0.007077   0.043009   0.000430  -0.001498
    39  H    0.000487   0.001618   0.024231  -0.022008  -0.002411  -0.001273
              25         26         27         28         29         30
     1  N    0.011449   0.918986   0.521238   0.020462   0.004799   0.002183
     2  C   -0.070799  -0.465688   0.099902  -0.040246   0.010278   0.089698
     3  C   -0.122758  -0.224813   0.023295   0.001397   0.041912  -0.009966
     4  C   -0.001981  -0.029781   0.018697   0.003619  -0.040158   0.007289
     5  C   -0.000131   0.002167  -0.249223   0.006571   0.020484  -0.006991
     6  C    1.391317   0.372758  -0.181219   0.019984   0.006507  -0.036496
     7  C    0.001129  -0.102576  -0.084107   0.002507  -0.027275  -0.159245
     8  N   -0.004918   0.018330  -0.013275   0.002558   0.001014   0.126073
     9  C   -0.200336  -0.060515   0.060848  -0.000451  -0.004400   0.188838
    10  C    0.598751   0.137658  -0.074001   0.001425   0.003459  -0.135029
    11  C   -2.495883  -0.251676   0.003017  -0.002138   0.001357   0.070511
    12  O   -0.001315  -0.049110  -0.015564   0.384047   0.254620   0.002974
    13  O    0.000289  -0.003800  -0.004337  -0.000578   0.009693  -0.007967
    14  O    0.000518  -0.000932  -0.007986  -0.000223   0.000592   0.292361
    15  H    0.001755   0.047210  -0.058968   0.001074  -0.002006  -0.000203
    16  H    0.001402  -0.018334   0.006355  -0.000654   0.003083   0.000138
    17  H   -0.000384   0.028482  -0.024288  -0.000736   0.000018  -0.000582
    18  H   -0.023345  -0.101960   0.104632  -0.005060   0.008076   0.014286
    19  H    0.010765   0.068524  -0.027080   0.000570  -0.003049  -0.004982
    20  H   -0.002050  -0.210125   0.141174  -0.003143   0.004449   0.000388
    21  H   -0.145333  -0.154391   0.007746  -0.000998   0.003288   0.001260
    22  H    0.026185   0.118339  -0.244697   0.000110  -0.009806  -0.214838
    23  H   -0.002549   0.001077  -0.001369   0.000066   0.000103  -0.061529
    24  H   -0.152157  -0.010481   0.004390   0.000078  -0.000067   0.008874
    25  H    3.031885   0.062139  -0.001665   0.000038  -0.000495  -0.003005
    26  C    0.062139   4.580738  -0.247064   0.009391   0.000125  -0.009684
    27  H   -0.001665  -0.247064   1.111555  -0.015073   0.004597   0.019493
    28  H    0.000038   0.009391  -0.015073   0.520889  -0.082227  -0.001617
    29  H   -0.000495   0.000125   0.004597  -0.082227   0.507203   0.000353
    30  H   -0.003005  -0.009684   0.019493  -0.001617   0.000353   0.761082
    31  H    0.000220   0.001583  -0.005079   0.000593   0.000787  -0.216156
    32  H   -0.001829  -0.006250   0.030104  -0.001923   0.003216   0.031699
    33  H    0.000165   0.001863  -0.009550   0.001527  -0.000375  -0.004163
    34  O   -0.000013  -0.000002   0.000056   0.000096  -0.000340   0.021411
    35  H   -0.000000  -0.000002   0.000015  -0.000002   0.000073  -0.001495
    36  H   -0.000003  -0.000008   0.000085  -0.000021  -0.000050  -0.001335
    37  H   -0.000032   0.227226  -0.123388   0.002779  -0.000652  -0.000192
    38  H    0.008089   0.226146   0.006364  -0.003111   0.001079  -0.001411
    39  H   -0.015978   0.000482   0.003909   0.001183  -0.000980  -0.000553
              31         32         33         34         35         36
     1  N    0.000306   0.003388   0.004956   0.000028   0.000006  -0.000005
     2  C   -0.016869   0.044136  -0.004841  -0.000081  -0.000001   0.000090
     3  C    0.002539   0.019533  -0.002232   0.000042   0.000010   0.000015
     4  C   -0.002772   0.018401  -0.004312   0.000025   0.000012   0.000020
     5  C    0.001781  -0.009511   0.003353  -0.000008  -0.000003  -0.000012
     6  C    0.009540   0.008380   0.001514   0.001478   0.000288   0.000340
     7  C    0.045908  -0.056356   0.034175   0.002501   0.000051  -0.000483
     8  N   -0.017061  -0.021881  -0.000356   0.001392  -0.000056   0.000077
     9  C   -0.029062   0.004140   0.000906  -0.002419   0.000029   0.000350
    10  C    0.020632  -0.018375   0.000949   0.000061  -0.000084  -0.000172
    11  C   -0.013882   0.019055  -0.002955  -0.000331  -0.000031  -0.000012
    12  O    0.000351   0.010743  -0.003762  -0.000130  -0.000015  -0.000024
    13  O    0.009378   0.250047   0.328570  -0.001012   0.000036  -0.000403
    14  O    0.324679  -0.021743  -0.004107  -0.066586   0.005053   0.003725
    15  H    0.000050   0.000536  -0.000182  -0.000001   0.000000  -0.000001
    16  H    0.000009  -0.001960   0.000707   0.000002   0.000000   0.000001
    17  H   -0.000321   0.001549  -0.000682   0.000016   0.000003   0.000006
    18  H   -0.001807   0.025533  -0.005026   0.000046   0.000095  -0.000017
    19  H    0.000626  -0.004521   0.001935  -0.000002  -0.000004   0.000000
    20  H    0.000049  -0.000620   0.000345  -0.000001  -0.000001  -0.000002
    21  H   -0.000329   0.000566  -0.000412  -0.000001  -0.000001   0.000002
    22  H    0.034625  -0.108165  -0.002732  -0.008967  -0.000649  -0.000152
    23  H    0.007177  -0.000453   0.000008  -0.000110  -0.000121  -0.000003
    24  H   -0.000601   0.000611  -0.000035   0.000039   0.000002  -0.000001
    25  H    0.000220  -0.001829   0.000165  -0.000013  -0.000000  -0.000003
    26  C    0.001583  -0.006250   0.001863  -0.000002  -0.000002  -0.000008
    27  H   -0.005079   0.030104  -0.009550   0.000056   0.000015   0.000085
    28  H    0.000593  -0.001923   0.001527   0.000096  -0.000002  -0.000021
    29  H    0.000787   0.003216  -0.000375  -0.000340   0.000073  -0.000050
    30  H   -0.216156   0.031699  -0.004163   0.021411  -0.001495  -0.001335
    31  H    0.641351  -0.028910   0.006118  -0.027306   0.004723  -0.001824
    32  H   -0.028910   0.567232  -0.151978   0.014428  -0.001720   0.000234
    33  H    0.006118  -0.151978   0.622777  -0.001287   0.000069  -0.000072
    34  O   -0.027306   0.014428  -0.001287   7.675191   0.345734   0.353783
    35  H    0.004723  -0.001720   0.000069   0.345734   0.572461  -0.072953
    36  H   -0.001824   0.000234  -0.000072   0.353783  -0.072953   0.578492
    37  H    0.000028  -0.000763   0.000156   0.000002   0.000000   0.000000
    38  H    0.000231  -0.001106   0.000081  -0.000002  -0.000000  -0.000002
    39  H    0.000205   0.000074   0.000064   0.000001  -0.000001  -0.000003
              37         38         39
     1  N   -0.396906  -0.299016   0.110664
     2  C   -0.113236   0.029237  -0.053890
     3  C    0.039609  -0.101779   0.130680
     4  C    0.015539   0.052278  -0.051098
     5  C    0.149853   0.015906  -0.084282
     6  C    0.010909   0.015602   0.177635
     7  C   -0.001211   0.036635   0.026516
     8  N   -0.000578  -0.000421  -0.003481
     9  C    0.000029  -0.002468  -0.010765
    10  C   -0.007253   0.017664  -0.011924
    11  C    0.077539  -0.016544  -0.047134
    12  O   -0.011052   0.016025   0.010146
    13  O   -0.000356  -0.000287  -0.001058
    14  O    0.000041  -0.000071  -0.000076
    15  H    0.022333   0.008788   0.007932
    16  H    0.003308  -0.003485  -0.000445
    17  H   -0.001984   0.010225  -0.004326
    18  H   -0.003595  -0.022181   0.013683
    19  H    0.006591   0.003698   0.000487
    20  H    0.031996  -0.015750   0.001618
    21  H    0.060681  -0.007077   0.024231
    22  H    0.014218   0.043009  -0.022008
    23  H    0.000109   0.000430  -0.002411
    24  H    0.001261  -0.001498  -0.001273
    25  H   -0.000032   0.008089  -0.015978
    26  C    0.227226   0.226146   0.000482
    27  H   -0.123388   0.006364   0.003909
    28  H    0.002779  -0.003111   0.001183
    29  H   -0.000652   0.001079  -0.000980
    30  H   -0.000192  -0.001411  -0.000553
    31  H    0.000028   0.000231   0.000205
    32  H   -0.000763  -0.001106   0.000074
    33  H    0.000156   0.000081   0.000064
    34  O    0.000002  -0.000002   0.000001
    35  H    0.000000  -0.000000  -0.000001
    36  H    0.000000  -0.000002  -0.000003
    37  H    1.883150  -0.347842  -0.412453
    38  H   -0.347842   2.053510  -0.601249
    39  H   -0.412453  -0.601249   1.923912
 Mulliken charges:
               1
     1  N   -1.125851
     2  C    0.950935
     3  C    1.111403
     4  C    0.759222
     5  C    1.273254
     6  C    0.722128
     7  C    1.084835
     8  N   -0.392124
     9  C    0.239546
    10  C    0.563717
    11  C    1.269178
    12  O   -0.413683
    13  O   -0.564986
    14  O   -0.433735
    15  H   -0.486663
    16  H   -0.231505
    17  H   -0.271954
    18  H   -0.396337
    19  H   -0.494885
    20  H   -0.497586
    21  H   -0.926106
    22  H   -1.136768
    23  H   -0.577974
    24  H   -0.615101
    25  H   -0.899136
    26  C    1.123969
    27  H    0.220463
    28  H    0.177234
    29  H    0.280717
    30  H    0.238530
    31  H    0.248493
    32  H    0.384457
    33  H    0.188821
    34  O   -0.307730
    35  H    0.148480
    36  H    0.140331
    37  H   -0.125862
    38  H   -0.119697
    39  H   -0.108031
 Sum of Mulliken charges =   1.00000
 Mulliken charges with hydrogens summed into heavy atoms:
               1
     1  N   -0.905388
     2  C    0.024829
     3  C    0.220181
     4  C    0.255763
     5  C    0.289005
     6  C    0.722128
     7  C   -0.051933
     8  N   -0.392124
     9  C   -0.338428
    10  C   -0.051383
    11  C    0.370043
    12  O    0.044268
    13  O    0.008293
    14  O    0.053288
    26  C    0.770378
    34  O   -0.018918
 Electronic spatial extent (au):  <R**2>=           5213.8815
 Charge=              1.0000 electrons
 Dipole moment (field-independent basis, Debye):
    X=              2.1409    Y=             -0.3449    Z=              1.1589  Tot=              2.4588
 Quadrupole moment (field-independent basis, Debye-Ang):
   XX=            -20.6213   YY=            -69.4054   ZZ=            -85.9070
   XY=              7.1109   XZ=              2.9549   YZ=              1.2673
 Traceless Quadrupole moment (field-independent basis, Debye-Ang):
   XX=             38.0232   YY=            -10.7608   ZZ=            -27.2625
   XY=              7.1109   XZ=              2.9549   YZ=              1.2673
 Octapole moment (field-independent basis, Debye-Ang**2):
  XXX=           -308.0314  YYY=             -3.4652  ZZZ=             25.6727  XYY=            -31.9693
  XXY=            -76.5526  XXZ=              5.3282  XZZ=             -5.8370  YZZ=            -29.7692
  YYZ=             -2.5121  XYZ=             -0.8701
 Hexadecapole moment (field-independent basis, Debye-Ang**3):
 XXXX=           -932.0757 YYYY=          -1592.3962 ZZZZ=           -499.5532 XXXY=            431.6706
 XXXZ=             37.0405 YYYX=             67.6886 YYYZ=             29.7977 ZZZX=             16.2307
[...]
 04119,0.00001050,-0.00003856,0.00003836,-0.00001618,0.00001647,-0.0000
 0318,0.00000844,0.00000236,0.00000684,-0.00000589,-0.00000602,0.000007
 93,0.00001123,0.00000415,-0.00003778,-0.00001732,0.00000034,0.00007654
 ,-0.00000102,0.00005537,-0.00009273,0.00005481,-0.00010749,0.00001591,
 0.00001547,0.00005255,-0.00003297,-0.00001323,-0.00000915,0.00002957,0
 .00000720,-0.00008109,-0.00008629,-0.00004235,-0.00013222,-0.00012557,
 -0.00007528,-0.00000536,0.00004088,0.00011013,-0.00000196,-0.00000296,
 -0.00000125,0.00000120,-0.00000218,0.00000004,0.00000510,-0.00000725,0
 .00000209,0.00000281,0.00001537,-0.00000147,-0.00000406,0.00000117,0.0
 0000302,0.00000683,-0.00000070,0.00000061,0.00000236,-0.00000473,-0.00
 000038,0.00001470,0.00001885,0.00000175,-0.00001413,-0.00002757,-0.000
 02255,-0.00000783,-0.00000355,-0.00000328,0.00000438,-0.00000012,-0.00
 000205,-0.00000091,0.00000472,0.00000721,0.00004740,0.00005820,-0.0000
 2281,0.00000590,0.00002077,0.00000652,0.00009726,0.00005012,0.00009338
 ,0.00008890,0.00016269,-0.00025012,0.00007261,-0.00051771,0.00014564,0
 .00004692,0.00013694,0.00006638,0.00010871,0.00000400,0.00001366,-0.03
 876087,-0.00690286,-0.04454723,0.03464898,0.00673349,0.00002396,0.0000
 0183,-0.00002098,-0.00000959,0.00000825,0.00001752,0.00000292,-0.00000
 270,0.00000364,-0.00000125,-0.00000406,-0.00000331,-0.00000949,0.00000
 824,0.00001091,0.00001246,0.00000946,-0.00000153,-0.00001823,0.0000081
 9,0.00000423,0.00007168,0.00009637,-0.00007200,0.00001340,-0.00002670,
 0.00000190,0.00001784,0.00001229,-0.00000046,0.00000872,0.00000662,-0.
 00000021,0.00005255,0.00000463,-0.00002768,0.00016796,-0.00014143,-0.0
 0020252,0.00238957,0.00016701,-0.00057776,0.00000089,-0.00000033,-0.00
 000181,0.00000345,0.00000100,-0.00000068,-0.00000130,0.00000017,0.0000
 0516,-0.00000059,-0.00000264,0.00001573,0.00001068,0.00000522,-0.00000
 187,-0.00000258,-0.00000082,-0.00000231,0.00000344,-0.00000098,-0.0000
 0172,-0.00003098,-0.00000555,0.00002153,-0.00001029,-0.00000612,0.0000
 1719,0.00000471,0.00000282,0.00000566,0.00000365,0.00000144,0.00000227
 ,-0.00000081,0.00000364,0.00000193,-0.00004055,-0.00002860,0.00002072,
 -0.00002873,0.00000693,0.00000146,-0.00002255,0.00001046,0.00001958,-0
 .00010442,-0.00020185,0.00013544,-0.00358187,-0.00029841,0.00081220,-0
 .00025779,0.00026892,0.00022423,0.00001657,-0.00001233,0.00008851,-0.2
 0300122,-0.03123402,-0.37573319,0.23124823,0.03650759,0.40263177,0.000
 03040,0.00001167,-0.00001172,-0.00000775,0.00000143,0.00000737,-0.0000
 0365,-0.00000263,0.00000283,-0.00000216,-0.00000264,-0.00000044,-0.000
 01106,0.00000543,0.00000658,0.00001712,0.00000684,0.00000002,-0.000018
 61,0.00000850,0.00000292,0.00002262,-0.00000124,-0.00003459,-0.0000166
 0,-0.00002330,0.00000738,0.00000602,-0.00000616,-0.00000030,-0.0000000
 4,-0.00000212,0.00000091,0.00007485,0.00002474,-0.00001635,0.00005526,
 0.00008263,-0.00004244,-0.00165207,0.00017417,-0.00129521,0.00000171,0
 .00000235,-0.00000119,0.00000316,0.00000123,-0.00000133,-0.00000310,0.
 00000233,0.00000303,0.00000042,-0.00000283,0.00000430,0.00000175,0.000
 00137,-0.00000090,-0.00000433,-0.00000090,-0.00000041,0.00000338,0.000
 00202,-0.00000046,0.00000721,-0.00000980,-0.00000208,-0.00000485,-0.00
 001309,0.00000795,0.00000124,0.00000065,0.00000112,0.00000359,-0.00000
 103,0.00000008,-0.00000403,-0.00000300,-0.00000447,-0.00004920,-0.0000
 3997,0.00002279,-0.00004390,0.00000222,0.00000141,-0.00004004,-0.00001
 018,0.00000142,-0.00014411,0.00007286,0.00001706,0.00234654,-0.0006463
 6,0.00342502,-0.00002238,-0.00013559,0.00000233,-0.00004870,0.00001077
 ,0.00005299,-0.23499946,-0.06324454,0.26093241,0.01263545,0.00388738,-
 0.02692712,0.22187046,-0.00000508,-0.00004050,0.00001032,-0.00003407,0
 .00003388,-0.00001392,0.00001262,-0.00000322,0.00000950,0.00000207,0.0
 0000519,-0.00000631,-0.00000657,0.00000890,0.00000806,0.00001028,-0.00
 003481,-0.00000459,0.00000763,0.00006387,0.00000636,0.00004410,-0.0000
 8055,-0.00004607,-0.00010636,0.00002702,0.00002303,0.00005315,-0.00003
 085,-0.00000916,-0.00000804,0.00002733,0.00000543,-0.00006742,-0.00009
 432,-0.00000699,-0.00005479,-0.00014278,0.00004153,0.00023999,-0.00006
 833,-0.00007944,-0.00000190,-0.00000259,-0.00000023,0.00000084,-0.0000
 0249,-0.00000005,0.00000344,-0.00000612,0.00000044,0.00000133,0.000009
 63,-0.00000109,-0.00000224,0.00000044,0.00000185,0.00000657,-0.0000002
 3,0.00000061,0.00000256,-0.00000396,0.00000065,0.00001029,0.00001223,-
 0.00000236,-0.00001490,-0.00003010,0.00000799,-0.00000706,-0.00000364,
 0.00000172,0.00000450,-0.00000013,-0.00000127,-0.00000229,0.00000822,0
 .00000831,0.00004780,0.00006097,-0.00002363,0.00002083,0.00003841,0.00
 000298,0.00006708,0.00004646,0.00003636,0.00006256,0.00015353,0.000271
 97,-0.00018335,-0.00031365,-0.00027750,-0.00002904,0.00015670,-0.00004
 584,0.00005842,0.00002599,-0.00005524,-0.06153619,-0.01742618,0.075015
 60,0.00155350,0.00046583,-0.00516116,0.05985038,0.01713941,-0.00000263
 ,0.00000442,-0.00001751,0.00001399,-0.00001775,0.00002305,0.00000640,0
 .00000330,-0.00000396,0.00000150,-0.00000042,0.00000146,-0.00000088,0.
 00000209,0.00000245,-0.00000636,-0.00001657,0.00000204,0.00002511,0.00
 000465,-0.00000165,-0.00007183,-0.00008910,-0.00005572,-0.00003093,0.0
 0003888,0.00001462,-0.00000776,-0.00001612,-0.00000153,-0.00000903,0.0
 0000014,0.00000044,-0.00004790,-0.00000428,-0.00011131,-0.00020578,0.0
 0011534,-0.00007979,-0.00226785,-0.00012316,-0.00086678,-0.00000090,-0
 .00000179,-0.00000034,-0.00000166,0.00000039,-0.00000097,0.00000229,-0
 .00000139,0.00000161,0.00000154,0.00000025,0.00000257,0.00000204,0.000
 00057,-0.00000216,-0.00000069,0.00000160,-0.00000067,-0.00000472,-0.00
 000039,-0.00000302,0.00003276,0.00000434,0.00000416,0.00000939,-0.0000
 0145,0.00001864,-0.00000416,-0.00000378,0.00000613,-0.00000219,-0.0000
 0245,0.00000295,0.00000424,0.00001332,0.00001342,-0.00000546,-0.000010
 38,0.00001455,-0.00002374,-0.00000067,0.00004012,0.00010172,0.00001259
 ,0.00012901,0.00011567,0.00019285,0.00010571,0.00347666,0.00013929,0.0
 0143958,0.00021520,-0.00019509,-0.00001680,0.00003388,-0.00002333,0.00
 003587,0.20556560,0.06172697,-0.34134834,0.02924909,0.00796386,-0.0273
 9261,-0.23615863,-0.06971307,0.36803705,-0.01051856,-0.00697157,0.0006
 9230,-0.00010619,-0.00052327,0.00138592,0.00034918,0.00020233,-0.00017
 397,0.00017697,0.00015449,0.00005710,0.00097756,0.00130945,0.00038436,
 -0.00002088,0.00014808,-0.00013573,-0.00007868,-0.00007610,-0.00002682
 ,0.00017775,0.00000842,-0.00003650,0.00001308,0.00002398,0.00000392,0.
 00000772,0.00010444,0.00005177,-0.00021622,-0.00031204,0.00009785,-0.0
 0036769,-0.00040048,0.00023135,-0.00006897,0.00002059,-0.00008750,-0.0
 0000375,0.00005235,-0.00001452,0.00045063,-0.00029437,-0.00002537,-0.0
 0002929,-0.00002615,-0.00004179,-0.00000170,0.00003542,0.00006133,-0.0
 0000954,0.00015747,0.00010988,-0.00000817,-0.00003925,-0.00005506,0.00
 001820,0.00003196,0.00002075,0.00008487,0.00032706,-0.00084237,0.00003
 044,0.00002300,0.00001102,0.00001731,0.00000864,-0.00000447,-0.0000082
 8,0.00000283,-0.00000082,0.00007749,0.00016480,-0.00016207,-0.22648202
 ,-0.11697870,0.06197726,0.00154690,0.00053406,-0.00205903,-0.00006609,
 -0.00001421,-0.00005131,0.00010431,0.00001878,0.00016768,-0.00003148,-
 0.00005224,0.00001796,0.00000254,0.00000197,0.00000271,0.00003210,-0.0
 0003941,0.00000199,-0.00000244,0.00000445,0.00000426,-0.00000154,0.000
 00660,-0.00000421,-0.00000031,-0.00000330,0.00000225,0.00000142,-0.000
 00295,0.00000147,0.24070794,-0.01810677,-0.01466352,0.00243245,0.00097
 292,0.00039246,0.00116941,0.00023883,0.00018790,0.00007835,0.00036261,
 0.00023319,-0.00007955,-0.00222806,0.00042438,0.00125786,-0.00004479,-
 0.00007371,0.00000941,0.00009522,-0.00007354,-0.00001535,-0.00010102,0
 .00007030,0.00002415,-0.00002439,-0.00002055,-0.00000026,0.00000010,-0
 .00003060,-0.00004980,0.00001744,0.00013856,-0.00005958,-0.00050610,-0
 .00039680,0.00045733,-0.00006241,-0.00001013,-0.00008364,-0.00002485,0
 .00000715,0.00000971,0.00082290,-0.00035698,-0.00060581,-0.00000875,-0
 .00000214,-0.00007310,0.00010495,0.00004748,0.00014822,0.00004306,0.00
 003543,0.00010390,0.00001966,-0.00004297,-0.00002836,0.00009849,-0.000
 01570,-0.00004594,0.00002739,0.00053523,-0.00041166,0.00001460,-0.0000
 0262,0.00001458,-0.00000727,-0.00000152,0.00000549,0.00001262,-0.00000
 194,0.00000492,-0.00001286,-0.00005285,0.00011484,-0.11321850,-0.12360
 383,0.03941036,0.00103958,-0.00014466,-0.00364831,-0.00002690,-0.00016
 586,-0.00004723,0.00010059,0.00005064,0.00014649,0.00000947,0.00000757
 ,-0.00000748,0.00001341,0.00000315,0.00000038,0.00002721,-0.00002222,-
 0.00000375,-0.00001009,0.00000975,0.00000519,-0.00000707,0.00000008,0.
 00000023,0.00000077,0.00000012,0.00000090,0.00000047,-0.00000076,-0.00
 000148,0.12975409,0.13338522,-0.02820459,-0.02108550,0.00303301,-0.001
 27301,-0.00178616,0.00234744,0.00019953,0.00006375,-0.00004811,0.00007
 470,0.00017125,0.00012006,-0.00198792,0.00093880,0.00108162,0.00022761
 ,0.00019847,-0.00016757,-0.00006098,-0.00013101,0.00002604,0.00006297,
 0.00001515,0.00001232,-0.00001063,0.00003171,-0.00000906,0.00000415,0.
 00002512,-0.00000002,-0.00000093,0.00000562,0.00005504,-0.00051735,-0.
 00045125,0.00093673,-0.00002152,0.00002256,0.00000338,0.00001906,0.000
 03379,0.00001518,0.00058984,0.00011615,0.00008311,-0.00000283,0.000021
 02,-0.00000307,0.00000156,0.00006560,0.00003277,0.00007816,0.00007724,
 0.00006190,0.00005296,0.00001335,-0.00002438,0.00024449,-0.00006219,-0
 .00010879,0.00045519,0.00039177,-0.00043972,0.00003171,-0.00000302,0.0
 0000350,0.00000480,0.00000322,-0.00000414,0.00000404,-0.00000102,0.000
 00690,-0.00003372,0.00004685,-0.00000910,0.07061195,0.04653574,-0.0732
 4503,0.00029235,-0.00152089,-0.00515963,-0.00027994,-0.00031295,-0.000
 10930,-0.00000487,0.00001134,-0.00001351,-0.00002455,-0.00002584,-0.00
 001033,-0.00001950,-0.00000269,-0.00000193,0.00001579,-0.00002697,-0.0
 0001013,0.00000011,-0.00000233,-0.00000209,0.00001086,0.00000248,0.000
 00386,-0.00000150,-0.00000067,-0.00000217,-0.00000297,-0.00000087,-0.0
 0000109,-0.06514959,-0.03917853,0.07788160,-0.00468340,0.00661821,-0.0
 0967054,-0.00040814,-0.00171755,-0.00009221,0.00034284,0.00049506,-0.0
 0056309,-0.00021393,0.00002752,0.00004820,0.00039255,0.00019473,0.0007
 1907,0.00027071,-0.00016129,-0.00016672,0.00021569,0.00007418,-0.00000
 955,-0.00008585,0.00001998,0.00006465,-0.00000865,-0.00001540,-0.00002
 931,0.00005028,-0.00000059,-0.00001792,-0.00018167,-0.00020947,0.00003
 625,0.00032277,0.00010480,0.00075802,0.00012306,-0.00002967,0.00018613
 ,0.00000622,-0.00006440,0.00003391,-0.00002998,-0.00031677,0.00006652,
 0.00001554,-0.00001898,0.00002976,0.00000580,-0.00002774,-0.00003874,-
 0.00000852,0.00006804,0.00005499,-0.00003566,-0.00021145,-0.00011877,0
 .00032433,-0.00000277,0.00003290,0.00019042,0.00023935,-0.00030311,0.0
 0000147,0.00002121,-0.00003142,0.00000132,0.00000397,0.00000136,-0.000
 01338,0.00000558,0.00000509,-0.00000681,0.00004372,-0.00000670,-0.0637
 8440,0.03828420,-0.04771406,0.00004902,0.00077860,-0.00088179,-0.00029
 823,-0.00024489,-0.00013112,-0.00024854,-0.00000098,-0.00036192,0.0000
 4601,0.00006126,-0.00002513,-0.00000830,-0.00000243,-0.00000870,-0.000
 03696,0.00005933,-0.00000863,0.00001168,-0.00001152,-0.00001104,0.0000
 0695,-0.00000642,0.00001027,-0.00000002,0.00000308,-0.00000464,-0.0000
 0449,0.00000269,-0.00000521,0.00791759,-0.01521169,0.01985743,0.063526
 84,-0.00682126,0.01339248,-0.02278931,-0.00054548,-0.00351541,-0.00145
 755,-0.00007750,0.00065090,-0.00133003,-0.00015159,0.00021363,0.000142
 32,-0.00054017,0.00154017,-0.00051094,0.00024163,-0.00004422,0.0000742
 1,-0.00027103,-0.00001279,0.00011074,0.00011716,-0.00006025,-0.0000515
 8,0.00000267,0.00009072,0.00002330,-0.00010297,0.00012685,0.00005133,-
 0.00003387,-0.00002708,0.00010310,0.00013136,-0.00004567,0.00017488,0.
 00001847,0.00001895,0.00004300,0.00003572,0.00003628,-0.00000913,0.000
 09205,-0.00019151,0.00017736,0.00001807,-0.00000447,0.00002947,0.00002
 319,-0.00002662,0.00001283,-0.00003017,0.00000553,-0.00001421,-0.00012
 617,-0.00029374,-0.00029219,-0.00006754,-0.00013384,0.00008163,0.00022
 189,0.00009983,-0.00021967,0.00002030,0.00000877,-0.00001378,0.0000117
 0,0.00000331,-0.00000663,-0.00000768,0.00000387,0.00000425,0.00003259,
 0.00009438,-0.00011517,0.04256233,-0.16247794,0.13805295,0.00025245,0.
 00094387,0.00031034,-0.00003510,0.00006071,0.00001643,-0.00000203,-0.0
 0001547,-0.00009099,-0.00003982,-0.00004485,-0.00000018,-0.00002166,-0
 .00000260,0.00000549,-0.00000506,-0.00001081,-0.00000435,0.00000229,-0
 .00000305,-0.00000238,0.00001157,0.00000282,-0.00000241,-0.00000157,-0
 .00000131,-0.00000015,-0.00000092,-0.00000049,0.00000301,0.00582604,-0
 .00836379,0.01015045,-0.04213169,0.16750456,-0.00793962,0.01546448,-0.
 02574852,-0.00048627,-0.00499037,-0.00069840,-0.00031996,0.00099700,-0
 .00107554,-0.00022659,0.00002219,-0.00005532,-0.00047060,0.00157887,0.
 00080019,0.00043721,-0.00022502,0.00014037,-0.00017689,0.00005616,0.00
 009498,0.00000372,-0.00005925,0.00000807,0.00000796,0.00008653,-0.0000
 3406,-0.00009317,0.00006302,0.00007887,-0.00000773,-0.00000802,0.00011
 658,0.00005540,-0.00016055,0.00032644,0.00004199,-0.00002107,0.0000789
 2,0.00000246,-0.00001553,0.00000555,0.00022156,0.00001806,-0.00014314,
 0.00004732,-0.00001601,0.00007877,0.00005476,-0.00003086,0.00002600,0.
 00001398,-0.00010300,-0.00008089,-0.00005795,-0.00038841,-0.00026539,0
 .00010735,-0.00069055,-0.00012920,0.00002058,-0.00013618,0.00026386,0.
 00002168,0.00001773,-0.00002126,0.00000376,0.00000277,-0.00000374,-0.0
 0001101,0.00000758,-0.00000427,0.00003415,-0.00001329,-0.00005895,-0.0
 4781131,0.12634343,-0.20240513,0.00035979,0.00081227,-0.00015190,-0.00
 013378,-0.00006948,0.00002608,-0.00009577,-0.00002799,-0.00013104,0.00
 000847,0.00000889,-0.00000307,-0.00000075,0.00000008,-0.00000266,-0.00
 001064,0.00001607,-0.00000006,-0.00000196,0.00000216,-0.00000190,0.000
 00059,-0.00000193,0.00000058,0.00000041,0.00000090,-0.00000046,-0.0000
 0015,0.00000090,0.00000024,-0.00227010,0.00399624,-0.00426819,0.056417
 02,-0.13650221,0.22412628,0.01137287,-0.01120915,-0.00539222,0.0001456
 4,0.00032625,0.00020633,-0.00003248,-0.00004385,0.00016410,0.00072801,
 -0.00030346,-0.00048073,-0.00133749,-0.00064394,-0.00179985,-0.0003425
 0,-0.00027815,-0.00097644,0.00032730,-0.00012936,-0.00014183,-0.000216
 14,0.00023570,0.00014852,-0.00017710,-0.00015394,0.00004019,0.00024373
 ,-0.00007265,-0.00013441,-0.00026156,0.00046852,-0.00042902,-0.0000255
 4,0.00014380,0.00005971,0.00000077,0.00001592,0.00003115,0.00002483,0.
 00001535,0.00002701,0.00044246,0.00003546,-0.00022667,-0.00010586,-0.0
 0009138,-0.00019524,0.00003441,-0.00001734,0.00003331,-0.00000480,0.00
 000095,-0.00001863,0.00000450,0.00000446,0.00001720,-0.00004996,0.0000
 0917,-0.00001182,-0.00011737,0.00006721,-0.00006485,0.00000842,-0.0000
 1531,-0.00001795,-0.00000598,-0.00000885,0.00000331,0.00001467,-0.0000
 0671,0.00001411,-0.00008148,-0.00010238,0.00019728,-0.21126495,0.13117
 680,0.06004802,0.00081033,0.00004040,0.00042472,0.00002223,-0.00002513
 ,0.00001186,-0.00002351,-0.00000104,-0.00003554,-0.00001899,-0.0000072
 5,-0.00001875,-0.00001884,-0.00000118,-0.00000722,0.00000481,-0.000010
 92,-0.00000736,0.00000349,-0.00000380,-0.00000469,0.00000939,0.0000014
 2,0.00000160,-0.00000067,0.00000021,-0.00000094,-0.00000204,-0.0000004
 1,-0.00000027,-0.01467222,0.01582515,0.00475714,-0.00376415,0.00139180
 ,0.00225412,0.21832578,0.01390388,-0.01518501,-0.00730231,0.00043410,0
 .00003454,0.00086573,0.00011155,-0.00019287,0.00013169,0.00102945,-0.0
 0033824,-0.00021449,-0.00306769,0.00010476,-0.00228182,0.00013567,0.00
 031672,0.00061195,-0.00001359,-0.00000099,0.00008103,-0.00015159,-0.00
 001543,0.00005952,0.00005022,0.00000122,-0.00006082,0.00004150,-0.0001
 1319,-0.00005754,0.00015055,0.00005508,0.00035231,-0.00006542,0.000234
 40,0.00045908,0.00004647,0.00000632,0.00012747,0.00001035,-0.00003576,
 0.00004322,0.00018404,0.00005078,-0.00002753,-0.00017022,-0.00013646,-
 0.00029827,0.00000523,-0.00004141,-0.00005575,-0.00001085,0.00003315,-
 0.00002166,-0.00002413,0.00005259,-0.00000366,-0.00000666,0.00022156,0
 .00013744,-0.00012673,0.00004126,-0.00014813,-0.00002017,-0.00004140,-
 0.00002461,-0.00000832,-0.00000571,0.00000125,0.00000605,-0.00001347,0
 .00001188,-0.00007241,-0.00003673,0.00006735,0.12341436,-0.15052758,-0
 .04654598,0.00101806,-0.00005125,-0.00035300,-0.00012556,-0.00032290,-
 0.00005167,-0.00016152,-0.00000940,-0.00019417,0.00002790,0.00005341,-
 0.00003031,-0.00001276,-0.00000048,-0.00000515,-0.00001266,0.00001064,
 -0.00001776,0.00001500,-0.00000850,-0.00001271,0.00000751,-0.00000490,
 0.00001027,0.00000096,0.00000234,-0.00000413,-0.00000316,0.00000169,-0
 .00000522,-0.01318724,0.01251807,0.00565044,0.01328019,-0.00952175,-0.
 00603560,-0.13663236,0.16286486,0.02187896,-0.02033828,-0.01193427,0.0
 0128642,-0.00074984,0.00093334,0.00010829,-0.00024476,0.00017294,0.000
 92589,-0.00105363,-0.00026237,-0.00370174,-0.00046496,-0.00295593,-0.0
 0016783,-0.00011044,-0.00066365,-0.00055678,-0.00014372,0.00010315,0.0
 0025527,-0.00003709,-0.00006861,-0.00002950,0.00001923,-0.00000516,0.0
 0002490,0.00016294,0.00003500,-0.00028230,0.00057869,-0.00019868,-0.00
 028843,-0.00012583,-0.00004711,-0.00009440,0.00011727,-0.00003830,0.00
 008747,0.00016276,-0.00003327,-0.00021581,0.00017942,-0.00005476,-0.00
 017012,-0.00014569,-0.00029246,-0.00005028,-0.00003171,-0.00021816,-0.
 00004153,0.00002580,-0.00001785,-0.00000840,0.00005063,0.00000925,0.00
 007897,-0.00043112,-0.00005647,0.00003051,0.00009395,-0.00018343,0.000
 04472,-0.00002318,0.00000609,0.00002401,-0.00000353,-0.00000057,0.0000
 0688,-0.00001403,0.00001480,0.00005711,0.00006764,-0.00008891,0.050844
 89,-0.04178322,-0.06777668,0.00067901,0.00061473,0.00052172,-0.0000004
 8,0.00002630,0.00005100,0.00013097,-0.00005404,0.00012938,-0.00014832,
 -0.00016131,0.00003375,-0.00005267,-0.00000469,0.00000976,0.00004258,-
 0.00011342,-0.00001119,0.00001598,-0.00000540,-0.00000613,0.00002640,0
 .00001586,-0.00000972,-0.00000310,-0.00000736,0.00000169,0.00000082,-0
 .00000482,0.00000859,0.00585811,-0.00505058,-0.00206710,-0.01812125,0.
 01384577,0.00911131,-0.05847525,0.05514165,0.07584900\\0.00000098,-0.0
 0000636,-0.00000763,0.00000134,-0.00000172,-0.00000033,0.00000103,0.00
 000167,-0.00000326,-0.00000295,0.00000168,0.00000136,0.00000094,-0.000
 00117,-0.00000105,-0.00000191,0.00000402,-0.00000351,-0.00000179,0.000
 00120,0.00001023,0.00000107,0.00000132,-0.00000151,-0.00000065,-0.0000
 0124,0.00000024,0.00000107,-0.00000056,0.00000208,-0.00000082,0.000001
 06,0.00000285,-0.00000287,0.00000054,-0.00000144,-0.00000150,-0.000000
 06,-0.00000165,-0.00000414,-0.00000596,0.,-0.00000036,0.00000112,-0.00
 000027,0.00000069,0.00000094,-0.00000174,-0.00000011,0.00000008,-0.000
 00144,0.00000275,0.00000119,-0.00000064,-0.00000091,0.00000212,-0.0000
 0152,-0.00000016,-0.00000097,-0.00000009,-0.00000128,-0.00000053,-0.00
 000148,-0.00000394,0.00000010,-0.00000196,0.00000047,-0.00000052,0.000
 00317,0.00000009,0.00000020,0.00000292,-0.00000020,-0.00000013,0.00000
 166,-0.00000093,-0.00000313,-0.00000026,0.00000272,0.00000223,0.000009
 07,0.00000122,-0.00000135,-0.00000229,0.00000348,-0.00000125,-0.000004
 84,-0.00000006,0.00000076,0.00000114,0.00000305,0.00000312,0.00000346,
 0.00000142,0.00000296,-0.00000057,0.00000087,0.00000137,-0.00000030,-0
 .00000280,0.00000120,-0.00000549,-0.00000225,0.,0.00000113,0.00000422,
 -0.00000074,0.00000230,0.00000282,0.00000092,-0.00000030,0.00000067,-0
 .00000327,0.00000138,-0.00000128,-0.00000084,0.00000058\\\@


 FRICTION IS A DRAG,
 AND ENTROPY AIN'T WHAT IT USED TO BE.
 Job cpu time:       1 days  7 hours  0 minutes 10.5 seconds.
 Elapsed time:       0 days  1 hours  6 minutes 31.3 seconds.
 File lengths (MBytes):  RWF=   1240 Int=      0 D2E=      0 Chk=     32 Scr=      8
 Normal termination of Gaussian 16 at Mon Nov 15 15:02:56 2021.
