 Entering Gaussian System, Link 0=g16
 Input=NicPyWa4h3bLMid.gjf
 Output=NicPyWa4h3bLMid.log
 Initial command:
 /sw/contrib/gaussian/g16/A03/g16/l1.exe "/gscratch/scrubbed/gds001/Gau-29134.inp" -scrdir="/gscratch/scrubbed/gds001/"
 Entering Link 1 = /sw/contrib/gaussian/g16/A03/g16/l1.exe PID=     29135.
  
 Copyright (c) 1988,1990,1992,1993,1995,1998,2003,2009,2016,
            Gaussian, Inc.  All Rights Reserved.
  
 This is part of the Gaussian(R) 16 program.  It is based on
 the Gaussian(R) 09 system (copyright 2009, Gaussian, Inc.),
 the Gaussian(R) 03 system (copyright 2003, Gaussian, Inc.),
 the Gaussian(R) 98 system (copyright 1998, Gaussian, Inc.),
 the Gaussian(R) 94 system (copyright 1995, Gaussian, Inc.),
 the Gaussian 92(TM) system (copyright 1992, Gaussian, Inc.),
 the Gaussian 90(TM) system (copyright 1990, Gaussian, Inc.),
 the Gaussian 88(TM) system (copyright 1988, Gaussian, Inc.),
 the Gaussian 86(TM) system (copyright 1986, Carnegie Mellon
 University), and the Gaussian 82(TM) system (copyright 1983,
 Carnegie Mellon University). Gaussian is a federally registered
 trademark of Gaussian, Inc.
  
 This software contains proprietary and confidential information,
 including trade secrets, belonging to Gaussian, Inc.
  
 This software is provided under written license and may be
 used, copied, transmitted, or stored only in accord with that
 written license.
  
 The following legend is applicable only to US Government
 contracts under FAR:
  
                    RESTRICTED RIGHTS LEGEND
  
 Use, reproduction and disclosure by the US Government is
 subject to restrictions as set forth in subparagraphs (a)
 and (c) of the Commercial Computer Software - Restricted
 Rights clause in FAR 52.227-19.
  
 Gaussian, Inc.
 340 Quinnipiac St., Bldg. 40, Wallingford CT 06492
  
  
 ---------------------------------------------------------------
 Warning -- This program may not be used in any manner that
 competes with the business of Gaussian, Inc. or will provide
 assistance to any competitor of Gaussian, Inc.  The licensee
 of this program is prohibited from giving any competitor of
 Gaussian, Inc. access to this program.  By using this program,
 the user acknowledges that Gaussian, Inc. is engaged in the
 business of creating and licensing software in the field of
 computational chemistry and represents and warrants to the
 licensee that it is not a competitor of Gaussian, Inc. and that
 it will not use this program in any manner prohibited above.
 ---------------------------------------------------------------
  

 Cite this work as:
 Gaussian 16, Revision A.03,
 M. J. Frisch, G. W. Trucks, H. B. Schlegel, G. E. Scuseria, 
 M. A. Robb, J. R. Cheeseman, G. Scalmani, V. Barone, 
 G. A. Petersson, H. Nakatsuji, X. Li, M. Caricato, A. V. Marenich, 
 J. Bloino, B. G. Janesko, R. Gomperts, B. Mennucci, H. P. Hratchian, 
 J. V. Ortiz, A. F. Izmaylov, J. L. Sonnenberg, D. Williams-Young, 
 F. Ding, F. Lipparini, F. Egidi, J. Goings, B. Peng, A. Petrone, 
 T. Henderson, D. Ranasinghe, V. G. Zakrzewski, J. Gao, N. Rega, 
 G. Zheng, W. Liang, M. Hada, M. Ehara, K. Toyota, R. Fukuda, 
 J. Hasegawa, M. Ishida, T. Nakajima, Y. Honda, O. Kitao, H. Nakai, 
 T. Vreven, K. Throssell, J. A. Montgomery, Jr., J. E. Peralta, 
 F. Ogliaro, M. J. Bearpark, J. J. Heyd, E. N. Brothers, K. N. Kudin, 
 V. N. Staroverov, T. A. Keith, R. Kobayashi, J. Normand, 
 K. Raghavachari, A. P. Rendell, J. C. Burant, S. S. Iyengar, 
 J. Tomasi, M. Cossi, J. M. Millam, M. Klene, C. Adamo, R. Cammi, 
 J. W. Ochterski, R. L. Martin, K. Morokuma, O. Farkas, 
 J. B. Foresman, and D. J. Fox, Gaussian, Inc., Wallingford CT, 2016.
 
 ******************************************
 Gaussian 16:  ES64L-G16RevA.03 25-Dec-2016
                30-Jan-2023 
 ******************************************
 %nprocshared=28
 Will use up to   28 processors via shared memory.
 %mem=41GB
 -----------------------------
 # wB97XD/aug-cc-pVDZ opt freq
 -----------------------------
 1/18=20,19=15,26=3,38=1/1,3;
 2/9=110,12=2,17=6,18=5,40=1/2;
 3/5=16,7=10,11=2,25=1,30=1,71=1,74=-58/1,2,3;
 4//1;
 5/5=2,38=5/2;
 6/7=2,8=2,9=2,10=2,28=1/1;
 7//1,2,3,16;
 1/18=20,19=15,26=3/3(2);
 2/9=110/2;
 99//99;
 2/9=110/2;
 3/5=16,7=10,11=2,25=1,30=1,71=1,74=-58/1,2,3;
 4/5=5,16=3,69=1/1;
 5/5=2,38=5/2;
 7//1,2,3,16;
 1/18=20,19=15,26=3/3(-5);
 2/9=110/2;
 6/7=2,8=2,9=2,10=2,19=2,28=1/1;
 99/9=1/99;
 ----
 blah
 ----
 Symbolic Z-matrix:
 Charge =  1 Multiplicity = 1
 N                    -1.93672  -0.20152   0.58176 
 C                    -1.37072  -0.91871  -0.5745 
 C                    -1.67281  -0.00616  -1.78904 
 C                    -2.71138   1.0124   -1.26964 
 C                    -3.16132   0.42397   0.06344 
 C                     0.0895   -1.24388  -0.35522 
 C                     1.03352  -0.22517  -0.30707 
 N                     2.3239   -0.4975   -0.07816 
 C                     2.78403  -1.74593   0.1057 
 C                     1.90166  -2.80713   0.05962 
 C                     0.54783  -2.54855  -0.1692 
 O                     3.5299    1.85914  -0.11413 
 O                    -0.40745   1.90858   1.59934 
 H                    -3.53383   1.17132   0.77423 
 H                    -3.54608   1.15289  -1.96315 
 H                    -2.24052   1.98902  -1.10582 
 H                    -2.06496  -0.60909  -2.61466 
 H                    -0.77188   0.49413  -2.16089 
 H                    -3.95238  -0.3349   -0.08334 
 H                    -1.90825  -1.87704  -0.70201 
 H                     0.79626   0.82705  -0.45523 
 H                     3.85106  -1.85412   0.28261 
 H                     2.26734  -3.82091   0.20382 
 H                    -0.16053  -3.37693  -0.20255 
 C                    -2.16592  -1.06208   1.73655 
 H                     2.96818   0.33508  -0.04051 
 H                    -0.97786   1.17605   1.25657 
 H                    -0.80868   2.23589   2.40678 
 H                     2.76888   2.47878  -0.13336 
 H                     4.24836   2.28951   0.35376 
 O                     1.12513   3.03833  -0.27621 
 H                     0.88113   3.89552  -0.63138 
 H                     0.51902   2.84383   0.46999 
 H                    -2.62168  -0.47736   2.54421 
 H                    -1.21261  -1.46155   2.10489 
 H                    -2.83819  -1.90504   1.49496 
 O                     0.45064   5.52863  -1.29212 
 H                     0.56986   5.59713  -2.25487 
 H                     0.30462   6.45056  -1.02271 
 
 Add virtual bond connecting atoms H26        and O12        Dist= 3.07D+00.
 Add virtual bond connecting atoms H33        and O13        Dist= 3.28D+00.
 Add virtual bond connecting atoms H27        and N1         Dist= 3.42D+00.
 Add virtual bond connecting atoms O31        and H29        Dist= 3.29D+00.
 Add virtual bond connecting atoms O37        and H32        Dist= 3.43D+00.

 GradGradGradGradGradGradGradGradGradGradGradGradGradGradGradGradGradGrad
 Berny optimization.
 Initialization pass.
                           ----------------------------
                           !    Initial Parameters    !
                           ! (Angstroms and Degrees)  !
 --------------------------                            --------------------------
 ! Name  Definition              Value          Derivative Info.                !
 --------------------------------------------------------------------------------
 ! R1    R(1,2)                  1.4737         estimate D2E/DX2                !
 ! R2    R(1,5)                  1.4695         estimate D2E/DX2                !
 ! R3    R(1,25)                 1.4583         estimate D2E/DX2                !
 ! R4    R(1,27)                 1.809          estimate D2E/DX2                !
 ! R5    R(2,3)                  1.5489         estimate D2E/DX2                !
 ! R6    R(2,6)                  1.512          estimate D2E/DX2                !
 ! R7    R(2,20)                 1.1062         estimate D2E/DX2                !
 ! R8    R(3,4)                  1.5446         estimate D2E/DX2                !
 ! R9    R(3,17)                 1.095          estimate D2E/DX2                !
 ! R10   R(3,18)                 1.0955         estimate D2E/DX2                !
 ! R11   R(4,5)                  1.5251         estimate D2E/DX2                !
 ! R12   R(4,15)                 1.0943         estimate D2E/DX2                !
 ! R13   R(4,16)                 1.0965         estimate D2E/DX2                !
 ! R14   R(5,14)                 1.0966         estimate D2E/DX2                !
 ! R15   R(5,19)                 1.106          estimate D2E/DX2                !
 ! R16   R(6,7)                  1.3897         estimate D2E/DX2                !
 ! R17   R(6,11)                 1.3953         estimate D2E/DX2                !
 ! R18   R(7,8)                  1.3385         estimate D2E/DX2                !
 ! R19   R(7,21)                 1.0888         estimate D2E/DX2                !
 ! R20   R(8,9)                  1.3432         estimate D2E/DX2                !
 ! R21   R(8,26)                 1.0534         estimate D2E/DX2                !
 ! R22   R(9,10)                 1.3809         estimate D2E/DX2                !
 ! R23   R(9,22)                 1.087          estimate D2E/DX2                !
 ! R24   R(10,11)                1.3972         estimate D2E/DX2                !
 ! R25   R(10,23)                1.0873         estimate D2E/DX2                !
 ! R26   R(11,24)                1.0905         estimate D2E/DX2                !
 ! R27   R(12,26)                1.6259         estimate D2E/DX2                !
 ! R28   R(12,29)                0.9816         estimate D2E/DX2                !
 ! R29   R(12,30)                0.9593         estimate D2E/DX2                !
 ! R30   R(13,27)                0.9897         estimate D2E/DX2                !
 ! R31   R(13,28)                0.9592         estimate D2E/DX2                !
 ! R32   R(13,33)                1.7345         estimate D2E/DX2                !
 ! R33   R(25,34)                1.0963         estimate D2E/DX2                !
 ! R34   R(25,35)                1.0973         estimate D2E/DX2                !
 ! R35   R(25,36)                1.1049         estimate D2E/DX2                !
 ! R36   R(29,31)                1.7422         estimate D2E/DX2                !
 ! R37   R(31,32)                0.9594         estimate D2E/DX2                !
 ! R38   R(31,33)                0.9808         estimate D2E/DX2                !
 ! R39   R(32,37)                1.8135         estimate D2E/DX2                !
 ! R40   R(37,38)                0.9725         estimate D2E/DX2                !
 ! R41   R(37,39)                0.9715         estimate D2E/DX2                !
 ! A1    A(2,1,5)              104.5046         estimate D2E/DX2                !
 ! A2    A(2,1,25)             113.2346         estimate D2E/DX2                !
 ! A3    A(2,1,27)             117.3685         estimate D2E/DX2                !
 ! A4    A(5,1,25)             113.547          estimate D2E/DX2                !
 ! A5    A(5,1,27)             104.4271         estimate D2E/DX2                !
 ! A6    A(25,1,27)            103.7271         estimate D2E/DX2                !
 ! A7    A(1,2,3)              104.6912         estimate D2E/DX2                !
 ! A8    A(1,2,6)              111.2108         estimate D2E/DX2                !
 ! A9    A(1,2,20)             108.9921         estimate D2E/DX2                !
 ! A10   A(3,2,6)              115.3911         estimate D2E/DX2                !
 ! A11   A(3,2,20)             108.981          estimate D2E/DX2                !
 ! A12   A(6,2,20)             107.4396         estimate D2E/DX2                !
 ! A13   A(2,3,4)              104.8309         estimate D2E/DX2                !
 ! A14   A(2,3,17)             109.6746         estimate D2E/DX2                !
 ! A15   A(2,3,18)             112.0118         estimate D2E/DX2                !
 ! A16   A(4,3,17)             112.0764         estimate D2E/DX2                !
 ! A17   A(4,3,18)             111.4655         estimate D2E/DX2                !
 ! A18   A(17,3,18)            106.8605         estimate D2E/DX2                !
 ! A19   A(3,4,5)              103.7611         estimate D2E/DX2                !
 ! A20   A(3,4,15)             112.6083         estimate D2E/DX2                !
 ! A21   A(3,4,16)             110.4156         estimate D2E/DX2                !
 ! A22   A(5,4,15)             112.2394         estimate D2E/DX2                !
 ! A23   A(5,4,16)             109.862          estimate D2E/DX2                !
 ! A24   A(15,4,16)            107.9325         estimate D2E/DX2                !
 ! A25   A(1,5,4)              103.102          estimate D2E/DX2                !
 ! A26   A(1,5,14)             110.1534         estimate D2E/DX2                !
 ! A27   A(1,5,19)             110.5361         estimate D2E/DX2                !
 ! A28   A(4,5,14)             113.8192         estimate D2E/DX2                !
 ! A29   A(4,5,19)             111.0854         estimate D2E/DX2                !
 ! A30   A(14,5,19)            108.0999         estimate D2E/DX2                !
 ! A31   A(2,6,7)              120.2262         estimate D2E/DX2                !
 ! A32   A(2,6,11)             122.5257         estimate D2E/DX2                !
 ! A33   A(7,6,11)             117.2372         estimate D2E/DX2                !
 ! A34   A(6,7,8)              120.7735         estimate D2E/DX2                !
 ! A35   A(6,7,21)             123.7583         estimate D2E/DX2                !
 ! A36   A(8,7,21)             115.4666         estimate D2E/DX2                !
 ! A37   A(7,8,9)              122.8724         estimate D2E/DX2                !
 ! A38   A(7,8,26)             115.78           estimate D2E/DX2                !
 ! A39   A(9,8,26)             121.3452         estimate D2E/DX2                !
 ! A40   A(8,9,10)             119.3944         estimate D2E/DX2                !
 ! A41   A(8,9,22)             116.8127         estimate D2E/DX2                !
 ! A42   A(10,9,22)            123.7927         estimate D2E/DX2                !
 ! A43   A(9,10,11)            118.8429         estimate D2E/DX2                !
 ! A44   A(9,10,23)            119.8145         estimate D2E/DX2                !
 ! A45   A(11,10,23)           121.3424         estimate D2E/DX2                !
 ! A46   A(6,11,10)            120.8759         estimate D2E/DX2                !
 ! A47   A(6,11,24)            119.5286         estimate D2E/DX2                !
 ! A48   A(10,11,24)           119.5954         estimate D2E/DX2                !
 ! A49   A(26,12,29)           108.9506         estimate D2E/DX2                !
 ! A50   A(26,12,30)           131.0833         estimate D2E/DX2                !
 ! A51   A(29,12,30)           107.8784         estimate D2E/DX2                !
 ! A52   A(27,13,28)           107.6397         estimate D2E/DX2                !
 ! A53   A(27,13,33)           118.7807         estimate D2E/DX2                !
 ! A54   A(28,13,33)           125.9813         estimate D2E/DX2                !
 ! A55   A(1,25,34)            109.5106         estimate D2E/DX2                !
 ! A56   A(1,25,35)            110.1269         estimate D2E/DX2                !
 ! A57   A(1,25,36)            111.8812         estimate D2E/DX2                !
 ! A58   A(34,25,35)           107.9404         estimate D2E/DX2                !
 ! A59   A(34,25,36)           108.3628         estimate D2E/DX2                !
 ! A60   A(35,25,36)           108.9203         estimate D2E/DX2                !
 ! A61   A(8,26,12)            161.8975         estimate D2E/DX2                !
 ! A62   A(12,29,31)           159.3631         estimate D2E/DX2                !
 ! A63   A(29,31,32)           123.8657         estimate D2E/DX2                !
 ! A64   A(29,31,33)           117.1911         estimate D2E/DX2                !
 ! A65   A(32,31,33)           107.557          estimate D2E/DX2                !
 ! A66   A(13,33,31)           158.806          estimate D2E/DX2                !
 ! A67   A(32,37,38)           113.2664         estimate D2E/DX2                !
 ! A68   A(32,37,39)           142.1091         estimate D2E/DX2                !
 ! A69   A(38,37,39)           103.0679         estimate D2E/DX2                !
 ! A70   L(1,27,13,7,-1)       176.703          estimate D2E/DX2                !
 ! A71   L(31,32,37,4,-1)      181.1031         estimate D2E/DX2                !
 ! A72   L(1,27,13,7,-2)       180.0804         estimate D2E/DX2                !
 ! A73   L(31,32,37,4,-2)      179.951          estimate D2E/DX2                !
 ! D1    D(5,1,2,3)             36.439          estimate D2E/DX2                !
 ! D2    D(5,1,2,6)            161.6964         estimate D2E/DX2                !
 ! D3    D(5,1,2,20)           -80.0382         estimate D2E/DX2                !
 ! D4    D(25,1,2,3)           160.5046         estimate D2E/DX2                !
 ! D5    D(25,1,2,6)           -74.2381         estimate D2E/DX2                !
 ! D6    D(25,1,2,20)           44.0273         estimate D2E/DX2                !
 ! D7    D(27,1,2,3)           -78.6297         estimate D2E/DX2                !
 ! D8    D(27,1,2,6)            46.6276         estimate D2E/DX2                !
 ! D9    D(27,1,2,20)          164.8931         estimate D2E/DX2                !
 ! D10   D(2,1,5,4)            -44.8781         estimate D2E/DX2                !
 ! D11   D(2,1,5,14)          -166.6883         estimate D2E/DX2                !
 ! D12   D(2,1,5,19)            73.9136         estimate D2E/DX2                !
 ! D13   D(25,1,5,4)          -168.7431         estimate D2E/DX2                !
 ! D14   D(25,1,5,14)           69.4468         estimate D2E/DX2                !
 ! D15   D(25,1,5,19)          -49.9514         estimate D2E/DX2                !
 ! D16   D(27,1,5,4)            78.9609         estimate D2E/DX2                !
 ! D17   D(27,1,5,14)          -42.8492         estimate D2E/DX2                !
 ! D18   D(27,1,5,19)         -162.2474         estimate D2E/DX2                !
 ! D19   D(2,1,13,28)         -173.185          estimate D2E/DX2                !
 ! D20   D(2,1,13,33)           34.1828         estimate D2E/DX2                !
 ! D21   D(5,1,13,28)           71.7366         estimate D2E/DX2                !
 ! D22   D(5,1,13,33)          -80.8957         estimate D2E/DX2                !
 ! D23   D(25,1,13,28)         -47.9375         estimate D2E/DX2                !
 ! D24   D(25,1,13,33)         159.4303         estimate D2E/DX2                !
 ! D25   D(2,1,25,34)         -177.8211         estimate D2E/DX2                !
 ! D26   D(2,1,25,35)           63.6306         estimate D2E/DX2                !
 ! D27   D(2,1,25,36)          -57.6572         estimate D2E/DX2                !
 ! D28   D(5,1,25,34)          -58.8471         estimate D2E/DX2                !
 ! D29   D(5,1,25,35)         -177.3954         estimate D2E/DX2                !
 ! D30   D(5,1,25,36)           61.3167         estimate D2E/DX2                !
 ! D31   D(27,1,25,34)          53.8724         estimate D2E/DX2                !
 ! D32   D(27,1,25,35)         -64.6759         estimate D2E/DX2                !
 ! D33   D(27,1,25,36)         174.0363         estimate D2E/DX2                !
 ! D34   D(1,2,3,4)            -13.8429         estimate D2E/DX2                !
 ! D35   D(1,2,3,17)          -134.3454         estimate D2E/DX2                !
 ! D36   D(1,2,3,18)           107.1787         estimate D2E/DX2                !
 ! D37   D(6,2,3,4)           -136.4221         estimate D2E/DX2                !
 ! D38   D(6,2,3,17)           103.0754         estimate D2E/DX2                !
 ! D39   D(6,2,3,18)           -15.4005         estimate D2E/DX2                !
 ! D40   D(20,2,3,4)           102.642          estimate D2E/DX2                !
 ! D41   D(20,2,3,17)          -17.8605         estimate D2E/DX2                !
 ! D42   D(20,2,3,18)         -136.3365         estimate D2E/DX2                !
 ! D43   D(1,2,6,7)            -67.7376         estimate D2E/DX2                !
 ! D44   D(1,2,6,11)           111.0313         estimate D2E/DX2                !
 ! D45   D(3,2,6,7)             51.2966         estimate D2E/DX2                !
 ! D46   D(3,2,6,11)          -129.9344         estimate D2E/DX2                !
 ! D47   D(20,2,6,7)           173.0649         estimate D2E/DX2                !
 ! D48   D(20,2,6,11)           -8.1662         estimate D2E/DX2                !
 ! D49   D(2,3,4,5)            -12.6664         estimate D2E/DX2                !
 ! D50   D(2,3,4,15)          -134.273          estimate D2E/DX2                !
 ! D51   D(2,3,4,16)           105.0047         estimate D2E/DX2                !
 ! D52   D(17,3,4,5)           106.2301         estimate D2E/DX2                !
 ! D53   D(17,3,4,15)          -15.3765         estimate D2E/DX2                !
 ! D54   D(17,3,4,16)         -136.0988         estimate D2E/DX2                !
 ! D55   D(18,3,4,5)          -134.0476         estimate D2E/DX2                !
 ! D56   D(18,3,4,15)          104.3458         estimate D2E/DX2                !
 ! D57   D(18,3,4,16)          -16.3765         estimate D2E/DX2                !
 ! D58   D(3,4,5,1)             34.8549         estimate D2E/DX2                !
 ! D59   D(3,4,5,14)           154.1576         estimate D2E/DX2                !
 ! D60   D(3,4,5,19)           -83.5539         estimate D2E/DX2                !
 ! D61   D(15,4,5,1)           156.7077         estimate D2E/DX2                !
 ! D62   D(15,4,5,14)          -83.9896         estimate D2E/DX2                !
 ! D63   D(15,4,5,19)           38.2989         estimate D2E/DX2                !
 ! D64   D(16,4,5,1)           -83.2002         estimate D2E/DX2                !
 ! D65   D(16,4,5,14)           36.1025         estimate D2E/DX2                !
 ! D66   D(16,4,5,19)          158.391          estimate D2E/DX2                !
 ! D67   D(2,6,7,8)            178.2133         estimate D2E/DX2                !
 ! D68   D(2,6,7,21)            -2.277          estimate D2E/DX2                !
 ! D69   D(11,6,7,8)            -0.6193         estimate D2E/DX2                !
 ! D70   D(11,6,7,21)          178.8904         estimate D2E/DX2                !
 ! D71   D(2,6,11,10)         -178.5995         estimate D2E/DX2                !
 ! D72   D(2,6,11,24)            1.3756         estimate D2E/DX2                !
 ! D73   D(7,6,11,10)            0.2042         estimate D2E/DX2                !
 ! D74   D(7,6,11,24)         -179.8207         estimate D2E/DX2                !
 ! D75   D(6,7,8,9)              0.528          estimate D2E/DX2                !
 ! D76   D(6,7,8,26)          -178.9161         estimate D2E/DX2                !
 ! D77   D(21,7,8,9)          -179.0205         estimate D2E/DX2                !
 ! D78   D(21,7,8,26)            1.5354         estimate D2E/DX2                !
 ! D79   D(7,8,9,10)             0.0144         estimate D2E/DX2                !
 ! D80   D(7,8,9,22)           179.8845         estimate D2E/DX2                !
 ! D81   D(26,8,9,10)          179.4283         estimate D2E/DX2                !
 ! D82   D(26,8,9,22)           -0.7016         estimate D2E/DX2                !
 ! D83   D(7,8,26,12)           -4.837          estimate D2E/DX2                !
 ! D84   D(9,8,26,12)          175.7096         estimate D2E/DX2                !
 ! D85   D(8,9,10,11)           -0.4259         estimate D2E/DX2                !
 ! D86   D(8,9,10,23)          179.7712         estimate D2E/DX2                !
 ! D87   D(22,9,10,11)         179.7135         estimate D2E/DX2                !
 ! D88   D(22,9,10,23)          -0.0894         estimate D2E/DX2                !
 ! D89   D(9,10,11,6)            0.309          estimate D2E/DX2                !
 ! D90   D(9,10,11,24)        -179.6661         estimate D2E/DX2                !
 ! D91   D(23,10,11,6)        -179.8912         estimate D2E/DX2                !
 ! D92   D(23,10,11,24)          0.1337         estimate D2E/DX2                !
 ! D93   D(29,12,26,8)          14.4051         estimate D2E/DX2                !
 ! D94   D(30,12,26,8)         151.2908         estimate D2E/DX2                !
 ! D95   D(26,12,29,31)        -12.765          estimate D2E/DX2                !
 ! D96   D(30,12,29,31)       -159.993          estimate D2E/DX2                !
 ! D97   D(27,13,33,31)        -48.6242         estimate D2E/DX2                !
 ! D98   D(28,13,33,31)        165.6774         estimate D2E/DX2                !
 ! D99   D(12,29,31,32)       -147.5519         estimate D2E/DX2                !
 ! D100  D(12,29,31,33)         73.5804         estimate D2E/DX2                !
 ! D101  D(29,31,37,38)         72.6575         estimate D2E/DX2                !
 ! D102  D(29,31,37,39)        -89.1623         estimate D2E/DX2                !
 ! D103  D(33,31,37,38)       -145.6353         estimate D2E/DX2                !
 ! D104  D(33,31,37,39)         52.5448         estimate D2E/DX2                !
 ! D105  D(29,31,33,13)        -62.4638         estimate D2E/DX2                !
 ! D106  D(32,31,33,13)        152.488          estimate D2E/DX2                !
 --------------------------------------------------------------------------------
 Trust Radius=3.00D-01 FncErr=1.00D-07 GrdErr=1.00D-06 EigMax=2.50D+02 EigMin=1.00D-04
 Number of steps in this run=    230 maximum allowed number of steps=    234.
 GradGradGradGradGradGradGradGradGradGradGradGradGradGradGradGradGradGrad

                          Input orientation:                          
 ---------------------------------------------------------------------
 Center     Atomic      Atomic             Coordinates (Angstroms)
 Number     Number       Type             X           Y           Z
 ---------------------------------------------------------------------
      1          7           0       -1.936715   -0.201518    0.581763
      2          6           0       -1.370718   -0.918705   -0.574503
      3          6           0       -1.672810   -0.006157   -1.789040
      4          6           0       -2.711382    1.012402   -1.269639
      5          6           0       -3.161320    0.423973    0.063436
      6          6           0        0.089497   -1.243883   -0.355216
      7          6           0        1.033524   -0.225166   -0.307073
      8          7           0        2.323896   -0.497500   -0.078159
      9          6           0        2.784029   -1.745927    0.105698
     10          6           0        1.901660   -2.807126    0.059620
     11          6           0        0.547830   -2.548553   -0.169196
     12          8           0        3.529900    1.859135   -0.114126
     13          8           0       -0.407445    1.908577    1.599336
     14          1           0       -3.533832    1.171322    0.774230
     15          1           0       -3.546083    1.152887   -1.963154
     16          1           0       -2.240520    1.989023   -1.105823
     17          1           0       -2.064962   -0.609087   -2.614656
     18          1           0       -0.771883    0.494126   -2.160889
     19          1           0       -3.952377   -0.334895   -0.083344
     20          1           0       -1.908249   -1.877035   -0.702013
     21          1           0        0.796259    0.827051   -0.455226
     22          1           0        3.851055   -1.854122    0.282614
     23          1           0        2.267337   -3.820910    0.203824
     24          1           0       -0.160530   -3.376926   -0.202551
     25          6           0       -2.165921   -1.062079    1.736549
     26          1           0        2.968179    0.335076   -0.040509
     27          1           0       -0.977858    1.176050    1.256566
     28          1           0       -0.808675    2.235893    2.406783
     29          1           0        2.768875    2.478775   -0.133361
     30          1           0        4.248360    2.289513    0.353757
     31          8           0        1.125126    3.038326   -0.276206
     32          1           0        0.881126    3.895520   -0.631378
     33          1           0        0.519021    2.843832    0.469993
     34          1           0       -2.621680   -0.477363    2.544213
     35          1           0       -1.212612   -1.461546    2.104895
     36          1           0       -2.838191   -1.905035    1.494957
     37          8           0        0.450639    5.528632   -1.292121
     38          1           0        0.569858    5.597133   -2.254875
     39          1           0        0.304621    6.450559   -1.022711
 ---------------------------------------------------------------------
                    Distance matrix (angstroms):
                    1          2          3          4          5
     1  N    0.000000
     2  C    1.473656   0.000000
     3  C    2.393432   1.548904   0.000000
     4  C    2.345506   2.451483   1.544627   0.000000
     5  C    1.469544   2.327231   2.415024   1.525051   0.000000
     6  C    2.463735   1.511971   2.587188   3.711053   3.677611
     7  C    3.100469   2.516524   3.093289   4.059856   4.260912
     8  N    4.321563   3.751526   4.375179   5.390126   5.563880
     9  C    4.989716   4.290559   5.145896   6.300752   6.329094
    10  C    4.668506   3.831019   4.903041   6.134809   6.006145
    11  C    3.499354   2.549805   3.744184   4.951145   4.758973
    12  O    5.883403   5.651938   5.775192   6.403575   6.845703
    13  O    2.797610   3.694184   4.092487   3.787119   3.485235
    14  H    2.114832   3.296416   3.379381   2.208864   1.096596
    15  H    3.301678   3.309389   2.209717   1.094269   2.187790
    16  H    2.781854   3.081191   2.183993   1.096511   2.159727
    17  H    3.224849   2.177168   1.094966   2.203669   3.072685
    18  H    3.059885   2.207106   1.095547   2.196496   3.265265
    19  H    2.126746   2.692032   2.865989   2.182332   1.105982
    20  H    2.110983   1.106162   2.176521   3.052223   2.729604
    21  H    3.098782   2.785261   2.927387   3.605713   4.011722
    22  H    6.026514   5.373692   6.182217   7.327484   7.376392
    23  H    5.560296   4.718478   5.835118   7.093634   6.892681
    24  H    3.721988   2.765096   4.020699   5.187651   4.849982
    25  C    1.458297   2.448237   3.713207   3.692989   2.449179
    26  H    4.973242   4.547872   4.971175   5.850380   6.131025
    27  H    1.808994   2.809831   3.340103   3.068159   2.599362
    28  H    3.247175   4.376694   4.835126   4.316631   3.782759
    29  H    5.462412   5.373426   5.352077   5.785723   6.279184
    30  H    6.671760   6.536694   6.702383   7.259782   7.646429
    31  O    4.539556   4.687890   4.402952   4.450851   5.032278
    32  H    5.118365   5.315148   4.804774   4.650361   5.373618
    33  H    3.913731   4.338061   4.246150   4.100727   4.423338
    34  H    2.096778   3.389112   4.460882   4.095475   2.694044
    35  H    2.105214   2.738402   4.182424   4.444571   3.394142
    36  H    2.132734   2.721946   3.968436   4.021257   2.752806
    37  O    6.484252   6.737987   5.948938   5.513186   6.398541
    38  H    6.924867   7.003259   6.053381   5.723372   6.786593
    39  H    7.200559   7.570581   6.796078   6.223407   7.036490
                    6          7          8          9         10
     6  C    0.000000
     7  C    1.389708   0.000000
     8  N    2.372001   1.338517   0.000000
     9  C    2.779387   2.355284   1.343166   0.000000
    10  C    2.428941   2.748571   2.351944   1.380884   0.000000
    11  C    1.395291   2.377611   2.714685   2.391728   1.397166
    12  O    4.639312   3.257826   2.647540   3.687969   4.945235
    13  O    3.742356   3.203693   4.007920   5.076599   5.471796
    14  H    4.498597   4.896952   6.150164   6.990897   6.773720
    15  H    4.641919   5.061071   6.382291   7.263167   7.032156
    16  H    4.055129   4.032369   5.298376   6.376812   6.443521
    17  H    3.185864   3.882390   5.070340   5.674984   5.264714
    18  H    2.650114   2.685798   3.860691   4.774910   4.793408
    19  H    4.151737   4.992124   6.278381   6.885195   6.356266
    20  H    2.124180   3.396863   4.494815   4.763093   3.995067
    21  H    2.190498   1.088763   2.056767   3.299406   3.833304
    22  H    3.863747   3.307523   2.074318   1.086991   2.181303
    23  H    3.420026   3.835712   3.335831   2.140597   1.087324
    24  H    2.153066   3.371985   3.805120   3.380178   2.155466
    25  C    3.081468   3.887578   4.875487   5.256361   4.733127
    26  H    3.298327   2.031703   1.053423   2.094245   3.319777
    27  H    3.097283   2.907582   3.934951   4.900433   5.058655
    28  H    4.532570   4.100673   4.843488   5.835872   6.187660
    29  H    4.592001   3.217595   3.009862   4.231487   5.360042
    30  H    5.503060   4.134668   3.414316   4.300067   5.618652
    31  O    4.406369   3.264923   3.738762   5.078079   5.906360
    32  H    5.207341   4.136236   4.656851   5.999187   6.815015
    33  H    4.192240   3.207381   3.836997   5.131166   5.832103
    34  H    4.042861   4.642623   5.597853   6.064429   5.662297
    35  H    2.791955   3.520135   4.266380   4.477812   3.961367
    36  H    3.525850   4.589058   5.577006   5.793506   5.033900
    37  O    6.846545   5.866538   6.426279   7.766455   8.568403
    38  H    7.116105   6.156954   6.705170   8.024674   8.818286
    39  H    7.726336   6.753424   7.296929   8.637311   9.456569
                   11         12         13         14         15
    11  C    0.000000
    12  O    5.321982   0.000000
    13  O    4.889403   4.294308   0.000000
    14  H    5.602454   7.152522   3.316420   0.000000
    15  H    5.803367   7.347600   4.807645   2.737473   0.000000
    16  H    5.407565   5.856456   3.268719   2.424024   1.771619
    17  H    4.070440   6.606607   5.181093   4.100242   2.392222
    18  H    3.868640   4.955585   4.033953   4.086793   2.858190
    19  H    5.015926   7.797383   4.520080   1.783060   2.431513
    20  H    2.601375   6.624050   4.677550   3.756900   3.667888
    21  H    3.396797   2.941826   2.615306   4.514396   4.608248
    22  H    3.405534   3.748176   5.833222   7.995721   8.294771
    23  H    2.171345   5.827355   6.475255   7.674719   7.951748
    24  H    1.090453   6.406514   5.589661   5.746288   5.922913
    25  C    3.633994   6.663397   3.454832   2.790218   4.527552
    26  H    3.766957   1.625948   4.069378   6.606001   6.841125
    27  H    4.270034   4.760807   0.989676   2.601091   4.118606
    28  H    5.600598   5.031914   0.959214   3.350376   5.269028
    29  H    5.496213   0.981572   3.662837   6.500559   6.707072
    30  H    6.113451   0.959335   4.834573   7.873351   8.210563
    31  O    5.617645   2.683226   2.672595   5.127866   5.312332
    32  H    6.469218   3.380890   3.253374   5.374834   5.375485
    33  H    5.430213   3.221213   1.734490   4.394937   5.030365
    34  H    4.658134   7.097036   3.389445   2.585154   4.881454
    35  H    3.074448   6.200193   3.501659   3.753762   5.369299
    36  H    3.827357   7.570384   4.523611   3.235326   4.670174
    37  O    8.155448   4.933024   4.711861   6.255555   5.964161
    38  H    8.408493   5.226594   5.423607   6.753040   6.064437
    39  H    9.042768   5.684111   5.292614   6.770012   6.616470
                   16         17         18         19         20
    16  H    0.000000
    17  H    3.009580   0.000000
    18  H    2.346226   1.759272   0.000000
    19  H    3.062109   3.169394   3.888317   0.000000
    20  H    3.901265   2.300099   3.007000   2.634275   0.000000
    21  H    3.315944   3.861634   2.340768   4.902852   3.832408
    22  H    7.335176   6.703995   5.732062   7.958362   5.842910
    23  H    7.469355   6.085101   5.783447   7.135798   4.694114
    24  H    5.825433   4.135945   4.381082   4.862743   2.356620
    25  C    4.170596   4.375886   4.422119   2.651836   2.584015
    26  H    5.567852   5.731508   4.302252   6.953042   5.395421
    27  H    2.799307   4.399417   3.490909   3.595285   3.744728
    28  H    3.801253   5.906523   4.888633   4.763669   5.271608
    29  H    5.126361   6.249616   4.537253   7.286595   6.416536
    30  H    6.657795   7.554561   5.894888   8.621523   7.508569
    31  O    3.621723   5.380393   3.691020   6.098922   5.791671
    32  H    3.688428   5.736228   4.079378   6.446666   6.411552
    33  H    3.290739   5.302328   3.756207   5.513972   5.436159
    34  H    4.421663   5.190493   5.148157   2.948747   3.606390
    35  H    4.824078   4.871073   4.713365   3.682940   2.921519
    36  H    4.720694   4.377931   4.836405   2.489535   2.385844
    37  O    4.450380   6.763797   5.253149   7.431598   7.794645
    38  H    4.715613   6.751954   5.277290   7.768855   8.025932
    39  H    5.137115   7.614973   6.159010   8.065161   8.622555
                   21         22         23         24         25
    21  H    0.000000
    22  H    4.130965   0.000000
    23  H    4.919549   2.526386   0.000000
    24  H    4.318879   4.318232   2.501360   0.000000
    25  C    4.140918   6.240614   5.441890   3.624944   0.000000
    26  H    2.265230   2.382534   4.221741   4.857369   5.609720
    27  H    2.489884   5.783505   6.050551   4.850427   2.578972
    28  H    3.570958   6.553884   7.141410   6.223540   3.628767
    29  H    2.592875   4.485326   6.328607   6.547934   6.355031
    30  H    3.835394   4.163247   6.425278   7.201133   7.368058
    31  O    2.242753   5.628412   6.970236   6.543225   5.629875
    32  H    3.074692   6.535613   7.884316   7.359172   6.282465
    33  H    2.236134   5.762667   6.895378   6.293801   4.906039
    34  H    4.730797   6.993325   6.368612   4.691422   1.096326
    35  H    3.978374   5.395882   4.614186   3.178028   1.097292
    36  H    4.947397   6.798410   5.603929   3.495406   1.104938
    37  O    4.787976   8.279352   9.641171   8.992756   7.710817
    38  H    5.103301   8.527972   9.880596   9.234676   8.231711
    39  H    5.673410   9.124077  10.528994   9.872613   8.375967
                   26         27         28         29         30
    26  H    0.000000
    27  H    4.238024   0.000000
    28  H    4.885383   1.573178   0.000000
    29  H    2.154945   4.203213   4.394336   0.000000
    30  H    2.369416   5.419245   5.458149   1.569070   0.000000
    31  O    3.280237   3.200001   3.403221   1.742244   3.272944
    32  H    4.169134   3.796797   3.852300   2.412215   3.858499
    33  H    3.542999   2.375045   2.425597   2.357784   3.772102
    34  H    6.211873   2.663449   3.266134   6.705687   7.723416
    35  H    5.030867   2.780591   3.731669   6.032260   6.852674
    36  H    6.410124   3.607042   4.700813   7.301260   8.313590
    37  O    5.905723   5.242269   5.109784   4.002321   5.255805
    38  H    6.192302   5.854197   5.910105   4.365851   5.592557
    39  H    6.742284   5.887300   5.546554   4.757999   5.895934
                   31         32         33         34         35
    31  O    0.000000
    32  H    0.959409   0.000000
    33  H    0.980818   1.565307   0.000000
    34  H    5.861176   6.440197   5.019634   0.000000
    35  H    5.602099   6.369387   4.920136   1.774004   0.000000
    36  H    6.578884   7.211176   5.905350   1.784954   1.791986
    37  O    2.772840   1.813548   3.212145   7.760707   7.947875
    38  H    3.281912   2.372365   3.874036   8.373569   8.485856
    39  H    3.588012   2.648343   3.909298   8.323598   8.642067
                   36         37         38         39
    36  H    0.000000
    37  O    8.593231   0.000000
    38  H    9.053097   0.972523   0.000000
    39  H    9.275336   0.971520   1.522141   0.000000
 Stoichiometry    C10H23N2O4(1+)
 Framework group  C1[X(C10H23N2O4)]
 Deg. of freedom   111
 Full point group                 C1      NOp   1
 Largest Abelian subgroup         C1      NOp   1
 Largest concise Abelian subgroup C1      NOp   1
                         Standard orientation:                         
 ---------------------------------------------------------------------
 Center     Atomic      Atomic             Coordinates (Angstroms)
 Number     Number       Type             X           Y           Z
 ---------------------------------------------------------------------
      1          7           0        1.095586   -1.795620    0.584085
      2          6           0        1.530015   -1.123865   -0.653525
      3          6           0        0.542648   -1.621763   -1.738102
      4          6           0       -0.175943   -2.828222   -1.094708
      5          6           0        0.659040   -3.128558    0.145608
      6          6           0        1.589344    0.375764   -0.470090
      7          6           0        0.421040    1.104238   -0.281200
      8          7           0        0.463486    2.427212   -0.082286
      9          6           0        1.610969    3.125066   -0.062825
     10          6           0        2.808775    2.465367   -0.254916
     11          6           0        2.792124    1.082842   -0.455961
     12          8           0       -2.067359    3.150547    0.202455
     13          8           0       -1.120450   -0.686429    1.882354
     14          1           0        0.098941   -3.625254    0.946923
     15          1           0       -0.240384   -3.687864   -1.768717
     16          1           0       -1.195624   -2.553288   -0.799754
     17          1           0        1.096817   -1.905336   -2.638897
     18          1           0       -0.168563   -0.842970   -2.034556
     19          1           0        1.531939   -3.759543   -0.105590
     20          1           0        2.549725   -1.467021   -0.910489
     21          1           0       -0.574640    0.663840   -0.289901
     22          1           0        1.530732    4.196034    0.104920
     23          1           0        3.741477    3.024139   -0.244215
     24          1           0        3.731305    0.548729   -0.603440
     25          6           0        2.128461   -1.830055    1.612976
     26          1           0       -0.466687    2.897753    0.069602
     27          1           0       -0.342040   -1.110039    1.441796
     28          1           0       -1.254022   -1.127627    2.723541
     29          1           0       -2.523290    2.283249    0.260804
     30          1           0       -2.564632    3.780625    0.727856
     31          8           0       -2.764469    0.559531    0.183075
     32          1           0       -3.596495    0.146386   -0.056734
     33          1           0       -2.358905    0.017760    0.893009
     34          1           0        1.755422   -2.374820    2.488192
     35          1           0        2.378684   -0.810129    1.931079
     36          1           0        3.047400   -2.330059    1.257399
     37          8           0       -5.186287   -0.606703   -0.497612
     38          1           0       -5.402657   -0.522176   -1.441985
     39          1           0       -6.018324   -0.923995   -0.109166
 ---------------------------------------------------------------------
 Rotational constants (GHZ):           0.4381741           0.3696165           0.2389264
 Standard basis: Aug-CC-pVDZ (5D, 7F)
 There are   607 symmetry adapted cartesian basis functions of A   symmetry.
 There are   575 symmetry adapted basis functions of A   symmetry.
   575 basis functions,   941 primitive gaussians,   607 cartesian basis functions
    64 alpha electrons       64 beta electrons
       nuclear repulsion energy      1231.3432404602 Hartrees.
 NAtoms=   39 NActive=   39 NUniq=   39 SFac= 1.00D+00 NAtFMM=   60 NAOKFM=F Big=F
 Integral buffers will be    131072 words long.
 Raffenetti 2 integral format.
 Two-electron integral symmetry is turned on.
 Nuclear repulsion after empirical dispersion term =     1231.3131634167 Hartrees.
 One-electron integrals computed using PRISM.
 NBasis=   575 RedAO= T EigKep=  1.66D-06  NBF=   575
 NBsUse=   575 1.00D-06 EigRej= -1.00D+00 NBFU=   575
 ExpMin= 2.97D-02 ExpMax= 1.17D+04 ExpMxC= 4.01D+02 IAcc=3 IRadAn=         5 AccDes= 0.00D+00
 Harris functional with IExCor= 4639 and IRadAn=       5 diagonalized for initial guess.
 HarFok:  IExCor= 4639 AccDes= 0.00D+00 IRadAn=         5 IDoV= 1 UseB2=F ITyADJ=14
 ICtDFT=  3500011 ScaDFX=  1.000000  1.000000  1.000000  1.000000
 FoFCou: FMM=F IPFlag=           0 FMFlag=      100000 FMFlg1=           0
         NFxFlg=           0 DoJE=T BraDBF=F KetDBF=T FulRan=T
         wScrn=  0.000000 ICntrl=       500 IOpCl=  0 I1Cent=   200000004 NGrid=           0
         NMat0=    1 NMatS0=      1 NMatT0=    0 NMatD0=    1 NMtDS0=    0 NMtDT0=    0
 Petite list used in FoFCou.
 Requested convergence on RMS density matrix=1.00D-08 within 128 cycles.
 Requested convergence on MAX density matrix=1.00D-06.
 Requested convergence on             energy=1.00D-06.
 No special actions if energy rises.
 SCF Done:  E(RwB97XD) =  -805.031057631     A.U. after   15 cycles
            NFock= 15  Conv=0.32D-08     -V/T= 2.0063

 **********************************************************************

            Population analysis using the SCF density.

 **********************************************************************

 Orbital symmetries:
       Occupied  (A) (A) (A) (A) (A) (A) (A) (A) (A) (A) (A) (A)
                 (A) (A) (A) (A) (A) (A) (A) (A) (A) (A) (A) (A)
                 (A) (A) (A) (A) (A) (A) (A) (A) (A) (A) (A) (A)
                 (A) (A) (A) (A) (A) (A) (A) (A) (A) (A) (A) (A)
                 (A) (A) (A) (A) (A) (A) (A) (A) (A) (A) (A) (A)
                 (A) (A) (A) (A)
       Virtual   (A) (A) (A) (A) (A) (A) (A) (A) (A) (A) (A) (A)
                 (A) (A) (A) (A) (A) (A) (A) (A) (A) (A) (A) (A)
                 (A) (A) (A) (A) (A) (A) (A) (A) (A) (A) (A) (A)
                 (A) (A) (A) (A) (A) (A) (A) (A) (A) (A) (A) (A)
                 (A) (A) (A) (A) (A) (A) (A) (A) (A) (A) (A) (A)
                 (A) (A) (A) (A) (A) (A) (A) (A) (A) (A) (A) (A)
                 (A) (A) (A) (A) (A) (A) (A) (A) (A) (A) (A) (A)
                 (A) (A) (A) (A) (A) (A) (A) (A) (A) (A) (A) (A)
                 (A) (A) (A) (A) (A) (A) (A) (A) (A) (A) (A) (A)
                 (A) (A) (A) (A) (A) (A) (A) (A) (A) (A) (A) (A)
                 (A) (A) (A) (A) (A) (A) (A) (A) (A) (A) (A) (A)
                 (A) (A) (A) (A) (A) (A) (A) (A) (A) (A) (A) (A)
                 (A) (A) (A) (A) (A) (A) (A) (A) (A) (A) (A) (A)
                 (A) (A) (A) (A) (A) (A) (A) (A) (A) (A) (A) (A)
                 (A) (A) (A) (A) (A) (A) (A) (A) (A) (A) (A) (A)
                 (A) (A) (A) (A) (A) (A) (A) (A) (A) (A) (A) (A)
                 (A) (A) (A) (A) (A) (A) (A) (A) (A) (A) (A) (A)
                 (A) (A) (A) (A) (A) (A) (A) (A) (A) (A) (A) (A)
                 (A) (A) (A) (A) (A) (A) (A) (A) (A) (A) (A) (A)
                 (A) (A) (A) (A) (A) (A) (A) (A) (A) (A) (A) (A)
                 (A) (A) (A) (A) (A) (A) (A) (A) (A) (A) (A) (A)
                 (A) (A) (A) (A) (A) (A) (A) (A) (A) (A) (A) (A)
                 (A) (A) (A) (A) (A) (A) (A) (A) (A) (A) (A) (A)
                 (A) (A) (A) (A) (A) (A) (A) (A) (A) (A) (A) (A)
                 (A) (A) (A) (A) (A) (A) (A) (A) (A) (A) (A) (A)
                 (A) (A) (A) (A) (A) (A) (A) (A) (A) (A) (A) (A)
                 (A) (A) (A) (A) (A) (A) (A) (A) (A) (A) (A) (A)
                 (A) (A) (A) (A) (A) (A) (A) (A) (A) (A) (A) (A)
                 (A) (A) (A) (A) (A) (A) (A) (A) (A) (A) (A) (A)
                 (A) (A) (A) (A) (A) (A) (A) (A) (A) (A) (A) (A)
                 (A) (A) (A) (A) (A) (A) (A) (A) (A) (A) (A) (A)
                 (A) (A) (A) (A) (A) (A) (A) (A) (A) (A) (A) (A)
                 (A) (A) (A) (A) (A) (A) (A) (A) (A) (A) (A) (A)
                 (A) (A) (A) (A) (A) (A) (A) (A) (A) (A) (A) (A)
                 (A) (A) (A) (A) (A) (A) (A) (A) (A) (A) (A) (A)
                 (A) (A) (A) (A) (A) (A) (A) (A) (A) (A) (A) (A)
                 (A) (A) (A) (A) (A) (A) (A) (A) (A) (A) (A) (A)
                 (A) (A) (A) (A) (A) (A) (A) (A) (A) (A) (A) (A)
                 (A) (A) (A) (A) (A) (A) (A) (A) (A) (A) (A) (A)
                 (A) (A) (A) (A) (A) (A) (A) (A) (A) (A) (A) (A)
                 (A) (A) (A) (A) (A) (A) (A) (A) (A) (A) (A) (A)
                 (A) (A) (A) (A) (A) (A) (A) (A) (A) (A) (A) (A)
                 (A) (A) (A) (A) (A) (A) (A)
 The electronic state is 1-A.
 Alpha  occ. eigenvalues --  -19.39226 -19.38521 -19.37459 -19.35644 -14.67312
 Alpha  occ. eigenvalues --  -14.57904 -10.50848 -10.50180 -10.47613 -10.46905
 Alpha  occ. eigenvalues --  -10.46668 -10.46257 -10.43186 -10.43136 -10.41266
 Alpha  occ. eigenvalues --  -10.40231  -1.25628  -1.23120  -1.22833  -1.21899
 Alpha  occ. eigenvalues --   -1.19649  -1.17217  -1.08057  -1.04486  -1.00369
 Alpha  occ. eigenvalues --   -0.95789  -0.90358  -0.89640  -0.88568  -0.82298
 Alpha  occ. eigenvalues --   -0.79688  -0.79231  -0.74670  -0.74283  -0.73883
 Alpha  occ. eigenvalues --   -0.73199  -0.73011  -0.72046  -0.70556  -0.69329
 Alpha  occ. eigenvalues --   -0.68541  -0.67771  -0.65440  -0.64513  -0.63747
 Alpha  occ. eigenvalues --   -0.62644  -0.61614  -0.61427  -0.59017  -0.58348
 Alpha  occ. eigenvalues --   -0.58169  -0.56869  -0.56118  -0.55594  -0.55412
 Alpha  occ. eigenvalues --   -0.53677  -0.53268  -0.52195  -0.51965  -0.51902
 Alpha  occ. eigenvalues --   -0.51153  -0.49538  -0.49089  -0.44241
 Alpha virt. eigenvalues --   -0.13576  -0.10764  -0.06098  -0.05283  -0.04752
 Alpha virt. eigenvalues --   -0.04423  -0.03628  -0.03076  -0.02918  -0.02385
 Alpha virt. eigenvalues --   -0.01749  -0.01671  -0.00911  -0.00783  -0.00297
 Alpha virt. eigenvalues --   -0.00086   0.00638   0.01151   0.01518   0.01729
 Alpha virt. eigenvalues --    0.02104   0.02233   0.02424   0.02620   0.03144
 Alpha virt. eigenvalues --    0.03776   0.03895   0.04149   0.04418   0.04679
 Alpha virt. eigenvalues --    0.04900   0.05197   0.05326   0.05525   0.06047
 Alpha virt. eigenvalues --    0.06480   0.06659   0.06935   0.07102   0.07323
 Alpha virt. eigenvalues --    0.07689   0.07926   0.08370   0.08704   0.08976
 Alpha virt. eigenvalues --    0.09241   0.09346   0.09916   0.10231   0.10529
 Alpha virt. eigenvalues --    0.10899   0.11124   0.11531   0.11799   0.12149
 Alpha virt. eigenvalues --    0.12286   0.12472   0.12562   0.12978   0.13711
 Alpha virt. eigenvalues --    0.13762   0.14144   0.14279   0.14549   0.15094
 Alpha virt. eigenvalues --    0.15302   0.15611   0.15748   0.16011   0.16434
 Alpha virt. eigenvalues --    0.16707   0.17016   0.17286   0.17727   0.18106
 Alpha virt. eigenvalues --    0.18174   0.18665   0.18731   0.19211   0.19464
 Alpha virt. eigenvalues --    0.19767   0.19944   0.19974   0.20462   0.20592
 Alpha virt. eigenvalues --    0.20902   0.21179   0.21799   0.21994   0.22084
 Alpha virt. eigenvalues --    0.22460   0.22758   0.23478   0.23807   0.24306
 Alpha virt. eigenvalues --    0.24469   0.24783   0.24950   0.25357   0.25714
 Alpha virt. eigenvalues --    0.25987   0.26385   0.26720   0.26944   0.27585
 Alpha virt. eigenvalues --    0.27980   0.28286   0.28607   0.28848   0.29121
 Alpha virt. eigenvalues --    0.29426   0.29880   0.30240   0.30486   0.31065
 Alpha virt. eigenvalues --    0.31636   0.31680   0.32321   0.32662   0.32906
 Alpha virt. eigenvalues --    0.33484   0.33839   0.34070   0.34338   0.34624
 Alpha virt. eigenvalues --    0.35297   0.35394   0.35677   0.36502   0.36836
 Alpha virt. eigenvalues --    0.37397   0.37974   0.38261   0.38752   0.39223
 Alpha virt. eigenvalues --    0.39635   0.39847   0.40406   0.40717   0.41146
 Alpha virt. eigenvalues --    0.41615   0.41848   0.42299   0.42822   0.43032
 Alpha virt. eigenvalues --    0.43880   0.43915   0.44162   0.44393   0.44618
 Alpha virt. eigenvalues --    0.45263   0.46039   0.46214   0.46430   0.46507
 Alpha virt. eigenvalues --    0.47117   0.47815   0.48034   0.48620   0.49022
 Alpha virt. eigenvalues --    0.49552   0.49871   0.50163   0.50319   0.50944
 Alpha virt. eigenvalues --    0.51440   0.51484   0.51938   0.52423   0.52882
 Alpha virt. eigenvalues --    0.53176   0.53438   0.53526   0.53683   0.54075
 Alpha virt. eigenvalues --    0.54663   0.54889   0.55311   0.55990   0.56549
 Alpha virt. eigenvalues --    0.56686   0.57154   0.57379   0.57996   0.58203
 Alpha virt. eigenvalues --    0.59070   0.59200   0.59477   0.59841   0.59932
 Alpha virt. eigenvalues --    0.60260   0.61386   0.61657   0.62092   0.62480
 Alpha virt. eigenvalues --    0.62884   0.62942   0.63419   0.63840   0.64155
 Alpha virt. eigenvalues --    0.64990   0.65158   0.65196   0.66810   0.66924
 Alpha virt. eigenvalues --    0.67597   0.68432   0.68722   0.68841   0.69194
 Alpha virt. eigenvalues --    0.70196   0.70561   0.70817   0.70954   0.71531
 Alpha virt. eigenvalues --    0.71812   0.72426   0.73263   0.73532   0.74202
 Alpha virt. eigenvalues --    0.74318   0.75141   0.75223   0.75645   0.76196
 Alpha virt. eigenvalues --    0.76313   0.77266   0.77321   0.77898   0.78915
 Alpha virt. eigenvalues --    0.79206   0.79508   0.80396   0.81280   0.82071
 Alpha virt. eigenvalues --    0.82435   0.82994   0.83420   0.83842   0.84528
 Alpha virt. eigenvalues --    0.85060   0.85708   0.86472   0.87163   0.87503
 Alpha virt. eigenvalues --    0.87869   0.88268   0.89224   0.90192   0.90470
 Alpha virt. eigenvalues --    0.91025   0.92051   0.92487   0.93115   0.94002
 Alpha virt. eigenvalues --    0.94749   0.95417   0.96253   0.96980   0.97780
 Alpha virt. eigenvalues --    0.97969   0.98175   0.99958   1.00496   1.01247
 Alpha virt. eigenvalues --    1.02393   1.02548   1.03682   1.04078   1.04728
 Alpha virt. eigenvalues --    1.05828   1.06321   1.06804   1.07155   1.08343
 Alpha virt. eigenvalues --    1.09113   1.10162   1.10684   1.11117   1.12120
 Alpha virt. eigenvalues --    1.12702   1.13402   1.14463   1.15425   1.15828
 Alpha virt. eigenvalues --    1.17175   1.17844   1.18409   1.18782   1.19338
 Alpha virt. eigenvalues --    1.20744   1.21207   1.22401   1.22724   1.23609
 Alpha virt. eigenvalues --    1.25250   1.26223   1.26889   1.28054   1.28418
 Alpha virt. eigenvalues --    1.30422   1.31089   1.31714   1.33032   1.33435
 Alpha virt. eigenvalues --    1.34431   1.35197   1.35532   1.36509   1.37608
 Alpha virt. eigenvalues --    1.37747   1.39149   1.39475   1.39864   1.41269
 Alpha virt. eigenvalues --    1.41462   1.42877   1.43389   1.43849   1.45948
 Alpha virt. eigenvalues --    1.46561   1.46872   1.48385   1.49454   1.50448
 Alpha virt. eigenvalues --    1.51911   1.52537   1.53954   1.54524   1.55492
 Alpha virt. eigenvalues --    1.57563   1.58252   1.58763   1.59034   1.60051
 Alpha virt. eigenvalues --    1.60615   1.61800   1.62446   1.62938   1.63907
 Alpha virt. eigenvalues --    1.64348   1.64493   1.66346   1.68054   1.68291
 Alpha virt. eigenvalues --    1.68973   1.69528   1.70017   1.71374   1.72425
 Alpha virt. eigenvalues --    1.73411   1.73895   1.74993   1.75365   1.76387
 Alpha virt. eigenvalues --    1.77185   1.77876   1.78336   1.78981   1.79434
 Alpha virt. eigenvalues --    1.80136   1.81766   1.82152   1.82633   1.82916
 Alpha virt. eigenvalues --    1.83816   1.84230   1.85642   1.86088   1.86729
 Alpha virt. eigenvalues --    1.87756   1.88944   1.89304   1.89713   1.90158
 Alpha virt. eigenvalues --    1.90726   1.91592   1.92124   1.92919   1.93794
 Alpha virt. eigenvalues --    1.95470   1.96416   1.96727   1.97262   1.98411
 Alpha virt. eigenvalues --    1.98688   1.99739   2.00857   2.01581   2.02132
 Alpha virt. eigenvalues --    2.03503   2.04301   2.05094   2.06170   2.06915
 Alpha virt. eigenvalues --    2.09097   2.09733   2.10189   2.11714   2.12139
 Alpha virt. eigenvalues --    2.12459   2.13035   2.14515   2.14752   2.15319
 Alpha virt. eigenvalues --    2.16345   2.17299   2.18527   2.19632   2.20065
 Alpha virt. eigenvalues --    2.21402   2.22108   2.23069   2.24080   2.25447
 Alpha virt. eigenvalues --    2.26376   2.27060   2.27364   2.28533   2.29417
 Alpha virt. eigenvalues --    2.29593   2.30761   2.32349   2.32992   2.34925
 Alpha virt. eigenvalues --    2.36092   2.36709   2.38870   2.39753   2.40483
 Alpha virt. eigenvalues --    2.41615   2.41961   2.42746   2.44175   2.45952
 Alpha virt. eigenvalues --    2.46572   2.48344   2.49247   2.49876   2.51488
 Alpha virt. eigenvalues --    2.52542   2.53589   2.54298   2.55693   2.58536
 Alpha virt. eigenvalues --    2.59026   2.59727   2.60670   2.61840   2.63719
 Alpha virt. eigenvalues --    2.64506   2.66163   2.67601   2.68521   2.69130
 Alpha virt. eigenvalues --    2.70693   2.72692   2.73485   2.74628   2.75067
 Alpha virt. eigenvalues --    2.76390   2.77123   2.79071   2.81224   2.81473
 Alpha virt. eigenvalues --    2.82042   2.83214   2.84501   2.86650   2.87785
 Alpha virt. eigenvalues --    2.88481   2.89631   2.92805   2.93943   2.96694
 Alpha virt. eigenvalues --    2.98949   2.99545   3.02565   3.05776   3.10629
 Alpha virt. eigenvalues --    3.14648   3.18890   3.23643   3.26526   3.29264
 Alpha virt. eigenvalues --    3.34465   3.37255   3.38858   3.41064   3.42772
 Alpha virt. eigenvalues --    3.44655   3.45813   3.47668   3.49875   3.52072
 Alpha virt. eigenvalues --    3.53363   3.54845   3.62584   3.64575   3.66349
 Alpha virt. eigenvalues --    3.68353   3.69988   3.82161   3.89451   3.91270
 Alpha virt. eigenvalues --    3.96917   4.02523   4.11297   4.16915   4.37352
 Alpha virt. eigenvalues --    4.93427
          Condensed to atoms (all electrons):
               1          2          3          4          5          6
     1  N   15.000992  -5.621675  -0.568394  -0.576706  -0.359918   2.067510
     2  C   -5.621675  25.559459  -2.866061   0.392503  -0.556212  -7.153366
     3  C   -0.568394  -2.866061   9.881639  -1.132946   0.949102   0.716682
     4  C   -0.576706   0.392503  -1.132946   6.515496  -0.116056   0.183622
     5  C   -0.359918  -0.556212   0.949102  -0.116056   6.243309  -0.287367
     6  C    2.067510  -7.153366   0.716682   0.183622  -0.287367  25.226596
     7  C    0.017205  -1.866167  -1.090986  -0.012164  -0.373774  -5.198865
     8  N   -0.108449   0.598983   0.115105   0.001720   0.057699   0.164604
     9  C    0.019760  -0.206636  -0.039512   0.018356  -0.035705  -1.128244
    10  C    0.079086  -0.352133  -0.130319  -0.015859  -0.001754   0.979225
    11  C   -0.793232  -0.954044  -0.231808  -0.063557   0.006305 -11.576424
    12  O   -0.002263   0.006154  -0.003437  -0.001478   0.000244  -0.115262
    13  O   -0.068335   0.041818   0.042635   0.007026   0.022585   0.067554
    14  H   -0.894453   0.667736   0.125375   0.082246  -0.307956  -0.228165
    15  H   -0.120320   0.244885   0.156069  -0.337395   0.125294  -0.079045
    16  H    0.236060  -0.238811   0.258550  -0.347073  -0.108734   0.104511
    17  H    0.438990   0.125964  -1.160082   0.133574  -0.309719   0.404544
    18  H   -0.093176   0.440218  -0.241737   0.344248   0.138047  -0.432645
    19  H   -0.204787  -0.005329  -0.044676   0.059508  -0.153050   0.124315
    20  H    0.066441  -2.466397   0.553793   0.092487  -0.070436   0.788620
    21  H   -0.255071  -0.322092  -0.342297   0.044674   0.005497  -0.849651
    22  H    0.006570  -0.027390   0.002621   0.000753  -0.000968  -0.177179
    23  H   -0.002949   0.083418   0.005089   0.001164  -0.000713   0.116500
    24  H    0.026828  -0.031039  -0.059940  -0.013055   0.003990   1.378297
    25  C    1.042686  -0.940533  -0.312628   0.040463  -0.236364   0.531235
    26  H   -0.003221   0.053291  -0.019189  -0.003542  -0.004962  -0.346569
    27  H   -0.099280   0.454035   0.162597  -0.090142  -0.132664  -0.163838
    28  H   -0.045790  -0.026730  -0.001822   0.007690   0.029371  -0.003368
    29  H   -0.005961   0.016476   0.004447   0.001828  -0.000788  -0.031125
    30  H    0.000767  -0.003249  -0.000105   0.000007   0.000137   0.008645
    31  O    0.000746  -0.062350   0.028290  -0.015579   0.002165   0.013662
    32  H    0.011988   0.007315  -0.008353  -0.000855   0.003330   0.001851
    33  H   -0.014513  -0.003236   0.016964  -0.004550  -0.000510   0.027278
    34  H   -0.406126   0.105377  -0.075179   0.057867  -0.013960   0.069591
    35  H    0.308920   0.087448   0.113306  -0.049759   0.005369  -0.044805
    36  H   -0.677220  -0.011869  -0.057263   0.047622   0.045601   0.025411
    37  O    0.000531  -0.001954   0.003576  -0.000937   0.001024   0.000424
    38  H   -0.000019   0.000213  -0.000295   0.000047  -0.000195  -0.000212
    39  H    0.000041   0.000112  -0.000141   0.000080  -0.000011  -0.000147
               7          8          9         10         11         12
     1  N    0.017205  -0.108449   0.019760   0.079086  -0.793232  -0.002263
     2  C   -1.866167   0.598983  -0.206636  -0.352133  -0.954044   0.006154
     3  C   -1.090986   0.115105  -0.039512  -0.130319  -0.231808  -0.003437
     4  C   -0.012164   0.001720   0.018356  -0.015859  -0.063557  -0.001478
     5  C   -0.373774   0.057699  -0.035705  -0.001754   0.006305   0.000244
     6  C   -5.198865   0.164604  -1.128244   0.979225 -11.576424  -0.115262
     7  C   17.541035  -1.065249  -1.635698   0.511083  -1.454253   0.018189
     8  N   -1.065249   7.657745   0.429717  -0.171035  -0.219008  -0.153053
     9  C   -1.635698   0.429717   9.961567  -2.493743   1.610294   0.045939
    10  C    0.511083  -0.171035  -2.493743  11.624662  -4.331465  -0.032967
    11  C   -1.454253  -0.219008   1.610294  -4.331465  24.844703   0.050932
    12  O    0.018189  -0.153053   0.045939  -0.032967   0.050932   7.888152
    13  O   -0.115482   0.025558   0.009191  -0.005900  -0.027188   0.001919
    14  H   -0.023300   0.003854  -0.002086  -0.000762   0.021975   0.000034
    15  H    0.022554   0.000602   0.001170   0.001182   0.017642  -0.000112
    16  H   -0.007342  -0.006640  -0.003468   0.000255  -0.017062   0.000111
    17  H    0.251332  -0.021679  -0.004691   0.005893  -0.012217   0.000257
    18  H   -0.289951   0.070863   0.030093  -0.047112  -0.003393  -0.003372
    19  H   -0.004532   0.000735   0.000672  -0.005103   0.009076   0.000022
    20  H   -0.143710   0.001338   0.027854   0.002519   0.018696  -0.000074
    21  H   -0.623748  -0.276366  -0.319714   0.188391  -0.026192   0.106761
    22  H    0.209007  -0.140211  -0.549322   0.129858   0.258815   0.005456
    23  H   -0.254224   0.015860   0.412228  -1.142278   0.506495  -0.000533
    24  H    0.128511  -0.062713  -0.281275   0.737245  -2.682047   0.000711
    25  C    0.097619  -0.049921  -0.050423   0.114636  -0.220386  -0.000764
    26  H    0.603621  -0.007717  -0.553386  -0.026628  -0.046313  -0.016351
    27  H   -0.003017   0.019062   0.035299  -0.036668  -0.043063  -0.001923
    28  H    0.015161  -0.000882  -0.002007   0.001628   0.007921   0.001205
    29  H   -0.016840   0.028499   0.012723  -0.013546   0.017254   0.336923
    30  H    0.025278  -0.013536  -0.017114   0.008648  -0.005353   0.351808
    31  O   -0.053256  -0.006897  -0.017828   0.015588   0.004365  -0.055167
    32  H    0.018021  -0.007343  -0.003279   0.000592  -0.000698   0.008098
    33  H   -0.011318   0.013720   0.003494   0.000712  -0.014214  -0.011965
    34  H    0.000506  -0.006085  -0.007443   0.020480  -0.064814  -0.000146
    35  H   -0.047797   0.010418   0.003008  -0.023054   0.062411  -0.000011
    36  H    0.040395  -0.000729   0.000776  -0.007754   0.102978  -0.000033
    37  O    0.000152   0.000245   0.000145   0.000027  -0.000036  -0.000634
    38  H    0.000747   0.000250   0.000112  -0.000032   0.000058   0.000216
    39  H    0.000175  -0.000033  -0.000004  -0.000008   0.000010  -0.000067
              13         14         15         16         17         18
     1  N   -0.068335  -0.894453  -0.120320   0.236060   0.438990  -0.093176
     2  C    0.041818   0.667736   0.244885  -0.238811   0.125964   0.440218
     3  C    0.042635   0.125375   0.156069   0.258550  -1.160082  -0.241737
     4  C    0.007026   0.082246  -0.337395  -0.347073   0.133574   0.344248
     5  C    0.022585  -0.307956   0.125294  -0.108734  -0.309719   0.138047
     6  C    0.067554  -0.228165  -0.079045   0.104511   0.404544  -0.432645
     7  C   -0.115482  -0.023300   0.022554  -0.007342   0.251332  -0.289951
     8  N    0.025558   0.003854   0.000602  -0.006640  -0.021679   0.070863
     9  C    0.009191  -0.002086   0.001170  -0.003468  -0.004691   0.030093
    10  C   -0.005900  -0.000762   0.001182   0.000255   0.005893  -0.047112
    11  C   -0.027188   0.021975   0.017642  -0.017062  -0.012217  -0.003393
    12  O    0.001919   0.000034  -0.000112   0.000111   0.000257  -0.003372
    13  O    7.997769   0.007258  -0.005202   0.016076   0.001876   0.001897
    14  H    0.007258   2.767057   0.077868  -0.285134  -0.034080   0.038991
    15  H   -0.005202   0.077868   2.073354  -0.561334  -0.319666   0.149516
    16  H    0.016076  -0.285134  -0.561334   2.208351   0.235738  -0.395310
    17  H    0.001876  -0.034080  -0.319666   0.235738   2.692836  -0.800707
    18  H    0.001897   0.038991   0.149516  -0.395310  -0.800707   2.636647
    19  H    0.003749  -0.520952  -0.192196   0.200369   0.048237  -0.040760
    20  H   -0.001262   0.065814   0.061095  -0.081938  -0.407282   0.249278
    21  H   -0.051770  -0.044432   0.004468   0.071980   0.140598  -0.296896
    22  H   -0.000256  -0.000175  -0.000003   0.000515   0.000733  -0.003057
    23  H    0.000014   0.000103   0.000086  -0.000146  -0.001336   0.002337
    24  H   -0.001516  -0.003581   0.000042   0.002022   0.009250  -0.014059
    25  C   -0.016806  -0.152345  -0.011255   0.037707   0.069879  -0.049831
    26  H    0.004830   0.000601   0.000337  -0.002116  -0.000238  -0.003193
    27  H    0.074781   0.147868   0.015181  -0.032213  -0.020077   0.035420
    28  H    0.413640  -0.006307  -0.001235   0.003387   0.000509  -0.001021
    29  H    0.004941   0.000731  -0.000425   0.000255  -0.000320   0.002287
    30  H   -0.001205  -0.000048   0.000003   0.000246   0.000059  -0.000949
    31  O   -0.039728  -0.000827  -0.000067   0.004089   0.000405  -0.003801
    32  H   -0.008764   0.000340   0.001452  -0.004422  -0.002406   0.004352
    33  H    0.023900  -0.001214   0.000134   0.001134  -0.000840   0.006098
    34  H    0.010117  -0.006610  -0.001292   0.009822   0.000480  -0.005491
    35  H    0.002087   0.003545   0.002308  -0.012359  -0.008675   0.017760
    36  H   -0.003530   0.014761  -0.003528   0.008609   0.018656  -0.015351
    37  O    0.000702   0.000464   0.000038  -0.005814   0.000179   0.000890
    38  H   -0.000010   0.000061  -0.000327  -0.000578   0.000183   0.000368
    39  H    0.000222  -0.000086   0.000100   0.000586  -0.000033  -0.000245
              19         20         21         22         23         24
     1  N   -0.204787   0.066441  -0.255071   0.006570  -0.002949   0.026828
     2  C   -0.005329  -2.466397  -0.322092  -0.027390   0.083418  -0.031039
     3  C   -0.044676   0.553793  -0.342297   0.002621   0.005089  -0.059940
     4  C    0.059508   0.092487   0.044674   0.000753   0.001164  -0.013055
     5  C   -0.153050  -0.070436   0.005497  -0.000968  -0.000713   0.003990
     6  C    0.124315   0.788620  -0.849651  -0.177179   0.116500   1.378297
     7  C   -0.004532  -0.143710  -0.623748   0.209007  -0.254224   0.128511
     8  N    0.000735   0.001338  -0.276366  -0.140211   0.015860  -0.062713
     9  C    0.000672   0.027854  -0.319714  -0.549322   0.412228  -0.281275
    10  C   -0.005103   0.002519   0.188391   0.129858  -1.142278   0.737245
    11  C    0.009076   0.018696  -0.026192   0.258815   0.506495  -2.682047
    12  O    0.000022  -0.000074   0.106761   0.005456  -0.000533   0.000711
    13  O    0.003749  -0.001262  -0.051770  -0.000256   0.000014  -0.001516
    14  H   -0.520952   0.065814  -0.044432  -0.000175   0.000103  -0.003581
    15  H   -0.192196   0.061095   0.004468  -0.000003   0.000086   0.000042
    16  H    0.200369  -0.081938   0.071980   0.000515  -0.000146   0.002022
    17  H    0.048237  -0.407282   0.140598   0.000733  -0.001336   0.009250
    18  H   -0.040760   0.249278  -0.296896  -0.003057   0.002337  -0.014059
    19  H    2.220849  -0.088513   0.013411   0.000092  -0.000407   0.003106
    20  H   -0.088513   3.316248  -0.064051  -0.000826   0.006280  -0.156288
    21  H    0.013411  -0.064051   5.496837   0.062289  -0.023681  -0.005251
    22  H    0.000092  -0.000826   0.062289   2.273741  -0.116970  -0.008224
    23  H   -0.000407   0.006280  -0.023681  -0.116970   2.103684  -0.137615
    24  H    0.003106  -0.156288  -0.005251  -0.008224  -0.137615   3.004973
    25  C   -0.031455  -0.008178   0.074913   0.003128  -0.009130   0.065581
    26  H   -0.000141   0.001305  -0.180127  -0.254822   0.015503   0.005537
    27  H   -0.027207   0.015999  -0.254278  -0.004789   0.002962  -0.002995
    28  H    0.004774  -0.001135   0.038861   0.000234  -0.000137   0.000503
    29  H   -0.000065   0.000667  -0.032305   0.002232   0.000410  -0.000471
    30  H    0.000008  -0.000145   0.005622   0.003475  -0.000338   0.000023
    31  O    0.000239   0.000264  -0.012283   0.001526   0.000253   0.000146
    32  H    0.000125   0.000491   0.005305  -0.000861  -0.000003  -0.000029
    33  H   -0.000241   0.000996  -0.064928   0.000243   0.000069  -0.000096
    34  H    0.004488   0.019128   0.014233   0.000387  -0.001123   0.003733
    35  H   -0.005046   0.013883  -0.009986  -0.002153  -0.000422  -0.033305
    36  H    0.075687   0.004150   0.026443   0.000303  -0.000317   0.016427
    37  O    0.000016  -0.000098   0.003262   0.000017   0.000000   0.000003
    38  H   -0.000034  -0.000027  -0.003778   0.000005  -0.000000   0.000003
    39  H    0.000017   0.000007   0.001707   0.000000  -0.000000   0.000000
              25         26         27         28         29         30
     1  N    1.042686  -0.003221  -0.099280  -0.045790  -0.005961   0.000767
     2  C   -0.940533   0.053291   0.454035  -0.026730   0.016476  -0.003249
     3  C   -0.312628  -0.019189   0.162597  -0.001822   0.004447  -0.000105
     4  C    0.040463  -0.003542  -0.090142   0.007690   0.001828   0.000007
     5  C   -0.236364  -0.004962  -0.132664   0.029371  -0.000788   0.000137
     6  C    0.531235  -0.346569  -0.163838  -0.003368  -0.031125   0.008645
     7  C    0.097619   0.603621  -0.003017   0.015161  -0.016840   0.025278
     8  N   -0.049921  -0.007717   0.019062  -0.000882   0.028499  -0.013536
     9  C   -0.050423  -0.553386   0.035299  -0.002007   0.012723  -0.017114
    10  C    0.114636  -0.026628  -0.036668   0.001628  -0.013546   0.008648
    11  C   -0.220386  -0.046313  -0.043063   0.007921   0.017254  -0.005353
    12  O   -0.000764  -0.016351  -0.001923   0.001205   0.336923   0.351808
    13  O   -0.016806   0.004830   0.074781   0.413640   0.004941  -0.001205
    14  H   -0.152345   0.000601   0.147868  -0.006307   0.000731  -0.000048
    15  H   -0.011255   0.000337   0.015181  -0.001235  -0.000425   0.000003
    16  H    0.037707  -0.002116  -0.032213   0.003387   0.000255   0.000246
    17  H    0.069879  -0.000238  -0.020077   0.000509  -0.000320   0.000059
    18  H   -0.049831  -0.003193   0.035420  -0.001021   0.002287  -0.000949
    19  H   -0.031455  -0.000141  -0.027207   0.004774  -0.000065   0.000008
    20  H   -0.008178   0.001305   0.015999  -0.001135   0.000667  -0.000145
    21  H    0.074913  -0.180127  -0.254278   0.038861  -0.032305   0.005622
    22  H    0.003128  -0.254822  -0.004789   0.000234   0.002232   0.003475
    23  H   -0.009130   0.015503   0.002962  -0.000137   0.000410  -0.000338
    24  H    0.065581   0.005537  -0.002995   0.000503  -0.000471   0.000023
    25  C    4.656482  -0.006395  -0.157896   0.002387  -0.002498   0.000527
    26  H   -0.006395   1.645424   0.014698  -0.001689  -0.013384  -0.000029
    27  H   -0.157896   0.014698   0.857027  -0.215626   0.006569  -0.001727
    28  H    0.002387  -0.001689  -0.215626   0.615218  -0.000404   0.000129
    29  H   -0.002498  -0.013384   0.006569  -0.000404   0.556286  -0.128385
    30  H    0.000527  -0.000029  -0.001727   0.000129  -0.128385   0.606357
    31  O   -0.001248  -0.005422  -0.014173   0.014172   0.040809  -0.001640
    32  H   -0.000281   0.005856   0.004608  -0.001759  -0.003929   0.001312
    33  H    0.003426  -0.003098   0.021837  -0.014343  -0.009266   0.001418
    34  H    0.256240  -0.001614   0.032780  -0.005933  -0.000333   0.000098
    35  H   -0.053966   0.003176   0.009827   0.005815   0.000150  -0.000005
    36  H    0.274579  -0.000427  -0.054371   0.004798  -0.000231   0.000023
    37  O    0.000056  -0.001103  -0.001567   0.000313   0.004328  -0.000166
    38  H    0.000016   0.000164   0.000659  -0.000266  -0.001370   0.000008
    39  H    0.000006  -0.000027  -0.000388   0.000318  -0.000062  -0.000039
              31         32         33         34         35         36
     1  N    0.000746   0.011988  -0.014513  -0.406126   0.308920  -0.677220
     2  C   -0.062350   0.007315  -0.003236   0.105377   0.087448  -0.011869
     3  C    0.028290  -0.008353   0.016964  -0.075179   0.113306  -0.057263
     4  C   -0.015579  -0.000855  -0.004550   0.057867  -0.049759   0.047622
     5  C    0.002165   0.003330  -0.000510  -0.013960   0.005369   0.045601
     6  C    0.013662   0.001851   0.027278   0.069591  -0.044805   0.025411
     7  C   -0.053256   0.018021  -0.011318   0.000506  -0.047797   0.040395
     8  N   -0.006897  -0.007343   0.013720  -0.006085   0.010418  -0.000729
     9  C   -0.017828  -0.003279   0.003494  -0.007443   0.003008   0.000776
    10  C    0.015588   0.000592   0.000712   0.020480  -0.023054  -0.007754
    11  C    0.004365  -0.000698  -0.014214  -0.064814   0.062411   0.102978
    12  O   -0.055167   0.008098  -0.011965  -0.000146  -0.000011  -0.000033
    13  O   -0.039728  -0.008764   0.023900   0.010117   0.002087  -0.003530
    14  H   -0.000827   0.000340  -0.001214  -0.006610   0.003545   0.014761
    15  H   -0.000067   0.001452   0.000134  -0.001292   0.002308  -0.003528
    16  H    0.004089  -0.004422   0.001134   0.009822  -0.012359   0.008609
    17  H    0.000405  -0.002406  -0.000840   0.000480  -0.008675   0.018656
    18  H   -0.003801   0.004352   0.006098  -0.005491   0.017760  -0.015351
    19  H    0.000239   0.000125  -0.000241   0.004488  -0.005046   0.075687
    20  H    0.000264   0.000491   0.000996   0.019128   0.013883   0.004150
    21  H   -0.012283   0.005305  -0.064928   0.014233  -0.009986   0.026443
    22  H    0.001526  -0.000861   0.000243   0.000387  -0.002153   0.000303
    23  H    0.000253  -0.000003   0.000069  -0.001123  -0.000422  -0.000317
    24  H    0.000146  -0.000029  -0.000096   0.003733  -0.033305   0.016427
    25  C   -0.001248  -0.000281   0.003426   0.256240  -0.053966   0.274579
    26  H   -0.005422   0.005856  -0.003098  -0.001614   0.003176  -0.000427
    27  H   -0.014173   0.004608   0.021837   0.032780   0.009827  -0.054371
    28  H    0.014172  -0.001759  -0.014343  -0.005933   0.005815   0.004798
    29  H    0.040809  -0.003929  -0.009266  -0.000333   0.000150  -0.000231
    30  H   -0.001640   0.001312   0.001418   0.000098  -0.000005   0.000023
    31  O    8.113139   0.235179   0.381965  -0.000019   0.000175  -0.000012
    32  H    0.235179   0.697809  -0.200557  -0.000283   0.000388  -0.000265
    33  H    0.381965  -0.200557   0.592789   0.002352  -0.002990   0.001058
    34  H   -0.000019  -0.000283   0.002352   2.157266  -0.615499  -0.341232
    35  H    0.000175   0.000388  -0.002990  -0.615499   1.864631  -0.434181
    36  H   -0.000012  -0.000265   0.001058  -0.341232  -0.434181   2.087609
    37  O   -0.056894  -0.028750   0.007136  -0.000012   0.000004   0.000007
    38  H    0.006475   0.001251   0.001089  -0.000000  -0.000013   0.000007
    39  H    0.005551   0.002488  -0.003097  -0.000000   0.000001  -0.000002
              37         38         39
     1  N    0.000531  -0.000019   0.000041
     2  C   -0.001954   0.000213   0.000112
     3  C    0.003576  -0.000295  -0.000141
     4  C   -0.000937   0.000047   0.000080
     5  C    0.001024  -0.000195  -0.000011
     6  C    0.000424  -0.000212  -0.000147
     7  C    0.000152   0.000747   0.000175
     8  N    0.000245   0.000250  -0.000033
     9  C    0.000145   0.000112  -0.000004
    10  C    0.000027  -0.000032  -0.000008
    11  C   -0.000036   0.000058   0.000010
    12  O   -0.000634   0.000216  -0.000067
    13  O    0.000702  -0.000010   0.000222
    14  H    0.000464   0.000061  -0.000086
    15  H    0.000038  -0.000327   0.000100
    16  H   -0.005814  -0.000578   0.000586
    17  H    0.000179   0.000183  -0.000033
    18  H    0.000890   0.000368  -0.000245
    19  H    0.000016  -0.000034   0.000017
    20  H   -0.000098  -0.000027   0.000007
    21  H    0.003262  -0.003778   0.001707
    22  H    0.000017   0.000005   0.000000
    23  H    0.000000  -0.000000  -0.000000
    24  H    0.000003   0.000003   0.000000
    25  C    0.000056   0.000016   0.000006
    26  H   -0.001103   0.000164  -0.000027
    27  H   -0.001567   0.000659  -0.000388
    28  H    0.000313  -0.000266   0.000318
    29  H    0.004328  -0.001370  -0.000062
    30  H   -0.000166   0.000008  -0.000039
    31  O   -0.056894   0.006475   0.005551
    32  H   -0.028750   0.001251   0.002488
    33  H    0.007136   0.001089  -0.003097
    34  H   -0.000012  -0.000000  -0.000000
    35  H    0.000004  -0.000013   0.000001
    36  H    0.000007   0.000007  -0.000002
    37  O    7.714529   0.344941   0.339648
    38  H    0.344941   0.578381  -0.066283
    39  H    0.339648  -0.066283   0.552142
 Mulliken charges:
               1
     1  N   -1.403260
     2  C    0.831869
     3  C    1.251334
     4  C    0.748672
     5  C    1.432747
     6  C    0.815600
     7  C    0.791084
     8  N    0.100972
     9  C    0.729182
    10  C    0.416408
    11  C    1.246837
    12  O   -0.423524
    13  O   -0.435194
    14  H   -0.514170
    15  H   -0.321978
    16  H   -0.289878
    17  H   -0.476124
    18  H   -0.427251
    19  H   -0.445001
    20  H   -0.816993
    21  H   -1.246350
    22  H   -0.674793
    23  H   -0.580133
    24  H   -0.893432
    25  C    1.040735
    26  H    0.147358
    27  H    0.446691
    28  H    0.162418
    29  H    0.223891
    30  H    0.159433
    31  O   -0.522012
    32  H    0.260685
    33  H    0.253164
    34  H   -0.211753
    35  H   -0.170605
    36  H   -0.187583
    37  O   -0.324694
    38  H    0.138186
    39  H    0.167461
 Sum of Mulliken charges =   1.00000
 Mulliken charges with hydrogens summed into heavy atoms:
               1
     1  N   -1.403260
     2  C    0.014876
     3  C    0.347959
     4  C    0.136817
     5  C    0.473576
     6  C    0.815600
     7  C   -0.455266
     8  N    0.248329
     9  C    0.054389
    10  C   -0.163725
    11  C    0.353405
    12  O   -0.040199
    13  O    0.173915
    25  C    0.470795
    31  O   -0.008163
    37  O   -0.019047
 Electronic spatial extent (au):  <R**2>=           4853.6188
 Charge=              1.0000 electrons
 Dipole moment (field-independent basis, Debye):
    X=              0.4902    Y=              1.9424    Z=              0.1855  Tot=              2.0119
 Quadrupole moment (field-independent basis, Debye-Ang):
   XX=            -38.2267   YY=            -59.0771   ZZ=            -87.4031
   XY=              9.2519   XZ=              1.0275   YZ=              1.3940
[...]
 0.00015094,-0.00015097,-0.00010384,-0.00002540,-0.00004210,-0.00002226
 ,-0.00000499,-0.00006381,0.00000893,0.00001899,0.00001678,-0.00001804,
 -0.00001989,0.00002133,0.00021440,-0.00003733,0.00000455,0.00002897,-0
 .00003803,-0.00047492,0.00030526,-0.00066380,-0.00018530,0.00030853,-0
 .00015687,-0.00024898,-0.00016044,0.00040493,-0.00000836,-0.00000679,-
 0.00006028,-0.00001621,0.00002174,0.00001658,-0.00005441,0.00004635,0.
 00003708,0.00034787,0.00000827,0.00019347,-0.00032539,0.00004386,0.000
 15513,0.00001685,-0.00000506,0.00003155,-0.00001068,-0.00000501,0.0000
 0296,0.00000117,0.00001144,0.00001256,0.00003877,-0.00006747,-0.000174
 23,0.09847575,-0.10447451,0.04123758,-0.00001735,-0.00002347,0.0000168
 9,0.00095686,0.00007802,0.00089371,0.00011894,-0.00029685,0.00004070,0
 .00001931,-0.00001926,0.00002041,-0.00000939,-0.00000716,0.00001373,-0
 .00003083,0.00005649,-0.00014104,0.00004585,-0.00002260,0.00003395,-0.
 00004849,-0.00008421,0.00016601,0.01368529,-0.00757529,0.00663762,-0.1
 1100236,0.11582269,-0.02193114,0.01690705,-0.01165287,-0.00138863,0.00
 034869,0.00081819,-0.00018491,0.00014568,0.00020329,-0.00119043,0.0010
 4380,-0.00037777,0.00338156,0.00082105,-0.00346303,0.00018647,-0.00017
 740,-0.00045449,0.00042762,0.00035570,0.00007827,-0.00034642,-0.000100
 24,-0.00008073,-0.00000879,-0.00006659,-0.00000210,0.00011852,-0.00013
 381,0.00007586,0.00031735,0.00005827,-0.00017278,-0.00001890,-0.000163
 83,-0.00000160,0.00025401,0.00025199,0.00005312,-0.00010611,0.00031872
 ,0.00017937,0.00026828,0.00018901,-0.00038109,0.00005749,0.00004389,-0
 .00009555,0.00002488,-0.00004969,0.00003717,0.00007593,-0.00005651,-0.
 00000221,0.00020150,-0.00020623,0.00004091,-0.00007469,-0.00028356,-0.
 00016332,-0.00007661,0.00005282,-0.00000448,-0.00000379,-0.00001715,0.
 00000548,0.00000166,-0.00000034,0.00001362,0.00000005,-0.00017782,-0.0
 0013438,-0.06950356,0.03955103,-0.07681070,0.00013094,0.00025933,0.000
 00744,-0.00040265,-0.00029538,-0.00024504,0.00006707,-0.00005519,0.000
 03251,-0.00007636,0.00006075,-0.00000182,0.00000740,-0.00000464,0.0000
 1104,0.00011031,-0.00008351,-0.00001846,-0.00002715,0.00000962,-0.0000
 2766,-0.00007200,-0.00001369,0.00006423,0.01925929,-0.01053051,0.00959
 774,0.07866036,-0.05231432,0.08589709,-0.00749988,-0.01044406,0.004889
 71,0.00050759,-0.00168153,-0.00197849,0.00020849,0.00022798,-0.0000508
 0,0.00020426,0.00018145,-0.00021734,0.00179943,0.00200450,0.00041540,-
 0.00000090,0.00040084,-0.00009742,0.00013183,-0.00010224,0.00000448,0.
 00008621,0.00005725,0.00000970,0.00002986,0.00003834,-0.00000932,-0.00
 000185,0.00007112,-0.00001402,-0.00013088,-0.00043790,-0.00008717,-0.0
 0006075,0.00000618,0.00001751,-0.00040547,-0.00066323,-0.00052820,-0.0
 0001784,-0.00010611,-0.00001531,-0.00001211,0.00000365,0.00007320,-0.0
 0003145,0.00009240,-0.00013183,0.00002722,-0.00000229,0.00008715,-0.00
 002994,0.00013066,-0.00004749,0.00056267,-0.00107976,0.00053239,-0.000
 34915,0.00091852,0.00105995,0.00007270,0.00002463,-0.00005306,0.000011
 62,0.00001184,-0.00000162,-0.00001896,-0.00001139,-0.00001766,-0.00008
 278,0.00009824,0.00009194,-0.16373334,-0.10989171,-0.05375905,0.000023
 06,0.00000237,-0.00000451,0.00074785,0.00104285,0.00105908,-0.00015817
 ,-0.00004067,0.00001652,0.00006954,-0.00001300,-0.00001091,0.00001741,
 0.00000472,-0.00000414,-0.00010302,-0.00008329,0.00010006,-0.00001150,
 0.00005926,-0.00002823,0.00011167,0.00011719,-0.00011861,0.00887974,0.
 00901158,0.00370109,-0.01547468,-0.01736776,-0.00814858,0.17462368,-0.
 01794822,-0.02241768,0.00517927,0.00218879,0.00066914,-0.00180038,0.00
 031496,0.00019415,-0.00026418,0.00039853,0.00020068,0.00018088,-0.0033
 3265,0.00125061,-0.00181968,0.00022944,0.00019169,0.00002263,-0.000046
 73,-0.00016823,-0.00007104,0.00008041,-0.00003845,0.00006954,-0.000030
 92,0.00012038,-0.00003143,-0.00013345,-0.00002181,-0.00004908,-0.00000
 903,-0.00007935,0.00001715,-0.00007493,0.00000329,0.00000924,-0.000664
 08,-0.00078166,-0.00095057,0.00017793,-0.00009163,-0.00004511,0.000013
 53,0.00001466,0.00018575,0.00022667,0.00013155,-0.00019984,-0.00000739
 ,-0.00002215,0.00007982,0.00001229,0.00005683,-0.00003087,0.00137430,-
 0.00002875,0.00056778,-0.00053530,0.00085034,0.00112765,0.00008282,0.0
 0003024,-0.00005379,0.00000438,0.00000311,-0.00000029,-0.00001223,0.00
 000258,0.00000341,-0.00002484,0.00001323,0.00005189,-0.10903251,-0.155
 54728,-0.05227649,0.00002632,0.00002392,0.00001016,0.00119310,0.001275
 13,0.00173907,-0.00008823,-0.00005160,0.00004139,0.00008587,-0.0000185
 0,-0.00000778,0.00001830,0.00000173,-0.00000009,-0.00012080,-0.0001134
 3,0.00011514,-0.00001943,0.00007560,-0.00003595,0.00013544,0.00014939,
 -0.00013569,-0.01242251,-0.01052341,-0.00532744,0.01048834,0.01090910,
 0.00432173,0.12744173,0.17376572,0.02183347,0.02412741,0.00036651,0.00
 083346,0.00517173,0.00384007,-0.00025314,-0.00013197,0.00026535,-0.000
 13623,-0.00010077,-0.00001529,0.00363233,-0.00044850,0.00184939,-0.000
 10557,-0.00056636,-0.00022856,0.00006499,0.00012092,-0.00006670,-0.000
 10534,-0.00000822,-0.00001632,0.00004242,-0.00010197,-0.00000538,0.000
 09379,0.00000968,0.00003524,-0.00006488,-0.00000930,0.00003184,-0.0000
 1879,-0.00001732,0.00002121,0.00034609,0.00016235,0.00087614,-0.000347
 95,-0.00001190,-0.00027347,-0.00008019,-0.00009190,-0.00006789,-0.0000
 8352,-0.00010256,-0.00002834,-0.00003503,-0.00002041,-0.00003717,0.000
 00097,-0.00004127,0.00007094,-0.00085841,-0.00126850,0.00013762,-0.001
 15059,-0.00145600,0.00033116,-0.00005517,-0.00002163,-0.00000121,0.000
 00142,-0.00000415,0.00000478,0.00000143,-0.00000597,-0.00000071,-0.000
 02090,-0.00001494,0.00002298,-0.05457781,-0.05351908,-0.07459827,0.000
 00423,0.00002914,-0.00000815,-0.00040821,-0.00012188,-0.00142823,0.000
 15268,0.00034831,0.00002459,0.00000593,0.00000249,-0.00001066,0.000010
 48,0.00000414,-0.00000844,-0.00000511,-0.00002608,0.00008263,-0.000017
 16,0.00001795,-0.00001621,0.00004340,0.00005155,-0.00011336,-0.0166147
 2,-0.01379735,-0.00596176,-0.00538681,-0.00751142,-0.00303395,0.053253
 89,0.04936200,0.07795317,0.00025432,-0.00003665,0.00016765,-0.00010993
 ,-0.00000180,-0.00001728,-0.00010599,-0.00002580,0.00003771,0.00010967
 ,0.00010449,0.00009091,-0.00012695,0.00015234,-0.00016022,-0.00019841,
 0.00016573,-0.00002538,-0.00006596,-0.00001218,0.00001442,0.00025796,0
 .00034760,0.00000928,0.00009098,-0.00011208,0.00002764,0.00000950,0.00
 004140,-0.00001191,0.00009286,-0.00002305,0.00001445,-0.00033211,0.000
 86962,-0.00024172,0.00067514,0.00027699,-0.00036859,0.00002722,0.00001
 704,-0.00007282,0.00014491,0.00009391,0.00008480,-0.00027094,0.0001359
 4,-0.00013956,0.00004028,-0.00003673,-0.00001178,0.00000720,0.00000066
 ,-0.00005155,0.00003353,-0.00004290,0.00003895,0.00002942,-0.00001364,
 0.00001562,-0.00015169,-0.00046509,-0.00004625,-0.00000380,-0.00001157
 ,0.00000351,0.00000919,0.00000206,0.00000458,-0.00000842,0.00002719,-0
 .00000329,0.00000899,-0.00002347,-0.00001058,-0.00030067,-0.00075498,0
 .00002775,-0.00024809,-0.00015332,-0.00020693,-0.00005717,0.00016409,-
 0.00007184,0.00071592,-0.00068700,0.00024015,0.00011765,-0.00012745,0.
 00014142,0.00240256,0.00466008,-0.00289150,-0.00551685,-0.00053954,-0.
 00001457,-0.00143355,0.00043579,0.00099572,-0.00001342,-0.00000252,-0.
 00001601,0.00001311,-0.00003703,0.00002977,0.00000503,0.00001248,0.000
 00818,0.01474803,-0.00024198,-0.00019695,-0.00000183,0.00006157,0.0000
 8459,0.00000344,0.00001651,0.00003130,-0.00002481,0.00020649,0.0002331
 3,0.00014943,0.00008866,-0.00008281,-0.00007368,0.00007367,-0.00036835
 ,0.00007341,0.00004394,0.00018367,-0.00004435,-0.00020133,-0.00021339,
 -0.00001287,-0.00010075,-0.00003069,-0.00001049,0.00013980,0.00001253,
 0.00002024,-0.00015762,0.00011408,-0.00003261,0.00158677,-0.00071708,0
 .00006003,-0.00064488,-0.00053472,0.00087526,0.00003069,0.00001959,0.0
 0003575,-0.00002573,-0.00005057,-0.00002793,0.00007382,-0.00003364,-0.
 00013877,-0.00003147,-0.00005968,0.00000133,-0.00002998,0.00008877,0.0
 0007956,-0.00005810,-0.00007632,0.00003953,-0.00002806,-0.00004637,0.0
 0001132,0.00010551,0.00078155,0.00004712,-0.00000649,-0.00000148,0.,-0
 .00000439,-0.00000030,-0.00000109,-0.00000194,-0.00001455,0.00000230,0
 .00007043,0.00010819,-0.00012084,0.00005416,0.00048966,-0.00001513,0.0
 0019809,0.00029669,0.00013051,-0.00006761,-0.00024320,-0.00004249,-0.0
 0252513,0.00066790,-0.00001543,-0.00012697,-0.00016611,-0.00004687,0.0
 0442796,-0.01040001,0.00865141,0.00175559,-0.00283063,-0.00410660,0.00
 198883,-0.00063913,-0.00158495,0.00000622,0.00001585,0.00001229,0.0000
 0796,0.00000134,-0.00000283,-0.00003355,-0.00004335,-0.00001151,0.0534
 7064,0.52330814,0.00019027,0.00015489,0.00027681,-0.00002995,-0.000038
 46,-0.00010901,0.00003694,0.00001083,-0.00000737,-0.00003666,-0.000016
 84,0.00009126,-0.00007273,-0.00003824,-0.00018256,-0.00010892,0.000180
 19,-0.00001535,0.00001760,0.00001012,0.00001668,0.00010930,0.00013100,
 0.00002610,0.00005060,-0.00000580,-0.00001120,-0.00004701,0.00000550,-
 0.00000756,0.00008982,-0.00003687,0.00000832,-0.00080740,0.00041027,0.
 00021189,0.00032657,0.00077809,-0.00010831,-0.00004049,-0.00001054,0.0
 0003547,0.00011559,0.00006356,0.00001269,-0.00003505,0.00004050,-0.000
 25189,0.00001884,0.00002086,0.00000664,-0.00006346,0.00004905,-0.00004
 038,0.00002425,0.00001032,0.00005083,0.00001865,0.00002094,0.00003712,
 -0.00010386,-0.00045590,-0.00016324,0.00000242,-0.00000074,-0.00001214
 ,0.00000545,0.00000037,-0.00000417,-0.00000147,0.00001241,-0.00000868,
 -0.00001870,-0.00005533,0.00001602,-0.00005180,-0.00031436,-0.00005211
 ,-0.00031493,-0.00043667,-0.00031926,-0.00000268,-0.00015483,0.0000870
 3,0.00136160,-0.00038204,-0.00022755,0.00008655,0.00002262,-0.00006518
 ,-0.00255959,0.00819671,0.00141897,-0.00148013,-0.00340624,-0.00843237
 ,-0.00023198,-0.00096588,0.00081370,-0.00002597,-0.00000870,0.00001245
 ,0.00000040,-0.00002517,0.00000696,0.00002020,0.00002383,0.00001635,0.
 01836562,0.09252038,0.66824747,-0.00008199,0.00004031,-0.00008974,0.00
 003400,-0.00000826,0.00000805,0.00004606,0.00000239,-0.00003459,0.0000
 0407,-0.00004347,-0.00004239,0.00002202,-0.00002752,0.00009683,0.00006
 691,-0.00000869,-0.00000247,0.00004021,0.00000351,0.00000785,-0.000090
 39,-0.00012444,0.00000196,-0.00002902,0.00006061,-0.00001418,-0.000027
 55,-0.00002006,0.00000162,-0.00001070,-0.00000137,-0.00000217,-0.00011
 985,-0.00026390,0.00018757,-0.00012483,-0.00009770,0.00000572,-0.00000
 319,-0.00000185,0.00001573,-0.00010161,-0.00006409,-0.00003498,0.00009
 870,-0.00002925,0.00011987,-0.00001174,0.00000859,0.00000600,0.0000044
 4,-0.00000815,0.00001380,-0.00000765,0.00001613,-0.00002449,-0.0000083
 2,0.00001076,-0.00000903,0.00004379,0.00003714,-0.00001443,0.00000322,
 0.00000691,-0.00000461,-0.00000341,-0.00000044,-0.00000245,0.00000334,
 -0.00000866,0.00000064,-0.00001430,0.00000236,0.00001916,0.00013285,0.
 00026524,-0.00002674,0.00008166,0.00005298,0.00007148,0.00001851,-0.00
 000080,0.00000832,0.00014403,0.00012726,-0.00020255,-0.00001276,0.0000
 5633,-0.00007888,-0.00068785,0.00105798,0.00022337,0.00048667,-0.00134
 376,-0.00123869,0.00009535,0.00011350,-0.00009791,0.00000580,-0.000000
 18,0.00000357,-0.00000628,0.00001608,-0.00001314,0.00000178,-0.0000012
 4,-0.00000324,-0.00215543,-0.00558484,0.01505332,0.00192267,-0.0000168
 7,0.00001648,-0.00012495,0.00002064,-0.00001447,0.00004849,-0.00005109
 ,-0.00002469,0.00001637,-0.00004624,-0.00004468,-0.00011124,0.00000977
 ,0.00001631,0.00010114,0.00005272,0.00001489,-0.00001270,-0.00003132,-
 0.00006835,-0.00000117,0.00000095,-0.00001193,-0.00000951,0.00000422,0
 .00001837,0.00000683,-0.00002243,-0.00001190,-0.00000051,-0.00000325,-
 0.00002239,0.00000706,0.00009860,-0.00003557,-0.00011087,-0.00006094,-
 0.00013267,-0.00004258,0.00000327,-0.00000139,-0.00002151,-0.00006371,
 -0.00002283,0.00000065,0.00002710,0.00001747,0.00017809,0.00000231,0.0
 0001155,-0.00000410,0.00005501,-0.00006443,0.00000309,0.00000602,0.000
 02816,-0.00003430,-0.00000247,0.00001351,-0.00002547,0.00003335,0.0000
 5138,0.00008521,0.00000225,-0.00000063,0.00000546,-0.00000190,-0.00000
 077,0.00000102,0.00000324,-0.00000599,0.00000314,-0.00001878,-0.000017
 07,0.00002798,0.00001450,0.00003456,0.00002835,0.00007652,0.00008684,0
 .00009232,0.00000094,0.00003224,0.00000231,-0.00022978,0.00001255,0.00
 015759,0.00002501,-0.00000249,0.00001671,0.00127094,-0.00259993,-0.000
 31817,-0.00207657,0.00375868,0.00189034,-0.00006921,0.00020577,-0.0001
 5648,0.00000856,-0.00000156,-0.00000812,-0.00000394,0.00001245,-0.0000
 0485,0.00000306,0.00000453,-0.00000061,-0.00491939,-0.06654875,0.12046
 720,0.00554831,0.06038069,-0.00004184,-0.00005243,-0.00006809,0.000008
 49,0.00001230,0.00003339,-0.00003735,-0.00000596,0.00000692,0.00006094
 ,0.00004740,0.00001387,-0.00000137,0.00000793,0.00002199,0.00001311,-0
 .00004717,-0.00000099,0.00001169,0.00000799,0.00000648,-0.00003759,-0.
 00005552,-0.00001006,-0.00001509,0.00000508,0.00000274,0.00001192,-0.0
 0000357,0.00000065,-0.00001816,0.00001092,-0.00000097,0.00015423,-0.00
 018989,-0.00004053,-0.00008105,-0.00019971,0.00004758,0.00001321,0.000
 00563,-0.00001932,-0.00003051,-0.00000966,0.00001091,-0.00001369,0.000
 01072,0.00001494,-0.00000701,-0.00002664,-0.00000227,0.00003024,-0.000
 00532,0.00002235,-0.00000970,-0.00001676,0.00000036,-0.00000550,-0.000
 00937,-0.00000869,0.00000462,0.00011631,0.00002621,-0.00000039,0.00000
 182,0.00000470,-0.00000135,-0.00000034,0.00000296,-0.00000111,-0.00000
 169,0.00000341,0.00001117,0.00001559,-0.00001032,0.00003871,0.00012460
 ,0.00001787,0.00006901,0.00011593,0.00006961,-0.00000371,0.00002822,-0
 .00001414,-0.00025374,0.00017974,0.00000550,-0.00003594,0.00002806,0.0
 0000531,0.00025574,-0.00136185,0.00062220,-0.00014870,0.00202292,-0.00
 145464,0.00008172,0.00011147,-0.00015442,0.00000664,0.00000237,-0.0000
 0492,0.00000112,0.00000357,0.00000130,-0.00000740,-0.00000756,-0.00000
 431,0.00626639,0.06393353,-0.52222301,-0.00814791,-0.07693276,0.542825
 62,-0.00005980,0.00003432,-0.00000255,0.00003120,-0.00000364,-0.000014
 85,0.00000933,0.00000573,-0.00000512,0.00000726,0.00001285,0.00001547,
 0.00003526,-0.00007158,-0.00000903,0.00003463,-0.00001182,0.00000354,0
 .00003259,-0.00001560,0.00000358,-0.00007324,-0.00011135,-0.00000078,-
 0.00001826,0.00004592,-0.00001246,-0.00002136,-0.00001587,0.00000112,-
 0.00000446,-0.00000273,-0.00000095,-0.00013095,-0.00026469,0.00004026,
 -0.00013522,0.00004365,-0.00000053,-0.00000982,-0.00000542,0.00003172,
 -0.00001238,-0.00001653,-0.00001965,0.00004843,0.00000371,-0.00003021,
 -0.00000695,0.00000269,0.00000175,-0.00000895,0.00000325,0.00001206,-0
 .00001135,0.00000465,0.00000573,-0.00000666,0.00000714,0.00000208,0.00
 002344,0.00004951,-0.00000220,0.00000263,0.00000629,-0.00000078,-0.000
 00197,-0.00000063,-0.00000123,0.00000199,-0.00000571,-0.00000016,-0.00
 000046,-0.00000392,0.00000213,0.00011894,0.00023366,-0.00000409,0.0000
 3013,-0.00001532,0.00001175,0.00005946,-0.00004988,0.00003584,0.000151
 74,0.00017103,-0.00000698,-0.00003514,0.00011199,-0.00003942,-0.000689
 38,0.00047244,-0.00105341,0.00090257,-0.00021848,0.00215909,0.00008756
 ,0.00019913,-0.00017442,0.00000140,-0.00000074,0.00000829,-0.00000541,
 0.00000763,-0.00000663,0.00000104,-0.00000112,-0.00000039,-0.00869413,
 -0.05453649,-0.02986122,0.00024079,0.00035060,0.00186015,0.00810552,0.
 00004292,0.00006110,0.00001075,-0.00000284,-0.00001516,-0.00001280,0.0
 0000438,0.00000594,-0.00000160,-0.00001365,-0.00000292,-0.00000177,-0.
 00002063,-0.00001833,-0.00000661,0.00000412,0.00004986,-0.00000731,-0.
 00002379,-0.00002079,-0.00000583,0.00003703,0.00004643,0.00000290,0.00
 001935,-0.00000022,0.00000422,-0.00001917,-0.00000348,-0.00000356,0.00
 001648,-0.00001982,0.00000449,-0.00006998,0.00014765,-0.00003437,0.000
 02825,0.00019350,-0.00003274,-0.00001417,-0.00000740,0.00000555,-0.000
 00815,-0.00000386,0.00000031,0.00002439,0.00000620,-0.00001203,0.00000
 083,0.00000958,0.00000327,0.00000480,-0.00000530,-0.00000327,0.0000082
 3,0.00001637,0.00000258,0.00000368,0.00001228,0.00000054,-0.00000306,-
 0.00007547,-0.00000071,0.00000143,-0.00000232,0.00000013,0.00000033,-0
 .00000021,0.00000022,0.00000182,-0.00000072,0.00000003,-0.00001744,-0.
 00002535,0.00002480,-0.00003242,-0.00009697,0.00000657,-0.00005195,-0.
 00008798,-0.00004694,-0.00000375,-0.00004969,0.00004954,0.00010049,-0.
 00015286,0.00005504,0.00005150,-0.00003003,0.00001616,0.00055732,0.000
 35062,0.00074774,-0.00154437,-0.00130579,-0.00191723,0.00007010,-0.000
 37483,0.00008027,-0.00000267,-0.00000405,0.00000019,-0.00000320,0.0000
 0082,-0.00000102,0.00000813,0.00000968,0.00000391,-0.05295186,-0.44313
 887,-0.21677705,0.00021225,0.00491605,0.01213411,0.05358530,0.43961633
 ,-0.00002087,-0.00003075,-0.00009346,-0.00002011,0.00000133,0.00003540
 ,-0.00000019,0.00000118,0.00000619,-0.00002281,-0.00003768,-0.00002976
 ,0.00000694,0.00002786,0.00006769,0.00000569,0.00002883,-0.00001304,-0
 .00000561,-0.00001356,0.00001124,0.00001175,0.00001297,-0.00000810,0.0
 0000504,0.00000607,0.00000451,-0.00001201,-0.00000032,-0.00000326,0.00
 000955,-0.00000632,0.00000308,-0.00016355,0.00006562,-0.00010710,0.000
 03071,-0.00019831,-0.00025420,0.00000968,-0.00000181,-0.00001402,-0.00
 001784,-0.00000531,-0.00000180,-0.00000672,-0.00001704,0.00005735,-0.0
 0000014,0.00000605,-0.00000284,0.00001567,-0.00001958,-0.00000788,0.00
 000241,0.00000638,-0.00002183,0.00000157,-0.00000277,-0.00001199,-0.00
 000745,-0.00006906,0.00002316,-0.00000095,0.00000189,0.00000588,-0.000
 00033,0.00000071,0.00000290,-0.00000051,0.00000207,0.00000296,-0.00000
 445,0.00000458,0.00001986,-0.00000173,-0.00002559,0.00002403,0.0000790
 3,0.00009949,0.00010190,0.00003718,0.00017378,-0.00002330,0.00026198,-
 0.00004467,0.00007998,-0.00002237,0.00003635,0.00006331,-0.00116917,0.
 00163873,-0.00214156,0.00211992,-0.00213365,0.00344180,-0.00019759,0.0
 0032531,0.00037350,0.00001014,0.00000008,-0.00000620,-0.00000121,0.000
 00792,0.00000045,-0.00000111,-0.00000107,-0.00000560,-0.02222275,-0.16
 033174,-0.13915146,-0.00576030,-0.04521948,-0.01975018,0.02705249,0.20
 571149,0.15732239\\-0.00000530,-0.00000209,-0.00000856,-0.00000333,0.0
 0000504,0.00000996,-0.00000051,0.00000146,-0.00000365,0.00000057,0.000
 00497,-0.00000174,0.00000314,-0.00000599,0.00000456,0.00000343,-0.0000
 0453,-0.00000014,-0.00000062,-0.00000138,-0.00000011,-0.00000398,-0.00
 000202,-0.00000571,-0.00000256,-0.00000070,-0.00000145,0.00000163,0.00
 000024,-0.00000003,-0.00000186,-0.00000007,0.00000013,0.00000736,-0.00
 000951,-0.00000486,-0.00000109,0.00000196,-0.00000305,0.00000047,0.000
 00085,0.00000041,-0.00000072,-0.00000079,0.00000047,0.00000028,-0.0000
 0081,0.00000043,-0.00000055,0.00000063,0.00000124,-0.00000056,0.000000
 36,0.00000002,-0.00000037,0.00000116,0.00000050,0.00000040,-0.00000096
 ,-0.00000071,-0.00000058,0.00000009,0.00000095,0.00000042,-0.00000071,
 -0.00000044,-0.00000006,0.00000009,-0.00000105,-0.00000025,0.00000029,
 -0.00000036,0.00000291,0.00000337,0.00000123,0.00000360,0.00001448,0.0
 0000597,0.00000173,-0.00000415,-0.00000018,0.00000223,0.00000053,-0.00
 000063,-0.00000526,-0.00000491,-0.00000054,0.00000056,0.00000365,0.000
 00138,0.00000344,0.00000728,-0.00000347,-0.00000250,-0.00000496,0.0000
 0140,-0.00000224,-0.00000258,0.00000495,-0.00000071,-0.00000026,-0.000
 00002,0.00000017,-0.00000028,0.00000051,0.00000043,-0.00000050,0.00000
 023,-0.00000114,0.00000289,0.00000268,0.00000063,-0.00000057,0.0000034
 8,0.00000080,-0.00000158,-0.00000378\\\@


 THERE IS SOMETHING FASCINATING ABOUT SCIENCE.
 ONE GETS SUCH WHOLESALE CONJECTURE OUT OF SUCH TRIFLING INVESTMENTS.

                                                       -- MARK TWAIN
 Job cpu time:       1 days  8 hours 10 minutes 20.1 seconds.
 Elapsed time:       0 days  1 hours  9 minutes  1.2 seconds.
 File lengths (MBytes):  RWF=   1240 Int=      0 D2E=      0 Chk=     32 Scr=      8
 Normal termination of Gaussian 16 at Mon Jan 30 20:17:13 2023.
