 Entering Gaussian System, Link 0=g16
 Input=NicPyWa4h3bLPy.gjf
 Output=NicPyWa4h3bLPy.log
 Initial command:
 /sw/contrib/gaussian/g16/A03/g16/l1.exe "/gscratch/scrubbed/gds001/Gau-29308.inp" -scrdir="/gscratch/scrubbed/gds001/"
 Entering Link 1 = /sw/contrib/gaussian/g16/A03/g16/l1.exe PID=     29309.
  
 Copyright (c) 1988,1990,1992,1993,1995,1998,2003,2009,2016,
            Gaussian, Inc.  All Rights Reserved.
  
 This is part of the Gaussian(R) 16 program.  It is based on
 the Gaussian(R) 09 system (copyright 2009, Gaussian, Inc.),
 the Gaussian(R) 03 system (copyright 2003, Gaussian, Inc.),
 the Gaussian(R) 98 system (copyright 1998, Gaussian, Inc.),
 the Gaussian(R) 94 system (copyright 1995, Gaussian, Inc.),
 the Gaussian 92(TM) system (copyright 1992, Gaussian, Inc.),
 the Gaussian 90(TM) system (copyright 1990, Gaussian, Inc.),
 the Gaussian 88(TM) system (copyright 1988, Gaussian, Inc.),
 the Gaussian 86(TM) system (copyright 1986, Carnegie Mellon
 University), and the Gaussian 82(TM) system (copyright 1983,
 Carnegie Mellon University). Gaussian is a federally registered
 trademark of Gaussian, Inc.
  
 This software contains proprietary and confidential information,
 including trade secrets, belonging to Gaussian, Inc.
  
 This software is provided under written license and may be
 used, copied, transmitted, or stored only in accord with that
 written license.
  
 The following legend is applicable only to US Government
 contracts under FAR:
  
                    RESTRICTED RIGHTS LEGEND
  
 Use, reproduction and disclosure by the US Government is
 subject to restrictions as set forth in subparagraphs (a)
 and (c) of the Commercial Computer Software - Restricted
 Rights clause in FAR 52.227-19.
  
 Gaussian, Inc.
 340 Quinnipiac St., Bldg. 40, Wallingford CT 06492
  
  
 ---------------------------------------------------------------
 Warning -- This program may not be used in any manner that
 competes with the business of Gaussian, Inc. or will provide
 assistance to any competitor of Gaussian, Inc.  The licensee
 of this program is prohibited from giving any competitor of
 Gaussian, Inc. access to this program.  By using this program,
 the user acknowledges that Gaussian, Inc. is engaged in the
 business of creating and licensing software in the field of
 computational chemistry and represents and warrants to the
 licensee that it is not a competitor of Gaussian, Inc. and that
 it will not use this program in any manner prohibited above.
 ---------------------------------------------------------------
  

 Cite this work as:
 Gaussian 16, Revision A.03,
 M. J. Frisch, G. W. Trucks, H. B. Schlegel, G. E. Scuseria, 
 M. A. Robb, J. R. Cheeseman, G. Scalmani, V. Barone, 
 G. A. Petersson, H. Nakatsuji, X. Li, M. Caricato, A. V. Marenich, 
 J. Bloino, B. G. Janesko, R. Gomperts, B. Mennucci, H. P. Hratchian, 
 J. V. Ortiz, A. F. Izmaylov, J. L. Sonnenberg, D. Williams-Young, 
 F. Ding, F. Lipparini, F. Egidi, J. Goings, B. Peng, A. Petrone, 
 T. Henderson, D. Ranasinghe, V. G. Zakrzewski, J. Gao, N. Rega, 
 G. Zheng, W. Liang, M. Hada, M. Ehara, K. Toyota, R. Fukuda, 
 J. Hasegawa, M. Ishida, T. Nakajima, Y. Honda, O. Kitao, H. Nakai, 
 T. Vreven, K. Throssell, J. A. Montgomery, Jr., J. E. Peralta, 
 F. Ogliaro, M. J. Bearpark, J. J. Heyd, E. N. Brothers, K. N. Kudin, 
 V. N. Staroverov, T. A. Keith, R. Kobayashi, J. Normand, 
 K. Raghavachari, A. P. Rendell, J. C. Burant, S. S. Iyengar, 
 J. Tomasi, M. Cossi, J. M. Millam, M. Klene, C. Adamo, R. Cammi, 
 J. W. Ochterski, R. L. Martin, K. Morokuma, O. Farkas, 
 J. B. Foresman, and D. J. Fox, Gaussian, Inc., Wallingford CT, 2016.
 
 ******************************************
 Gaussian 16:  ES64L-G16RevA.03 25-Dec-2016
                30-Jan-2023 
 ******************************************
 %nprocshared=28
 Will use up to   28 processors via shared memory.
 %mem=41GB
 -----------------------------
 # wB97XD/aug-cc-pVDZ opt freq
 -----------------------------
 1/18=20,19=15,26=3,38=1/1,3;
 2/9=110,12=2,17=6,18=5,40=1/2;
 3/5=16,7=10,11=2,25=1,30=1,71=1,74=-58/1,2,3;
 4//1;
 5/5=2,38=5/2;
 6/7=2,8=2,9=2,10=2,28=1/1;
 7//1,2,3,16;
 1/18=20,19=15,26=3/3(2);
 2/9=110/2;
 99//99;
 2/9=110/2;
 3/5=16,7=10,11=2,25=1,30=1,71=1,74=-58/1,2,3;
 4/5=5,16=3,69=1/1;
 5/5=2,38=5/2;
 7//1,2,3,16;
 1/18=20,19=15,26=3/3(-5);
 2/9=110/2;
 6/7=2,8=2,9=2,10=2,19=2,28=1/1;
 99/9=1/99;
 ----
 blah
 ----
 Symbolic Z-matrix:
 Charge =  1 Multiplicity = 1
 N                    -1.93672  -0.20152   0.58176 
 C                    -1.37072  -0.91871  -0.5745 
 C                    -1.67281  -0.00616  -1.78904 
 C                    -2.71138   1.0124   -1.26964 
 C                    -3.16132   0.42397   0.06344 
 C                     0.0895   -1.24388  -0.35522 
 C                     1.03352  -0.22517  -0.30707 
 N                     2.3239   -0.4975   -0.07816 
 C                     2.78403  -1.74593   0.1057 
 C                     1.90166  -2.80713   0.05962 
 C                     0.54783  -2.54855  -0.1692 
 O                     3.5299    1.85914  -0.11413 
 O                    -0.40745   1.90858   1.59934 
 H                    -3.53383   1.17132   0.77423 
 H                    -3.54608   1.15289  -1.96315 
 H                    -2.24052   1.98902  -1.10582 
 H                    -2.06496  -0.60909  -2.61466 
 H                    -0.77188   0.49413  -2.16089 
 H                    -3.95238  -0.3349   -0.08334 
 H                    -1.90825  -1.87704  -0.70201 
 H                     0.79626   0.82705  -0.45523 
 H                     3.85106  -1.85412   0.28261 
 H                     2.26734  -3.82091   0.20382 
 H                    -0.16053  -3.37693  -0.20255 
 C                    -2.16592  -1.06208   1.73655 
 H                     2.96818   0.33508  -0.04051 
 H                    -0.97786   1.17605   1.25657 
 H                    -0.80868   2.23589   2.40678 
 H                     2.76888   2.47878  -0.13336 
 H                     4.24836   2.28951   0.35376 
 O                     1.12513   3.03833  -0.27621 
 H                     0.88113   3.89552  -0.63138 
 H                     0.51902   2.84383   0.46999 
 H                    -2.62168  -0.47736   2.54421 
 H                    -1.21261  -1.46155   2.10489 
 H                    -2.83819  -1.90504   1.49496 
 O                     5.4212    3.30757   1.31636 
 H                     6.31094   3.6052    1.06443 
 H                     5.42449   3.38547   2.28469 
 
 Add virtual bond connecting atoms H26        and O12        Dist= 3.07D+00.
 Add virtual bond connecting atoms H33        and O13        Dist= 3.28D+00.
 Add virtual bond connecting atoms H27        and N1         Dist= 3.42D+00.
 Add virtual bond connecting atoms O31        and H29        Dist= 3.29D+00.
 Add virtual bond connecting atoms O37        and H30        Dist= 3.45D+00.

 GradGradGradGradGradGradGradGradGradGradGradGradGradGradGradGradGradGrad
 Berny optimization.
 Initialization pass.
                           ----------------------------
                           !    Initial Parameters    !
                           ! (Angstroms and Degrees)  !
 --------------------------                            --------------------------
 ! Name  Definition              Value          Derivative Info.                !
 --------------------------------------------------------------------------------
 ! R1    R(1,2)                  1.4737         estimate D2E/DX2                !
 ! R2    R(1,5)                  1.4695         estimate D2E/DX2                !
 ! R3    R(1,25)                 1.4583         estimate D2E/DX2                !
 ! R4    R(1,27)                 1.809          estimate D2E/DX2                !
 ! R5    R(2,3)                  1.5489         estimate D2E/DX2                !
 ! R6    R(2,6)                  1.512          estimate D2E/DX2                !
 ! R7    R(2,20)                 1.1062         estimate D2E/DX2                !
 ! R8    R(3,4)                  1.5446         estimate D2E/DX2                !
 ! R9    R(3,17)                 1.095          estimate D2E/DX2                !
 ! R10   R(3,18)                 1.0955         estimate D2E/DX2                !
 ! R11   R(4,5)                  1.5251         estimate D2E/DX2                !
 ! R12   R(4,15)                 1.0943         estimate D2E/DX2                !
 ! R13   R(4,16)                 1.0965         estimate D2E/DX2                !
 ! R14   R(5,14)                 1.0966         estimate D2E/DX2                !
 ! R15   R(5,19)                 1.106          estimate D2E/DX2                !
 ! R16   R(6,7)                  1.3897         estimate D2E/DX2                !
 ! R17   R(6,11)                 1.3953         estimate D2E/DX2                !
 ! R18   R(7,8)                  1.3385         estimate D2E/DX2                !
 ! R19   R(7,21)                 1.0888         estimate D2E/DX2                !
 ! R20   R(8,9)                  1.3432         estimate D2E/DX2                !
 ! R21   R(8,26)                 1.0534         estimate D2E/DX2                !
 ! R22   R(9,10)                 1.3809         estimate D2E/DX2                !
 ! R23   R(9,22)                 1.087          estimate D2E/DX2                !
 ! R24   R(10,11)                1.3972         estimate D2E/DX2                !
 ! R25   R(10,23)                1.0873         estimate D2E/DX2                !
 ! R26   R(11,24)                1.0905         estimate D2E/DX2                !
 ! R27   R(12,26)                1.6259         estimate D2E/DX2                !
 ! R28   R(12,29)                0.9816         estimate D2E/DX2                !
 ! R29   R(12,30)                0.9593         estimate D2E/DX2                !
 ! R30   R(13,27)                0.9897         estimate D2E/DX2                !
 ! R31   R(13,28)                0.9592         estimate D2E/DX2                !
 ! R32   R(13,33)                1.7345         estimate D2E/DX2                !
 ! R33   R(25,34)                1.0963         estimate D2E/DX2                !
 ! R34   R(25,35)                1.0973         estimate D2E/DX2                !
 ! R35   R(25,36)                1.1049         estimate D2E/DX2                !
 ! R36   R(29,31)                1.7422         estimate D2E/DX2                !
 ! R37   R(30,37)                1.8272         estimate D2E/DX2                !
 ! R38   R(31,32)                0.9594         estimate D2E/DX2                !
 ! R39   R(31,33)                0.9808         estimate D2E/DX2                !
 ! R40   R(37,38)                0.9714         estimate D2E/DX2                !
 ! R41   R(37,39)                0.9715         estimate D2E/DX2                !
 ! A1    A(2,1,5)              104.5046         estimate D2E/DX2                !
 ! A2    A(2,1,25)             113.2346         estimate D2E/DX2                !
 ! A3    A(2,1,27)             117.3685         estimate D2E/DX2                !
 ! A4    A(5,1,25)             113.547          estimate D2E/DX2                !
 ! A5    A(5,1,27)             104.4271         estimate D2E/DX2                !
 ! A6    A(25,1,27)            103.7271         estimate D2E/DX2                !
 ! A7    A(1,2,3)              104.6912         estimate D2E/DX2                !
 ! A8    A(1,2,6)              111.2108         estimate D2E/DX2                !
 ! A9    A(1,2,20)             108.9921         estimate D2E/DX2                !
 ! A10   A(3,2,6)              115.3911         estimate D2E/DX2                !
 ! A11   A(3,2,20)             108.981          estimate D2E/DX2                !
 ! A12   A(6,2,20)             107.4396         estimate D2E/DX2                !
 ! A13   A(2,3,4)              104.8309         estimate D2E/DX2                !
 ! A14   A(2,3,17)             109.6746         estimate D2E/DX2                !
 ! A15   A(2,3,18)             112.0118         estimate D2E/DX2                !
 ! A16   A(4,3,17)             112.0764         estimate D2E/DX2                !
 ! A17   A(4,3,18)             111.4655         estimate D2E/DX2                !
 ! A18   A(17,3,18)            106.8605         estimate D2E/DX2                !
 ! A19   A(3,4,5)              103.7611         estimate D2E/DX2                !
 ! A20   A(3,4,15)             112.6083         estimate D2E/DX2                !
 ! A21   A(3,4,16)             110.4156         estimate D2E/DX2                !
 ! A22   A(5,4,15)             112.2394         estimate D2E/DX2                !
 ! A23   A(5,4,16)             109.862          estimate D2E/DX2                !
 ! A24   A(15,4,16)            107.9325         estimate D2E/DX2                !
 ! A25   A(1,5,4)              103.102          estimate D2E/DX2                !
 ! A26   A(1,5,14)             110.1534         estimate D2E/DX2                !
 ! A27   A(1,5,19)             110.5361         estimate D2E/DX2                !
 ! A28   A(4,5,14)             113.8192         estimate D2E/DX2                !
 ! A29   A(4,5,19)             111.0854         estimate D2E/DX2                !
 ! A30   A(14,5,19)            108.0999         estimate D2E/DX2                !
 ! A31   A(2,6,7)              120.2262         estimate D2E/DX2                !
 ! A32   A(2,6,11)             122.5257         estimate D2E/DX2                !
 ! A33   A(7,6,11)             117.2372         estimate D2E/DX2                !
 ! A34   A(6,7,8)              120.7735         estimate D2E/DX2                !
 ! A35   A(6,7,21)             123.7583         estimate D2E/DX2                !
 ! A36   A(8,7,21)             115.4666         estimate D2E/DX2                !
 ! A37   A(7,8,9)              122.8724         estimate D2E/DX2                !
 ! A38   A(7,8,26)             115.78           estimate D2E/DX2                !
 ! A39   A(9,8,26)             121.3452         estimate D2E/DX2                !
 ! A40   A(8,9,10)             119.3944         estimate D2E/DX2                !
 ! A41   A(8,9,22)             116.8127         estimate D2E/DX2                !
 ! A42   A(10,9,22)            123.7927         estimate D2E/DX2                !
 ! A43   A(9,10,11)            118.8429         estimate D2E/DX2                !
 ! A44   A(9,10,23)            119.8145         estimate D2E/DX2                !
 ! A45   A(11,10,23)           121.3424         estimate D2E/DX2                !
 ! A46   A(6,11,10)            120.8759         estimate D2E/DX2                !
 ! A47   A(6,11,24)            119.5286         estimate D2E/DX2                !
 ! A48   A(10,11,24)           119.5954         estimate D2E/DX2                !
 ! A49   A(26,12,29)           108.9506         estimate D2E/DX2                !
 ! A50   A(26,12,30)           131.0833         estimate D2E/DX2                !
 ! A51   A(29,12,30)           107.8784         estimate D2E/DX2                !
 ! A52   A(27,13,28)           107.6397         estimate D2E/DX2                !
 ! A53   A(27,13,33)           118.7807         estimate D2E/DX2                !
 ! A54   A(28,13,33)           125.9813         estimate D2E/DX2                !
 ! A55   A(1,25,34)            109.5106         estimate D2E/DX2                !
 ! A56   A(1,25,35)            110.1269         estimate D2E/DX2                !
 ! A57   A(1,25,36)            111.8812         estimate D2E/DX2                !
 ! A58   A(34,25,35)           107.9404         estimate D2E/DX2                !
 ! A59   A(34,25,36)           108.3628         estimate D2E/DX2                !
 ! A60   A(35,25,36)           108.9203         estimate D2E/DX2                !
 ! A61   A(8,26,12)            161.8975         estimate D2E/DX2                !
 ! A62   A(12,29,31)           159.3631         estimate D2E/DX2                !
 ! A63   A(29,31,32)           123.8657         estimate D2E/DX2                !
 ! A64   A(29,31,33)           117.1911         estimate D2E/DX2                !
 ! A65   A(32,31,33)           107.557          estimate D2E/DX2                !
 ! A66   A(13,33,31)           158.806          estimate D2E/DX2                !
 ! A67   A(30,37,38)           128.4611         estimate D2E/DX2                !
 ! A68   A(30,37,39)           124.888          estimate D2E/DX2                !
 ! A69   A(38,37,39)           103.3461         estimate D2E/DX2                !
 ! A70   L(1,27,13,7,-1)       176.703          estimate D2E/DX2                !
 ! A71   L(12,30,37,28,-1)     172.7185         estimate D2E/DX2                !
 ! A72   L(1,27,13,7,-2)       180.0804         estimate D2E/DX2                !
 ! A73   L(12,30,37,28,-2)     186.0137         estimate D2E/DX2                !
 ! D1    D(5,1,2,3)             36.439          estimate D2E/DX2                !
 ! D2    D(5,1,2,6)            161.6964         estimate D2E/DX2                !
 ! D3    D(5,1,2,20)           -80.0382         estimate D2E/DX2                !
 ! D4    D(25,1,2,3)           160.5046         estimate D2E/DX2                !
 ! D5    D(25,1,2,6)           -74.2381         estimate D2E/DX2                !
 ! D6    D(25,1,2,20)           44.0273         estimate D2E/DX2                !
 ! D7    D(27,1,2,3)           -78.6297         estimate D2E/DX2                !
 ! D8    D(27,1,2,6)            46.6276         estimate D2E/DX2                !
 ! D9    D(27,1,2,20)          164.8931         estimate D2E/DX2                !
 ! D10   D(2,1,5,4)            -44.8781         estimate D2E/DX2                !
 ! D11   D(2,1,5,14)          -166.6883         estimate D2E/DX2                !
 ! D12   D(2,1,5,19)            73.9136         estimate D2E/DX2                !
 ! D13   D(25,1,5,4)          -168.7431         estimate D2E/DX2                !
 ! D14   D(25,1,5,14)           69.4468         estimate D2E/DX2                !
 ! D15   D(25,1,5,19)          -49.9514         estimate D2E/DX2                !
 ! D16   D(27,1,5,4)            78.9609         estimate D2E/DX2                !
 ! D17   D(27,1,5,14)          -42.8492         estimate D2E/DX2                !
 ! D18   D(27,1,5,19)         -162.2474         estimate D2E/DX2                !
 ! D19   D(2,1,13,28)         -173.185          estimate D2E/DX2                !
 ! D20   D(2,1,13,33)           34.1828         estimate D2E/DX2                !
 ! D21   D(5,1,13,28)           71.7366         estimate D2E/DX2                !
 ! D22   D(5,1,13,33)          -80.8957         estimate D2E/DX2                !
 ! D23   D(25,1,13,28)         -47.9375         estimate D2E/DX2                !
 ! D24   D(25,1,13,33)         159.4303         estimate D2E/DX2                !
 ! D25   D(2,1,25,34)         -177.8211         estimate D2E/DX2                !
 ! D26   D(2,1,25,35)           63.6306         estimate D2E/DX2                !
 ! D27   D(2,1,25,36)          -57.6572         estimate D2E/DX2                !
 ! D28   D(5,1,25,34)          -58.8471         estimate D2E/DX2                !
 ! D29   D(5,1,25,35)         -177.3954         estimate D2E/DX2                !
 ! D30   D(5,1,25,36)           61.3167         estimate D2E/DX2                !
 ! D31   D(27,1,25,34)          53.8724         estimate D2E/DX2                !
 ! D32   D(27,1,25,35)         -64.6759         estimate D2E/DX2                !
 ! D33   D(27,1,25,36)         174.0363         estimate D2E/DX2                !
 ! D34   D(1,2,3,4)            -13.8429         estimate D2E/DX2                !
 ! D35   D(1,2,3,17)          -134.3454         estimate D2E/DX2                !
 ! D36   D(1,2,3,18)           107.1787         estimate D2E/DX2                !
 ! D37   D(6,2,3,4)           -136.4221         estimate D2E/DX2                !
 ! D38   D(6,2,3,17)           103.0754         estimate D2E/DX2                !
 ! D39   D(6,2,3,18)           -15.4005         estimate D2E/DX2                !
 ! D40   D(20,2,3,4)           102.642          estimate D2E/DX2                !
 ! D41   D(20,2,3,17)          -17.8605         estimate D2E/DX2                !
 ! D42   D(20,2,3,18)         -136.3365         estimate D2E/DX2                !
 ! D43   D(1,2,6,7)            -67.7376         estimate D2E/DX2                !
 ! D44   D(1,2,6,11)           111.0313         estimate D2E/DX2                !
 ! D45   D(3,2,6,7)             51.2966         estimate D2E/DX2                !
 ! D46   D(3,2,6,11)          -129.9344         estimate D2E/DX2                !
 ! D47   D(20,2,6,7)           173.0649         estimate D2E/DX2                !
 ! D48   D(20,2,6,11)           -8.1662         estimate D2E/DX2                !
 ! D49   D(2,3,4,5)            -12.6664         estimate D2E/DX2                !
 ! D50   D(2,3,4,15)          -134.273          estimate D2E/DX2                !
 ! D51   D(2,3,4,16)           105.0047         estimate D2E/DX2                !
 ! D52   D(17,3,4,5)           106.2301         estimate D2E/DX2                !
 ! D53   D(17,3,4,15)          -15.3765         estimate D2E/DX2                !
 ! D54   D(17,3,4,16)         -136.0988         estimate D2E/DX2                !
 ! D55   D(18,3,4,5)          -134.0476         estimate D2E/DX2                !
 ! D56   D(18,3,4,15)          104.3458         estimate D2E/DX2                !
 ! D57   D(18,3,4,16)          -16.3765         estimate D2E/DX2                !
 ! D58   D(3,4,5,1)             34.8549         estimate D2E/DX2                !
 ! D59   D(3,4,5,14)           154.1576         estimate D2E/DX2                !
 ! D60   D(3,4,5,19)           -83.5539         estimate D2E/DX2                !
 ! D61   D(15,4,5,1)           156.7077         estimate D2E/DX2                !
 ! D62   D(15,4,5,14)          -83.9896         estimate D2E/DX2                !
 ! D63   D(15,4,5,19)           38.2989         estimate D2E/DX2                !
 ! D64   D(16,4,5,1)           -83.2002         estimate D2E/DX2                !
 ! D65   D(16,4,5,14)           36.1025         estimate D2E/DX2                !
 ! D66   D(16,4,5,19)          158.391          estimate D2E/DX2                !
 ! D67   D(2,6,7,8)            178.2133         estimate D2E/DX2                !
 ! D68   D(2,6,7,21)            -2.277          estimate D2E/DX2                !
 ! D69   D(11,6,7,8)            -0.6193         estimate D2E/DX2                !
 ! D70   D(11,6,7,21)          178.8904         estimate D2E/DX2                !
 ! D71   D(2,6,11,10)         -178.5995         estimate D2E/DX2                !
 ! D72   D(2,6,11,24)            1.3756         estimate D2E/DX2                !
 ! D73   D(7,6,11,10)            0.2042         estimate D2E/DX2                !
 ! D74   D(7,6,11,24)         -179.8207         estimate D2E/DX2                !
 ! D75   D(6,7,8,9)              0.528          estimate D2E/DX2                !
 ! D76   D(6,7,8,26)          -178.9161         estimate D2E/DX2                !
 ! D77   D(21,7,8,9)          -179.0205         estimate D2E/DX2                !
 ! D78   D(21,7,8,26)            1.5354         estimate D2E/DX2                !
 ! D79   D(7,8,9,10)             0.0144         estimate D2E/DX2                !
 ! D80   D(7,8,9,22)           179.8845         estimate D2E/DX2                !
 ! D81   D(26,8,9,10)          179.4283         estimate D2E/DX2                !
 ! D82   D(26,8,9,22)           -0.7016         estimate D2E/DX2                !
 ! D83   D(7,8,26,12)           -4.837          estimate D2E/DX2                !
 ! D84   D(9,8,26,12)          175.7096         estimate D2E/DX2                !
 ! D85   D(8,9,10,11)           -0.4259         estimate D2E/DX2                !
 ! D86   D(8,9,10,23)          179.7712         estimate D2E/DX2                !
 ! D87   D(22,9,10,11)         179.7135         estimate D2E/DX2                !
 ! D88   D(22,9,10,23)          -0.0894         estimate D2E/DX2                !
 ! D89   D(9,10,11,6)            0.309          estimate D2E/DX2                !
 ! D90   D(9,10,11,24)        -179.6661         estimate D2E/DX2                !
 ! D91   D(23,10,11,6)        -179.8912         estimate D2E/DX2                !
 ! D92   D(23,10,11,24)          0.1337         estimate D2E/DX2                !
 ! D93   D(29,12,26,8)          14.4051         estimate D2E/DX2                !
 ! D94   D(30,12,26,8)         151.2908         estimate D2E/DX2                !
 ! D95   D(26,12,29,31)        -12.765          estimate D2E/DX2                !
 ! D96   D(30,12,29,31)       -159.993          estimate D2E/DX2                !
 ! D97   D(26,12,37,38)        107.1876         estimate D2E/DX2                !
 ! D98   D(26,12,37,39)        -52.7026         estimate D2E/DX2                !
 ! D99   D(29,12,37,38)       -120.3795         estimate D2E/DX2                !
 ! D100  D(29,12,37,39)         79.7304         estimate D2E/DX2                !
 ! D101  D(27,13,33,31)        -48.6242         estimate D2E/DX2                !
 ! D102  D(28,13,33,31)        165.6774         estimate D2E/DX2                !
 ! D103  D(12,29,31,32)       -147.5519         estimate D2E/DX2                !
 ! D104  D(12,29,31,33)         73.5804         estimate D2E/DX2                !
 ! D105  D(29,31,33,13)        -62.4638         estimate D2E/DX2                !
 ! D106  D(32,31,33,13)        152.488          estimate D2E/DX2                !
 --------------------------------------------------------------------------------
 Trust Radius=3.00D-01 FncErr=1.00D-07 GrdErr=1.00D-06 EigMax=2.50D+02 EigMin=1.00D-04
 Number of steps in this run=    230 maximum allowed number of steps=    234.
 GradGradGradGradGradGradGradGradGradGradGradGradGradGradGradGradGradGrad

                          Input orientation:                          
 ---------------------------------------------------------------------
 Center     Atomic      Atomic             Coordinates (Angstroms)
 Number     Number       Type             X           Y           Z
 ---------------------------------------------------------------------
      1          7           0       -1.936715   -0.201518    0.581763
      2          6           0       -1.370718   -0.918705   -0.574503
      3          6           0       -1.672810   -0.006157   -1.789040
      4          6           0       -2.711382    1.012402   -1.269639
      5          6           0       -3.161320    0.423973    0.063436
      6          6           0        0.089497   -1.243883   -0.355216
      7          6           0        1.033524   -0.225166   -0.307073
      8          7           0        2.323896   -0.497500   -0.078159
      9          6           0        2.784029   -1.745927    0.105698
     10          6           0        1.901660   -2.807126    0.059620
     11          6           0        0.547830   -2.548553   -0.169196
     12          8           0        3.529900    1.859135   -0.114126
     13          8           0       -0.407445    1.908577    1.599336
     14          1           0       -3.533832    1.171322    0.774230
     15          1           0       -3.546083    1.152887   -1.963154
     16          1           0       -2.240520    1.989023   -1.105823
     17          1           0       -2.064962   -0.609087   -2.614656
     18          1           0       -0.771883    0.494126   -2.160889
     19          1           0       -3.952377   -0.334895   -0.083344
     20          1           0       -1.908249   -1.877035   -0.702013
     21          1           0        0.796259    0.827051   -0.455226
     22          1           0        3.851055   -1.854122    0.282614
     23          1           0        2.267337   -3.820910    0.203824
     24          1           0       -0.160530   -3.376926   -0.202551
     25          6           0       -2.165921   -1.062079    1.736549
     26          1           0        2.968179    0.335076   -0.040509
     27          1           0       -0.977858    1.176050    1.256566
     28          1           0       -0.808675    2.235893    2.406783
     29          1           0        2.768875    2.478775   -0.133361
     30          1           0        4.248360    2.289513    0.353757
     31          8           0        1.125126    3.038326   -0.276206
     32          1           0        0.881126    3.895520   -0.631378
     33          1           0        0.519021    2.843832    0.469993
     34          1           0       -2.621680   -0.477363    2.544213
     35          1           0       -1.212612   -1.461546    2.104895
     36          1           0       -2.838191   -1.905035    1.494957
     37          8           0        5.421200    3.307572    1.316359
     38          1           0        6.310944    3.605203    1.064427
     39          1           0        5.424492    3.385468    2.284695
 ---------------------------------------------------------------------
                    Distance matrix (angstroms):
                    1          2          3          4          5
     1  N    0.000000
     2  C    1.473656   0.000000
     3  C    2.393432   1.548904   0.000000
     4  C    2.345506   2.451483   1.544627   0.000000
     5  C    1.469544   2.327231   2.415024   1.525051   0.000000
     6  C    2.463735   1.511971   2.587188   3.711053   3.677611
     7  C    3.100469   2.516524   3.093289   4.059856   4.260912
     8  N    4.321563   3.751526   4.375179   5.390126   5.563880
     9  C    4.989716   4.290559   5.145896   6.300752   6.329094
    10  C    4.668506   3.831019   4.903041   6.134809   6.006145
    11  C    3.499354   2.549805   3.744184   4.951145   4.758973
    12  O    5.883403   5.651938   5.775192   6.403575   6.845703
    13  O    2.797610   3.694184   4.092487   3.787119   3.485235
    14  H    2.114832   3.296416   3.379381   2.208864   1.096596
    15  H    3.301678   3.309389   2.209717   1.094269   2.187790
    16  H    2.781854   3.081191   2.183993   1.096511   2.159727
    17  H    3.224849   2.177168   1.094966   2.203669   3.072685
    18  H    3.059885   2.207106   1.095547   2.196496   3.265265
    19  H    2.126746   2.692032   2.865989   2.182332   1.105982
    20  H    2.110983   1.106162   2.176521   3.052223   2.729604
    21  H    3.098782   2.785261   2.927387   3.605713   4.011722
    22  H    6.026514   5.373692   6.182217   7.327484   7.376392
    23  H    5.560296   4.718478   5.835118   7.093634   6.892681
    24  H    3.721988   2.765096   4.020699   5.187651   4.849982
    25  C    1.458297   2.448237   3.713207   3.692989   2.449179
    26  H    4.973242   4.547872   4.971175   5.850380   6.131025
    27  H    1.808994   2.809831   3.340103   3.068159   2.599362
    28  H    3.247175   4.376694   4.835126   4.316631   3.782759
    29  H    5.462412   5.373426   5.352077   5.785723   6.279184
    30  H    6.671760   6.536694   6.702383   7.259782   7.646429
    31  O    4.539556   4.687890   4.402952   4.450851   5.032278
    32  H    5.118365   5.315148   4.804774   4.650361   5.373618
    33  H    3.913731   4.338061   4.246150   4.100727   4.423338
    34  H    2.096778   3.389112   4.460882   4.095475   2.694044
    35  H    2.105214   2.738402   4.182424   4.444571   3.394142
    36  H    2.132734   2.721946   3.968436   4.021257   2.752806
    37  O    8.184880   8.219911   8.423140   8.837086   9.140274
    38  H    9.096591   9.064203   9.215451   9.673306  10.042211
    39  H    8.363840   8.536732   8.858337   9.190059   9.349899
                    6          7          8          9         10
     6  C    0.000000
     7  C    1.389708   0.000000
     8  N    2.372001   1.338517   0.000000
     9  C    2.779387   2.355284   1.343166   0.000000
    10  C    2.428941   2.748571   2.351944   1.380884   0.000000
    11  C    1.395291   2.377611   2.714685   2.391728   1.397166
    12  O    4.639312   3.257826   2.647540   3.687969   4.945235
    13  O    3.742356   3.203693   4.007920   5.076599   5.471796
    14  H    4.498597   4.896952   6.150164   6.990897   6.773720
    15  H    4.641919   5.061071   6.382291   7.263167   7.032156
    16  H    4.055129   4.032369   5.298376   6.376812   6.443521
    17  H    3.185864   3.882390   5.070340   5.674984   5.264714
    18  H    2.650114   2.685798   3.860691   4.774910   4.793408
    19  H    4.151737   4.992124   6.278381   6.885195   6.356266
    20  H    2.124180   3.396863   4.494815   4.763093   3.995067
    21  H    2.190498   1.088763   2.056767   3.299406   3.833304
    22  H    3.863747   3.307523   2.074318   1.086991   2.181303
    23  H    3.420026   3.835712   3.335831   2.140597   1.087324
    24  H    2.153066   3.371985   3.805120   3.380178   2.155466
    25  C    3.081468   3.887578   4.875487   5.256361   4.733127
    26  H    3.298327   2.031703   1.053423   2.094245   3.319777
    27  H    3.097283   2.907582   3.934951   4.900433   5.058655
    28  H    4.532570   4.100673   4.843488   5.835872   6.187660
    29  H    4.592001   3.217595   3.009862   4.231487   5.360042
    30  H    5.503060   4.134668   3.414316   4.300067   5.618652
    31  O    4.406369   3.264923   3.738762   5.078079   5.906360
    32  H    5.207341   4.136236   4.656851   5.999187   6.815015
    33  H    4.192240   3.207381   3.836997   5.131166   5.832103
    34  H    4.042861   4.642623   5.597853   6.064429   5.662297
    35  H    2.791955   3.520135   4.266380   4.477812   3.961367
    36  H    3.525850   4.589058   5.577006   5.793506   5.033900
    37  O    7.206731   5.862378   5.100642   5.827369   7.166317
    38  H    8.014701   6.663626   5.833886   6.480192   7.846616
    39  H    7.540702   6.247763   5.502201   6.168573   7.463881
                   11         12         13         14         15
    11  C    0.000000
    12  O    5.321982   0.000000
    13  O    4.889403   4.294308   0.000000
    14  H    5.602454   7.152522   3.316420   0.000000
    15  H    5.803367   7.347600   4.807645   2.737473   0.000000
    16  H    5.407565   5.856456   3.268719   2.424024   1.771619
    17  H    4.070440   6.606607   5.181093   4.100242   2.392222
    18  H    3.868640   4.955585   4.033953   4.086793   2.858190
    19  H    5.015926   7.797383   4.520080   1.783060   2.431513
    20  H    2.601375   6.624050   4.677550   3.756900   3.667888
    21  H    3.396797   2.941826   2.615306   4.514396   4.608248
    22  H    3.405534   3.748176   5.833222   7.995721   8.294771
    23  H    2.171345   5.827355   6.475255   7.674719   7.951748
    24  H    1.090453   6.406514   5.589661   5.746288   5.922913
    25  C    3.633994   6.663397   3.454832   2.790218   4.527552
    26  H    3.766957   1.625948   4.069378   6.606001   6.841125
    27  H    4.270034   4.760807   0.989676   2.601091   4.118606
    28  H    5.600598   5.031914   0.959214   3.350376   5.269028
    29  H    5.496213   0.981572   3.662837   6.500559   6.707072
    30  H    6.113451   0.959335   4.834573   7.873351   8.210563
    31  O    5.617645   2.683226   2.672595   5.127866   5.312332
    32  H    6.469218   3.380890   3.253374   5.374834   5.375485
    33  H    5.430213   3.221213   1.734490   4.394937   5.030365
    34  H    4.658134   7.097036   3.389445   2.585154   4.881454
    35  H    3.074448   6.200193   3.501659   3.753762   5.369299
    36  H    3.827357   7.570384   4.523611   3.235326   4.670174
    37  O    7.762140   2.778718   6.000864   9.222260   9.788260
    38  H    8.520800   3.488832   6.949923  10.145325  10.599108
    39  H    8.063251   3.416652   6.054950   9.350696  10.173488
                   16         17         18         19         20
    16  H    0.000000
    17  H    3.009580   0.000000
    18  H    2.346226   1.759272   0.000000
    19  H    3.062109   3.169394   3.888317   0.000000
    20  H    3.901265   2.300099   3.007000   2.634275   0.000000
    21  H    3.315944   3.861634   2.340768   4.902852   3.832408
    22  H    7.335176   6.703995   5.732062   7.958362   5.842910
    23  H    7.469355   6.085101   5.783447   7.135798   4.694114
    24  H    5.825433   4.135945   4.381082   4.862743   2.356620
    25  C    4.170596   4.375886   4.422119   2.651836   2.584015
    26  H    5.567852   5.731508   4.302252   6.953042   5.395421
    27  H    2.799307   4.399417   3.490909   3.595285   3.744728
    28  H    3.801253   5.906523   4.888633   4.763669   5.271608
    29  H    5.126361   6.249616   4.537253   7.286595   6.416536
    30  H    6.657795   7.554561   5.894888   8.621523   7.508569
    31  O    3.621723   5.380393   3.691020   6.098922   5.791671
    32  H    3.688428   5.736228   4.079378   6.446666   6.411552
    33  H    3.290739   5.302328   3.756207   5.513972   5.436159
    34  H    4.421663   5.190493   5.148157   2.948747   3.606390
    35  H    4.824078   4.871073   4.713365   3.682940   2.921519
    36  H    4.720694   4.377931   4.836405   2.489535   2.385844
    37  O    8.142941   9.318569   7.639438  10.153358   9.201891
    38  H    8.969368  10.072323   8.381402  11.053394  10.036453
    39  H    8.496945   9.800614   8.155865  10.362161   9.507021
                   21         22         23         24         25
    21  H    0.000000
    22  H    4.130965   0.000000
    23  H    4.919549   2.526386   0.000000
    24  H    4.318879   4.318232   2.501360   0.000000
    25  C    4.140918   6.240614   5.441890   3.624944   0.000000
    26  H    2.265230   2.382534   4.221741   4.857369   5.609720
    27  H    2.489884   5.783505   6.050551   4.850427   2.578972
    28  H    3.570958   6.553884   7.141410   6.223540   3.628767
    29  H    2.592875   4.485326   6.328607   6.547934   6.355031
    30  H    3.835394   4.163247   6.425278   7.201133   7.368058
    31  O    2.242753   5.628412   6.970236   6.543225   5.629875
    32  H    3.074692   6.535613   7.884316   7.359172   6.282465
    33  H    2.236134   5.762667   6.895378   6.293801   4.906039
    34  H    4.730797   6.993325   6.368612   4.691422   1.096326
    35  H    3.978374   5.395882   4.614186   3.178028   1.097292
    36  H    4.947397   6.798410   5.603929   3.495406   1.104938
    37  O    5.539096   5.493366   7.873998   8.839984   8.765547
    38  H    6.359185   6.038751   8.499327   9.603923   9.700130
    39  H    5.955939   5.825576   8.138153   9.116405   8.814506
                   26         27         28         29         30
    26  H    0.000000
    27  H    4.238024   0.000000
    28  H    4.885383   1.573178   0.000000
    29  H    2.154945   4.203213   4.394336   0.000000
    30  H    2.369416   5.419245   5.458149   1.569070   0.000000
    31  O    3.280237   3.200001   3.403221   1.742244   3.272944
    32  H    4.169134   3.796797   3.852300   2.412215   3.858499
    33  H    3.542999   2.375045   2.425597   2.357784   3.772102
    34  H    6.211873   2.663449   3.266134   6.705687   7.723416
    35  H    5.030867   2.780591   3.731669   6.032260   6.852674
    36  H    6.410124   3.607042   4.700813   7.301260   8.313590
    37  O    4.085846   6.744991   6.414738   3.134234   1.827184
    38  H    4.805070   7.685333   7.373324   3.905098   2.547616
    39  H    4.554661   6.850450   6.339464   3.704239   2.512554
                   31         32         33         34         35
    31  O    0.000000
    32  H    0.959409   0.000000
    33  H    0.980818   1.565307   0.000000
    34  H    5.861176   6.440197   5.019634   0.000000
    35  H    5.602099   6.369387   4.920136   1.774004   0.000000
    36  H    6.578884   7.211176   5.905350   1.784954   1.791986
    37  O    4.589663   4.975102   4.996274   8.973365   8.208151
    38  H    5.386219   5.695873   5.871917   9.932215   9.130083
    39  H    5.016300   5.422712   5.258342   8.929149   8.220525
                   36         37         38         39
    36  H    0.000000
    37  O    9.768353   0.000000
    38  H   10.689002   0.971442   0.000000
    39  H    9.843020   0.971469   1.524183   0.000000
 Stoichiometry    C10H23N2O4(1+)
 Framework group  C1[X(C10H23N2O4)]
 Deg. of freedom   111
 Full point group                 C1      NOp   1
 Largest Abelian subgroup         C1      NOp   1
 Largest concise Abelian subgroup C1      NOp   1
                         Standard orientation:                         
 ---------------------------------------------------------------------
 Center     Atomic      Atomic             Coordinates (Angstroms)
 Number     Number       Type             X           Y           Z
 ---------------------------------------------------------------------
      1          7           0        2.303385   -0.483391    0.697068
      2          6           0        2.166391    0.452050   -0.433349
      3          6           0        2.237747   -0.443449   -1.695131
      4          6           0        2.767581   -1.802178   -1.186207
      5          6           0        3.259186   -1.494569    0.224284
      6          6           0        0.913952    1.288864   -0.302219
      7          6           0       -0.338134    0.696993   -0.417373
      8          7           0       -1.454130    1.420762   -0.267912
      9          6           0       -1.439173    2.739413   -0.012900
     10          6           0       -0.228632    3.393604    0.103147
     11          6           0        0.951042    2.658796   -0.040023
     12          8           0       -3.431728   -0.307201   -0.603648
     13          8           0        0.006755   -1.916194    1.403603
     14          1           0        3.253320   -2.362534    0.894451
     15          1           0        3.560144   -2.209280   -1.821453
     16          1           0        1.955907   -2.538295   -1.145577
     17          1           0        2.908988    0.010251   -2.431704
     18          1           0        1.260563   -0.549932   -2.178865
     19          1           0        4.284732   -1.080869    0.206827
     20          1           0        3.029095    1.144391   -0.434267
     21          1           0       -0.490541   -0.358358   -0.637395
     22          1           0       -2.403757    3.230230    0.088218
     23          1           0       -0.208582    4.461689    0.305795
     24          1           0        1.913806    3.161988    0.054700
     25          6           0        2.710024    0.168007    1.936809
     26          1           0       -2.359698    0.889452   -0.353692
     27          1           0        0.839443   -1.434137    1.171849
     28          1           0        0.171801   -2.411047    2.208569
     29          1           0       -2.954680   -1.164952   -0.616771
     30          1           0       -4.303188   -0.460515   -0.233005
     31          8           0       -1.627003   -2.291425   -0.677936
     32          1           0       -1.679583   -3.158113   -1.086045
     33          1           0       -1.074199   -2.376823    0.127744
     34          1           0        2.830697   -0.585573    2.723883
     35          1           0        1.937493    0.876018    2.262334
     36          1           0        3.666777    0.708929    1.823162
     37          8           0       -5.862866   -1.013082    0.542029
     38          1           0       -6.767789   -0.942318    0.195899
     39          1           0       -5.996707   -1.133760    1.496637
 ---------------------------------------------------------------------
 Rotational constants (GHZ):           0.5645319           0.2839753           0.2227507
 Standard basis: Aug-CC-pVDZ (5D, 7F)
 There are   607 symmetry adapted cartesian basis functions of A   symmetry.
 There are   575 symmetry adapted basis functions of A   symmetry.
   575 basis functions,   941 primitive gaussians,   607 cartesian basis functions
    64 alpha electrons       64 beta electrons
       nuclear repulsion energy      1223.9341991920 Hartrees.
 NAtoms=   39 NActive=   39 NUniq=   39 SFac= 1.00D+00 NAtFMM=   60 NAOKFM=F Big=F
 Integral buffers will be    131072 words long.
 Raffenetti 2 integral format.
 Two-electron integral symmetry is turned on.
 Nuclear repulsion after empirical dispersion term =     1223.9041902484 Hartrees.
 One-electron integrals computed using PRISM.
 NBasis=   575 RedAO= T EigKep=  1.63D-06  NBF=   575
 NBsUse=   575 1.00D-06 EigRej= -1.00D+00 NBFU=   575
 ExpMin= 2.97D-02 ExpMax= 1.17D+04 ExpMxC= 4.01D+02 IAcc=3 IRadAn=         5 AccDes= 0.00D+00
 Harris functional with IExCor= 4639 and IRadAn=       5 diagonalized for initial guess.
 HarFok:  IExCor= 4639 AccDes= 0.00D+00 IRadAn=         5 IDoV= 1 UseB2=F ITyADJ=14
 ICtDFT=  3500011 ScaDFX=  1.000000  1.000000  1.000000  1.000000
 FoFCou: FMM=F IPFlag=           0 FMFlag=      100000 FMFlg1=           0
         NFxFlg=           0 DoJE=T BraDBF=F KetDBF=T FulRan=T
         wScrn=  0.000000 ICntrl=       500 IOpCl=  0 I1Cent=   200000004 NGrid=           0
         NMat0=    1 NMatS0=      1 NMatT0=    0 NMatD0=    1 NMtDS0=    0 NMtDT0=    0
 Petite list used in FoFCou.
 Requested convergence on RMS density matrix=1.00D-08 within 128 cycles.
 Requested convergence on MAX density matrix=1.00D-06.
 Requested convergence on             energy=1.00D-06.
 No special actions if energy rises.
 SCF Done:  E(RwB97XD) =  -805.032001744     A.U. after   15 cycles
            NFock= 15  Conv=0.30D-08     -V/T= 2.0063

 **********************************************************************

            Population analysis using the SCF density.

 **********************************************************************

 Orbital symmetries:
       Occupied  (A) (A) (A) (A) (A) (A) (A) (A) (A) (A) (A) (A)
                 (A) (A) (A) (A) (A) (A) (A) (A) (A) (A) (A) (A)
                 (A) (A) (A) (A) (A) (A) (A) (A) (A) (A) (A) (A)
                 (A) (A) (A) (A) (A) (A) (A) (A) (A) (A) (A) (A)
                 (A) (A) (A) (A) (A) (A) (A) (A) (A) (A) (A) (A)
                 (A) (A) (A) (A)
       Virtual   (A) (A) (A) (A) (A) (A) (A) (A) (A) (A) (A) (A)
                 (A) (A) (A) (A) (A) (A) (A) (A) (A) (A) (A) (A)
                 (A) (A) (A) (A) (A) (A) (A) (A) (A) (A) (A) (A)
                 (A) (A) (A) (A) (A) (A) (A) (A) (A) (A) (A) (A)
                 (A) (A) (A) (A) (A) (A) (A) (A) (A) (A) (A) (A)
                 (A) (A) (A) (A) (A) (A) (A) (A) (A) (A) (A) (A)
                 (A) (A) (A) (A) (A) (A) (A) (A) (A) (A) (A) (A)
                 (A) (A) (A) (A) (A) (A) (A) (A) (A) (A) (A) (A)
                 (A) (A) (A) (A) (A) (A) (A) (A) (A) (A) (A) (A)
                 (A) (A) (A) (A) (A) (A) (A) (A) (A) (A) (A) (A)
                 (A) (A) (A) (A) (A) (A) (A) (A) (A) (A) (A) (A)
                 (A) (A) (A) (A) (A) (A) (A) (A) (A) (A) (A) (A)
                 (A) (A) (A) (A) (A) (A) (A) (A) (A) (A) (A) (A)
                 (A) (A) (A) (A) (A) (A) (A) (A) (A) (A) (A) (A)
                 (A) (A) (A) (A) (A) (A) (A) (A) (A) (A) (A) (A)
                 (A) (A) (A) (A) (A) (A) (A) (A) (A) (A) (A) (A)
                 (A) (A) (A) (A) (A) (A) (A) (A) (A) (A) (A) (A)
                 (A) (A) (A) (A) (A) (A) (A) (A) (A) (A) (A) (A)
                 (A) (A) (A) (A) (A) (A) (A) (A) (A) (A) (A) (A)
                 (A) (A) (A) (A) (A) (A) (A) (A) (A) (A) (A) (A)
                 (A) (A) (A) (A) (A) (A) (A) (A) (A) (A) (A) (A)
                 (A) (A) (A) (A) (A) (A) (A) (A) (A) (A) (A) (A)
                 (A) (A) (A) (A) (A) (A) (A) (A) (A) (A) (A) (A)
                 (A) (A) (A) (A) (A) (A) (A) (A) (A) (A) (A) (A)
                 (A) (A) (A) (A) (A) (A) (A) (A) (A) (A) (A) (A)
                 (A) (A) (A) (A) (A) (A) (A) (A) (A) (A) (A) (A)
                 (A) (A) (A) (A) (A) (A) (A) (A) (A) (A) (A) (A)
                 (A) (A) (A) (A) (A) (A) (A) (A) (A) (A) (A) (A)
                 (A) (A) (A) (A) (A) (A) (A) (A) (A) (A) (A) (A)
                 (A) (A) (A) (A) (A) (A) (A) (A) (A) (A) (A) (A)
                 (A) (A) (A) (A) (A) (A) (A) (A) (A) (A) (A) (A)
                 (A) (A) (A) (A) (A) (A) (A) (A) (A) (A) (A) (A)
                 (A) (A) (A) (A) (A) (A) (A) (A) (A) (A) (A) (A)
                 (A) (A) (A) (A) (A) (A) (A) (A) (A) (A) (A) (A)
                 (A) (A) (A) (A) (A) (A) (A) (A) (A) (A) (A) (A)
                 (A) (A) (A) (A) (A) (A) (A) (A) (A) (A) (A) (A)
                 (A) (A) (A) (A) (A) (A) (A) (A) (A) (A) (A) (A)
                 (A) (A) (A) (A) (A) (A) (A) (A) (A) (A) (A) (A)
                 (A) (A) (A) (A) (A) (A) (A) (A) (A) (A) (A) (A)
                 (A) (A) (A) (A) (A) (A) (A) (A) (A) (A) (A) (A)
                 (A) (A) (A) (A) (A) (A) (A) (A) (A) (A) (A) (A)
                 (A) (A) (A) (A) (A) (A) (A) (A) (A) (A) (A) (A)
                 (A) (A) (A) (A) (A) (A) (A)
 The electronic state is 1-A.
 Alpha  occ. eigenvalues --  -19.39293 -19.37995 -19.37975 -19.36076 -14.67005
 Alpha  occ. eigenvalues --  -14.58032 -10.50692 -10.50133 -10.47527 -10.46850
 Alpha  occ. eigenvalues --  -10.46565 -10.46299 -10.43293 -10.43257 -10.41325
 Alpha  occ. eigenvalues --  -10.40378  -1.25348  -1.23161  -1.22953  -1.21681
 Alpha  occ. eigenvalues --   -1.20230  -1.17327  -1.07955  -1.04389  -1.00463
 Alpha  occ. eigenvalues --   -0.95802  -0.90221  -0.89672  -0.88542  -0.82135
 Alpha  occ. eigenvalues --   -0.79801  -0.79222  -0.74528  -0.74428  -0.73600
 Alpha  occ. eigenvalues --   -0.73241  -0.72925  -0.72486  -0.70663  -0.69442
 Alpha  occ. eigenvalues --   -0.68507  -0.67647  -0.65484  -0.64516  -0.63819
 Alpha  occ. eigenvalues --   -0.62992  -0.61610  -0.60337  -0.60126  -0.58749
 Alpha  occ. eigenvalues --   -0.57431  -0.57050  -0.56153  -0.55937  -0.55544
 Alpha  occ. eigenvalues --   -0.53775  -0.53106  -0.52223  -0.52005  -0.51881
 Alpha  occ. eigenvalues --   -0.51063  -0.50123  -0.49060  -0.44395
 Alpha virt. eigenvalues --   -0.13450  -0.10688  -0.06150  -0.05235  -0.04925
 Alpha virt. eigenvalues --   -0.04143  -0.03889  -0.03053  -0.02825  -0.02240
 Alpha virt. eigenvalues --   -0.01989  -0.01801  -0.00803  -0.00791  -0.00414
 Alpha virt. eigenvalues --    0.00188   0.00422   0.00809   0.01143   0.01673
 Alpha virt. eigenvalues --    0.02096   0.02154   0.02542   0.02740   0.03125
 Alpha virt. eigenvalues --    0.03587   0.03876   0.04275   0.04444   0.04761
 Alpha virt. eigenvalues --    0.05076   0.05223   0.05482   0.05607   0.06102
 Alpha virt. eigenvalues --    0.06368   0.06666   0.06773   0.07096   0.07510
 Alpha virt. eigenvalues --    0.07740   0.07870   0.08379   0.08616   0.08864
 Alpha virt. eigenvalues --    0.09259   0.09670   0.10134   0.10292   0.10551
 Alpha virt. eigenvalues --    0.10831   0.10915   0.11062   0.11669   0.11804
 Alpha virt. eigenvalues --    0.12239   0.12500   0.12692   0.13031   0.13287
 Alpha virt. eigenvalues --    0.13399   0.13938   0.14339   0.14594   0.14944
 Alpha virt. eigenvalues --    0.15141   0.15604   0.15906   0.15993   0.16183
 Alpha virt. eigenvalues --    0.16386   0.16803   0.17173   0.17386   0.17638
 Alpha virt. eigenvalues --    0.18118   0.18450   0.18662   0.18948   0.19305
 Alpha virt. eigenvalues --    0.19633   0.19752   0.19842   0.20163   0.20620
 Alpha virt. eigenvalues --    0.20867   0.21355   0.21771   0.22098   0.22205
 Alpha virt. eigenvalues --    0.22752   0.22845   0.23040   0.23695   0.24091
 Alpha virt. eigenvalues --    0.24301   0.24722   0.25040   0.25116   0.25511
 Alpha virt. eigenvalues --    0.25958   0.26122   0.26397   0.26887   0.27546
 Alpha virt. eigenvalues --    0.27858   0.28159   0.28479   0.28593   0.28914
 Alpha virt. eigenvalues --    0.29244   0.29787   0.30166   0.30831   0.31118
 Alpha virt. eigenvalues --    0.31227   0.31918   0.32157   0.32452   0.32717
 Alpha virt. eigenvalues --    0.33164   0.33826   0.34134   0.34274   0.34354
 Alpha virt. eigenvalues --    0.34931   0.35023   0.35662   0.36252   0.36616
 Alpha virt. eigenvalues --    0.36887   0.37838   0.37866   0.38129   0.38879
 Alpha virt. eigenvalues --    0.39515   0.39665   0.40170   0.40807   0.40998
 Alpha virt. eigenvalues --    0.41233   0.41777   0.42135   0.42387   0.42994
 Alpha virt. eigenvalues --    0.43411   0.43744   0.43985   0.44293   0.44830
 Alpha virt. eigenvalues --    0.45095   0.45502   0.45740   0.45941   0.46471
 Alpha virt. eigenvalues --    0.46735   0.47450   0.47725   0.48209   0.48452
 Alpha virt. eigenvalues --    0.49030   0.49442   0.50133   0.50564   0.50831
 Alpha virt. eigenvalues --    0.51150   0.51564   0.51732   0.52535   0.52754
 Alpha virt. eigenvalues --    0.52992   0.53243   0.53401   0.53758   0.53818
 Alpha virt. eigenvalues --    0.54220   0.55142   0.55421   0.56164   0.56449
 Alpha virt. eigenvalues --    0.56598   0.56886   0.57431   0.57885   0.58086
 Alpha virt. eigenvalues --    0.58683   0.58976   0.59341   0.59492   0.59866
 Alpha virt. eigenvalues --    0.60402   0.61362   0.61608   0.62221   0.62394
 Alpha virt. eigenvalues --    0.62614   0.62768   0.63387   0.63592   0.64173
 Alpha virt. eigenvalues --    0.64771   0.65031   0.65285   0.66562   0.67120
 Alpha virt. eigenvalues --    0.67217   0.67648   0.68602   0.68892   0.69338
 Alpha virt. eigenvalues --    0.69958   0.70248   0.70827   0.71222   0.71373
 Alpha virt. eigenvalues --    0.71855   0.71955   0.72915   0.73580   0.73882
 Alpha virt. eigenvalues --    0.74177   0.74454   0.74783   0.75479   0.76092
 Alpha virt. eigenvalues --    0.76363   0.76837   0.77030   0.77719   0.78304
 Alpha virt. eigenvalues --    0.78859   0.79294   0.79668   0.81630   0.82068
 Alpha virt. eigenvalues --    0.82557   0.83273   0.83376   0.83819   0.84072
 Alpha virt. eigenvalues --    0.84934   0.85256   0.85609   0.86792   0.87089
 Alpha virt. eigenvalues --    0.87544   0.88447   0.88760   0.89858   0.90840
 Alpha virt. eigenvalues --    0.91331   0.91920   0.92460   0.93604   0.93949
 Alpha virt. eigenvalues --    0.94359   0.94700   0.95887   0.96762   0.97040
 Alpha virt. eigenvalues --    0.97867   0.98123   0.98973   1.00040   1.00962
 Alpha virt. eigenvalues --    1.01066   1.01958   1.02478   1.03893   1.04366
 Alpha virt. eigenvalues --    1.04969   1.05994   1.06136   1.07350   1.08586
 Alpha virt. eigenvalues --    1.09386   1.09931   1.10532   1.11636   1.12112
 Alpha virt. eigenvalues --    1.13166   1.13494   1.14758   1.15452   1.16013
 Alpha virt. eigenvalues --    1.17001   1.17240   1.18184   1.18464   1.19711
 Alpha virt. eigenvalues --    1.20328   1.20744   1.22274   1.22509   1.22971
 Alpha virt. eigenvalues --    1.25105   1.25485   1.27201   1.27779   1.28249
 Alpha virt. eigenvalues --    1.29040   1.30392   1.30745   1.31701   1.32779
 Alpha virt. eigenvalues --    1.33501   1.35139   1.35439   1.36151   1.36696
 Alpha virt. eigenvalues --    1.37940   1.38419   1.39367   1.39742   1.40446
 Alpha virt. eigenvalues --    1.41634   1.42198   1.43802   1.44529   1.45730
 Alpha virt. eigenvalues --    1.46622   1.47409   1.48239   1.49374   1.50649
 Alpha virt. eigenvalues --    1.51698   1.52400   1.53054   1.54240   1.55329
 Alpha virt. eigenvalues --    1.57340   1.57941   1.58923   1.59014   1.59723
 Alpha virt. eigenvalues --    1.60522   1.61633   1.62618   1.63022   1.63526
 Alpha virt. eigenvalues --    1.64015   1.64833   1.66639   1.67266   1.68154
 Alpha virt. eigenvalues --    1.68593   1.69710   1.69819   1.70827   1.71441
 Alpha virt. eigenvalues --    1.72544   1.73534   1.74253   1.75049   1.75455
 Alpha virt. eigenvalues --    1.75896   1.77668   1.77934   1.78880   1.79551
 Alpha virt. eigenvalues --    1.80107   1.81778   1.82407   1.82452   1.82981
 Alpha virt. eigenvalues --    1.83775   1.84657   1.85397   1.86313   1.86849
 Alpha virt. eigenvalues --    1.87758   1.88408   1.88733   1.89097   1.89955
 Alpha virt. eigenvalues --    1.90672   1.91669   1.92521   1.93479   1.94007
 Alpha virt. eigenvalues --    1.95410   1.95922   1.96535   1.96827   1.98054
 Alpha virt. eigenvalues --    1.98588   1.99528   2.00559   2.01329   2.02050
 Alpha virt. eigenvalues --    2.03073   2.04204   2.05274   2.06268   2.06978
 Alpha virt. eigenvalues --    2.08885   2.09237   2.10094   2.11344   2.11984
 Alpha virt. eigenvalues --    2.12290   2.12935   2.13825   2.14571   2.15029
 Alpha virt. eigenvalues --    2.15613   2.17307   2.18591   2.19242   2.19982
 Alpha virt. eigenvalues --    2.20985   2.22721   2.23802   2.24894   2.25237
 Alpha virt. eigenvalues --    2.25678   2.26765   2.27751   2.27916   2.28886
 Alpha virt. eigenvalues --    2.29229   2.30739   2.32451   2.33430   2.34103
 Alpha virt. eigenvalues --    2.35905   2.37486   2.37864   2.39533   2.40575
 Alpha virt. eigenvalues --    2.41220   2.42004   2.42876   2.44047   2.45896
 Alpha virt. eigenvalues --    2.46758   2.48168   2.49693   2.50251   2.51720
 Alpha virt. eigenvalues --    2.52675   2.53695   2.54638   2.55736   2.58705
 Alpha virt. eigenvalues --    2.58736   2.59332   2.60744   2.61897   2.63236
 Alpha virt. eigenvalues --    2.63759   2.65718   2.67330   2.68719   2.69362
 Alpha virt. eigenvalues --    2.71736   2.71998   2.73357   2.73847   2.74528
 Alpha virt. eigenvalues --    2.76063   2.77101   2.77758   2.80322   2.81028
 Alpha virt. eigenvalues --    2.81513   2.83184   2.84172   2.85496   2.87072
 Alpha virt. eigenvalues --    2.88248   2.89550   2.92283   2.93289   2.94846
 Alpha virt. eigenvalues --    2.97974   2.99707   3.02574   3.05577   3.11122
 Alpha virt. eigenvalues --    3.15085   3.20150   3.24167   3.26794   3.29635
 Alpha virt. eigenvalues --    3.34681   3.34887   3.39212   3.40004   3.42821
 Alpha virt. eigenvalues --    3.44743   3.45810   3.48157   3.49462   3.50074
 Alpha virt. eigenvalues --    3.53586   3.56214   3.60251   3.62364   3.66165
 Alpha virt. eigenvalues --    3.67574   3.69579   3.83067   3.88041   3.90310
 Alpha virt. eigenvalues --    3.94207   4.03821   4.11064   4.14352   4.36959
 Alpha virt. eigenvalues --    4.91323
          Condensed to atoms (all electrons):
               1          2          3          4          5          6
     1  N   15.020230  -5.609341  -0.510490  -0.556691  -0.344029   2.040953
     2  C   -5.609341  24.921663  -2.813036   0.226164  -0.502543  -6.862172
     3  C   -0.510490  -2.813036   9.503187  -0.805549   0.774979   0.869478
     4  C   -0.556691   0.226164  -0.805549   6.211607   0.072257   0.175021
     5  C   -0.344029  -0.502543   0.774979   0.072257   6.089121  -0.232597
     6  C    2.040953  -6.862172   0.869478   0.175021  -0.232597  24.528421
     7  C   -0.032698  -1.706474  -1.190410  -0.021346  -0.397748  -5.377897
     8  N   -0.086829   0.610893   0.114084   0.000548   0.056012   0.209584
     9  C    0.038687  -0.272929  -0.046415   0.020583  -0.040735  -0.946561
    10  C    0.062418  -0.248554  -0.123667  -0.018152   0.003671   0.937870
    11  C   -0.791434  -1.012323  -0.265810  -0.053638  -0.022403 -11.109510
    12  O   -0.001938  -0.000244  -0.004197  -0.002000   0.000047  -0.142957
    13  O   -0.064847   0.043045   0.030354   0.016227   0.011181   0.067517
    14  H   -0.906273   0.636148   0.142303   0.035113  -0.248869  -0.218792
    15  H   -0.122527   0.234121   0.173833  -0.357419   0.144015  -0.073729
    16  H    0.223058  -0.175945   0.208312  -0.274959  -0.154986   0.087920
    17  H    0.431561   0.179777  -1.124270   0.125898  -0.308623   0.334399
    18  H   -0.076879   0.334310  -0.228950   0.326987   0.155928  -0.354472
    19  H   -0.210174   0.027418  -0.073945   0.095493  -0.188952   0.121010
    20  H    0.065461  -2.470347   0.602064   0.050954  -0.026266   0.757043
    21  H   -0.297633  -0.067863  -0.215140  -0.039508   0.053090  -0.943600
    22  H    0.008642  -0.013413   0.005614   0.000449  -0.000607  -0.049772
    23  H   -0.003942   0.074375   0.005197   0.000974  -0.000459   0.069742
    24  H    0.027795   0.005884  -0.066429  -0.010524   0.001547   1.326276
    25  C    1.018502  -0.886343  -0.286371   0.039674  -0.227684   0.458594
    26  H   -0.007947   0.017146  -0.044825   0.003488  -0.012372  -0.493077
    27  H   -0.064402   0.345630   0.154507  -0.096812  -0.122213  -0.126560
    28  H   -0.044351  -0.016115  -0.002455   0.009077   0.025907  -0.003017
    29  H    0.000484   0.011154   0.004038   0.002226  -0.002092  -0.002694
    30  H   -0.000493  -0.001705   0.001063  -0.000504   0.000983   0.005759
    31  O   -0.007239  -0.028535   0.029649  -0.011684   0.004979   0.023615
    32  H    0.006858   0.002729  -0.005000  -0.000790   0.001452  -0.000531
    33  H   -0.013785  -0.009812   0.008627  -0.001165   0.000506   0.013988
    34  H   -0.428356   0.098232  -0.066017   0.050098  -0.000165   0.072227
    35  H    0.310506   0.089735   0.112460  -0.046153   0.004661  -0.030772
    36  H   -0.682397   0.012990  -0.061739   0.049978   0.038808   0.005001
    37  O    0.000027   0.000012   0.000012   0.000003  -0.000013   0.001464
    38  H    0.000020   0.000013   0.000004  -0.000002  -0.000003   0.000202
    39  H   -0.000027   0.000036  -0.000023   0.000017  -0.000017  -0.000103
               7          8          9         10         11         12
     1  N   -0.032698  -0.086829   0.038687   0.062418  -0.791434  -0.001938
     2  C   -1.706474   0.610893  -0.272929  -0.248554  -1.012323  -0.000244
     3  C   -1.190410   0.114084  -0.046415  -0.123667  -0.265810  -0.004197
     4  C   -0.021346   0.000548   0.020583  -0.018152  -0.053638  -0.002000
     5  C   -0.397748   0.056012  -0.040735   0.003671  -0.022403   0.000047
     6  C   -5.377897   0.209584  -0.946561   0.937870 -11.109510  -0.142957
     7  C   17.813945  -1.115159  -1.691959   0.412613  -1.472568   0.075084
     8  N   -1.115159   7.701206   0.443411  -0.164232  -0.224266  -0.194141
     9  C   -1.691959   0.443411  10.066321  -2.455346   1.438182   0.019573
    10  C    0.412613  -0.164232  -2.455346  11.650021  -4.303533  -0.033941
    11  C   -1.472568  -0.224266   1.438182  -4.303533  24.582478   0.056212
    12  O    0.075084  -0.194141   0.019573  -0.033941   0.056212   7.960360
    13  O   -0.116382   0.023709   0.008158  -0.004728  -0.023879   0.000531
    14  H   -0.023421   0.002865  -0.003017   0.000310   0.020542   0.000084
    15  H    0.019743   0.000751   0.001166   0.001393   0.016467  -0.000133
    16  H    0.008660  -0.006677  -0.002111  -0.002005  -0.010787   0.000133
    17  H    0.269102  -0.025366  -0.005801   0.005503  -0.003616   0.000563
    18  H   -0.349123   0.085920   0.034541  -0.041320  -0.005715  -0.005763
    19  H   -0.001377   0.001250   0.000857  -0.005935   0.008555  -0.000020
    20  H   -0.173290   0.002060   0.029069   0.001870   0.031782  -0.000312
    21  H   -0.483442  -0.387866  -0.335035   0.132673  -0.028327   0.119800
    22  H    0.130930  -0.143981  -0.552723   0.140645   0.228450   0.001003
    23  H   -0.219510   0.012315   0.411022  -1.152919   0.540276  -0.000535
    24  H    0.114436  -0.061399  -0.257678   0.730216  -2.657895   0.000840
    25  C    0.108810  -0.052117  -0.047023   0.106044  -0.190316  -0.000091
    26  H    0.717358   0.012914  -0.635176  -0.005669  -0.045161   0.009644
    27  H   -0.005025   0.027871   0.036395  -0.028045  -0.039208  -0.004419
    28  H    0.014591  -0.001336  -0.002499   0.001292   0.005092   0.000922
    29  H   -0.011503   0.028819   0.002954  -0.005450   0.003167   0.346913
    30  H    0.016726  -0.024788  -0.011219   0.005614  -0.000129   0.339276
    31  O   -0.044660  -0.000886  -0.016920   0.010830  -0.001430  -0.050899
    32  H    0.009148  -0.001355  -0.001207   0.000131  -0.000146   0.004275
    33  H   -0.008271   0.008975   0.004262  -0.000319  -0.002222  -0.002386
    34  H    0.003228  -0.006403  -0.007163   0.018714  -0.061252  -0.000080
    35  H   -0.071477   0.011695   0.001632  -0.021577   0.057195  -0.000074
    36  H    0.050454  -0.001580   0.001570  -0.006438   0.109718   0.000022
    37  O   -0.001347  -0.000498  -0.000949   0.000736  -0.000196  -0.055940
    38  H    0.000143  -0.000087  -0.000025   0.000187  -0.000097   0.001479
    39  H    0.000550   0.000407  -0.000420   0.000013  -0.000129   0.004618
              13         14         15         16         17         18
     1  N   -0.064847  -0.906273  -0.122527   0.223058   0.431561  -0.076879
     2  C    0.043045   0.636148   0.234121  -0.175945   0.179777   0.334310
     3  C    0.030354   0.142303   0.173833   0.208312  -1.124270  -0.228950
     4  C    0.016227   0.035113  -0.357419  -0.274959   0.125898   0.326987
     5  C    0.011181  -0.248869   0.144015  -0.154986  -0.308623   0.155928
     6  C    0.067517  -0.218792  -0.073729   0.087920   0.334399  -0.354472
     7  C   -0.116382  -0.023421   0.019743   0.008660   0.269102  -0.349123
     8  N    0.023709   0.002865   0.000751  -0.006677  -0.025366   0.085920
     9  C    0.008158  -0.003017   0.001166  -0.002111  -0.005801   0.034541
    10  C   -0.004728   0.000310   0.001393  -0.002005   0.005503  -0.041320
    11  C   -0.023879   0.020542   0.016467  -0.010787  -0.003616  -0.005715
    12  O    0.000531   0.000084  -0.000133   0.000133   0.000563  -0.005763
    13  O    7.973274   0.008203  -0.004804   0.017945   0.001931  -0.001121
    14  H    0.008203   2.750645   0.077015  -0.285217  -0.033521   0.041256
    15  H   -0.004804   0.077015   2.064340  -0.564606  -0.316289   0.147493
    16  H    0.017945  -0.285217  -0.564606   2.212852   0.233661  -0.409316
    17  H    0.001931  -0.033521  -0.316289   0.233661   2.666163  -0.780297
    18  H   -0.001121   0.041256   0.147493  -0.409316  -0.780297   2.611541
    19  H    0.003001  -0.508868  -0.187959   0.196282   0.047575  -0.042128
    20  H   -0.000782   0.065912   0.060352  -0.086759  -0.403070   0.248633
    21  H   -0.044227  -0.036717   0.008023   0.049876   0.098003  -0.210878
    22  H   -0.000137  -0.000182   0.000009   0.000232   0.000490  -0.000302
    23  H    0.000008   0.000125   0.000077  -0.000151  -0.001355   0.001766
    24  H   -0.001627  -0.003618   0.000214   0.002140   0.008853  -0.012820
    25  C   -0.017119  -0.139205  -0.009685   0.030029   0.065122  -0.041604
    26  H    0.005260   0.000656   0.000243   0.000583   0.004187  -0.021276
    27  H    0.078514   0.131407   0.012285  -0.022759  -0.010409   0.015823
    28  H    0.411600  -0.005240  -0.001045   0.003107  -0.000086   0.000575
    29  H    0.001679   0.000252  -0.000706   0.002169   0.000305   0.001832
    30  H   -0.001063   0.000012   0.000028  -0.000058  -0.000142  -0.000145
    31  O   -0.029455  -0.000363   0.000230   0.001114  -0.000720   0.003344
    32  H   -0.004977   0.000847   0.000624  -0.002371  -0.000627   0.000205
    33  H    0.035339  -0.002062   0.001180  -0.001510  -0.001402   0.004312
    34  H    0.011208  -0.001760  -0.001318   0.007698   0.000598  -0.005128
    35  H    0.002193   0.004327   0.002416  -0.012328  -0.008790   0.017762
    36  H   -0.003568   0.014513  -0.003189   0.008713   0.017030  -0.013923
    37  O    0.000237  -0.000005   0.000000   0.000012   0.000003   0.000025
    38  H    0.000012  -0.000001  -0.000000   0.000001  -0.000000   0.000025
    39  H    0.000023   0.000002   0.000001   0.000001   0.000001  -0.000016
              19         20         21         22         23         24
     1  N   -0.210174   0.065461  -0.297633   0.008642  -0.003942   0.027795
     2  C    0.027418  -2.470347  -0.067863  -0.013413   0.074375   0.005884
     3  C   -0.073945   0.602064  -0.215140   0.005614   0.005197  -0.066429
     4  C    0.095493   0.050954  -0.039508   0.000449   0.000974  -0.010524
     5  C   -0.188952  -0.026266   0.053090  -0.000607  -0.000459   0.001547
     6  C    0.121010   0.757043  -0.943600  -0.049772   0.069742   1.326276
     7  C   -0.001377  -0.173290  -0.483442   0.130930  -0.219510   0.114436
     8  N    0.001250   0.002060  -0.387866  -0.143981   0.012315  -0.061399
     9  C    0.000857   0.029069  -0.335035  -0.552723   0.411022  -0.257678
    10  C   -0.005935   0.001870   0.132673   0.140645  -1.152919   0.730216
    11  C    0.008555   0.031782  -0.028327   0.228450   0.540276  -2.657895
    12  O   -0.000020  -0.000312   0.119800   0.001003  -0.000535   0.000840
    13  O    0.003001  -0.000782  -0.044227  -0.000137   0.000008  -0.001627
    14  H   -0.508868   0.065912  -0.036717  -0.000182   0.000125  -0.003618
    15  H   -0.187959   0.060352   0.008023   0.000009   0.000077   0.000214
    16  H    0.196282  -0.086759   0.049876   0.000232  -0.000151   0.002140
    17  H    0.047575  -0.403070   0.098003   0.000490  -0.001355   0.008853
    18  H   -0.042128   0.248633  -0.210878  -0.000302   0.001766  -0.012820
    19  H    2.211452  -0.083710   0.015958   0.000154  -0.000403   0.002912
    20  H   -0.083710   3.309599  -0.061510  -0.000478   0.005828  -0.155146
    21  H    0.015958  -0.061510   5.267702   0.029893  -0.017232  -0.012675
    22  H    0.000154  -0.000478   0.029893   2.256904  -0.114153  -0.008626
    23  H   -0.000403   0.005828  -0.017232  -0.114153   2.102868  -0.138406
    24  H    0.002912  -0.155146  -0.012675  -0.008626  -0.138406   3.001589
    25  C   -0.038162  -0.005109   0.044857   0.002992  -0.009391   0.064164
    26  H   -0.000880  -0.000184  -0.155292  -0.261223   0.012850   0.008933
    27  H   -0.021514   0.012083  -0.188164  -0.001935   0.002148  -0.000513
    28  H    0.004224  -0.000647   0.022944  -0.000066  -0.000079   0.000328
    29  H    0.000192   0.000239  -0.064323   0.002733   0.000104  -0.000196
    30  H    0.000033  -0.000029   0.021547   0.004746  -0.000128  -0.000151
    31  O    0.000285   0.001291  -0.042673   0.000649   0.000199  -0.000268
    32  H   -0.000414   0.000061   0.003750  -0.000403   0.000019   0.000047
    33  H    0.000082   0.001420  -0.028348   0.000544  -0.000050  -0.000210
    34  H    0.004361   0.018281   0.016344   0.000389  -0.001169   0.003961
    35  H   -0.005909   0.013142  -0.009123  -0.001823   0.000019  -0.034888
    36  H    0.074752   0.008640   0.019336   0.000072  -0.000319   0.016191
    37  O   -0.000000  -0.000008  -0.005952  -0.000006   0.000017  -0.000002
    38  H    0.000000  -0.000001  -0.000642  -0.000032   0.000000   0.000000
    39  H   -0.000002   0.000003   0.000070  -0.000036   0.000004  -0.000004
              25         26         27         28         29         30
     1  N    1.018502  -0.007947  -0.064402  -0.044351   0.000484  -0.000493
     2  C   -0.886343   0.017146   0.345630  -0.016115   0.011154  -0.001705
     3  C   -0.286371  -0.044825   0.154507  -0.002455   0.004038   0.001063
     4  C    0.039674   0.003488  -0.096812   0.009077   0.002226  -0.000504
     5  C   -0.227684  -0.012372  -0.122213   0.025907  -0.002092   0.000983
     6  C    0.458594  -0.493077  -0.126560  -0.003017  -0.002694   0.005759
     7  C    0.108810   0.717358  -0.005025   0.014591  -0.011503   0.016726
     8  N   -0.052117   0.012914   0.027871  -0.001336   0.028819  -0.024788
     9  C   -0.047023  -0.635176   0.036395  -0.002499   0.002954  -0.011219
    10  C    0.106044  -0.005669  -0.028045   0.001292  -0.005450   0.005614
    11  C   -0.190316  -0.045161  -0.039208   0.005092   0.003167  -0.000129
    12  O   -0.000091   0.009644  -0.004419   0.000922   0.346913   0.339276
    13  O   -0.017119   0.005260   0.078514   0.411600   0.001679  -0.001063
    14  H   -0.139205   0.000656   0.131407  -0.005240   0.000252   0.000012
    15  H   -0.009685   0.000243   0.012285  -0.001045  -0.000706   0.000028
    16  H    0.030029   0.000583  -0.022759   0.003107   0.002169  -0.000058
    17  H    0.065122   0.004187  -0.010409  -0.000086   0.000305  -0.000142
    18  H   -0.041604  -0.021276   0.015823   0.000575   0.001832  -0.000145
    19  H   -0.038162  -0.000880  -0.021514   0.004224   0.000192   0.000033
    20  H   -0.005109  -0.000184   0.012083  -0.000647   0.000239  -0.000029
    21  H    0.044857  -0.155292  -0.188164   0.022944  -0.064323   0.021547
    22  H    0.002992  -0.261223  -0.001935  -0.000066   0.002733   0.004746
    23  H   -0.009391   0.012850   0.002148  -0.000079   0.000104  -0.000128
    24  H    0.064164   0.008933  -0.000513   0.000328  -0.000196  -0.000151
    25  C    4.637657  -0.002765  -0.142454   0.001415  -0.000958   0.000190
    26  H   -0.002765   1.775005   0.004058   0.000118  -0.000864  -0.010432
    27  H   -0.142454   0.004058   0.814583  -0.203712   0.007675  -0.002673
    28  H    0.001415   0.000118  -0.203712   0.607944  -0.001155   0.000322
    29  H   -0.000958  -0.000864   0.007675  -0.001155   0.601430  -0.161808
    30  H    0.000190  -0.010432  -0.002673   0.000322  -0.161808   0.626587
    31  O   -0.003002   0.003029   0.000117   0.008995   0.006908  -0.001921
    32  H   -0.000164   0.002714  -0.001317   0.000406  -0.005365  -0.000342
    33  H    0.003269  -0.004440   0.014568  -0.010635  -0.001920   0.001735
    34  H    0.254375  -0.002341   0.028979  -0.005040  -0.000196   0.000150
    35  H   -0.041769   0.002022   0.007603   0.005476   0.000145  -0.000030
    36  H    0.263484   0.001238  -0.049363   0.004399  -0.000238  -0.000009
    37  O    0.000008   0.012675   0.000329  -0.000008   0.008221  -0.007705
    38  H    0.000002   0.000327   0.000062  -0.000023   0.000593  -0.005944
    39  H   -0.000006  -0.001985  -0.000035   0.000034  -0.001535   0.003690
              31         32         33         34         35         36
     1  N   -0.007239   0.006858  -0.013785  -0.428356   0.310506  -0.682397
     2  C   -0.028535   0.002729  -0.009812   0.098232   0.089735   0.012990
     3  C    0.029649  -0.005000   0.008627  -0.066017   0.112460  -0.061739
     4  C   -0.011684  -0.000790  -0.001165   0.050098  -0.046153   0.049978
     5  C    0.004979   0.001452   0.000506  -0.000165   0.004661   0.038808
     6  C    0.023615  -0.000531   0.013988   0.072227  -0.030772   0.005001
     7  C   -0.044660   0.009148  -0.008271   0.003228  -0.071477   0.050454
     8  N   -0.000886  -0.001355   0.008975  -0.006403   0.011695  -0.001580
     9  C   -0.016920  -0.001207   0.004262  -0.007163   0.001632   0.001570
    10  C    0.010830   0.000131  -0.000319   0.018714  -0.021577  -0.006438
    11  C   -0.001430  -0.000146  -0.002222  -0.061252   0.057195   0.109718
    12  O   -0.050899   0.004275  -0.002386  -0.000080  -0.000074   0.000022
    13  O   -0.029455  -0.004977   0.035339   0.011208   0.002193  -0.003568
    14  H   -0.000363   0.000847  -0.002062  -0.001760   0.004327   0.014513
    15  H    0.000230   0.000624   0.001180  -0.001318   0.002416  -0.003189
    16  H    0.001114  -0.002371  -0.001510   0.007698  -0.012328   0.008713
    17  H   -0.000720  -0.000627  -0.001402   0.000598  -0.008790   0.017030
    18  H    0.003344   0.000205   0.004312  -0.005128   0.017762  -0.013923
    19  H    0.000285  -0.000414   0.000082   0.004361  -0.005909   0.074752
    20  H    0.001291   0.000061   0.001420   0.018281   0.013142   0.008640
    21  H   -0.042673   0.003750  -0.028348   0.016344  -0.009123   0.019336
    22  H    0.000649  -0.000403   0.000544   0.000389  -0.001823   0.000072
    23  H    0.000199   0.000019  -0.000050  -0.001169   0.000019  -0.000319
    24  H   -0.000268   0.000047  -0.000210   0.003961  -0.034888   0.016191
    25  C   -0.003002  -0.000164   0.003269   0.254375  -0.041769   0.263484
    26  H    0.003029   0.002714  -0.004440  -0.002341   0.002022   0.001238
    27  H    0.000117  -0.001317   0.014568   0.028979   0.007603  -0.049363
    28  H    0.008995   0.000406  -0.010635  -0.005040   0.005476   0.004399
    29  H    0.006908  -0.005365  -0.001920  -0.000196   0.000145  -0.000238
    30  H   -0.001921  -0.000342   0.001735   0.000150  -0.000030  -0.000009
    31  O    7.996672   0.312854   0.337097  -0.000120   0.000356  -0.000191
    32  H    0.312854   0.599619  -0.118958  -0.000260   0.000160  -0.000064
    33  H    0.337097  -0.118958   0.518678   0.001713  -0.002053   0.000959
    34  H   -0.000120  -0.000260   0.001713   2.163825  -0.612880  -0.340291
    35  H    0.000356   0.000160  -0.002053  -0.612880   1.860509  -0.433782
    36  H   -0.000191  -0.000064   0.000959  -0.340291  -0.433782   2.086131
    37  O   -0.000948   0.000353  -0.000601   0.000002  -0.000005  -0.000000
    38  H   -0.000195  -0.000137   0.000259  -0.000000   0.000000  -0.000000
    39  H    0.000249   0.000038  -0.000158  -0.000001   0.000006   0.000000
              37         38         39
     1  N    0.000027   0.000020  -0.000027
     2  C    0.000012   0.000013   0.000036
     3  C    0.000012   0.000004  -0.000023
     4  C    0.000003  -0.000002   0.000017
     5  C   -0.000013  -0.000003  -0.000017
     6  C    0.001464   0.000202  -0.000103
     7  C   -0.001347   0.000143   0.000550
     8  N   -0.000498  -0.000087   0.000407
     9  C   -0.000949  -0.000025  -0.000420
    10  C    0.000736   0.000187   0.000013
    11  C   -0.000196  -0.000097  -0.000129
    12  O   -0.055940   0.001479   0.004618
    13  O    0.000237   0.000012   0.000023
    14  H   -0.000005  -0.000001   0.000002
    15  H    0.000000  -0.000000   0.000001
    16  H    0.000012   0.000001   0.000001
    17  H    0.000003  -0.000000   0.000001
    18  H    0.000025   0.000025  -0.000016
    19  H   -0.000000   0.000000  -0.000002
    20  H   -0.000008  -0.000001   0.000003
    21  H   -0.005952  -0.000642   0.000070
    22  H   -0.000006  -0.000032  -0.000036
    23  H    0.000017   0.000000   0.000004
    24  H   -0.000002   0.000000  -0.000004
    25  C    0.000008   0.000002  -0.000006
    26  H    0.012675   0.000327  -0.001985
    27  H    0.000329   0.000062  -0.000035
    28  H   -0.000008  -0.000023   0.000034
    29  H    0.008221   0.000593  -0.001535
    30  H   -0.007705  -0.005944   0.003690
    31  O   -0.000948  -0.000195   0.000249
    32  H    0.000353  -0.000137   0.000038
    33  H   -0.000601   0.000259  -0.000158
    34  H    0.000002  -0.000000  -0.000001
    35  H   -0.000005   0.000000   0.000006
    36  H   -0.000000  -0.000000   0.000000
    37  O    7.688301   0.352534   0.339177
    38  H    0.352534   0.558575  -0.068362
    39  H    0.339177  -0.068362   0.568030
 Mulliken charges:
               1
     1  N   -1.390482
     2  C    0.826220
     3  C    1.194973
     4  C    0.784062
     5  C    1.394233
     6  C    0.862729
     7  C    0.749568
     8  N    0.143681
     9  C    0.774526
    10  C    0.399067
    11  C    1.227873
    12  O   -0.441309
    13  O   -0.432436
    14  H   -0.515405
    15  H   -0.322610
    16  H   -0.281954
    17  H   -0.466340
    18  H   -0.431101
    19  H   -0.445494
    20  H   -0.818141
    21  H   -1.227694
    22  H   -0.665642
    23  H   -0.579731
    24  H   -0.893250
    25  C    1.042150
    26  H    0.111462
    27  H    0.436897
    28  H    0.168741
    29  H    0.226770
    30  H    0.202957
    31  O   -0.500353
    32  H    0.198140
    33  H    0.252795
    34  H   -0.214443
    35  H   -0.170592
    36  H   -0.186904
    37  O   -0.329966
    38  H    0.161114
    39  H    0.155889
 Sum of Mulliken charges =   1.00000
 Mulliken charges with hydrogens summed into heavy atoms:
               1
     1  N   -1.390482
     2  C    0.008079
     3  C    0.297532
     4  C    0.179498
     5  C    0.433334
     6  C    0.862729
     7  C   -0.478125
     8  N    0.255143
     9  C    0.108883
    10  C   -0.180664
    11  C    0.334623
    12  O   -0.011582
    13  O    0.173201
    25  C    0.470212
    31  O   -0.049418
    37  O   -0.012962
 Electronic spatial extent (au):  <R**2>=           5173.8220
 Charge=              1.0000 electrons
 Dipole moment (field-independent basis, Debye):
    X=             -2.0050    Y=              2.1393    Z=              2.1731  Tot=              3.6495
 Quadrupole moment (field-independent basis, Debye-Ang):
   XX=            -33.6528   YY=            -60.7663   ZZ=            -88.6538
   XY=              1.1783   XZ=             -7.0811   YZ=             -1.2720
[...]
 09532,0.00135215,-0.00000751,0.00060782,-0.00262452,-0.00076703,0.0032
 2756,-0.00000823,0.00020608,0.00005993,-0.00000373,-0.00001410,0.00000
 712,-0.00018332,-0.00003329,-0.00004311,-0.00003124,-0.00002034,0.0000
 2727,0.00006549,-0.00001693,0.00001909,0.00000538,0.00025254,-0.000163
 89,0.00001433,-0.00000382,-0.00004190,-0.00046944,0.00022926,-0.000649
 85,-0.00024730,0.00024324,-0.00014689,-0.00020074,-0.00019883,0.000407
 50,0.00001218,-0.00001798,-0.00006228,-0.00001832,0.00002773,0.0000062
 4,-0.00004073,0.00002691,0.00003131,0.00041624,0.00009662,0.00023681,-
 0.00031838,-0.00004360,0.00023291,-0.00000908,-0.00001293,0.00004014,-
 0.00000914,-0.00000752,0.00000319,0.00000688,0.00000238,0.00000190,-0.
 00001457,-0.00009222,-0.00013550,0.07275953,-0.07478821,0.02792295,0.0
 0000750,0.00002972,0.00002368,0.00094169,0.00023620,0.00082256,0.00015
 063,-0.00024503,0.00005729,-0.00000771,-0.00000758,0.00002378,-0.00001
 273,-0.00000751,0.00000914,0.00002273,0.00003295,-0.00012194,0.0000207
 5,0.00000209,0.00001948,-0.00007931,-0.00008104,0.00014877,0.01442089,
 -0.00513688,0.00625228,-0.08466061,0.08222842,-0.02580655,0.01312469,-
 0.01206005,-0.00150507,0.00019779,0.00093249,-0.00016107,0.00017862,0.
 00021431,-0.00140707,0.00080581,-0.00043434,0.00327256,0.00135556,-0.0
 0385802,0.00017726,-0.00016643,-0.00056822,0.00038884,0.00037654,0.000
 08442,-0.00030001,-0.00014096,-0.00007132,-0.00000015,-0.00002161,-0.0
 0000414,0.00010547,-0.00014340,0.00005013,0.00037780,-0.00009056,-0.00
 016919,-0.00006755,-0.00020160,-0.00002003,0.00024819,0.00027478,0.000
 05014,-0.00014507,0.00030001,0.00017739,0.00021624,0.00022174,-0.00039
 779,0.00004186,0.00006041,-0.00012515,0.00002569,-0.00004096,0.0000408
 5,0.00007007,-0.00003282,-0.00001667,0.00021460,-0.00016895,0.00002622
 ,0.00000902,-0.00025416,-0.00013816,-0.00006584,0.00002748,-0.00001752
 ,0.00000091,-0.00001349,0.00000402,0.00000261,-0.00000177,0.00001374,-
 0.00002240,-0.00011469,-0.00009827,-0.07400632,0.02703286,-0.07580563,
 0.00016978,0.00032047,0.00001873,-0.00038828,-0.00038869,-0.00025745,0
 .00006930,-0.00003251,0.00003527,-0.00006087,0.00005356,-0.00000124,0.
 00004994,0.00001202,0.00003513,0.00009405,-0.00006443,-0.00002448,-0.0
 0001374,-0.00001113,-0.00001403,-0.00008278,-0.00001489,0.00007150,0.0
 2039690,-0.00687319,0.00928481,0.08537861,-0.03779456,0.08546096,-0.00
 336461,-0.00698185,0.00439397,0.00032210,-0.00140761,-0.00154731,0.000
 20308,0.00023249,0.00002276,0.00008134,0.00016780,-0.00021043,0.002047
 96,0.00225201,0.00044890,-0.00004332,0.00024818,-0.00004885,0.00002674
 ,-0.00011513,0.00001754,0.00013398,0.00008902,0.00000191,0.00001825,0.
 00000710,-0.00000427,0.00001973,0.00007993,-0.00002522,-0.00015522,-0.
 00044579,-0.00008911,-0.00004964,0.00001771,0.00001224,-0.00027600,-0.
 00063540,-0.00034037,-0.00003859,-0.00010230,-0.00000598,-0.00001374,-
 0.00001358,0.00003884,-0.00007471,0.00004510,-0.00009416,0.00001404,-0
 .00000268,0.00008280,-0.00006274,0.00013026,-0.00006723,0.00051737,-0.
 00094734,0.00046358,-0.00029792,0.00063741,0.00089572,0.00005562,0.000
 02623,-0.00003495,0.00000940,0.00001450,0.00000160,-0.00002017,-0.0000
 0933,-0.00001029,-0.00006654,0.00012278,0.00013078,-0.13369639,-0.1098
 3094,-0.03837358,0.00000420,-0.00003007,-0.00001532,0.00050578,0.00101
 277,0.00071689,-0.00013295,-0.00004221,0.00001773,0.00005509,-0.000011
 42,-0.00000780,0.00002789,0.00001152,0.00000598,-0.00009989,-0.0000452
 7,0.00008173,0.00000463,0.00001828,-0.00001075,0.00011824,0.00009880,-
 0.00011458,0.00865238,0.01166488,0.00342300,-0.01403609,-0.02166472,-0
 .00725286,0.13961839,-0.01420845,-0.02452995,0.00716558,0.00202896,0.0
 0091317,-0.00201676,0.00036284,0.00031494,-0.00024393,0.00038090,0.000
 35611,0.00010246,-0.00312869,0.00086716,-0.00165343,0.00018777,0.00010
 992,0.00005626,0.00001274,-0.00016577,-0.00003710,0.00003390,-0.000005
 89,0.00004686,-0.00002262,0.00008725,-0.00001566,-0.00010388,0.0000082
 7,-0.00003537,-0.00005621,-0.00015316,-0.00001403,-0.00009154,-0.00000
 197,-0.00000516,-0.00065100,-0.00105922,-0.00093875,0.00016136,-0.0000
 7830,-0.00006185,0.00000299,0.00001403,0.00018387,0.00016983,0.0001597
 2,-0.00022817,0.00000493,-0.00003294,0.00010029,-0.00001028,0.00008732
 ,-0.00010224,0.00144084,0.00001957,0.00065173,-0.00062874,0.00092587,0
 .00140521,0.00008027,0.00003626,-0.00004368,0.00000414,0.00000637,-0.0
 0000176,-0.00001343,0.00000004,0.00000086,-0.00002934,0.00002606,0.000
 05916,-0.10882004,-0.19310953,-0.05053670,0.00002856,0.00002264,0.0000
 0588,0.00117110,0.00173795,0.00173694,-0.00011034,-0.00003426,0.000039
 55,0.00008852,-0.00002030,-0.00000089,0.00004782,0.00001456,0.00002101
 ,-0.00016465,-0.00009502,0.00011811,0.00000335,0.00003042,-0.00001593,
 0.00019606,0.00016983,-0.00017181,-0.01040148,-0.01164469,-0.00411261,
 0.00663946,0.00910919,0.00223986,0.12541086,0.21591965,0.01855621,0.02
 835914,-0.00174778,0.00050959,0.00532934,0.00381547,-0.00029061,-0.000
 24927,0.00018741,-0.00013136,-0.00021515,0.00003671,0.00384254,0.00025
 183,0.00179347,-0.00006926,-0.00051635,-0.00024940,0.00003057,0.000121
 21,-0.00005100,-0.00007620,-0.00002974,-0.00000699,0.00004332,-0.00007
 354,-0.00000975,0.00006592,0.00000689,0.00001482,-0.00003962,-0.000029
 41,0.00004941,-0.00002388,-0.00002297,0.00001982,0.00038990,0.00031692
 ,0.00094276,-0.00036572,-0.00007083,-0.00026562,-0.00004270,-0.0000968
 0,-0.00006487,-0.00004250,-0.00011751,0.00001172,-0.00005803,-0.000034
 67,-0.00005558,-0.00000855,-0.00007136,0.00009150,-0.00072109,-0.00134
 115,0.00018106,-0.00103646,-0.00157961,0.00029024,-0.00005347,-0.00001
 937,-0.00000329,0.00000179,-0.00000451,0.00000351,0.00000012,-0.000005
 95,0.00000187,-0.00000185,-0.00000620,0.00002780,-0.03911020,-0.051899
 58,-0.06667898,0.00000805,0.00003516,-0.00000799,-0.00052672,-0.000369
 36,-0.00154793,0.00009795,0.00036387,-0.00001762,0.00000328,0.00000332
 ,-0.00001148,0.00001910,0.00000703,-0.00000156,-0.00001363,-0.00001523
 ,0.00006643,-0.00000755,0.00000075,-0.00000979,0.00004838,0.00004364,-
 0.00009175,-0.01427919,-0.01608040,-0.00462627,-0.00421453,-0.00830081
 ,-0.00240509,0.03750043,0.04631172,0.07032091,-0.00018846,-0.00013267,
 -0.00005402,0.00011111,0.00000068,0.00002336,0.00002249,0.00002354,0.0
 0001956,0.00002331,0.00002727,-0.00000767,0.00009156,-0.00001334,0.000
 05532,-0.00001241,-0.00026661,0.00001061,0.00058334,-0.00000986,0.0001
 0200,-0.00103181,-0.00189812,-0.00000204,-0.00061092,0.00036393,-0.000
 11068,0.00006980,-0.00015255,0.00002365,-0.00009232,0.00007505,-0.0000
 1708,-0.01007504,-0.00672093,-0.00803879,-0.00037870,-0.00026594,0.000
 10766,0.00000536,0.00001588,0.00000656,-0.00002464,-0.00000712,-0.0000
 0833,0.00001977,-0.00002478,0.00000964,-0.00002418,-0.00001978,-0.0000
 0441,-0.00000846,0.00000454,0.00004549,-0.00003065,-0.00003211,-0.0000
 0966,-0.00004532,-0.00002575,-0.00000180,0.00019398,0.00016821,0.00003
 380,-0.00005382,0.00002619,0.00000133,-0.00005138,-0.00003791,-0.00000
 703,-0.00000575,-0.00000856,0.00000308,0.00004217,0.00008115,-0.000060
 68,0.00154559,0.00417039,-0.00017778,0.00015527,0.00022249,0.00012167,
 0.00005076,-0.00002478,-0.00003160,0.00165185,-0.00146255,-0.00021202,
 -0.00502717,0.00257975,0.00319735,-0.00124431,0.00017435,-0.00013939,0
 .00001192,-0.00007150,0.00016063,0.00039908,0.00027775,-0.00028387,0.0
 0000159,0.00001652,0.00000406,0.00000108,0.00001452,-0.00002042,-0.000
 02163,-0.00003212,-0.00001576,0.37232132,-0.00008548,0.00006610,0.0000
 0930,0.00011947,-0.00001719,-0.00002028,-0.00001375,0.00000389,0.00002
 580,-0.00000370,-0.00002172,-0.00002410,0.00003919,-0.00002642,0.00003
 549,0.00004283,0.00003998,-0.00001007,0.00011150,-0.00010387,0.0000306
 8,-0.00018952,-0.00039523,0.00001685,0.00010041,0.00018651,-0.00000860
 ,-0.00018442,-0.00003754,-0.00003071,0.00005621,-0.00004289,0.00001825
 ,-0.00689429,0.00100320,-0.00364474,-0.00001249,0.00018798,0.00004428,
 -0.00001335,0.00000562,0.00000700,-0.00001445,0.00000613,-0.00000176,0
 .00000526,0.00000801,0.00000683,-0.00000807,0.00000102,-0.00000176,0.0
 0000027,-0.00001491,0.00001770,-0.00001041,-0.00000149,-0.00000704,-0.
 00002399,0.00000989,0.00000478,0.00005801,-0.00006239,-0.00000194,0.00
 004401,0.00011289,0.00004394,0.00000188,0.00000794,0.00000196,-0.00000
 800,-0.00000390,-0.00000101,0.00002158,0.00000666,0.00000106,0.0005104
 0,0.00076618,0.00004774,-0.00000124,-0.00009995,-0.00004607,-0.0000125
 4,-0.00006482,-0.00001269,-0.00004950,-0.00164460,-0.00064475,0.001924
 67,-0.00265625,0.00097223,-0.00020649,0.00060827,0.00002390,-0.0002477
 8,-0.00012623,-0.00003668,-0.00007742,-0.00010669,-0.00000091,-0.00000
 866,0.00000597,0.00000697,-0.00000549,0.00000439,-0.00001911,-0.000001
 58,-0.00000317,-0.00000496,0.20177757,0.21644980,-0.00006256,0.0000035
 6,0.00006026,0.00009728,-0.00003110,-0.00003776,0.00002025,0.00001880,
 0.00000290,0.00001165,0.00000304,-0.00000439,0.00001716,-0.00000299,0.
 00001356,-0.00001128,-0.00012766,-0.00000128,0.00034627,-0.00004889,0.
 00004533,-0.00071069,-0.00137632,0.00003295,-0.00034648,0.00019786,-0.
 00007655,0.00000460,-0.00011457,0.00002390,-0.00004321,0.00002194,-0.0
 0001358,-0.01024974,-0.00394382,0.00030527,-0.00004201,-0.00003758,0.0
 0031269,-0.00000831,0.00001007,0.00000804,-0.00000923,0.00000004,0.000
 00039,0.00000844,-0.00000783,-0.00000394,-0.00000742,-0.00000411,0.000
 00478,-0.00001263,-0.00000700,0.00002114,-0.00000885,-0.00001205,-0.00
 000092,-0.00002812,-0.00000041,0.00000905,0.00013977,0.00009039,-0.000
 02492,0.00002811,0.00003400,-0.00010436,-0.00002625,-0.00002721,-0.000
 02159,-0.00000297,-0.00000886,-0.00000745,0.00000184,0.00004523,-0.000
 05215,0.00106773,0.00283158,-0.00034845,0.00000146,-0.00004073,-0.0000
 4935,-0.00008602,-0.00003576,-0.00007253,0.00069675,-0.00154051,-0.000
 72439,0.00524085,0.00196428,-0.00825341,-0.00085602,0.00025819,0.00027
 515,-0.00000116,-0.00002805,-0.00002950,0.00015904,0.00017722,-0.00039
 442,-0.00001905,0.00001017,0.00000714,0.00000714,-0.00001067,-0.000022
 79,-0.00000157,-0.00001348,0.00000349,-0.18486774,0.12203445,0.6205613
 0,0.00003656,0.00003901,0.00001493,-0.00001259,-0.00000668,-0.00000740
 ,-0.00000669,-0.00000622,-0.00000254,-0.00000617,-0.00000912,-0.000001
 25,-0.00001817,-0.00000084,-0.00000889,0.00000434,0.00004947,-0.000003
 43,-0.00007598,-0.00000171,-0.00001446,0.00013067,0.00022398,0.0000325
 0,0.00006980,-0.00004883,0.00001252,-0.00001231,0.00001030,-0.00000244
 ,0.00001763,-0.00001602,0.00000278,0.00007073,0.00048372,-0.00115838,0
 .00008259,0.00008451,-0.00001750,-0.00000291,-0.00000308,-0.00000077,0
 .00000395,0.00000185,0.00000185,-0.00000345,0.00000692,-0.00000077,0.0
 0000447,0.00000468,0.00000127,0.00000307,-0.00000296,-0.00000709,0.000
 00627,0.00000816,0.00000111,0.00000689,0.00000776,0.00000036,-0.000019
 32,-0.00004301,-0.00000188,0.00001207,-0.00001465,-0.00000294,0.000007
 83,0.00000384,-0.00000019,0.00000273,0.00000030,-0.00000080,-0.0000089
 0,-0.00001817,0.00001298,-0.00023000,-0.00048355,-0.00005864,-0.000036
 29,-0.00006179,-0.00003361,-0.00001481,-0.00000383,0.00000274,-0.00027
 346,-0.00015120,-0.00001788,-0.00113797,-0.00110813,0.00289743,0.00021
 835,0.00011722,-0.00000774,-0.00008567,-0.00002040,-0.00002600,-0.0000
 9246,-0.00007510,0.00007586,-0.00000194,-0.00000325,-0.00000069,-0.000
 00047,-0.00000333,0.00000233,0.00000533,0.00000734,0.00000396,-0.32254
 173,-0.15916870,0.21815324,0.32364820,0.00001825,-0.00002867,-0.000005
 18,-0.00003183,0.00000421,0.00000852,0.00000677,0.00000013,-0.00000710
 ,0.00000266,0.00000994,0.00000750,-0.00000814,0.00000835,-0.00000964,-
 0.00001751,-0.00004268,0.00000895,0.00002538,0.00003444,0.00000269,-0.
 00001827,-0.00003892,-0.00001650,-0.00010550,-0.00001895,-0.00001141,0
 .00007783,0.00000058,0.00001120,-0.00003228,0.00002202,-0.00000771,-0.
 00006088,-0.00008549,-0.00020995,-0.00001496,-0.00006685,0.00000521,0.
 00000470,-0.00000098,-0.00000232,0.00000376,-0.00000229,0.00000040,-0.
 00000080,-0.00000441,-0.00000258,-0.00000007,-0.00000198,0.00000023,-0
 .00000075,0.00000640,-0.00000231,0.00000178,-0.00000156,0.00000211,0.0
 0000390,-0.00000513,-0.00000115,0.00000460,0.00003207,0.00000334,-0.00
 003502,-0.00002746,0.00001487,-0.00000836,-0.00000771,0.00000099,0.000
 00270,0.00000138,0.00000116,-0.00000298,0.00000199,-0.00000348,-0.0000
 1946,0.00016419,0.00006104,0.00000919,0.00004113,0.00001991,-0.0000012
 6,0.00001371,-0.00000069,-0.00002317,0.00010251,-0.00025088,0.00013084
 ,-0.00037014,0.00114733,-0.00004987,-0.00012821,0.00003556,0.00006387,
 0.00004253,0.00000411,0.00003449,0.00004842,-0.00003941,0.00000257,-0.
 00000113,-0.00000202,0.00000195,-0.00000014,0.00000512,-0.00000138,-0.
 00000060,0.00000041,-0.17946487,-0.09788721,0.10385550,0.16352515,0.09
 223678,-0.00001690,-0.00001099,-0.00002694,0.00000293,0.00000344,0.000
 01348,-0.00000612,-0.00000305,0.00000586,-0.00000069,0.00000211,-0.000
 00386,0.00001098,-0.00000426,0.00000933,0.00000165,-0.00000601,0.00000
 140,0.00002515,-0.00000489,0.00001089,-0.00005891,-0.00011519,-0.00000
 837,-0.00002202,0.00001948,-0.00000713,-0.00000541,-0.00001214,-0.0000
 0586,-0.00000196,-0.00000223,0.00000311,-0.00171273,-0.00082077,-0.002
 59735,-0.00003859,-0.00001527,-0.00005289,0.00000150,-0.00000033,-0.00
 000170,-0.00000323,-0.00000071,-0.00000105,0.00000111,-0.00000067,0.00
 000420,-0.00000406,-0.00000283,-0.00000201,0.00000414,0.00000250,0.000
 00523,-0.00000275,-0.00000056,-0.00000187,-0.00000275,-0.00000217,-0.0
 0000299,0.00000670,0.00000146,0.00001581,-0.00000491,0.00000472,0.0000
 4168,-0.00000316,-0.00000125,0.00000714,-0.00000042,0.00000009,0.00000
 353,0.00000599,-0.00000136,0.00000681,0.00008778,0.00025027,0.00004113
 ,0.00002160,0.00003154,0.00002573,0.00002151,0.00000302,0.00001326,0.0
 0004711,-0.00015171,0.00005722,0.00200455,0.00075461,0.00478753,-0.000
 04726,0.00005689,-0.00012695,-0.00004852,-0.00001096,0.00005762,0.0000
 0706,-0.00000644,0.00004996,0.00000432,-0.00000016,-0.00000105,-0.0000
 0279,0.00000473,0.00000114,-0.00000209,-0.00000078,-0.00000297,0.17780
 464,0.07011295,-0.17081174,-0.21325114,-0.08949615,0.18891027,0.000037
 24,0.00007746,0.00005128,0.00002411,-0.00002179,-0.00002969,-0.0000028
 8,-0.00000129,0.00000009,-0.00000558,-0.00001345,-0.00000483,-0.000024
 01,-0.00000208,-0.00001011,-0.00000130,0.00003612,-0.00000212,0.000005
 86,-0.00004293,-0.00000781,-0.00007052,-0.00018562,0.00003056,0.000003
 51,0.00000724,-0.00001494,-0.00003250,-0.00002466,0.00000029,0.0000180
 0,-0.00002321,0.00000154,-0.00350396,-0.00066198,-0.00036515,0.0001510
 7,0.00014967,0.00013804,-0.00000921,-0.00000133,0.00000163,0.00000260,
 0.00000408,0.00000360,-0.00000239,0.00000845,-0.00000451,0.00000280,0.
 00000525,0.00000276,-0.00000006,-0.00000632,-0.00000373,0.00000724,0.0
 0000860,0.00000280,-0.00000129,0.00001297,0.00000587,0.00001493,-0.000
 03543,-0.00002222,0.00002053,0.00000393,-0.00000950,0.00000127,-0.0000
 0298,-0.00000284,0.00000191,-0.00000190,-0.00000241,-0.00001180,-0.000
 01537,0.00000606,0.00011202,0.00031309,-0.00011250,-0.00006843,-0.0001
 4508,-0.00008904,-0.00008187,-0.00002758,-0.00002786,-0.00004180,-0.00
 056804,-0.00055490,0.00575300,0.00055681,-0.00046112,-0.00000895,0.000
 23313,0.00022137,-0.00008558,-0.00001020,-0.00008076,-0.00011970,-0.00
 004985,-0.00010106,-0.00001129,-0.00000191,0.00000250,0.00000069,-0.00
 001048,-0.00000597,0.00000864,0.00000828,0.00000782,-0.03583265,-0.037
 57195,-0.02860028,0.00024981,0.01597698,0.03517770,0.03350055,0.000025
 80,-0.00003041,0.00000559,-0.00003171,0.00000062,0.00000284,0.00000815
 ,0.00000146,-0.00000944,0.00000436,0.00001014,0.00000920,-0.00001572,0
 .00001225,-0.00001032,-0.00001942,-0.00004067,0.00000546,0.00000938,0.
 00003741,-0.00001125,-0.00003443,-0.00003072,0.00001163,-0.00007067,-0
 .00004030,-0.00000706,0.00006357,0.00000009,0.00001769,-0.00003526,0.0
 0001621,-0.00001141,-0.00013933,0.00028946,0.00026050,0.00000406,-0.00
 010718,0.00003601,0.00000453,-0.00000055,-0.00000272,0.00000403,-0.000
 00295,0.00000141,-0.00000114,-0.00000470,-0.00000285,0.00000132,-0.000
 00214,0.00000103,-0.00000161,0.00000542,-0.00000254,0.00000299,-0.0000
 0161,0.00000247,0.00000460,-0.00000429,-0.00000086,0.00000339,0.000042
 36,-0.00000278,0.00000155,-0.00001525,-0.00004663,-0.00000459,-0.00000
 841,-0.00000638,0.00000193,0.00000054,-0.00000179,-0.00001179,0.000008
 10,-0.00001189,0.00005496,0.00015873,-0.00010803,0.00000167,0.00004095
 ,0.00001263,-0.00000970,0.00003631,-0.00000735,-0.00009415,0.00002737,
 -0.00007134,0.00090348,-0.00078598,-0.00003911,-0.00010545,-0.00016082
 ,-0.00000527,0.00005908,0.00004556,0.00003660,0.00005915,0.00009392,-0
 .00005900,-0.00000027,-0.00000040,-0.00000179,0.00000449,-0.00000512,0
 .00000259,0.00000095,-0.00000153,0.00000349,-0.01934793,-0.11616393,-0
 .22413673,-0.00332365,0.00594970,0.01942305,0.02202338,0.11063039,0.00
 001663,0.00000375,-0.00002392,-0.00002738,0.00000752,0.00001278,-0.000
 00527,-0.00000531,-0.00000100,-0.00000422,-0.00000341,0.00000007,-0.00
 000227,-0.00000025,-0.00000177,0.00000089,0.00003292,-0.00000109,-0.00
 006411,0.00001171,-0.00000569,0.00014612,0.00022360,-0.00000810,0.0000
 3932,-0.00004682,0.00001329,0.00001209,0.00001760,-0.00000409,0.000012
 08,-0.00000288,0.00000183,0.00102821,0.00084797,0.00061744,0.00001963,
 0.00003614,-0.00011699,0.00000221,-0.00000381,-0.00000215,0.00000190,0
 .00000036,-0.00000054,-0.00000237,0.00000349,0.00000231,0.00000186,0.0
 0000139,-0.00000077,0.00000513,0.00000027,-0.00000554,0.00000241,0.000
 00418,-0.00000020,0.00000706,0.00000069,-0.00000271,-0.00002622,-0.000
 03397,0.00000832,-0.00001347,-0.00002055,0.00002482,0.00000332,0.00000
 546,0.00000814,0.00000195,0.00000212,0.00000353,0.00000034,-0.00001623
 ,0.00002197,-0.00028969,-0.00051281,0.00003491,0.00000235,0.00000595,0
 .00001322,0.00003266,0.00000626,0.00003608,-0.00035883,-0.00009898,-0.
 00008463,-0.00124902,-0.00110149,-0.00148436,0.00025393,0.00007442,-0.
 00006118,-0.00006405,-0.00001497,-0.00000698,-0.00009815,-0.00008187,0
 .00013231,0.00000808,-0.00000427,-0.00000179,-0.00000385,0.00000539,0.
 00000833,0.00000032,0.00000472,-0.00000268,0.01234035,-0.18894496,-0.4
 4063185,-0.00658940,-0.01512768,-0.02041759,-0.00514054,0.20472437,0.4
 6192628\\-0.00000520,0.00000261,-0.00000050,0.00000112,-0.00000182,-0.
 00000536,-0.00000056,-0.00000028,0.00000306,-0.00000009,0.00000034,0.0
 0000077,-0.00000112,-0.00000433,-0.00000186,-0.00000021,-0.00000236,0.
 00000053,0.00000435,0.00000052,-0.00000096,-0.00000766,0.00001026,0.00
 000002,0.00000078,-0.00000542,0.00000093,0.00000441,0.00000137,0.00000
 008,-0.00000256,0.00000331,0.00000023,-0.00000740,0.00000721,-0.000003
 02,-0.00000348,-0.00000742,0.00000200,0.00000049,0.00000040,0.00000023
 ,-0.00000027,0.00000010,0.00000013,-0.00000033,0.00000003,0.00000038,-
 0.00000045,0.00000046,0.00000003,-0.00000070,0.00000019,-0.00000077,0.
 00000006,0.00000009,0.00000065,0.00000089,-0.00000006,0.00000020,0.000
 00028,0.00000040,0.00000103,0.00000021,0.00000151,-0.00000106,-0.00000
 090,-0.00000021,-0.00000064,0.00000031,-0.00000029,-0.00000080,0.00000
 009,0.00000001,0.00000039,0.00000427,-0.00001095,-0.00000193,0.0000068
 5,0.00000362,0.00000610,0.00000111,0.00000027,0.00000089,0.00000182,-0
 .00000229,-0.00000245,0.00000488,-0.00000086,0.00000641,0.00000425,0.0
 0000051,0.00000836,-0.00000190,0.00000028,0.00000128,-0.00000313,0.000
 00394,-0.00001204,0.00000094,-0.00000020,0.00000076,0.00000023,-0.0000
 0080,-0.00000020,-0.00000011,0.,0.00000011,0.00000066,0.00000143,-0.00
 000329,-0.00000192,-0.00000025,0.00000378,0.,-0.00000133,-0.00000346\\
 \@


 "MATHEMATICS IS THE ART OF GIVING THE SAME NAME
 TO DIFFERENT THINGS."
                    - H. POINCARE
 Job cpu time:       1 days  6 hours 43 minutes 17.4 seconds.
 Elapsed time:       0 days  1 hours  5 minutes 53.2 seconds.
 File lengths (MBytes):  RWF=   1240 Int=      0 D2E=      0 Chk=     32 Scr=      8
 Normal termination of Gaussian 16 at Mon Jan 30 20:05:09 2023.
