 Entering Gaussian System, Link 0=g16
 Input=NicPyWa4h1wB97XDaVDZ180K.gjf
 Output=NicPyWa4h1wB97XDaVDZ180K.log
 Initial command:
 /sw/contrib/gaussian/g16/A03/g16/l1.exe "/gscratch/scrubbed/gds001/Gau-322684.inp" -scrdir="/gscratch/scrubbed/gds001/"
 Entering Link 1 = /sw/contrib/gaussian/g16/A03/g16/l1.exe PID=    322685.
  
 Copyright (c) 1988,1990,1992,1993,1995,1998,2003,2009,2016,
            Gaussian, Inc.  All Rights Reserved.
  
 This is part of the Gaussian(R) 16 program.  It is based on
 the Gaussian(R) 09 system (copyright 2009, Gaussian, Inc.),
 the Gaussian(R) 03 system (copyright 2003, Gaussian, Inc.),
 the Gaussian(R) 98 system (copyright 1998, Gaussian, Inc.),
 the Gaussian(R) 94 system (copyright 1995, Gaussian, Inc.),
 the Gaussian 92(TM) system (copyright 1992, Gaussian, Inc.),
 the Gaussian 90(TM) system (copyright 1990, Gaussian, Inc.),
 the Gaussian 88(TM) system (copyright 1988, Gaussian, Inc.),
 the Gaussian 86(TM) system (copyright 1986, Carnegie Mellon
 University), and the Gaussian 82(TM) system (copyright 1983,
 Carnegie Mellon University). Gaussian is a federally registered
 trademark of Gaussian, Inc.
  
 This software contains proprietary and confidential information,
 including trade secrets, belonging to Gaussian, Inc.
  
 This software is provided under written license and may be
 used, copied, transmitted, or stored only in accord with that
 written license.
  
 The following legend is applicable only to US Government
 contracts under FAR:
  
                    RESTRICTED RIGHTS LEGEND
  
 Use, reproduction and disclosure by the US Government is
 subject to restrictions as set forth in subparagraphs (a)
 and (c) of the Commercial Computer Software - Restricted
 Rights clause in FAR 52.227-19.
  
 Gaussian, Inc.
 340 Quinnipiac St., Bldg. 40, Wallingford CT 06492
  
  
 ---------------------------------------------------------------
 Warning -- This program may not be used in any manner that
 competes with the business of Gaussian, Inc. or will provide
 assistance to any competitor of Gaussian, Inc.  The licensee
 of this program is prohibited from giving any competitor of
 Gaussian, Inc. access to this program.  By using this program,
 the user acknowledges that Gaussian, Inc. is engaged in the
 business of creating and licensing software in the field of
 computational chemistry and represents and warrants to the
 licensee that it is not a competitor of Gaussian, Inc. and that
 it will not use this program in any manner prohibited above.
 ---------------------------------------------------------------
  

 Cite this work as:
 Gaussian 16, Revision A.03,
 M. J. Frisch, G. W. Trucks, H. B. Schlegel, G. E. Scuseria, 
 M. A. Robb, J. R. Cheeseman, G. Scalmani, V. Barone, 
 G. A. Petersson, H. Nakatsuji, X. Li, M. Caricato, A. V. Marenich, 
 J. Bloino, B. G. Janesko, R. Gomperts, B. Mennucci, H. P. Hratchian, 
 J. V. Ortiz, A. F. Izmaylov, J. L. Sonnenberg, D. Williams-Young, 
 F. Ding, F. Lipparini, F. Egidi, J. Goings, B. Peng, A. Petrone, 
 T. Henderson, D. Ranasinghe, V. G. Zakrzewski, J. Gao, N. Rega, 
 G. Zheng, W. Liang, M. Hada, M. Ehara, K. Toyota, R. Fukuda, 
 J. Hasegawa, M. Ishida, T. Nakajima, Y. Honda, O. Kitao, H. Nakai, 
 T. Vreven, K. Throssell, J. A. Montgomery, Jr., J. E. Peralta, 
 F. Ogliaro, M. J. Bearpark, J. J. Heyd, E. N. Brothers, K. N. Kudin, 
 V. N. Staroverov, T. A. Keith, R. Kobayashi, J. Normand, 
 K. Raghavachari, A. P. Rendell, J. C. Burant, S. S. Iyengar, 
 J. Tomasi, M. Cossi, J. M. Millam, M. Klene, C. Adamo, R. Cammi, 
 J. W. Ochterski, R. L. Martin, K. Morokuma, O. Farkas, 
 J. B. Foresman, and D. J. Fox, Gaussian, Inc., Wallingford CT, 2016.
 
 ******************************************
 Gaussian 16:  ES64L-G16RevA.03 25-Dec-2016
                15-Nov-2021 
 ******************************************
 %nprocshared=32
 Will use up to   32 processors via shared memory.
 %mem=41GB
 ---------------------------------------------
 # wB97XD/aug-cc-pVDZ opt freq temperature=180
 ---------------------------------------------
 1/18=20,19=15,26=3,38=1,112=180000/1,3;
 2/9=110,12=2,17=6,18=5,40=1/2;
 3/5=16,7=10,11=2,25=1,30=1,71=1,74=-58/1,2,3;
 4//1;
 5/5=2,38=5/2;
 6/7=2,8=2,9=2,10=2,28=1/1;
 7//1,2,3,16;
 1/18=20,19=15,26=3/3(2);
 2/9=110/2;
 99//99;
 2/9=110/2;
 3/5=16,7=10,11=2,25=1,30=1,71=1,74=-58/1,2,3;
 4/5=5,16=3,69=1/1;
 5/5=2,38=5/2;
 7//1,2,3,16;
 1/18=20,19=15,26=3/3(-5);
 2/9=110/2;
 6/7=2,8=2,9=2,10=2,19=2,28=1/1;
 99/9=1/99;
 --------
 Nicotine
 --------
 Symbolic Z-matrix:
 Charge =  1 Multiplicity = 1
 C                    -0.78726   2.68521  -0.0808 
 C                    -0.81968   1.30781   0.14661 
 C                     0.39866   0.63703   0.16275 
 N                     1.54591   1.29469  -0.0423 
 C                     1.59467   2.61657  -0.26113 
 C                     0.42328   3.35029  -0.27853 
 C                    -2.11761   0.57355   0.38385 
 N                    -2.28367  -0.6112   -0.46858 
 C                    -3.45381  -1.28855   0.11014 
 C                    -3.22603  -1.20362   1.62557 
 C                    -2.2826    0.00962   1.8071 
 O                     3.56227  -0.29265  -0.32819 
 O                     1.91154  -1.85566  -1.77158 
 O                    -0.2316   -2.46649  -0.19154 
 H                    -3.52439  -2.31439  -0.27178 
 H                    -4.1719   -1.07697   2.16142 
 H                    -2.75431  -2.11693   2.0044 
 H                    -2.68152   0.76902   2.48769 
 H                    -1.30907  -0.30716   2.20046 
 H                    -4.37999  -0.75856  -0.17823 
 H                    -2.94225   1.28476   0.18009 
 H                     0.48877  -0.43528   0.32889 
 H                     2.58003   3.0465   -0.42345 
 H                     0.45713   4.42253  -0.45564 
 H                    -1.72088   3.24785  -0.10745 
 C                    -2.43852  -0.30253  -1.88534 
 H                     2.4444    0.70287  -0.07283 
 H                    -1.01324  -1.86779  -0.3057 
 H                    -0.56083  -3.32884   0.06967 
 H                     3.16616  -1.01552  -0.8545 
 H                     4.1977   -0.66873   0.30754 
 H                     2.0643   -2.40773  -2.54091 
 H                     1.14879  -2.2351   -1.29376 
 O                     5.45159  -1.17905   1.47056 
 H                     6.37861  -1.05681   1.24817 
 H                     5.42246  -1.93857   2.05809 
 H                    -2.60271  -1.23128  -2.4436 
 H                    -1.52553   0.16776  -2.27078 
 H                    -3.2945    0.37244  -2.06706 
 
 Add virtual bond connecting atoms H27        and O12        Dist= 2.87D+00.
 Add virtual bond connecting atoms H30        and O13        Dist= 3.34D+00.
 Add virtual bond connecting atoms N8         and H28        Dist= 3.39D+00.
 Add virtual bond connecting atoms H33        and O14        Dist= 3.37D+00.
 Add virtual bond connecting atoms O34        and H31        Dist= 3.37D+00.

 GradGradGradGradGradGradGradGradGradGradGradGradGradGradGradGradGradGrad
 Berny optimization.
 Initialization pass.
                           ----------------------------
                           !    Initial Parameters    !
                           ! (Angstroms and Degrees)  !
 --------------------------                            --------------------------
 ! Name  Definition              Value          Derivative Info.                !
 --------------------------------------------------------------------------------
 ! R1    R(1,2)                  1.3964         estimate D2E/DX2                !
 ! R2    R(1,6)                  1.3953         estimate D2E/DX2                !
 ! R3    R(1,25)                 1.0904         estimate D2E/DX2                !
 ! R4    R(2,3)                  1.3909         estimate D2E/DX2                !
 ! R5    R(2,7)                  1.51           estimate D2E/DX2                !
 ! R6    R(3,4)                  1.3382         estimate D2E/DX2                !
 ! R7    R(3,22)                 1.0888         estimate D2E/DX2                !
 ! R8    R(4,5)                  1.3408         estimate D2E/DX2                !
 ! R9    R(4,27)                 1.0763         estimate D2E/DX2                !
 ! R10   R(5,6)                  1.3823         estimate D2E/DX2                !
 ! R11   R(5,23)                 1.0873         estimate D2E/DX2                !
 ! R12   R(6,24)                 1.0873         estimate D2E/DX2                !
 ! R13   R(7,8)                  1.469          estimate D2E/DX2                !
 ! R14   R(7,11)                 1.5398         estimate D2E/DX2                !
 ! R15   R(7,21)                 1.1079         estimate D2E/DX2                !
 ! R16   R(8,9)                  1.4707         estimate D2E/DX2                !
 ! R17   R(8,26)                 1.4582         estimate D2E/DX2                !
 ! R18   R(8,28)                 1.7943         estimate D2E/DX2                !
 ! R19   R(9,10)                 1.5348         estimate D2E/DX2                !
 ! R20   R(9,15)                 1.0969         estimate D2E/DX2                !
 ! R21   R(9,20)                 1.1054         estimate D2E/DX2                !
 ! R22   R(10,11)                1.5476         estimate D2E/DX2                !
 ! R23   R(10,16)                1.0945         estimate D2E/DX2                !
 ! R24   R(10,17)                1.0955         estimate D2E/DX2                !
 ! R25   R(11,18)                1.095          estimate D2E/DX2                !
 ! R26   R(11,19)                1.0967         estimate D2E/DX2                !
 ! R27   R(12,27)                1.5185         estimate D2E/DX2                !
 ! R28   R(12,30)                0.978          estimate D2E/DX2                !
 ! R29   R(12,31)                0.9744         estimate D2E/DX2                !
 ! R30   R(13,30)                1.7666         estimate D2E/DX2                !
 ! R31   R(13,32)                0.9592         estimate D2E/DX2                !
 ! R32   R(13,33)                0.9768         estimate D2E/DX2                !
 ! R33   R(14,28)                0.9912         estimate D2E/DX2                !
 ! R34   R(14,29)                0.9593         estimate D2E/DX2                !
 ! R35   R(14,33)                1.7815         estimate D2E/DX2                !
 ! R36   R(26,37)                1.096          estimate D2E/DX2                !
 ! R37   R(26,38)                1.0969         estimate D2E/DX2                !
 ! R38   R(26,39)                1.1051         estimate D2E/DX2                !
 ! R39   R(31,34)                1.7847         estimate D2E/DX2                !
 ! R40   R(34,35)                0.9611         estimate D2E/DX2                !
 ! R41   R(34,36)                0.9607         estimate D2E/DX2                !
 ! A1    A(2,1,6)              120.8895         estimate D2E/DX2                !
 ! A2    A(2,1,25)             119.5431         estimate D2E/DX2                !
 ! A3    A(6,1,25)             119.5671         estimate D2E/DX2                !
 ! A4    A(1,2,3)              117.2106         estimate D2E/DX2                !
 ! A5    A(1,2,7)              121.6809         estimate D2E/DX2                !
 ! A6    A(3,2,7)              121.1038         estimate D2E/DX2                !
 ! A7    A(2,3,4)              120.8082         estimate D2E/DX2                !
 ! A8    A(2,3,22)             123.3133         estimate D2E/DX2                !
 ! A9    A(4,3,22)             115.876          estimate D2E/DX2                !
 ! A10   A(3,4,5)              122.7331         estimate D2E/DX2                !
 ! A11   A(3,4,27)             116.7303         estimate D2E/DX2                !
 ! A12   A(5,4,27)             120.472          estimate D2E/DX2                !
 ! A13   A(4,5,6)              119.6399         estimate D2E/DX2                !
 ! A14   A(4,5,23)             116.564          estimate D2E/DX2                !
 ! A15   A(6,5,23)             123.7947         estimate D2E/DX2                !
 ! A16   A(1,6,5)              118.7127         estimate D2E/DX2                !
 ! A17   A(1,6,24)             121.3429         estimate D2E/DX2                !
 ! A18   A(5,6,24)             119.9405         estimate D2E/DX2                !
 ! A19   A(2,7,8)              113.4648         estimate D2E/DX2                !
 ! A20   A(2,7,11)             114.546          estimate D2E/DX2                !
 ! A21   A(2,7,21)             107.3826         estimate D2E/DX2                !
 ! A22   A(8,7,11)             103.2317         estimate D2E/DX2                !
 ! A23   A(8,7,21)             109.0794         estimate D2E/DX2                !
 ! A24   A(11,7,21)            108.9877         estimate D2E/DX2                !
 ! A25   A(7,8,9)              103.4767         estimate D2E/DX2                !
 ! A26   A(7,8,26)             113.8958         estimate D2E/DX2                !
 ! A27   A(7,8,28)             115.6009         estimate D2E/DX2                !
 ! A28   A(9,8,26)             113.2856         estimate D2E/DX2                !
 ! A29   A(9,8,28)             101.834          estimate D2E/DX2                !
 ! A30   A(26,8,28)            108.1568         estimate D2E/DX2                !
 ! A31   A(8,9,10)             104.1802         estimate D2E/DX2                !
 ! A32   A(8,9,15)             110.177          estimate D2E/DX2                !
 ! A33   A(8,9,20)             110.0705         estimate D2E/DX2                !
 ! A34   A(10,9,15)            113.8962         estimate D2E/DX2                !
 ! A35   A(10,9,20)            110.8178         estimate D2E/DX2                !
 ! A36   A(15,9,20)            107.6773         estimate D2E/DX2                !
 ! A37   A(9,10,11)            104.458          estimate D2E/DX2                !
 ! A38   A(9,10,16)            111.1961         estimate D2E/DX2                !
 ! A39   A(9,10,17)            111.0513         estimate D2E/DX2                !
 ! A40   A(11,10,16)           112.254          estimate D2E/DX2                !
 ! A41   A(11,10,17)           110.5187         estimate D2E/DX2                !
 ! A42   A(16,10,17)           107.4155         estimate D2E/DX2                !
 ! A43   A(7,11,10)            104.124          estimate D2E/DX2                !
 ! A44   A(7,11,18)            111.0725         estimate D2E/DX2                !
 ! A45   A(7,11,19)            110.0107         estimate D2E/DX2                !
 ! A46   A(10,11,18)           113.2349         estimate D2E/DX2                !
 ! A47   A(10,11,19)           110.9019         estimate D2E/DX2                !
 ! A48   A(18,11,19)           107.504          estimate D2E/DX2                !
 ! A49   A(27,12,30)           106.0757         estimate D2E/DX2                !
 ! A50   A(27,12,31)           128.5665         estimate D2E/DX2                !
 ! A51   A(30,12,31)           109.2669         estimate D2E/DX2                !
 ! A52   A(30,13,32)           125.2401         estimate D2E/DX2                !
 ! A53   A(30,13,33)           119.0363         estimate D2E/DX2                !
 ! A54   A(32,13,33)           107.0461         estimate D2E/DX2                !
 ! A55   A(28,14,29)           107.6798         estimate D2E/DX2                !
 ! A56   A(28,14,33)           117.4722         estimate D2E/DX2                !
 ! A57   A(29,14,33)           123.4444         estimate D2E/DX2                !
 ! A58   A(8,26,37)            109.3542         estimate D2E/DX2                !
 ! A59   A(8,26,38)            110.1057         estimate D2E/DX2                !
 ! A60   A(8,26,39)            111.7947         estimate D2E/DX2                !
 ! A61   A(37,26,38)           108.0004         estimate D2E/DX2                !
 ! A62   A(37,26,39)           108.5282         estimate D2E/DX2                !
 ! A63   A(38,26,39)           108.9676         estimate D2E/DX2                !
 ! A64   A(12,30,13)           156.7109         estimate D2E/DX2                !
 ! A65   A(13,33,14)           163.368          estimate D2E/DX2                !
 ! A66   A(31,34,35)           119.3723         estimate D2E/DX2                !
 ! A67   A(31,34,36)           127.1055         estimate D2E/DX2                !
 ! A68   A(35,34,36)           105.7423         estimate D2E/DX2                !
 ! A69   L(4,27,12,14,-1)      171.4839         estimate D2E/DX2                !
 ! A70   L(8,28,14,3,-1)       172.6673         estimate D2E/DX2                !
 ! A71   L(12,31,34,17,-1)     184.3115         estimate D2E/DX2                !
 ! A72   L(4,27,12,14,-2)      172.1932         estimate D2E/DX2                !
 ! A73   L(8,28,14,3,-2)       179.9377         estimate D2E/DX2                !
 ! A74   L(12,31,34,17,-2)     185.2669         estimate D2E/DX2                !
 ! D1    D(6,1,2,3)             -0.1729         estimate D2E/DX2                !
 ! D2    D(6,1,2,7)            179.044          estimate D2E/DX2                !
 ! D3    D(25,1,2,3)           179.6227         estimate D2E/DX2                !
 ! D4    D(25,1,2,7)            -1.1604         estimate D2E/DX2                !
 ! D5    D(2,1,6,5)              0.7566         estimate D2E/DX2                !
 ! D6    D(2,1,6,24)          -179.9671         estimate D2E/DX2                !
 ! D7    D(25,1,6,5)          -179.0389         estimate D2E/DX2                !
 ! D8    D(25,1,6,24)            0.2373         estimate D2E/DX2                !
 ! D9    D(1,2,3,4)             -0.4762         estimate D2E/DX2                !
 ! D10   D(1,2,3,22)          -179.8732         estimate D2E/DX2                !
 ! D11   D(7,2,3,4)           -179.6979         estimate D2E/DX2                !
 ! D12   D(7,2,3,22)             0.905          estimate D2E/DX2                !
 ! D13   D(1,2,7,8)            129.3104         estimate D2E/DX2                !
 ! D14   D(1,2,7,11)          -112.4891         estimate D2E/DX2                !
 ! D15   D(1,2,7,21)             8.694          estimate D2E/DX2                !
 ! D16   D(3,2,7,8)            -51.5029         estimate D2E/DX2                !
 ! D17   D(3,2,7,11)            66.6976         estimate D2E/DX2                !
 ! D18   D(3,2,7,21)          -172.1193         estimate D2E/DX2                !
 ! D19   D(2,3,4,5)              0.5451         estimate D2E/DX2                !
 ! D20   D(2,3,4,27)          -176.5414         estimate D2E/DX2                !
 ! D21   D(22,3,4,5)           179.9851         estimate D2E/DX2                !
 ! D22   D(22,3,4,27)            2.8986         estimate D2E/DX2                !
 ! D23   D(3,4,5,6)              0.0666         estimate D2E/DX2                !
 ! D24   D(3,4,5,23)          -179.5291         estimate D2E/DX2                !
 ! D25   D(27,4,5,6)           177.0473         estimate D2E/DX2                !
 ! D26   D(27,4,5,23)           -2.5484         estimate D2E/DX2                !
 ! D27   D(3,4,12,30)           38.9282         estimate D2E/DX2                !
 ! D28   D(3,4,12,31)          -90.8639         estimate D2E/DX2                !
 ! D29   D(5,4,12,30)         -132.1342         estimate D2E/DX2                !
 ! D30   D(5,4,12,31)           98.0737         estimate D2E/DX2                !
 ! D31   D(4,5,6,1)             -0.7066         estimate D2E/DX2                !
 ! D32   D(4,5,6,24)          -179.9933         estimate D2E/DX2                !
 ! D33   D(23,5,6,1)           178.8583         estimate D2E/DX2                !
 ! D34   D(23,5,6,24)           -0.4284         estimate D2E/DX2                !
 ! D35   D(2,7,8,9)            169.4229         estimate D2E/DX2                !
 ! D36   D(2,7,8,26)           -67.1554         estimate D2E/DX2                !
 ! D37   D(2,7,8,28)            59.0172         estimate D2E/DX2                !
 ! D38   D(11,7,8,9)            44.8613         estimate D2E/DX2                !
 ! D39   D(11,7,8,26)          168.283          estimate D2E/DX2                !
 ! D40   D(11,7,8,28)          -65.5444         estimate D2E/DX2                !
 ! D41   D(21,7,8,9)           -70.9236         estimate D2E/DX2                !
 ! D42   D(21,7,8,26)           52.4981         estimate D2E/DX2                !
 ! D43   D(21,7,8,28)          178.6707         estimate D2E/DX2                !
 ! D44   D(2,7,11,10)         -152.9209         estimate D2E/DX2                !
 ! D45   D(2,7,11,18)           84.8767         estimate D2E/DX2                !
 ! D46   D(2,7,11,19)          -34.0286         estimate D2E/DX2                !
 ! D47   D(8,7,11,10)          -29.0677         estimate D2E/DX2                !
 ! D48   D(8,7,11,18)         -151.27           estimate D2E/DX2                !
 ! D49   D(8,7,11,19)           89.8247         estimate D2E/DX2                !
 ! D50   D(21,7,11,10)          86.7826         estimate D2E/DX2                !
 ! D51   D(21,7,11,18)         -35.4197         estimate D2E/DX2                !
 ! D52   D(21,7,11,19)        -154.325          estimate D2E/DX2                !
 ! D53   D(7,8,9,10)           -42.8282         estimate D2E/DX2                !
 ! D54   D(7,8,9,15)          -165.3742         estimate D2E/DX2                !
 ! D55   D(7,8,9,20)            76.0261         estimate D2E/DX2                !
 ! D56   D(26,8,9,10)         -166.6505         estimate D2E/DX2                !
 ! D57   D(26,8,9,15)           70.8034         estimate D2E/DX2                !
 ! D58   D(26,8,9,20)          -47.7962         estimate D2E/DX2                !
 ! D59   D(28,8,9,10)           77.4499         estimate D2E/DX2                !
 ! D60   D(28,8,9,15)          -45.0961         estimate D2E/DX2                !
 ! D61   D(28,8,9,20)         -163.6958         estimate D2E/DX2                !
 ! D62   D(7,8,14,29)          122.503          estimate D2E/DX2                !
 ! D63   D(7,8,14,33)          -89.9002         estimate D2E/DX2                !
 ! D64   D(9,8,14,29)           10.8585         estimate D2E/DX2                !
 ! D65   D(9,8,14,33)          158.4553         estimate D2E/DX2                !
 ! D66   D(26,8,14,29)        -109.9438         estimate D2E/DX2                !
 ! D67   D(26,8,14,33)          37.6529         estimate D2E/DX2                !
 ! D68   D(7,8,26,37)         -177.4003         estimate D2E/DX2                !
 ! D69   D(7,8,26,38)           64.0859         estimate D2E/DX2                !
 ! D70   D(7,8,26,39)          -57.1892         estimate D2E/DX2                !
 ! D71   D(9,8,26,37)          -59.4842         estimate D2E/DX2                !
 ! D72   D(9,8,26,38)         -177.9979         estimate D2E/DX2                !
 ! D73   D(9,8,26,39)           60.727          estimate D2E/DX2                !
 ! D74   D(28,8,26,37)          52.6082         estimate D2E/DX2                !
 ! D75   D(28,8,26,38)         -65.9056         estimate D2E/DX2                !
 ! D76   D(28,8,26,39)         172.8194         estimate D2E/DX2                !
 ! D77   D(8,9,10,11)           23.477          estimate D2E/DX2                !
 ! D78   D(8,9,10,16)          144.7734         estimate D2E/DX2                !
 ! D79   D(8,9,10,17)          -95.6733         estimate D2E/DX2                !
 ! D80   D(15,9,10,11)         143.5474         estimate D2E/DX2                !
 ! D81   D(15,9,10,16)         -95.1562         estimate D2E/DX2                !
 ! D82   D(15,9,10,17)          24.3971         estimate D2E/DX2                !
 ! D83   D(20,9,10,11)         -94.8663         estimate D2E/DX2                !
 ! D84   D(20,9,10,16)          26.4301         estimate D2E/DX2                !
 ! D85   D(20,9,10,17)         145.9834         estimate D2E/DX2                !
 ! D86   D(9,10,11,7)            3.3865         estimate D2E/DX2                !
 ! D87   D(9,10,11,18)         124.1511         estimate D2E/DX2                !
 ! D88   D(9,10,11,19)        -114.8958         estimate D2E/DX2                !
 ! D89   D(16,10,11,7)        -117.2068         estimate D2E/DX2                !
 ! D90   D(16,10,11,18)          3.5578         estimate D2E/DX2                !
 ! D91   D(16,10,11,19)        124.5109         estimate D2E/DX2                !
 ! D92   D(17,10,11,7)         122.8966         estimate D2E/DX2                !
 ! D93   D(17,10,11,18)       -116.3388         estimate D2E/DX2                !
 ! D94   D(17,10,11,19)          4.6143         estimate D2E/DX2                !
 ! D95   D(27,12,30,13)          5.6242         estimate D2E/DX2                !
 ! D96   D(31,12,30,13)        147.6248         estimate D2E/DX2                !
 ! D97   D(27,12,34,35)       -122.8599         estimate D2E/DX2                !
 ! D98   D(27,12,34,36)         90.8996         estimate D2E/DX2                !
 ! D99   D(30,12,34,35)        102.5419         estimate D2E/DX2                !
 ! D100  D(30,12,34,36)        -43.6985         estimate D2E/DX2                !
 ! D101  D(32,13,30,12)        144.4095         estimate D2E/DX2                !
 ! D102  D(33,13,30,12)        -72.2019         estimate D2E/DX2                !
 ! D103  D(30,13,33,14)         45.885          estimate D2E/DX2                !
 ! D104  D(32,13,33,14)       -164.7438         estimate D2E/DX2                !
 ! D105  D(28,14,33,13)         62.5158         estimate D2E/DX2                !
 ! D106  D(29,14,33,13)       -158.5773         estimate D2E/DX2                !
 --------------------------------------------------------------------------------
 Trust Radius=3.00D-01 FncErr=1.00D-07 GrdErr=1.00D-06 EigMax=2.50D+02 EigMin=1.00D-04
 Number of steps in this run=    231 maximum allowed number of steps=    234.
 GradGradGradGradGradGradGradGradGradGradGradGradGradGradGradGradGradGrad

                          Input orientation:                          
 ---------------------------------------------------------------------
 Center     Atomic      Atomic             Coordinates (Angstroms)
 Number     Number       Type             X           Y           Z
 ---------------------------------------------------------------------
      1          6           0       -0.787260    2.685210   -0.080795
      2          6           0       -0.819675    1.307814    0.146609
      3          6           0        0.398660    0.637025    0.162746
      4          7           0        1.545910    1.294685   -0.042300
      5          6           0        1.594674    2.616565   -0.261125
      6          6           0        0.423275    3.350286   -0.278525
      7          6           0       -2.117612    0.573547    0.383854
      8          7           0       -2.283674   -0.611203   -0.468583
      9          6           0       -3.453805   -1.288549    0.110135
     10          6           0       -3.226030   -1.203618    1.625572
     11          6           0       -2.282597    0.009620    1.807098
     12          8           0        3.562267   -0.292647   -0.328185
     13          8           0        1.911544   -1.855655   -1.771581
     14          8           0       -0.231597   -2.466485   -0.191536
     15          1           0       -3.524391   -2.314391   -0.271777
     16          1           0       -4.171904   -1.076971    2.161416
     17          1           0       -2.754310   -2.116927    2.004403
     18          1           0       -2.681523    0.769024    2.487690
     19          1           0       -1.309067   -0.307159    2.200460
     20          1           0       -4.379989   -0.758560   -0.178230
     21          1           0       -2.942251    1.284755    0.180090
     22          1           0        0.488772   -0.435281    0.328892
     23          1           0        2.580027    3.046503   -0.423453
     24          1           0        0.457132    4.422534   -0.455643
     25          1           0       -1.720883    3.247848   -0.107446
     26          6           0       -2.438516   -0.302530   -1.885341
     27          1           0        2.444399    0.702873   -0.072828
     28          1           0       -1.013236   -1.867790   -0.305697
     29          1           0       -0.560827   -3.328844    0.069670
     30          1           0        3.166155   -1.015522   -0.854496
     31          1           0        4.197704   -0.668734    0.307540
     32          1           0        2.064296   -2.407726   -2.540910
     33          1           0        1.148793   -2.235099   -1.293755
     34          8           0        5.451591   -1.179045    1.470558
     35          1           0        6.378607   -1.056810    1.248165
     36          1           0        5.422456   -1.938572    2.058091
     37          1           0       -2.602709   -1.231283   -2.443598
     38          1           0       -1.525533    0.167761   -2.270776
     39          1           0       -3.294498    0.372439   -2.067059
 ---------------------------------------------------------------------
                    Distance matrix (angstroms):
                    1          2          3          4          5
     1  C    0.000000
     2  C    1.396418   0.000000
     3  C    2.379239   1.390884   0.000000
     4  N    2.716381   2.373152   1.338186   0.000000
     5  C    2.389737   2.776357   2.351318   1.340757   0.000000
     6  C    1.395284   2.428447   2.749020   2.354062   1.382326
     7  C    2.538672   1.509991   2.526765   3.758063   4.286139
     8  N    3.640875   2.490859   3.025155   4.298818   5.050060
     9  C    4.789330   3.698793   4.307214   5.629697   6.393347
    10  C    4.897170   3.779572   4.320440   5.638681   6.433709
    11  C    3.599855   2.565672   3.207284   4.441749   5.109495
    12  O    5.277046   4.689171   3.333724   2.582063   3.512753
    13  O    5.546328   4.598537   3.499127   3.612304   4.731029
    14  O    5.182759   3.834776   3.186615   4.162716   5.401621
    15  H    5.703014   4.539923   4.928488   6.227844   7.107691
    16  H    5.535100   4.580839   5.274706   6.570732   7.263906
    17  H    5.592661   4.350065   4.573529   5.858326   6.815587
    18  H    3.722515   3.039315   3.861388   4.954630   5.408812
    19  H    3.798773   2.658185   2.821364   3.968220   4.799924
    20  H    4.977625   4.129317   4.989931   6.273003   6.862575
    21  H    2.583277   2.122965   3.403166   4.493678   4.748903
    22  H    3.396110   2.187154   1.088836   2.061094   3.299228
    23  H    3.403905   3.860827   3.302662   2.069672   1.087252
    24  H    2.169635   3.419711   3.836131   3.337623   2.143213
    25  H    1.090378   2.154171   3.373702   3.806708   3.378617
    26  C    3.861298   3.056579   3.623119   4.671568   5.236966
    27  H    3.791219   3.326903   2.060310   1.076316   2.102310
    28  H    4.564149   3.213488   2.913243   4.076746   5.187738
    29  H    6.020196   4.644515   4.081347   5.082116   6.332732
    30  H    5.470240   4.720905   3.380048   2.936309   4.001712
    31  H    6.020765   5.395066   4.019789   3.318044   4.229933
    32  H    6.334156   5.417129   4.399387   4.496624   5.537280
    33  H    5.424852   4.301366   3.306538   3.766061   4.980339
    34  O    7.500828   6.875034   5.526355   4.864404   5.681654
    35  H    8.192588   7.656379   6.309277   5.527186   6.217528
    36  H    8.032108   7.290884   5.955213   5.467468   6.385918
    37  H    4.921139   4.041707   4.392245   5.418283   6.098126
    38  H    3.417399   2.764364   3.137636   3.958513   4.446463
    39  H    3.947201   3.449638   4.322205   5.327263   5.674637
                    6          7          8          9         10
     6  C    0.000000
     7  C    3.821666   0.000000
     8  N    4.801780   1.468965   0.000000
     9  C    6.058184   2.308189   1.470686   0.000000
    10  C    6.138490   2.434906   2.371598   1.534811   0.000000
    11  C    4.778244   1.539759   2.358844   2.436525   1.547567
    12  O    4.809023   5.789501   5.856297   7.099944   7.122360
    13  O    5.616581   5.175038   4.565777   5.713968   6.193583
    14  O    5.854165   3.623523   2.780260   3.444004   3.723351
    15  H    6.904540   3.278577   2.116356   1.096901   2.218731
    16  H    6.831514   3.178687   3.270970   2.183617   1.094461
    17  H    6.723037   3.204717   2.933319   2.182603   1.095521
    18  H    4.894347   2.186855   3.286771   3.237714   2.220597
    19  H    4.745870   2.174729   2.857638   3.151585   2.192916
    20  H    6.321710   2.684920   2.121451   1.105378   2.187098
    21  H    3.975363   1.107866   2.109303   2.624590   2.891703
    22  H    3.834549   2.795352   2.890220   4.039781   4.008924
    23  H    2.182858   5.369829   6.085757   7.448793   7.481466
    24  H    1.087305   4.706247   5.731552   6.944926   7.039228
    25  H    2.153410   2.747846   3.916558   4.860994   5.008430
    26  C    4.910679   2.453515   1.458238   2.446420   3.709265
    27  H    3.337072   4.586636   4.923220   6.228005   6.218765
    28  H    5.412266   2.766813   1.794312   2.542600   3.011209
    29  H    6.760213   4.213187   3.262436   3.540305   3.747095
    30  H    5.188007   5.654807   5.478416   6.695441   6.859019
    31  H    5.544575   6.436793   6.527935   7.679110   7.558779
    32  H    6.400472   5.910210   5.140708   6.223346   6.840833
    33  H    5.723076   4.623015   3.885843   4.904159   5.359617
    34  O    6.989856   7.845084   7.994813   9.009374   8.679040
    35  H    7.564341   8.694299   8.841996   9.900765   9.613170
    36  H    7.643533   8.121972   8.217690   9.110712   8.690428
    37  H    5.902109   3.389279   2.094509   2.692433   4.116727
    38  H    4.230293   2.749960   2.104629   3.392316   4.466979
    39  H    5.088051   2.726257   2.131770   2.743070   4.015491
                   11         12         13         14         15
    11  C    0.000000
    12  O    6.230027   0.000000
    13  O    5.820396   2.692819   0.000000
    14  O    3.785794   4.374660   2.731796   0.000000
    15  H    3.356308   7.369624   5.657671   3.297281   0.000000
    16  H    2.208099   8.162762   7.285819   4.795117   2.805514
    17  H    2.187154   6.976253   6.008037   3.362799   2.411019
    18  H    1.095008   6.931177   6.791656   4.863014   4.222858
    19  H    1.096742   5.488547   5.342966   3.397834   3.879252
    20  H    2.988424   7.957323   6.582232   4.486239   1.778035
    21  H    2.169854   6.712324   6.101682   4.643011   3.673816
    22  H    3.172305   3.146183   2.907530   2.217108   4.471838
    23  H    6.151677   3.481924   5.127911   6.192903   8.125645
    24  H    5.665679   5.647215   6.577436   6.928397   7.827675
    25  H    3.803567   6.363608   6.481482   5.905815   5.849628
    26  C    3.708889   6.199535   4.620407   3.524510   2.798267
    27  H    5.134122   1.518518   3.117012   4.149684   6.691033
    28  H    3.098362   4.839092   3.271590   0.991175   2.550785
    29  H    4.138658   5.135824   3.416593   0.959314   3.150938
    30  H    6.150114   0.977986   1.766612   3.753602   6.840324
    31  H    6.686041   0.974355   3.310295   4.806214   7.916726
    32  H    6.606377   3.407877   0.959157   3.285443   6.032503
    33  H    5.140865   3.245043   0.976773   1.781545   4.784284
    34  O    7.832231   2.755127   4.847804   6.059594   9.213739
    35  H    8.744492   3.316715   5.450841   6.910479  10.097579
    36  H    7.951496   3.444370   5.196130   6.108014   9.252870
    37  H    4.439677   6.585054   4.606509   3.495666   2.596041
    38  H    4.150568   5.465468   4.019565   3.596771   3.761982
    39  H    4.020532   7.105016   5.670501   4.578039   3.239590
                   16         17         18         19         20
    16  H    0.000000
    17  H    1.765144   0.000000
    18  H    2.394867   2.927042   0.000000
    19  H    2.964788   2.324312   1.767571   0.000000
    20  H    2.370365   3.041690   3.510759   3.910561   0.000000
    21  H    3.318953   3.864567   2.378860   3.046863   2.524009
    22  H    5.048942   4.019061   4.020141   2.598347   4.905764
    23  H    8.323050   7.810931   6.430052   5.766890   7.936023
    24  H    7.649936   7.689586   5.644688   5.704764   7.093549
    25  H    5.464366   5.857362   3.715122   4.258415   4.809071
    26  C    4.469970   4.303704   4.508956   4.239038   2.625168
    27  H    7.206605   6.268392   5.730245   4.502945   6.979912
    28  H    4.085245   2.903441   4.187957   2.967138   3.547064
    29  H    4.741963   3.165960   5.209289   3.772361   4.610186
    30  H    7.933890   6.666206   6.967794   5.464627   7.580742
    31  H    8.582182   7.301172   7.358258   5.834245   8.591907
    32  H    7.922939   6.630490   7.609294   6.186481   7.059094
    33  H    6.448975   5.111362   6.164041   4.686957   5.830265
    34  O    9.648801   8.276559   8.424789   6.855614   9.977739
    35  H   10.589982   9.225287   9.325023   7.782620  10.856839
    36  H    9.633524   8.178887   8.555122   6.927855  10.123314
    37  H    4.867478   4.537848   5.322127   4.908644   2.917890
    38  H    5.310081   5.000685   4.933643   4.501595   3.658516
    39  H    4.555286   4.802661   4.612890   4.755577   2.454613
                   21         22         23         24         25
    21  H    0.000000
    22  H    3.840909   0.000000
    23  H    5.827828   4.130640   0.000000
    24  H    4.669649   4.920860   2.530055   0.000000
    25  H    2.329839   4.317222   4.317201   2.498975   0.000000
    26  C    2.653154   3.672801   6.207972   5.723202   4.034983
    27  H    5.423887   2.298097   2.373591   4.234579   4.881359
    28  H    3.727684   2.170441   6.088980   6.461628   5.168154
    29  H    5.193137   3.088942   7.124127   7.835563   6.680567
    30  H    6.608651   2.984203   4.126668   6.088542   6.528212
    31  H    7.403467   3.716333   4.117550   6.363595   7.109255
    32  H    6.789976   3.822117   5.873518   7.320093   7.227368
    33  H    5.594482   2.511564   5.540864   6.745732   6.301196
    34  O    8.842635   5.146470   5.448707   7.748068   8.575072
    35  H    9.669649   5.993456   5.836154   8.245607   9.271974
    36  H    9.158878   5.439784   6.252075   8.452039   9.089323
    37  H    3.650955   4.228188   7.017207   6.729059   5.128142
    38  H    3.043273   3.343555   5.343723   5.032769   3.768965
    39  H    2.450730   4.550398   6.660488   5.751057   3.818943
                   26         27         28         29         30
    26  C    0.000000
    27  H    5.304611   0.000000
    28  H    2.641351   4.314832   0.000000
    29  H    4.062802   5.030550   1.574882   0.000000
    30  H    5.743112   2.021093   4.300564   4.482849   0.000000
    31  H    6.998732   2.258332   5.382164   5.456774   1.592069
    32  H    5.013675   3.988951   3.841733   3.815083   2.448738
    33  H    4.117473   3.435249   2.405316   2.444996   2.397930
    34  O    8.618824   3.868703   6.739691   6.537071   3.264327
    35  H    9.387729   4.507716   7.596810   7.396400   3.839627
    36  H    8.945511   4.515182   6.856430   6.456497   3.798168
    37  H    1.095989   5.902102   2.739012   3.858181   5.987620
    38  H    1.096937   4.569210   2.875318   4.316780   5.041621
    39  H    1.105129   6.084495   3.650367   5.073270   6.718391
                   31         32         33         34         35
    31  H    0.000000
    32  H    3.960958   0.000000
    33  H    3.783319   1.556709   0.000000
    34  O    1.784730   5.392152   5.222140   0.000000
    35  H    2.406598   5.898758   5.933016   0.961124   0.000000
    36  H    2.485344   5.713856   5.439393   0.960690   1.532224
    37  H    7.357366   4.813982   4.050130   8.955171   9.712033
    38  H    6.332683   4.426396   3.725631   8.030674   8.738304
    39  H    7.928168   6.055619   5.209615   9.561167  10.324845
                   36         37         38         39
    36  H    0.000000
    37  H    9.228691   0.000000
    38  H    8.452827   1.774119   0.000000
    39  H    9.916800   1.786695   1.792381   0.000000
 Stoichiometry    C10H23N2O4(1+)
 Framework group  C1[X(C10H23N2O4)]
 Deg. of freedom   111
 Full point group                 C1      NOp   1
 Largest Abelian subgroup         C1      NOp   1
 Largest concise Abelian subgroup C1      NOp   1
                         Standard orientation:                         
 ---------------------------------------------------------------------
 Center     Atomic      Atomic             Coordinates (Angstroms)
 Number     Number       Type             X           Y           Z
 ---------------------------------------------------------------------
      1          6           0       -0.787260    2.685210   -0.080795
      2          6           0       -0.819675    1.307814    0.146609
      3          6           0        0.398660    0.637025    0.162746
      4          7           0        1.545910    1.294685   -0.042300
      5          6           0        1.594674    2.616565   -0.261125
      6          6           0        0.423275    3.350286   -0.278525
      7          6           0       -2.117612    0.573547    0.383854
      8          7           0       -2.283674   -0.611203   -0.468583
      9          6           0       -3.453805   -1.288549    0.110135
     10          6           0       -3.226030   -1.203618    1.625572
     11          6           0       -2.282597    0.009620    1.807098
     12          8           0        3.562267   -0.292647   -0.328185
     13          8           0        1.911544   -1.855655   -1.771581
     14          8           0       -0.231597   -2.466485   -0.191536
     15          1           0       -3.524391   -2.314391   -0.271777
     16          1           0       -4.171904   -1.076971    2.161416
     17          1           0       -2.754310   -2.116927    2.004403
     18          1           0       -2.681523    0.769024    2.487690
     19          1           0       -1.309067   -0.307159    2.200460
     20          1           0       -4.379989   -0.758560   -0.178230
     21          1           0       -2.942251    1.284755    0.180090
     22          1           0        0.488772   -0.435281    0.328892
     23          1           0        2.580027    3.046503   -0.423453
     24          1           0        0.457132    4.422534   -0.455643
     25          1           0       -1.720883    3.247848   -0.107446
     26          6           0       -2.438516   -0.302530   -1.885341
     27          1           0        2.444399    0.702873   -0.072828
     28          1           0       -1.013236   -1.867790   -0.305697
     29          1           0       -0.560827   -3.328844    0.069670
     30          1           0        3.166155   -1.015522   -0.854496
     31          1           0        4.197704   -0.668734    0.307540
     32          1           0        2.064296   -2.407726   -2.540910
     33          1           0        1.148793   -2.235099   -1.293755
     34          8           0        5.451591   -1.179045    1.470558
     35          1           0        6.378607   -1.056810    1.248165
     36          1           0        5.422456   -1.938572    2.058091
     37          1           0       -2.602709   -1.231283   -2.443598
     38          1           0       -1.525533    0.167761   -2.270776
     39          1           0       -3.294498    0.372439   -2.067059
 ---------------------------------------------------------------------
 Rotational constants (GHZ):           0.5477677           0.2768538           0.2266347
 Standard basis: Aug-CC-pVDZ (5D, 7F)
 There are   607 symmetry adapted cartesian basis functions of A   symmetry.
 There are   575 symmetry adapted basis functions of A   symmetry.
   575 basis functions,   941 primitive gaussians,   607 cartesian basis functions
    64 alpha electrons       64 beta electrons
       nuclear repulsion energy      1218.9183884686 Hartrees.
 NAtoms=   39 NActive=   39 NUniq=   39 SFac= 1.00D+00 NAtFMM=   60 NAOKFM=F Big=F
 Integral buffers will be    131072 words long.
 Raffenetti 2 integral format.
 Two-electron integral symmetry is turned on.
 Nuclear repulsion after empirical dispersion term =     1218.8888226318 Hartrees.
 One-electron integrals computed using PRISM.
 NBasis=   575 RedAO= T EigKep=  1.90D-06  NBF=   575
 NBsUse=   575 1.00D-06 EigRej= -1.00D+00 NBFU=   575
 ExpMin= 2.97D-02 ExpMax= 1.17D+04 ExpMxC= 4.01D+02 IAcc=3 IRadAn=         5 AccDes= 0.00D+00
 Harris functional with IExCor= 4639 and IRadAn=       5 diagonalized for initial guess.
 HarFok:  IExCor= 4639 AccDes= 0.00D+00 IRadAn=         5 IDoV= 1 UseB2=F ITyADJ=14
 ICtDFT=  3500011 ScaDFX=  1.000000  1.000000  1.000000  1.000000
 FoFCou: FMM=F IPFlag=           0 FMFlag=      100000 FMFlg1=           0
         NFxFlg=           0 DoJE=T BraDBF=F KetDBF=T FulRan=T
         wScrn=  0.000000 ICntrl=       500 IOpCl=  0 I1Cent=   200000004 NGrid=           0
         NMat0=    1 NMatS0=      1 NMatT0=    0 NMatD0=    1 NMtDS0=    0 NMtDT0=    0
 Petite list used in FoFCou.
 Requested convergence on RMS density matrix=1.00D-08 within 128 cycles.
 Requested convergence on MAX density matrix=1.00D-06.
 Requested convergence on             energy=1.00D-06.
 No special actions if energy rises.
 SCF Done:  E(RwB97XD) =  -805.033747388     A.U. after   16 cycles
            NFock= 16  Conv=0.15D-08     -V/T= 2.0062

 **********************************************************************

            Population analysis using the SCF density.

 **********************************************************************

 Orbital symmetries:
       Occupied  (A) (A) (A) (A) (A) (A) (A) (A) (A) (A) (A) (A)
                 (A) (A) (A) (A) (A) (A) (A) (A) (A) (A) (A) (A)
                 (A) (A) (A) (A) (A) (A) (A) (A) (A) (A) (A) (A)
                 (A) (A) (A) (A) (A) (A) (A) (A) (A) (A) (A) (A)
                 (A) (A) (A) (A) (A) (A) (A) (A) (A) (A) (A) (A)
                 (A) (A) (A) (A)
       Virtual   (A) (A) (A) (A) (A) (A) (A) (A) (A) (A) (A) (A)
                 (A) (A) (A) (A) (A) (A) (A) (A) (A) (A) (A) (A)
                 (A) (A) (A) (A) (A) (A) (A) (A) (A) (A) (A) (A)
                 (A) (A) (A) (A) (A) (A) (A) (A) (A) (A) (A) (A)
                 (A) (A) (A) (A) (A) (A) (A) (A) (A) (A) (A) (A)
                 (A) (A) (A) (A) (A) (A) (A) (A) (A) (A) (A) (A)
                 (A) (A) (A) (A) (A) (A) (A) (A) (A) (A) (A) (A)
                 (A) (A) (A) (A) (A) (A) (A) (A) (A) (A) (A) (A)
                 (A) (A) (A) (A) (A) (A) (A) (A) (A) (A) (A) (A)
                 (A) (A) (A) (A) (A) (A) (A) (A) (A) (A) (A) (A)
                 (A) (A) (A) (A) (A) (A) (A) (A) (A) (A) (A) (A)
                 (A) (A) (A) (A) (A) (A) (A) (A) (A) (A) (A) (A)
                 (A) (A) (A) (A) (A) (A) (A) (A) (A) (A) (A) (A)
                 (A) (A) (A) (A) (A) (A) (A) (A) (A) (A) (A) (A)
                 (A) (A) (A) (A) (A) (A) (A) (A) (A) (A) (A) (A)
                 (A) (A) (A) (A) (A) (A) (A) (A) (A) (A) (A) (A)
                 (A) (A) (A) (A) (A) (A) (A) (A) (A) (A) (A) (A)
                 (A) (A) (A) (A) (A) (A) (A) (A) (A) (A) (A) (A)
                 (A) (A) (A) (A) (A) (A) (A) (A) (A) (A) (A) (A)
                 (A) (A) (A) (A) (A) (A) (A) (A) (A) (A) (A) (A)
                 (A) (A) (A) (A) (A) (A) (A) (A) (A) (A) (A) (A)
                 (A) (A) (A) (A) (A) (A) (A) (A) (A) (A) (A) (A)
                 (A) (A) (A) (A) (A) (A) (A) (A) (A) (A) (A) (A)
                 (A) (A) (A) (A) (A) (A) (A) (A) (A) (A) (A) (A)
                 (A) (A) (A) (A) (A) (A) (A) (A) (A) (A) (A) (A)
                 (A) (A) (A) (A) (A) (A) (A) (A) (A) (A) (A) (A)
                 (A) (A) (A) (A) (A) (A) (A) (A) (A) (A) (A) (A)
                 (A) (A) (A) (A) (A) (A) (A) (A) (A) (A) (A) (A)
                 (A) (A) (A) (A) (A) (A) (A) (A) (A) (A) (A) (A)
                 (A) (A) (A) (A) (A) (A) (A) (A) (A) (A) (A) (A)
                 (A) (A) (A) (A) (A) (A) (A) (A) (A) (A) (A) (A)
                 (A) (A) (A) (A) (A) (A) (A) (A) (A) (A) (A) (A)
                 (A) (A) (A) (A) (A) (A) (A) (A) (A) (A) (A) (A)
                 (A) (A) (A) (A) (A) (A) (A) (A) (A) (A) (A) (A)
                 (A) (A) (A) (A) (A) (A) (A) (A) (A) (A) (A) (A)
                 (A) (A) (A) (A) (A) (A) (A) (A) (A) (A) (A) (A)
                 (A) (A) (A) (A) (A) (A) (A) (A) (A) (A) (A) (A)
                 (A) (A) (A) (A) (A) (A) (A) (A) (A) (A) (A) (A)
                 (A) (A) (A) (A) (A) (A) (A) (A) (A) (A) (A) (A)
                 (A) (A) (A) (A) (A) (A) (A) (A) (A) (A) (A) (A)
                 (A) (A) (A) (A) (A) (A) (A) (A) (A) (A) (A) (A)
                 (A) (A) (A) (A) (A) (A) (A) (A) (A) (A) (A) (A)
                 (A) (A) (A) (A) (A) (A) (A)
 The electronic state is 1-A.
 Alpha  occ. eigenvalues --  -19.39673 -19.38286 -19.37457 -19.37016 -14.66221
 Alpha  occ. eigenvalues --  -14.58012 -10.50222 -10.49810 -10.47223 -10.46730
 Alpha  occ. eigenvalues --  -10.46238 -10.46227 -10.43408 -10.43004 -10.41419
 Alpha  occ. eigenvalues --  -10.40583  -1.24859  -1.24027  -1.22856  -1.21828
 Alpha  occ. eigenvalues --   -1.20715  -1.17400  -1.07654  -1.03993  -1.00456
 Alpha  occ. eigenvalues --   -0.95634  -0.89834  -0.89430  -0.88341  -0.81888
 Alpha  occ. eigenvalues --   -0.79655  -0.79278  -0.74495  -0.74245  -0.74169
 Alpha  occ. eigenvalues --   -0.73795  -0.73229  -0.72415  -0.70768  -0.69496
 Alpha  occ. eigenvalues --   -0.68135  -0.67161  -0.65421  -0.64219  -0.63558
 Alpha  occ. eigenvalues --   -0.62824  -0.61467  -0.60808  -0.59885  -0.58673
 Alpha  occ. eigenvalues --   -0.57385  -0.57157  -0.56588  -0.56049  -0.55478
 Alpha  occ. eigenvalues --   -0.53914  -0.52814  -0.52548  -0.52006  -0.51863
 Alpha  occ. eigenvalues --   -0.51114  -0.50768  -0.48784  -0.44415
 Alpha virt. eigenvalues --   -0.13119  -0.10416  -0.06090  -0.05240  -0.04885
 Alpha virt. eigenvalues --   -0.04125  -0.03783  -0.02995  -0.02779  -0.02529
 Alpha virt. eigenvalues --   -0.01734  -0.01483  -0.01285  -0.00522  -0.00419
 Alpha virt. eigenvalues --    0.00188   0.00464   0.00758   0.01009   0.01576
 Alpha virt. eigenvalues --    0.01909   0.02316   0.02444   0.02972   0.03259
 Alpha virt. eigenvalues --    0.03441   0.03683   0.03829   0.04252   0.04893
 Alpha virt. eigenvalues --    0.05243   0.05380   0.05669   0.05818   0.06082
 Alpha virt. eigenvalues --    0.06352   0.06754   0.07028   0.07192   0.07272
 Alpha virt. eigenvalues --    0.07590   0.07876   0.07948   0.08594   0.08881
 Alpha virt. eigenvalues --    0.09115   0.09466   0.09735   0.10145   0.10668
 Alpha virt. eigenvalues --    0.10802   0.11249   0.11372   0.11618   0.11909
 Alpha virt. eigenvalues --    0.12332   0.12585   0.12745   0.13121   0.13653
 Alpha virt. eigenvalues --    0.13929   0.14224   0.14384   0.14695   0.14906
 Alpha virt. eigenvalues --    0.15294   0.15507   0.15795   0.15875   0.16133
 Alpha virt. eigenvalues --    0.16492   0.16795   0.17116   0.17443   0.17952
 Alpha virt. eigenvalues --    0.18016   0.18397   0.18639   0.18767   0.19258
 Alpha virt. eigenvalues --    0.19416   0.19551   0.19847   0.20534   0.20632
 Alpha virt. eigenvalues --    0.20919   0.21270   0.21541   0.21837   0.22011
 Alpha virt. eigenvalues --    0.22408   0.22848   0.23427   0.23543   0.23777
 Alpha virt. eigenvalues --    0.24209   0.24570   0.25040   0.25149   0.25770
 Alpha virt. eigenvalues --    0.26153   0.26323   0.26605   0.26987   0.27223
 Alpha virt. eigenvalues --    0.27306   0.27887   0.28506   0.28534   0.28797
 Alpha virt. eigenvalues --    0.28994   0.29818   0.29966   0.30622   0.30936
 Alpha virt. eigenvalues --    0.31533   0.31774   0.32018   0.32235   0.32798
 Alpha virt. eigenvalues --    0.33122   0.33239   0.33568   0.34108   0.34695
 Alpha virt. eigenvalues --    0.35107   0.35794   0.35866   0.36671   0.37076
 Alpha virt. eigenvalues --    0.37150   0.37646   0.37798   0.38440   0.38954
 Alpha virt. eigenvalues --    0.39200   0.39361   0.39557   0.40004   0.40443
 Alpha virt. eigenvalues --    0.41133   0.41867   0.42297   0.42748   0.42820
 Alpha virt. eigenvalues --    0.43217   0.43811   0.44210   0.44278   0.44810
 Alpha virt. eigenvalues --    0.45386   0.45532   0.45627   0.46384   0.46759
 Alpha virt. eigenvalues --    0.47084   0.47522   0.47707   0.47873   0.48754
 Alpha virt. eigenvalues --    0.49039   0.49423   0.49713   0.50077   0.50677
 Alpha virt. eigenvalues --    0.51073   0.51132   0.51588   0.52179   0.52455
 Alpha virt. eigenvalues --    0.53181   0.53209   0.53361   0.53819   0.54239
 Alpha virt. eigenvalues --    0.54584   0.54785   0.55134   0.55796   0.56134
 Alpha virt. eigenvalues --    0.56588   0.57116   0.57355   0.57909   0.57980
 Alpha virt. eigenvalues --    0.58621   0.59291   0.59581   0.59707   0.60223
 Alpha virt. eigenvalues --    0.60472   0.61305   0.61568   0.61789   0.62293
 Alpha virt. eigenvalues --    0.62838   0.63230   0.63913   0.64214   0.64835
 Alpha virt. eigenvalues --    0.65514   0.65554   0.66580   0.66892   0.67210
 Alpha virt. eigenvalues --    0.67445   0.68219   0.68450   0.69041   0.69416
 Alpha virt. eigenvalues --    0.69761   0.69955   0.70569   0.71330   0.71715
 Alpha virt. eigenvalues --    0.72005   0.72360   0.72571   0.73210   0.73809
 Alpha virt. eigenvalues --    0.74194   0.74341   0.74559   0.75116   0.75778
 Alpha virt. eigenvalues --    0.76441   0.76590   0.76797   0.77534   0.78314
 Alpha virt. eigenvalues --    0.78615   0.79345   0.79732   0.80478   0.80996
 Alpha virt. eigenvalues --    0.81079   0.81941   0.82605   0.82788   0.83783
 Alpha virt. eigenvalues --    0.84565   0.84957   0.85590   0.85874   0.87000
 Alpha virt. eigenvalues --    0.87774   0.88465   0.89266   0.89932   0.90210
 Alpha virt. eigenvalues --    0.90502   0.91163   0.92224   0.93164   0.93342
 Alpha virt. eigenvalues --    0.94253   0.94965   0.95320   0.96194   0.96328
 Alpha virt. eigenvalues --    0.97296   0.98396   0.99938   1.00841   1.01175
 Alpha virt. eigenvalues --    1.02051   1.02981   1.03471   1.04070   1.04354
 Alpha virt. eigenvalues --    1.05361   1.06059   1.06601   1.07876   1.09285
 Alpha virt. eigenvalues --    1.09834   1.10085   1.11214   1.11585   1.11869
 Alpha virt. eigenvalues --    1.12329   1.12852   1.13595   1.15300   1.16222
 Alpha virt. eigenvalues --    1.16772   1.17708   1.18312   1.19195   1.19477
 Alpha virt. eigenvalues --    1.20417   1.21219   1.21522   1.22408   1.23381
 Alpha virt. eigenvalues --    1.25087   1.26142   1.26693   1.28330   1.29357
 Alpha virt. eigenvalues --    1.29624   1.30113   1.30719   1.31663   1.32891
 Alpha virt. eigenvalues --    1.33456   1.34689   1.34861   1.35242   1.37189
 Alpha virt. eigenvalues --    1.37541   1.38294   1.39245   1.40448   1.41572
 Alpha virt. eigenvalues --    1.42157   1.43083   1.44331   1.45164   1.45572
 Alpha virt. eigenvalues --    1.46812   1.47448   1.47814   1.49441   1.50334
 Alpha virt. eigenvalues --    1.51098   1.52117   1.53410   1.54481   1.55203
 Alpha virt. eigenvalues --    1.55660   1.56156   1.57841   1.58944   1.59840
 Alpha virt. eigenvalues --    1.60544   1.61259   1.62648   1.62724   1.63488
 Alpha virt. eigenvalues --    1.64108   1.64867   1.65480   1.65830   1.67409
 Alpha virt. eigenvalues --    1.67679   1.68923   1.69912   1.70259   1.71602
 Alpha virt. eigenvalues --    1.72299   1.72717   1.73132   1.73443   1.74497
 Alpha virt. eigenvalues --    1.75621   1.76705   1.78067   1.79013   1.79266
 Alpha virt. eigenvalues --    1.80470   1.81026   1.81933   1.82348   1.82502
 Alpha virt. eigenvalues --    1.83777   1.84103   1.85329   1.85821   1.87054
 Alpha virt. eigenvalues --    1.87421   1.87698   1.88134   1.89378   1.90444
 Alpha virt. eigenvalues --    1.91336   1.91554   1.92227   1.92603   1.93900
 Alpha virt. eigenvalues --    1.94647   1.95577   1.96501   1.97401   1.97789
 Alpha virt. eigenvalues --    1.99566   1.99737   2.00495   2.00933   2.02691
 Alpha virt. eigenvalues --    2.02872   2.04557   2.05203   2.05417   2.06585
 Alpha virt. eigenvalues --    2.06785   2.09373   2.09709   2.11336   2.11735
 Alpha virt. eigenvalues --    2.12019   2.12839   2.13691   2.14432   2.14976
 Alpha virt. eigenvalues --    2.15635   2.16678   2.17176   2.18827   2.19871
 Alpha virt. eigenvalues --    2.21178   2.22715   2.22995   2.24425   2.24739
 Alpha virt. eigenvalues --    2.26147   2.27130   2.27455   2.28788   2.29120
 Alpha virt. eigenvalues --    2.30425   2.30468   2.31777   2.32909   2.33671
 Alpha virt. eigenvalues --    2.34754   2.36527   2.37653   2.39039   2.40888
 Alpha virt. eigenvalues --    2.41572   2.42959   2.44311   2.45021   2.45768
 Alpha virt. eigenvalues --    2.46079   2.48533   2.49564   2.50948   2.52818
 Alpha virt. eigenvalues --    2.53463   2.55332   2.55628   2.56634   2.56897
 Alpha virt. eigenvalues --    2.58800   2.60136   2.60740   2.61816   2.62010
 Alpha virt. eigenvalues --    2.63886   2.64531   2.66174   2.67871   2.68849
 Alpha virt. eigenvalues --    2.69524   2.70195   2.71213   2.72389   2.72881
 Alpha virt. eigenvalues --    2.75314   2.76331   2.77353   2.78658   2.79660
 Alpha virt. eigenvalues --    2.81179   2.83428   2.84430   2.85243   2.86695
 Alpha virt. eigenvalues --    2.88436   2.89401   2.90731   2.92306   2.94416
 Alpha virt. eigenvalues --    2.96253   2.99259   3.04097   3.06147   3.07418
 Alpha virt. eigenvalues --    3.11994   3.16675   3.20660   3.24262   3.29550
 Alpha virt. eigenvalues --    3.29929   3.36215   3.37638   3.40544   3.41646
 Alpha virt. eigenvalues --    3.42530   3.44017   3.45403   3.47441   3.49212
 Alpha virt. eigenvalues --    3.53075   3.55840   3.61409   3.63807   3.67107
 Alpha virt. eigenvalues --    3.71394   3.73868   3.83363   3.90775   3.91035
 Alpha virt. eigenvalues --    3.94341   4.04414   4.09274   4.11611   4.36934
 Alpha virt. eigenvalues --    4.98437
          Condensed to atoms (all electrons):
               1          2          3          4          5          6
     1  C   24.524720  -9.879030  -2.982953  -0.276876   1.820361  -5.002230
     2  C   -9.879030  25.244926  -3.549545  -0.384364  -0.678333   0.546501
     3  C   -2.982953  -3.549545  16.460381  -1.083722  -1.917416   0.797173
     4  N   -0.276876  -0.384364  -1.083722   7.891209   0.299577  -0.017573
     5  C    1.820361  -0.678333  -1.917416   0.299577  10.405912  -2.713854
     6  C   -5.002230   0.546501   0.797173  -0.017573  -2.713854  12.217676
     7  C   -0.522508  -9.897492  -1.906490   1.026407  -0.696275   0.151949
     8  N   -0.316354   2.054398   0.559743  -0.130556   0.135663  -0.255472
     9  C   -0.001997  -0.417770  -0.204881   0.049614  -0.012015  -0.058387
    10  C    0.007466   0.372192  -0.037228   0.021472   0.019676  -0.027861
    11  C   -0.354630   0.207749  -0.863606   0.029082  -0.102500   0.049086
    12  O    0.037078  -0.123287   0.033956  -0.185501   0.014322  -0.023733
    13  O   -0.004879   0.011712  -0.028886   0.000610   0.015563  -0.007851
    14  O   -0.011649  -0.033893  -0.076513   0.003013  -0.013766   0.010268
    15  H    0.020168  -0.169963  -0.019258   0.002599   0.000440  -0.001916
    16  H    0.002804   0.040115   0.026923  -0.002716   0.002795  -0.003570
    17  H    0.005448  -0.121469  -0.024812   0.004973  -0.001223  -0.000341
    18  H   -0.078780   0.434230   0.263303  -0.014711  -0.003311   0.004820
    19  H    0.069662   0.039786  -0.153503   0.017100   0.020488  -0.026328
    20  H    0.021309   0.117807   0.024228  -0.000174  -0.001772   0.001503
    21  H    0.001388   1.132543  -0.284251   0.001823   0.041443  -0.005772
    22  H   -0.226936  -1.165711  -0.663117  -0.032960  -0.302534   0.155752
    23  H    0.232615  -0.005023   0.143369  -0.128066  -0.580092   0.138869
    24  H    0.701191  -0.072619  -0.186178  -0.012135   0.399452  -1.174467
    25  H   -2.690482   1.304060   0.302671  -0.086614  -0.225939   0.826499
    26  C   -0.268248   0.777934   0.056046  -0.061566  -0.011288   0.040547
    27  H   -0.059618  -0.533414   0.731537   0.027474  -0.662416  -0.009554
    28  H    0.041209  -0.181615  -0.079533   0.024598  -0.001566   0.001759
    29  H   -0.001875   0.011260   0.011928  -0.001651   0.000232   0.000345
    30  H   -0.015041   0.017447  -0.035993   0.021331  -0.007037   0.012555
    31  H    0.012608  -0.010108   0.016650  -0.021228  -0.012670  -0.001941
    32  H    0.001275   0.002858  -0.008188   0.004653   0.000773  -0.000237
    33  H   -0.006632  -0.009588   0.033873  -0.002067   0.003249  -0.001025
    34  O   -0.000665   0.003121  -0.002963   0.003085   0.002426   0.001678
    35  H   -0.000195   0.000020   0.001274  -0.000183  -0.001440   0.000150
    36  H   -0.000216   0.000232  -0.001637   0.000423   0.000276   0.000127
    37  H   -0.015588   0.014655  -0.071628  -0.000540  -0.004096   0.009580
    38  H   -0.029217  -0.031198   0.125257  -0.000787  -0.043499   0.060073
    39  H    0.004394   0.180717   0.020503  -0.006523   0.017478  -0.016908
               7          8          9         10         11         12
     1  C   -0.522508  -0.316354  -0.001997   0.007466  -0.354630   0.037078
     2  C   -9.897492   2.054398  -0.417770   0.372192   0.207749  -0.123287
     3  C   -1.906490   0.559743  -0.204881  -0.037228  -0.863606   0.033956
     4  N    1.026407  -0.130556   0.049614   0.021472   0.029082  -0.185501
     5  C   -0.696275   0.135663  -0.012015   0.019676  -0.102500   0.014322
     6  C    0.151949  -0.255472  -0.058387  -0.027861   0.049086  -0.023733
     7  C   27.641617  -6.572871  -0.289063  -0.039692  -1.239023   0.014760
     8  N   -6.572871  15.388540  -0.079211  -0.364834  -0.815551  -0.000807
     9  C   -0.289063  -0.079211   5.826825   0.034942   0.697090   0.000419
    10  C   -0.039692  -0.364834   0.034942   6.227083  -0.946199  -0.001388
    11  C   -1.239023  -0.815551   0.697090  -0.946199   8.335516  -0.004171
    12  O    0.014760  -0.000807   0.000419  -0.001388  -0.004171   8.059401
    13  O    0.007216   0.004236   0.002753   0.000396  -0.003689  -0.056908
    14  O    0.070907  -0.058032   0.035506  -0.018081   0.027989   0.004105
    15  H    0.653245  -1.101152  -0.172183   0.139235   0.055887  -0.000033
    16  H   -0.123551  -0.120065   0.155687  -0.222040   0.226719  -0.000089
    17  H    0.249324   0.112137  -0.031691  -0.402167   0.257515  -0.000115
    18  H   -0.063873   0.439643  -0.207265   0.173867  -1.069927   0.000190
    19  H   -0.193950  -0.089691   0.028593   0.329918  -0.155424  -0.000913
    20  H    0.112906  -0.266252  -0.308470   0.006811   0.013491   0.000048
    21  H   -2.746954  -0.386055  -0.008658  -0.054720   0.725023   0.000515
    22  H    0.192777  -0.212432   0.037504  -0.022088   0.064900   0.030692
    23  H   -0.021197   0.008414  -0.000338   0.000892   0.007458   0.012240
    24  H    0.096427  -0.002039   0.000368   0.000019  -0.005284  -0.000140
    25  H   -0.318066   0.034420  -0.013793  -0.007434  -0.007168   0.000131
    26  C   -1.372083   1.250596  -0.254071  -0.022443  -0.157085  -0.000006
    27  H   -0.023398  -0.017717  -0.010176  -0.003079  -0.049684   0.012409
    28  H    0.545373  -0.259442  -0.104892   0.011411  -0.016628  -0.000806
    29  H   -0.031453  -0.026428   0.018730  -0.005730   0.017514   0.000722
    30  H    0.010424  -0.001696   0.000044  -0.000292  -0.000058   0.320612
    31  H   -0.001592   0.001794   0.000558  -0.000137   0.001829   0.355801
    32  H   -0.001444   0.002871  -0.000628  -0.000401  -0.000050   0.000695
    33  H    0.020543  -0.027103   0.003776   0.008011  -0.000429  -0.001542
    34  O    0.000026  -0.000014   0.000004   0.000027   0.000048  -0.056494
    35  H    0.000018  -0.000031  -0.000001   0.000002  -0.000003   0.000803
    36  H    0.000019   0.000025  -0.000010   0.000011  -0.000024   0.003729
    37  H    0.175209  -0.241704   0.001176   0.071817  -0.069226  -0.000021
    38  H   -0.016424   0.096115  -0.089116  -0.044849   0.075474   0.000681
    39  H   -0.300265  -0.492214   0.112560  -0.003682   0.054211  -0.000071
              13         14         15         16         17         18
     1  C   -0.004879  -0.011649   0.020168   0.002804   0.005448  -0.078780
     2  C    0.011712  -0.033893  -0.169963   0.040115  -0.121469   0.434230
     3  C   -0.028886  -0.076513  -0.019258   0.026923  -0.024812   0.263303
     4  N    0.000610   0.003013   0.002599  -0.002716   0.004973  -0.014711
     5  C    0.015563  -0.013766   0.000440   0.002795  -0.001223  -0.003311
     6  C   -0.007851   0.010268  -0.001916  -0.003570  -0.000341   0.004820
     7  C    0.007216   0.070907   0.653245  -0.123551   0.249324  -0.063873
     8  N    0.004236  -0.058032  -1.101152  -0.120065   0.112137   0.439643
     9  C    0.002753   0.035506  -0.172183   0.155687  -0.031691  -0.207265
    10  C    0.000396  -0.018081   0.139235  -0.222040  -0.402167   0.173867
    11  C   -0.003689   0.027989   0.055887   0.226719   0.257515  -1.069927
    12  O   -0.056908   0.004105  -0.000033  -0.000089  -0.000115   0.000190
    13  O    7.795690  -0.035897  -0.000194  -0.000033   0.000349  -0.000052
    14  O   -0.035897   7.965769   0.023566  -0.004300   0.011078   0.002841
    15  H   -0.000194   0.023566   2.891003   0.127652  -0.316127  -0.040616
    16  H   -0.000033  -0.004300   0.127652   2.096689  -0.612176  -0.312693
    17  H    0.000349   0.011078  -0.316127  -0.612176   2.229234   0.180722
    18  H   -0.000052   0.002841  -0.040616  -0.312693   0.180722   2.608570
    19  H   -0.001034  -0.021929   0.050968   0.202674  -0.435898  -0.667183
    20  H   -0.000103   0.003254  -0.569705  -0.251021   0.193338   0.061351
    21  H    0.000190  -0.002535   0.093010   0.064562  -0.059678  -0.344093
    22  H    0.014428   0.053055  -0.018750  -0.006649   0.024120   0.069295
    23  H    0.000412  -0.000507   0.000053   0.000136  -0.000112   0.000408
    24  H   -0.000035   0.000275   0.000064  -0.000133   0.000066  -0.001565
    25  H   -0.000175  -0.001072  -0.002687   0.003086  -0.001469   0.011200
    26  C    0.002795  -0.007875  -0.177304  -0.020295   0.015028   0.079001
    27  H   -0.002445  -0.002277  -0.000649  -0.000331   0.000972   0.002257
    28  H    0.000829   0.100858   0.066771  -0.000642   0.008812  -0.019999
    29  H    0.006961   0.371578   0.000534   0.000755   0.000507   0.000887
    30  H    0.036654  -0.003303   0.000227   0.000026  -0.000042  -0.000214
    31  H   -0.007004   0.000990   0.000021  -0.000025  -0.000059   0.000013
    32  H    0.358801  -0.000813  -0.000343  -0.000019   0.000020   0.000056
    33  H    0.293125   0.043702   0.002806   0.000205  -0.000625  -0.000538
    34  O   -0.000039   0.000110   0.000002   0.000003  -0.000024  -0.000018
    35  H    0.000041  -0.000014  -0.000000   0.000001  -0.000000   0.000000
    36  H   -0.000032  -0.000008   0.000001   0.000001  -0.000005  -0.000010
    37  H    0.002742   0.001893  -0.006360  -0.004929   0.012613   0.002594
    38  H   -0.007924   0.012299   0.006582   0.000431  -0.006652  -0.002029
    39  H   -0.000068  -0.005356   0.029591   0.006101  -0.005770   0.007508
              19         20         21         22         23         24
     1  C    0.069662   0.021309   0.001388  -0.226936   0.232615   0.701191
     2  C    0.039786   0.117807   1.132543  -1.165711  -0.005023  -0.072619
     3  C   -0.153503   0.024228  -0.284251  -0.663117   0.143369  -0.186178
     4  N    0.017100  -0.000174   0.001823  -0.032960  -0.128066  -0.012135
     5  C    0.020488  -0.001772   0.041443  -0.302534  -0.580092   0.399452
     6  C   -0.026328   0.001503  -0.005772   0.155752   0.138869  -1.174467
     7  C   -0.193950   0.112906  -2.746954   0.192777  -0.021197   0.096427
     8  N   -0.089691  -0.266252  -0.386055  -0.212432   0.008414  -0.002039
     9  C    0.028593  -0.308470  -0.008658   0.037504  -0.000338   0.000368
    10  C    0.329918   0.006811  -0.054720  -0.022088   0.000892   0.000019
    11  C   -0.155424   0.013491   0.725023   0.064900   0.007458  -0.005284
    12  O   -0.000913   0.000048   0.000515   0.030692   0.012240  -0.000140
    13  O   -0.001034  -0.000103   0.000190   0.014428   0.000412  -0.000035
    14  O   -0.021929   0.003254  -0.002535   0.053055  -0.000507   0.000275
    15  H    0.050968  -0.569705   0.093010  -0.018750   0.000053   0.000064
    16  H    0.202674  -0.251021   0.064562  -0.006649   0.000136  -0.000133
    17  H   -0.435898   0.193338  -0.059678   0.024120  -0.000112   0.000066
    18  H   -0.667183   0.061351  -0.344093   0.069295   0.000408  -0.001565
    19  H    2.312615  -0.059350   0.222079  -0.181615   0.001199  -0.000030
    20  H   -0.059350   2.494776  -0.095384   0.012521  -0.000049  -0.000104
    21  H    0.222079  -0.095384   3.667191  -0.037371   0.001739   0.000294
    22  H   -0.181615   0.012521  -0.037371   4.571571   0.004671  -0.008393
    23  H    0.001199  -0.000049   0.001739   0.004671   2.143444  -0.106932
    24  H   -0.000030  -0.000104   0.000294  -0.008393  -0.106932   2.058604
    25  H    0.002384   0.000284  -0.173206  -0.013777  -0.010704  -0.128812
    26  C   -0.032018  -0.023269  -0.038536   0.039023   0.002560  -0.005565
    27  H   -0.012800   0.000486  -0.002645  -0.037423  -0.221606   0.010903
    28  H    0.017753   0.017732   0.007965  -0.070972   0.001061   0.000105
    29  H    0.006526   0.000194   0.000868   0.001812  -0.000138  -0.000008
    30  H    0.000487  -0.000157   0.000407   0.000765   0.003357  -0.000338
    31  H    0.000943   0.000033  -0.000064   0.003488   0.003994   0.000062
    32  H   -0.000195   0.000018  -0.000195   0.003562  -0.000117  -0.000004
    33  H    0.001166   0.000067   0.001453  -0.036455  -0.000814   0.000407
    34  O    0.000344  -0.000000  -0.000017  -0.001024   0.000995   0.000009
    35  H   -0.000043   0.000000  -0.000001   0.001015  -0.000158   0.000006
    36  H    0.000089  -0.000001   0.000002  -0.001266  -0.000046   0.000001
    37  H   -0.007510   0.012525   0.013538   0.007443   0.000195  -0.000616
    38  H    0.008081   0.003322   0.020210  -0.001541  -0.001201   0.000567
    39  H    0.005294   0.036347   0.098686  -0.000404   0.000430  -0.000371
              25         26         27         28         29         30
     1  C   -2.690482  -0.268248  -0.059618   0.041209  -0.001875  -0.015041
     2  C    1.304060   0.777934  -0.533414  -0.181615   0.011260   0.017447
     3  C    0.302671   0.056046   0.731537  -0.079533   0.011928  -0.035993
     4  N   -0.086614  -0.061566   0.027474   0.024598  -0.001651   0.021331
     5  C   -0.225939  -0.011288  -0.662416  -0.001566   0.000232  -0.007037
     6  C    0.826499   0.040547  -0.009554   0.001759   0.000345   0.012555
     7  C   -0.318066  -1.372083  -0.023398   0.545373  -0.031453   0.010424
     8  N    0.034420   1.250596  -0.017717  -0.259442  -0.026428  -0.001696
     9  C   -0.013793  -0.254071  -0.010176  -0.104892   0.018730   0.000044
    10  C   -0.007434  -0.022443  -0.003079   0.011411  -0.005730  -0.000292
    11  C   -0.007168  -0.157085  -0.049684  -0.016628   0.017514  -0.000058
    12  O    0.000131  -0.000006   0.012409  -0.000806   0.000722   0.320612
    13  O   -0.000175   0.002795  -0.002445   0.000829   0.006961   0.036654
    14  O   -0.001072  -0.007875  -0.002277   0.100858   0.371578  -0.003303
    15  H   -0.002687  -0.177304  -0.000649   0.066771   0.000534   0.000227
    16  H    0.003086  -0.020295  -0.000331  -0.000642   0.000755   0.000026
    17  H   -0.001469   0.015028   0.000972   0.008812   0.000507  -0.000042
    18  H    0.011200   0.079001   0.002257  -0.019999   0.000887  -0.000214
    19  H    0.002384  -0.032018  -0.012800   0.017753   0.006526   0.000487
    20  H    0.000284  -0.023269   0.000486   0.017732   0.000194  -0.000157
    21  H   -0.173206  -0.038536  -0.002645   0.007965   0.000868   0.000407
    22  H   -0.013777   0.039023  -0.037423  -0.070972   0.001812   0.000765
    23  H   -0.010704   0.002560  -0.221606   0.001061  -0.000138   0.003357
    24  H   -0.128812  -0.005565   0.010903   0.000105  -0.000008  -0.000338
    25  H    3.052923   0.035337   0.010497  -0.004700   0.000184  -0.000174
    26  C    0.035337   4.853262  -0.001201  -0.127473   0.013659  -0.000541
    27  H    0.010497  -0.001201   1.752278  -0.003626   0.001385  -0.021542
    28  H   -0.004700  -0.127473  -0.003626   0.657137  -0.178165   0.005675
    29  H    0.000184   0.013659   0.001385  -0.178165   0.618424  -0.001392
    30  H   -0.000174  -0.000541  -0.021542   0.005675  -0.001392   0.612996
    31  H   -0.000081  -0.000100   0.003851  -0.001455   0.000260  -0.164901
    32  H    0.000029   0.000297   0.000630   0.000495   0.000459  -0.005701
    33  H   -0.000308  -0.014938   0.002884  -0.005590  -0.002146  -0.003753
    34  O   -0.000005  -0.000003  -0.003182   0.000178   0.000034  -0.003848
    35  H   -0.000002  -0.000007   0.002195   0.000012  -0.000013  -0.001415
    36  H   -0.000002   0.000012   0.002981   0.000019   0.000014  -0.002410
    37  H    0.000759   0.193545  -0.000850   0.040633   0.000896   0.000703
    38  H    0.003956   0.072251  -0.003798   0.003068  -0.001899  -0.000706
    39  H    0.006201   0.220393   0.001749  -0.034480   0.005269  -0.000265
              31         32         33         34         35         36
     1  C    0.012608   0.001275  -0.006632  -0.000665  -0.000195  -0.000216
     2  C   -0.010108   0.002858  -0.009588   0.003121   0.000020   0.000232
     3  C    0.016650  -0.008188   0.033873  -0.002963   0.001274  -0.001637
     4  N   -0.021228   0.004653  -0.002067   0.003085  -0.000183   0.000423
     5  C   -0.012670   0.000773   0.003249   0.002426  -0.001440   0.000276
     6  C   -0.001941  -0.000237  -0.001025   0.001678   0.000150   0.000127
     7  C   -0.001592  -0.001444   0.020543   0.000026   0.000018   0.000019
     8  N    0.001794   0.002871  -0.027103  -0.000014  -0.000031   0.000025
     9  C    0.000558  -0.000628   0.003776   0.000004  -0.000001  -0.000010
    10  C   -0.000137  -0.000401   0.008011   0.000027   0.000002   0.000011
    11  C    0.001829  -0.000050  -0.000429   0.000048  -0.000003  -0.000024
    12  O    0.355801   0.000695  -0.001542  -0.056494   0.000803   0.003729
    13  O   -0.007004   0.358801   0.293125  -0.000039   0.000041  -0.000032
    14  O    0.000990  -0.000813   0.043702   0.000110  -0.000014  -0.000008
    15  H    0.000021  -0.000343   0.002806   0.000002  -0.000000   0.000001
    16  H   -0.000025  -0.000019   0.000205   0.000003   0.000001   0.000001
    17  H   -0.000059   0.000020  -0.000625  -0.000024  -0.000000  -0.000005
    18  H    0.000013   0.000056  -0.000538  -0.000018   0.000000  -0.000010
    19  H    0.000943  -0.000195   0.001166   0.000344  -0.000043   0.000089
    20  H    0.000033   0.000018   0.000067  -0.000000   0.000000  -0.000001
    21  H   -0.000064  -0.000195   0.001453  -0.000017  -0.000001   0.000002
    22  H    0.003488   0.003562  -0.036455  -0.001024   0.001015  -0.001266
    23  H    0.003994  -0.000117  -0.000814   0.000995  -0.000158  -0.000046
    24  H    0.000062  -0.000004   0.000407   0.000009   0.000006   0.000001
    25  H   -0.000081   0.000029  -0.000308  -0.000005  -0.000002  -0.000002
    26  C   -0.000100   0.000297  -0.014938  -0.000003  -0.000007   0.000012
    27  H    0.003851   0.000630   0.002884  -0.003182   0.002195   0.002981
    28  H   -0.001455   0.000495  -0.005590   0.000178   0.000012   0.000019
    29  H    0.000260   0.000459  -0.002146   0.000034  -0.000013   0.000014
    30  H   -0.164901  -0.005701  -0.003753  -0.003848  -0.001415  -0.002410
    31  H    0.611619  -0.000478   0.001467  -0.002326  -0.005287   0.001773
    32  H   -0.000478   0.600240  -0.123712   0.000120   0.000025  -0.000019
    33  H    0.001467  -0.123712   0.559205  -0.000449  -0.000027   0.000157
    34  O   -0.002326   0.000120  -0.000449   7.663014   0.362909   0.349169
    35  H   -0.005287   0.000025  -0.000027   0.362909   0.573094  -0.075500
    36  H    0.001773  -0.000019   0.000157   0.349169  -0.075500   0.571728
    37  H   -0.000044   0.000229  -0.000914  -0.000003  -0.000001   0.000001
    38  H    0.000083  -0.000388   0.003495  -0.000012  -0.000008  -0.000001
    39  H   -0.000072   0.000216  -0.000891   0.000003   0.000001   0.000000
              37         38         39
     1  C   -0.015588  -0.029217   0.004394
     2  C    0.014655  -0.031198   0.180717
     3  C   -0.071628   0.125257   0.020503
     4  N   -0.000540  -0.000787  -0.006523
     5  C   -0.004096  -0.043499   0.017478
     6  C    0.009580   0.060073  -0.016908
     7  C    0.175209  -0.016424  -0.300265
     8  N   -0.241704   0.096115  -0.492214
     9  C    0.001176  -0.089116   0.112560
    10  C    0.071817  -0.044849  -0.003682
    11  C   -0.069226   0.075474   0.054211
    12  O   -0.000021   0.000681  -0.000071
    13  O    0.002742  -0.007924  -0.000068
    14  O    0.001893   0.012299  -0.005356
    15  H   -0.006360   0.006582   0.029591
    16  H   -0.004929   0.000431   0.006101
    17  H    0.012613  -0.006652  -0.005770
    18  H    0.002594  -0.002029   0.007508
    19  H   -0.007510   0.008081   0.005294
    20  H    0.012525   0.003322   0.036347
    21  H    0.013538   0.020210   0.098686
    22  H    0.007443  -0.001541  -0.000404
    23  H    0.000195  -0.001201   0.000430
    24  H   -0.000616   0.000567  -0.000371
    25  H    0.000759   0.003956   0.006201
    26  C    0.193545   0.072251   0.220393
    27  H   -0.000850  -0.003798   0.001749
    28  H    0.040633   0.003068  -0.034480
    29  H    0.000896  -0.001899   0.005269
    30  H    0.000703  -0.000706  -0.000265
    31  H   -0.000044   0.000083  -0.000072
    32  H    0.000229  -0.000388   0.000216
    33  H   -0.000914   0.003495  -0.000891
    34  O   -0.000003  -0.000012   0.000003
    35  H   -0.000001  -0.000008   0.000001
    36  H    0.000001  -0.000001   0.000000
    37  H    2.054252  -0.643095  -0.337009
    38  H   -0.643095   1.969945  -0.391288
    39  H   -0.337009  -0.391288   1.967726
 Mulliken charges:
               1
     1  C    1.242905
     2  C    0.750159
     3  C    0.573484
     4  N    0.021468
     5  C    0.792914
     6  C    0.322111
     7  C    1.408515
     8  N   -1.250872
     9  C    1.258467
    10  C    0.799096
    11  C    1.013780
    12  O   -0.447285
    13  O   -0.398253
    14  O   -0.445235
    15  H   -0.567184
    16  H   -0.272087
    17  H   -0.285802
    18  H   -0.515878
    19  H   -0.298734
    20  H   -0.558540
    21  H   -0.854794
    22  H   -1.246977
    23  H   -0.631410
    24  H   -0.563050
    25  H   -0.907952
    26  C    0.943631
    27  H    0.118945
    28  H    0.538130
    29  H    0.158961
    30  H    0.227110
    31  H    0.211737
    32  H    0.164609
    33  H    0.259956
    34  O   -0.316221
    35  H    0.142766
    36  H    0.150397
    37  H   -0.212864
    38  H   -0.146262
    39  H   -0.179741
 Sum of Mulliken charges =   1.00000
 Mulliken charges with hydrogens summed into heavy atoms:
               1
     1  C    0.334953
     2  C    0.750159
     3  C   -0.673493
     4  N    0.140414
     5  C    0.161504
     6  C   -0.240939
     7  C    0.553721
     8  N   -1.250872
     9  C    0.132743
    10  C    0.241207
    11  C    0.199168
    12  O   -0.008438
    13  O    0.026312
    14  O    0.251856
    26  C    0.404764
    34  O   -0.023058
 Electronic spatial extent (au):  <R**2>=           5207.2307
 Charge=              1.0000 electrons
 Dipole moment (field-independent basis, Debye):
    X=              1.9258    Y=              0.6106    Z=              0.7472  Tot=              2.1540
 Quadrupole moment (field-independent basis, Debye-Ang):
[...]
 -0.00006582,-0.00003383,0.00001169,0.00001741,0.00001871,0.00001840,0.
 00001762,-0.00004388,-0.00000075,-0.00000625,0.00000354,-0.00000218,-0
 .00000211,0.00000683,0.00000202,-0.00001355,0.00000021,-0.00000810,0.0
 0071653,-0.00086493,0.00114610,0.00013250,-0.00006631,0.00002506,0.000
 08510,-0.00006872,-0.00001054,-0.00000435,-0.00000289,-0.00000205,0.00
 000051,-0.00000263,-0.00000008,-0.00000184,-0.00000521,0.00000262,0.00
 000452,-0.00000304,-0.00000086,0.00000135,0.00000530,0.00000142,0.0000
 0242,-0.00000260,0.00000124,0.00000269,-0.00000775,0.00000007,-0.00002
 160,0.00002184,0.00000078,0.00003769,-0.00001276,0.00002540,0.00001290
 ,-0.00000496,0.00000324,-0.00000175,-0.00000031,0.00000147,-0.00000234
 ,0.00000377,-0.00000575,-0.00023316,0.00032926,0.00002687,-0.00005310,
 0.00006893,-0.00000445,-0.00002268,0.00001053,-0.00000318,-0.00013775,
 -0.00004770,0.00013810,-0.00062356,0.00122943,-0.00259618,-0.00004757,
 0.00003321,-0.00003741,-0.00007281,0.00001499,0.00002626,-0.03091602,-
 0.03654233,0.03353743,0.06924649,0.04138140,-0.00000280,-0.00000667,0.
 00000534,-0.00000217,0.00000426,-0.00000102,0.00000970,-0.00000761,-0.
 00000011,0.00001089,-0.00003676,0.00000925,-0.00001787,-0.00000898,0.0
 0001003,0.00001471,0.00000297,-0.00001014,-0.00000226,0.00000827,0.000
 00930,0.00001402,-0.00000591,-0.00001999,-0.00000842,-0.00000390,0.000
 00675,0.00000069,-0.00000011,-0.00000225,0.00000815,-0.00000015,0.0000
 0484,-0.00058864,0.00126489,-0.00257092,0.00013442,-0.00003020,-0.0001
 1896,0.00003538,-0.00000746,-0.00006858,-0.00000043,-0.00000160,-0.000
 00089,0.00000162,-0.00000071,-0.00000100,-0.00000035,0.00000271,0.0000
 0175,0.00000404,-0.00000306,-0.00000126,-0.00000466,0.00000375,0.00000
 458,0.00000128,0.00000038,-0.00000134,0.00000133,-0.00000147,-0.000002
 68,0.00000028,0.00000798,0.00002240,-0.00001212,0.00001241,0.00002675,
 -0.00000080,0.00000109,0.00000676,0.00000155,0.00000121,0.00000294,-0.
 00000639,-0.00000284,0.00001290,-0.00004333,0.00007102,-0.00000111,-0.
 00001335,0.00001415,0.00000648,0.00000325,0.00000237,0.00001882,-0.000
 16830,0.00009955,0.00015368,-0.00027460,-0.00228193,0.00435216,-0.0001
 0124,-0.00001158,0.00000195,-0.00007269,-0.00001782,0.00008156,0.09332
 020,0.03979054,-0.04701178,-0.12217601,-0.04172554,0.05127527,0.000018
 24,0.00004233,-0.00001436,0.00000993,-0.00006345,0.00000925,-0.0000034
 0,0.00013326,-0.00001929,-0.00022313,0.00021549,0.00005781,0.00001589,
 -0.00006278,-0.00000205,-0.00006248,0.00000615,0.00000347,0.00001341,0
 .00002872,0.00000595,0.00005132,-0.00007059,0.00002819,-0.00001924,0.0
 0000320,-0.00000720,-0.00000900,0.00001212,0.00000197,-0.00004508,0.00
 001116,-0.00001909,-0.00314521,-0.00006638,-0.00161844,-0.00013553,-0.
 00024580,0.00009515,0.00014777,-0.00013348,0.00017033,-0.00000852,0.00
 000147,-0.00000059,0.00000577,-0.00000530,0.00000172,-0.00000930,-0.00
 001478,0.00000382,0.00000536,-0.00000405,0.00000240,0.00001171,0.00000
 876,-0.00000046,0.00000848,-0.00000901,0.00000652,0.00000367,-0.000014
 88,0.00000868,-0.00002545,0.00003941,-0.00005410,0.00001581,-0.0000129
 3,0.00000079,-0.00000252,0.00000202,-0.00000193,-0.00000021,0.00000070
 ,-0.00000079,-0.00000376,0.00001292,-0.00003760,0.00047478,-0.00033754
 ,-0.00018760,-0.00010138,0.00012670,-0.00002097,-0.00008178,-0.0000029
 8,-0.00006668,0.00001011,0.00066735,-0.00022338,0.00513652,0.00097061,
 0.00242935,-0.00000852,0.00000249,-0.00005760,-0.00000804,0.00005280,-
 0.00017378,-0.04947255,0.01614351,-0.00941624,-0.00269608,-0.03830234,
 0.02993590,0.05013010,0.00001076,0.00000966,-0.00000074,0.00002134,-0.
 00000069,-0.00000501,0.00003061,0.00005018,-0.00000526,-0.00012267,0.0
 0008836,-0.00000316,0.00000687,-0.00006326,0.00001109,-0.00004026,0.00
 000047,0.00000204,0.00003030,0.00003431,0.00002766,0.00000684,-0.00005
 705,-0.00000581,0.00000187,0.00000721,-0.00000534,-0.00000430,0.000015
 09,0.00000012,0.00000077,-0.00000879,-0.00000740,-0.00127015,0.0006726
 5,-0.00078852,0.00000046,-0.00018731,0.00000516,0.00008155,-0.00014186
 ,0.00001638,-0.00000605,-0.00000574,-0.00000504,-0.00000256,-0.0000045
 1,0.00000016,-0.00000079,-0.00000686,0.00000353,0.00000539,-0.00000389
 ,-0.00000183,-0.00000223,0.00001336,0.00000027,-0.00000025,-0.00000178
 ,0.00000115,-0.00000333,-0.00001013,-0.00000328,0.00002068,0.00004600,
 0.00001601,0.00000588,-0.00000735,0.00001624,-0.00000034,-0.00000087,0
 .00000420,-0.00000053,0.00000214,0.00000204,0.00000304,0.00000146,-0.0
 0000149,0.00019361,-0.00016216,0.00002905,-0.00005922,0.00009026,0.000
 00070,-0.00005658,0.00003656,-0.00001700,0.00016994,0.00018712,0.00012
 488,0.00150292,-0.00110219,0.00062636,-0.00003733,0.00004044,-0.000041
 88,-0.00004144,0.00005813,-0.00003086,-0.02853927,-0.33964812,0.265647
 64,0.00722887,-0.00537306,0.00286343,0.02087114,0.34543342,0.00000687,
 0.00000337,0.00000182,0.00000298,-0.00002783,0.00000067,-0.00002384,-0
 .00000204,0.00001212,0.00012931,-0.00008214,-0.00001348,0.,0.00003555,
 0.00000561,0.00001475,-0.00000850,-0.00000524,-0.00001540,0.00001373,0
 .00002016,0.00005548,-0.00003511,-0.00002909,-0.00002617,-0.00000717,0
 .00001961,0.00000001,0.00000012,-0.00000645,0.00001691,0.00000100,0.00
 001040,-0.00046772,-0.00052511,-0.00016808,0.00027656,-0.00013520,0.00
 005523,0.00015656,-0.00006972,-0.00008792,-0.00000288,-0.00000155,-0.0
 0000285,0.00000508,-0.00000235,-0.00000148,-0.00000152,0.00000561,0.00
 000773,0.00000827,-0.00000701,-0.00000095,-0.00000745,0.00000574,0.000
 01404,0.00000673,-0.00000174,-0.00000363,0.00000684,-0.00000494,-0.000
 00654,-0.00002526,0.00002711,0.00002959,-0.00001082,0.00001398,0.00001
 171,0.00000243,-0.00000008,0.00000543,0.00000281,-0.00000038,0.0000038
 1,-0.00001160,0.00000073,0.00000458,-0.00032106,0.00021960,0.00003050,
 -0.00006898,0.00008326,0.00000530,-0.00002838,0.00000632,0.00002899,-0
 .00029744,0.00036332,-0.00022597,0.00120376,0.00120803,-0.00052109,-0.
 00009099,0.00002583,-0.00007122,-0.00020371,0.00000819,0.00006443,0.02
 522454,0.25789462,-0.20385720,-0.00467307,0.00946944,-0.00619907,-0.02
 084362,-0.26847938,0.21087713,-0.00005474,0.00024073,-0.00003485,0.000
 24399,0.00008072,-0.00005989,0.00018819,-0.00006604,0.00002442,-0.0000
 7252,0.00008612,-0.00000240,0.00001557,-0.00004638,0.00002163,-0.00002
 740,0.00001227,-0.00001733,0.00010534,0.00043600,-0.00014271,-0.002178
 49,-0.00368109,-0.00197253,0.00049555,0.00072790,0.00066152,-0.0001476
 1,0.00004202,0.00000686,0.00042384,-0.00036354,0.00000296,-0.00001676,
 0.00014292,0.00008207,0.00028138,0.00004574,0.00017686,0.00000852,0.00
 020236,0.00053605,0.00026841,-0.00010645,0.00002403,0.00000961,0.00002
 502,0.00000744,-0.00001178,0.00000699,-0.00004084,0.00000713,0.0000779
 2,-0.00010759,-0.00003862,-0.00004273,0.00010987,-0.00007997,0.0002767
 6,-0.00011593,0.00014717,-0.00041500,-0.00027010,-0.00000304,-0.000106
 61,-0.00001371,0.00000692,0.00000083,-0.00000089,-0.00000930,-0.000000
 96,0.00000359,-0.00002328,-0.00002386,-0.00001079,-0.05312676,-0.03403
 263,-0.02064638,0.00016364,-0.00015147,-0.00002491,0.00023286,-0.00048
 694,-0.00061534,0.00001918,0.00005098,-0.00009762,-0.00011084,-0.00011
 483,-0.00010724,-0.00001256,0.00000565,-0.00000701,-0.00012191,0.00004
 833,-0.00001679,-0.00018205,-0.00000426,-0.00014324,0.00000739,0.00001
 159,0.00001453,-0.00000252,-0.00000514,-0.00000449,-0.00000308,-0.0000
 0557,-0.00000820,0.05233452,0.00006756,0.00006091,-0.00003831,0.000020
 99,0.00005642,0.00007270,0.00015492,-0.00006714,-0.00003487,-0.0001283
 2,0.00004983,0.00002048,0.00002525,-0.00002087,0.00001148,-0.00001991,
 0.00005362,-0.00002014,-0.00002821,0.00035299,0.00166614,0.00171985,0.
 00949028,0.00598923,-0.00002968,0.00117233,0.00066701,0.00015734,0.000
 19033,-0.00018841,-0.00018099,0.00035211,0.00056568,-0.00007292,0.0000
 9235,0.00003489,0.00004730,0.00000788,0.00012267,-0.00024713,0.0001361
 4,0.00008995,0.00022966,0.00003781,-0.00039459,0.00000845,0.00000441,-
 0.00001437,-0.00000083,-0.00001006,-0.00000582,0.00004801,-0.00001461,
 0.00017003,0.00004868,0.00005348,-0.00004199,0.00007188,-0.00041473,-0
 .00001565,-0.00019946,0.00031629,0.00032448,-0.00000431,-0.00004120,0.
 00000076,0.00000192,0.00000525,-0.00000243,0.00000289,0.00000197,0.000
 00292,-0.00000245,0.00006484,0.00004445,-0.03574399,-0.25336893,-0.119
 27751,0.00015093,-0.00012813,-0.00001420,0.00016078,-0.00005843,-0.000
 12141,0.00003172,-0.00002347,0.00001531,-0.00003080,-0.00004764,-0.000
 05006,0.00001940,-0.00000286,0.00001687,-0.00005089,0.00002520,-0.0000
 2946,0.00000870,0.00002215,-0.00010978,-0.00001359,0.00000956,-0.00000
 261,0.00000294,-0.00000235,-0.00000251,0.00000242,-0.00000402,-0.00000
 188,0.03795333,0.26589606,-0.00015341,-0.00009262,0.00011366,0.0007036
 1,0.00040932,-0.00003664,-0.00012237,0.00001924,0.00008080,-0.00008747
 ,0.00002692,0.00000343,-0.00004493,-0.00001353,-0.00001344,0.00000284,
 -0.00004830,0.00004131,0.00035213,0.00378150,-0.00500965,-0.00757348,-
 0.03031847,-0.02299899,-0.00059729,-0.00185660,0.00106308,-0.00038580,
 -0.00004000,0.00014541,-0.00011081,-0.00159953,-0.00101680,-0.00000723
 ,0.00004590,0.00002487,0.00009840,0.00002464,-0.00002219,-0.00007527,0
 .00049979,0.00030056,0.00026807,0.00068099,-0.00020859,0.00002951,0.00
 004947,0.00009628,0.00004978,0.00005157,0.00000644,0.00000447,0.000278
 30,-0.00054568,-0.00000402,0.00005285,-0.00013156,0.00025908,0.0001444
 9,-0.00007515,0.00014615,0.00004398,0.00007080,0.00002321,-0.00005854,
 -0.00003483,0.00000127,-0.00000009,-0.00000315,-0.00001656,-0.00000784
 ,-0.00000649,0.00001577,-0.00001736,-0.00005691,-0.01891017,-0.1093359
 9,-0.11111782,0.00004447,-0.00005635,-0.00001369,0.00029665,-0.0009157
 8,-0.00044624,-0.00010219,0.00007959,-0.00011950,-0.00003339,-0.000031
 29,-0.00002986,-0.00000323,-0.00000074,-0.00000033,-0.00000965,-0.0000
 0004,0.00002561,-0.00013513,-0.00002298,0.00002580,0.00000187,0.000005
 49,0.00000407,-0.00000055,-0.00000176,-0.00000086,-0.00000141,-0.00000
 336,-0.00000283,0.02399846,0.12458351,0.13072966,-0.00007157,0.0000332
 3,-0.00018446,-0.00025354,-0.00003354,-0.00044549,0.00023919,-0.000182
 77,-0.00041656,-0.00013901,-0.00006703,0.00007651,-0.00008120,0.000099
 49,0.00002555,0.00019905,0.00009242,-0.00008330,0.00009484,-0.00071989
 ,-0.00011113,0.00663540,0.00366440,-0.00161806,0.00075864,0.00041754,-
 0.00072873,0.00040220,-0.00014538,-0.00030620,-0.00007459,0.00008208,0
 .00016975,-0.00002065,0.00006026,0.00001125,0.00009031,-0.00002350,-0.
 00003376,0.00014351,-0.00018672,0.00005001,-0.00006507,-0.00001212,-0.
 00005489,-0.00001390,0.00002399,-0.00007539,0.00003922,0.00003644,0.00
 012415,-0.00000657,0.00002181,0.00004044,0.00001891,0.00000019,0.00000
 379,0.00054863,-0.00000020,-0.00028402,-0.00026145,-0.00000303,-0.0001
 1413,-0.00001008,-0.00000851,0.00002202,0.00000240,0.00000984,0.000000
 78,0.00000634,0.00000729,0.00001256,-0.00004213,0.00004994,0.00010487,
 -0.24234708,-0.09857606,0.07738179,0.00007813,-0.00007916,-0.00000247,
 -0.00007736,0.00014984,0.00006040,0.00001205,-0.00001174,0.00001405,-0
 .00002824,-0.00002950,-0.00002379,0.00000370,-0.00000230,0.00001354,0.
 00000611,-0.00000712,0.00003078,-0.00002975,-0.00002053,0.00005198,0.0
 0000017,0.00000819,-0.00000621,-0.00000008,-0.00000309,0.00000175,-0.0
 0000396,-0.00000320,0.00000108,-0.00288800,-0.00000180,0.00093233,0.25
 513153,0.00008802,0.00014620,-0.00015300,-0.00017475,-0.00014917,-0.00
 037313,-0.00032594,0.00010894,-0.00024460,0.00034367,0.00007884,-0.000
 05219,0.00002706,-0.00008637,0.00006272,-0.00013467,-0.00007132,0.0000
 1396,0.00039653,0.00020618,-0.00051359,-0.00553076,-0.00514869,0.00322
 944,0.00108001,0.00081322,0.00139726,-0.00069874,0.00020214,-0.0000102
 9,-0.00001721,-0.00004514,0.00007194,-0.00001008,-0.00016544,-0.000125
 38,-0.00039415,0.00015840,-0.00031218,0.00043433,-0.00005298,-0.000348
 98,0.00018763,0.00035813,-0.00019464,0.00006159,0.00001423,0.00024491,
 0.00000896,-0.00003787,-0.00005141,0.00001956,0.00003292,0.00001122,0.
 00001671,0.00000022,0.00001582,-0.00034691,-0.00002545,0.00002620,0.00
 012071,0.00002090,0.00015176,0.00002655,-0.00001607,0.00013307,-0.0000
 0155,-0.00000198,-0.00000163,0.00000120,0.00000351,-0.00000125,0.00003
 020,-0.00002976,-0.00001826,-0.09588510,-0.09657511,0.03895647,-0.0001
 7344,0.00018199,0.00004277,-0.00069241,0.00019985,0.00035110,-0.000082
 56,-0.00001518,-0.00004780,0.00016453,0.00013608,0.00015398,0.00002804
 ,-0.00001451,0.00002454,0.00012800,-0.00009817,0.00001406,0.00006441,-
 0.00021934,0.00030376,-0.00001265,-0.00000738,-0.00002665,0.00000320,0
 .00000545,0.00000597,-0.00000019,0.00000409,0.00001085,-0.02239002,-0.
 00980212,0.00987402,0.10666988,0.10093760,-0.00024982,-0.00047716,0.00
 007103,-0.00023411,-0.00026273,-0.00062456,-0.00028671,0.00000538,-0.0
 0024072,-0.00000807,-0.00026242,0.00007978,-0.00010964,0.00023415,-0.0
 0007525,0.00024177,-0.00009281,-0.00000049,0.00133994,0.00083757,0.001
 29659,0.02991098,0.01877663,-0.01619515,-0.00296744,-0.00127289,-0.005
 53497,0.00162095,0.00089872,-0.00066028,0.00003816,0.00041471,0.000170
 16,0.00015221,-0.00013684,-0.00001951,0.00002917,-0.00010262,-0.000098
 43,-0.00047850,0.00019108,0.00004841,-0.00005087,0.00028497,0.00009264
 ,-0.00015805,0.00002915,-0.00054797,-0.00000262,-0.00000786,-0.0002017
 4,-0.00002675,-0.00004793,0.00005996,-0.00006101,-0.00004554,-0.000027
 42,0.00006365,-0.00021287,-0.00001287,-0.00005041,-0.00026281,-0.00020
 268,0.00005337,0.00012792,-0.00004458,-0.00001054,-0.00000217,0.000002
 08,0.00000389,0.00000592,0.00000061,0.00000364,0.00001129,-0.00000081,
 0.06940343,0.03514807,-0.07588288,-0.00027008,0.00019880,0.00001270,0.
 00081014,-0.00042418,-0.00007629,-0.00000386,0.00000603,-0.00001283,0.
 00000255,0.00004677,0.00004186,-0.00004393,0.00001230,-0.00004626,0.00
 003554,-0.00003843,0.00005081,-0.00000773,0.00012090,-0.00002801,0.000
 02513,-0.00001815,0.00001956,-0.00000469,0.00000279,0.00000134,0.00000
 168,0.00000651,-0.00000206,-0.01387191,-0.00578142,0.00626461,-0.08171
 527,-0.04545433,0.09044822,-0.00016497,0.00031221,-0.00003938,0.000031
 53,-0.00021308,-0.00000295,-0.00024673,0.00012681,0.00002271,0.0002810
 6,0.00006801,-0.00004038,0.00003189,-0.00010159,0.00002638,-0.00012181
 ,-0.00006381,0.00008084,0.00066486,0.00061008,0.00108097,-0.00288572,0
 .00304051,-0.00772089,0.00269568,-0.00183808,0.00101399,0.00008979,-0.
 00009520,0.00017208,0.00031625,-0.00019016,0.00001695,-0.00006955,-0.0
 0007726,-0.00005759,-0.00028703,0.00003685,-0.00000371,-0.00075697,0.0
 0068895,-0.00004102,-0.00011793,0.00012457,0.00001768,-0.00001418,0.00
 001934,-0.00007032,-0.00003643,0.00000203,0.00008880,-0.00000208,-0.00
 000332,-0.00009570,-0.00004320,-0.00011274,0.00016557,0.00052011,0.001
 00065,-0.00098684,-0.00023727,-0.00090371,-0.00110197,0.00012644,0.000
 05563,0.00008675,0.00001026,-0.00001087,-0.00000554,-0.00002041,-0.000
 00828,-0.00001316,0.00001959,-0.00011511,-0.00011532,-0.19999412,0.117
 16553,-0.02263591,-0.00002826,0.00006061,0.00001606,0.00115597,-0.0012
 9918,0.00012741,-0.00004732,-0.00006488,0.00002043,0.00011271,0.000075
 50,0.00007241,0.00004391,-0.00001025,0.00002737,0.00004407,-0.00003925
 ,-0.00003120,0.00022227,-0.00004156,-0.00004971,-0.00002925,-0.0000053
 0,-0.00002074,0.00000786,0.00000583,0.00000176,0.00000934,0.00000323,0
 .00000711,0.00415206,-0.00417964,0.00114631,-0.01799610,0.01697033,-0.
 00312418,0.21256370,0.00009338,0.00001869,0.00005482,-0.00001040,-0.00
 015488,0.00010559,-0.00006873,-0.00008474,0.00002349,0.00012483,0.0000
 7985,-0.00001757,0.00002929,-0.00001897,0.00001702,-0.00001497,0.00000
 778,-0.00001349,-0.00244443,0.00183238,-0.00112959,0.00611059,-0.00542
 090,0.00829814,0.00213109,0.00032059,-0.00070383,-0.00033752,0.0002340
 0,-0.00005894,-0.00014281,0.00006968,-0.00022353,0.00006773,0.00001179
 ,0.00000678,0.00013309,0.00009798,-0.00008998,0.00072228,-0.00059525,0
 .00007308,0.00001560,-0.00009897,-0.00012265,-0.00002141,0.00003017,0.
 00011623,-0.00009770,-0.00002222,-0.00017121,0.00000650,-0.00001744,0.
 00006066,0.00000883,-0.00002895,-0.00011149,-0.00095051,-0.00021422,0.
 00048133,0.00048602,0.00075382,0.00112563,-0.00006585,-0.00005141,0.00
 001072,-0.00000016,0.00000181,-0.00000333,0.00000720,0.00000229,-0.000
 00007,0.00000161,-0.00000942,0.00000926,0.11632360,-0.14124796,0.01761
 311,-0.00003903,0.00002774,0.00001827,-0.00107201,0.00109718,-0.000034
 38,0.00005433,0.00004906,-0.00010528,-0.00004718,-0.00003463,-0.000012
 52,-0.00003107,0.00000506,-0.00001998,-0.00002529,-0.00000594,0.000023
 32,-0.00022146,-0.00008382,0.00013256,0.00002268,0.00000165,0.00001219
 ,-0.00000614,-0.00000323,-0.00000012,-0.00000824,-0.00000129,-0.000004
 27,0.02156934,-0.01444564,0.00376961,-0.01130966,0.00895314,-0.0024565
 3,-0.13099342,0.14894521,-0.00013352,-0.00004865,0.00002512,0.00029178
 ,-0.00034910,-0.00013173,0.00002476,0.00016935,-0.00001707,0.00000413,
 -0.00010298,0.00002445,-0.00004778,-0.00001880,-0.00003072,0.00002025,
 -0.00002810,0.00002075,-0.00180386,0.00513164,0.00255360,-0.02861907,0
 .02491239,-0.02082640,-0.00489495,-0.00073470,0.00161093,0.00029208,-0
 .00036064,0.00033059,0.00047809,-0.00022702,0.00021512,0.00002528,0.00
 000971,0.00004909,0.00007074,-0.00012418,0.00022674,-0.00143482,0.0012
 1072,0.00051805,0.00045723,-0.00001497,-0.00012922,0.00003899,-0.00007
 597,-0.00007320,0.00003486,-0.00005294,0.00017570,0.00011922,-0.000046
 19,-0.00009006,0.00007217,-0.00007938,0.00020216,0.00154733,-0.0007349
 6,0.00047620,0.00128176,-0.00137358,0.00032789,0.00011014,0.00003503,-
 0.00003422,0.00000060,-0.00000811,0.00000443,-0.00000373,-0.00000490,-
 0.00000138,-0.00000963,-0.00002367,0.00000431,-0.02134653,0.01662754,-
 0.05205800,0.00000082,0.00000320,-0.00001839,0.00180864,-0.00175426,-0
 .00112152,-0.00007554,-0.00001380,-0.00003493,-0.00004191,-0.00002507,
 -0.00005040,-0.00001343,0.00000851,-0.00001997,-0.00007565,0.00003560,
 -0.00001847,0.00011191,0.00015218,-0.00030038,0.00000485,-0.00000353,0
 .00001414,-0.00000114,-0.00000046,-0.00000287,0.00000417,0.00000076,-0
 .00000370,0.01266238,-0.00825115,0.00289481,0.00707448,-0.00716650,0.0
 0187537,0.03196492,-0.02667305,0.06341318\\-0.00000095,0.00000037,0.00
 000030,0.00000006,0.00000087,0.00000149,0.00000004,0.00000009,0.000000
 08,0.00000012,-0.00000073,0.00000193,0.00000062,0.00000046,0.00000091,
 -0.00000156,0.00000013,0.00000113,0.00000185,-0.00000078,0.00000006,-0
 .00000234,-0.00000026,-0.00000097,0.00000172,-0.00000267,-0.00000096,-
 0.00000117,0.00000021,-0.00000114,-0.00000038,-0.00000094,-0.00000080,
 0.00000093,0.00000082,0.00000147,0.00000050,-0.00000247,0.00000035,-0.
 00000094,-0.00000048,-0.00000124,-0.00000006,-0.00000017,-0.00000132,-
 0.00000020,-0.00000134,-0.00000164,0.00000035,-0.00000143,-0.00000067,
 -0.00000129,-0.00000127,-0.00000012,-0.00000025,-0.00000083,-0.0000004
 3,-0.00000072,-0.00000018,-0.00000141,-0.00000101,0.00000002,-0.000000
 14,0.,0.00000016,0.00000012,-0.00000056,0.00000042,0.00000167,-0.00000
 054,0.00000046,0.00000150,-0.00000021,-0.00000028,0.00000066,0.0000015
 8,-0.00000051,-0.00000120,-0.00000006,0.00000092,0.00000002,0.00000076
 ,0.00000085,-0.00000092,0.00000071,-0.00000066,-0.00000090,-0.00000051
 ,0.00000158,-0.00000076,0.00000027,0.00000007,0.00000107,0.00000128,0.
 00000214,-0.00000069,0.00000116,0.00000255,0.00000093,-0.00000084,0.00
 000142,0.00000091,-0.00000061,-0.00000029,0.00000184,0.00000082,0.0000
 0036,0.00000047,0.00000053,0.00000082,-0.00000069,0.00000032,0.0000002
 4,0.00000002,0.00000061,0.00000035,-0.00000091\\\@


 ...THE PHYSICISTS HAVE MADE THEIR UNIVERSE, AND IF YOU DO NOT LIKE
 IT, YOU MUST MAKE YOUR OWN.
                               -- E. R. HARRISON IN "COSMOLOGY" (1980)
 Job cpu time:       1 days  5 hours 58 minutes 35.0 seconds.
 Elapsed time:       0 days  0 hours 56 minutes 30.6 seconds.
 File lengths (MBytes):  RWF=   1240 Int=      0 D2E=      0 Chk=     32 Scr=      8
 Normal termination of Gaussian 16 at Mon Nov 15 14:13:40 2021.
