 Entering Gaussian System, Link 0=g16
 Input=NicPyrNa4h3bRPyr.gjf
 Output=NicPyrNa4h3bRPyr.log
 Initial command:
 /sw/contrib/gaussian/g16/A03/g16/l1.exe "/gscratch/scrubbed/gds001/Gau-2989.inp" -scrdir="/gscratch/scrubbed/gds001/"
 Entering Link 1 = /sw/contrib/gaussian/g16/A03/g16/l1.exe PID=      2990.
  
 Copyright (c) 1988,1990,1992,1993,1995,1998,2003,2009,2016,
            Gaussian, Inc.  All Rights Reserved.
  
 This is part of the Gaussian(R) 16 program.  It is based on
 the Gaussian(R) 09 system (copyright 2009, Gaussian, Inc.),
 the Gaussian(R) 03 system (copyright 2003, Gaussian, Inc.),
 the Gaussian(R) 98 system (copyright 1998, Gaussian, Inc.),
 the Gaussian(R) 94 system (copyright 1995, Gaussian, Inc.),
 the Gaussian 92(TM) system (copyright 1992, Gaussian, Inc.),
 the Gaussian 90(TM) system (copyright 1990, Gaussian, Inc.),
 the Gaussian 88(TM) system (copyright 1988, Gaussian, Inc.),
 the Gaussian 86(TM) system (copyright 1986, Carnegie Mellon
 University), and the Gaussian 82(TM) system (copyright 1983,
 Carnegie Mellon University). Gaussian is a federally registered
 trademark of Gaussian, Inc.
  
 This software contains proprietary and confidential information,
 including trade secrets, belonging to Gaussian, Inc.
  
 This software is provided under written license and may be
 used, copied, transmitted, or stored only in accord with that
 written license.
  
 The following legend is applicable only to US Government
 contracts under FAR:
  
                    RESTRICTED RIGHTS LEGEND
  
 Use, reproduction and disclosure by the US Government is
 subject to restrictions as set forth in subparagraphs (a)
 and (c) of the Commercial Computer Software - Restricted
 Rights clause in FAR 52.227-19.
  
 Gaussian, Inc.
 340 Quinnipiac St., Bldg. 40, Wallingford CT 06492
  
  
 ---------------------------------------------------------------
 Warning -- This program may not be used in any manner that
 competes with the business of Gaussian, Inc. or will provide
 assistance to any competitor of Gaussian, Inc.  The licensee
 of this program is prohibited from giving any competitor of
 Gaussian, Inc. access to this program.  By using this program,
 the user acknowledges that Gaussian, Inc. is engaged in the
 business of creating and licensing software in the field of
 computational chemistry and represents and warrants to the
 licensee that it is not a competitor of Gaussian, Inc. and that
 it will not use this program in any manner prohibited above.
 ---------------------------------------------------------------
  

 Cite this work as:
 Gaussian 16, Revision A.03,
 M. J. Frisch, G. W. Trucks, H. B. Schlegel, G. E. Scuseria, 
 M. A. Robb, J. R. Cheeseman, G. Scalmani, V. Barone, 
 G. A. Petersson, H. Nakatsuji, X. Li, M. Caricato, A. V. Marenich, 
 J. Bloino, B. G. Janesko, R. Gomperts, B. Mennucci, H. P. Hratchian, 
 J. V. Ortiz, A. F. Izmaylov, J. L. Sonnenberg, D. Williams-Young, 
 F. Ding, F. Lipparini, F. Egidi, J. Goings, B. Peng, A. Petrone, 
 T. Henderson, D. Ranasinghe, V. G. Zakrzewski, J. Gao, N. Rega, 
 G. Zheng, W. Liang, M. Hada, M. Ehara, K. Toyota, R. Fukuda, 
 J. Hasegawa, M. Ishida, T. Nakajima, Y. Honda, O. Kitao, H. Nakai, 
 T. Vreven, K. Throssell, J. A. Montgomery, Jr., J. E. Peralta, 
 F. Ogliaro, M. J. Bearpark, J. J. Heyd, E. N. Brothers, K. N. Kudin, 
 V. N. Staroverov, T. A. Keith, R. Kobayashi, J. Normand, 
 K. Raghavachari, A. P. Rendell, J. C. Burant, S. S. Iyengar, 
 J. Tomasi, M. Cossi, J. M. Millam, M. Klene, C. Adamo, R. Cammi, 
 J. W. Ochterski, R. L. Martin, K. Morokuma, O. Farkas, 
 J. B. Foresman, and D. J. Fox, Gaussian, Inc., Wallingford CT, 2016.
 
 ******************************************
 Gaussian 16:  ES64L-G16RevA.03 25-Dec-2016
                 1-Feb-2023 
 ******************************************
 %nprocshared=28
 Will use up to   28 processors via shared memory.
 %mem=41GB
 -----------------------------
 # wB97XD/aug-cc-pVDZ opt freq
 -----------------------------
 1/18=20,19=15,26=3,38=1/1,3;
 2/9=110,12=2,17=6,18=5,40=1/2;
 3/5=16,7=10,11=2,25=1,30=1,71=1,74=-58/1,2,3;
 4//1;
 5/5=2,38=5/2;
 6/7=2,8=2,9=2,10=2,28=1/1;
 7//1,2,3,16;
 1/18=20,19=15,26=3/3(2);
 2/9=110/2;
 99//99;
 2/9=110/2;
 3/5=16,7=10,11=2,25=1,30=1,71=1,74=-58/1,2,3;
 4/5=5,16=3,69=1/1;
 5/5=2,38=5/2;
 7//1,2,3,16;
 1/18=20,19=15,26=3/3(-5);
 2/9=110/2;
 6/7=2,8=2,9=2,10=2,19=2,28=1/1;
 99/9=1/99;
 ----
 blah
 ----
 Symbolic Z-matrix:
 Charge =  1 Multiplicity = 1
 C                     1.01624  -0.4455   -0.52611 
 C                     0.03573  -1.32987  -0.07067 
 C                     0.45877  -2.55561   0.44638 
 C                     1.81723  -2.84916   0.48057 
 C                     2.71332  -1.89369   0.00902 
 N                     2.32228  -0.71357  -0.48106 
 C                    -1.43027  -0.99351  -0.14022 
 C                    -2.0183   -0.68504  -1.51933 
 C                    -3.31148   0.11146  -1.22734 
 C                    -3.22536   0.49859   0.25985 
 N                    -1.80007   0.24595   0.63546 
 O                    -0.62766   2.48515  -0.29769 
 H                    -3.84895  -0.14241   0.89376 
 H                    -4.20819  -0.48918  -1.40773 
 H                    -3.3779    0.99931  -1.86335 
 H                    -1.30643  -0.08315  -2.09625 
 H                    -2.19848  -1.60874  -2.07667 
 H                    -3.46119   1.5453    0.47357 
 H                    -2.00247  -1.80418   0.3334 
 H                     0.74657   0.53018  -0.93559 
 H                     3.78772  -2.07783   0.02741 
 H                     2.18017  -3.79784   0.87081 
 H                    -0.26815  -3.28046   0.81578 
 C                    -1.54595   0.17979   2.08936 
 H                    -1.26584   1.0647    0.25131 
 H                     0.24228   2.75962   0.09558 
 H                    -0.95825   3.22251  -0.81383 
 H                     3.35251   0.79683  -0.72316 
 O                     3.64257   1.72955  -0.63663 
 H                     4.0687    1.97854  -1.4592 
 O                     1.70512   2.88144   0.78582 
 H                     2.47426   2.56408   0.25781 
 H                     2.02056   3.59962   1.33777 
 H                    -1.87679   1.11709   2.54609 
 H                    -0.47293   0.04812   2.25626 
 H                    -2.1024   -0.66264   2.51435 
 O                    -1.47636   4.45616  -1.98305 
 H                    -1.86      5.34393  -1.86099 
 H                    -1.1901    4.49064  -2.91415 
 
 Add virtual bond connecting atoms O31        and H26        Dist= 3.07D+00.
 Add virtual bond connecting atoms H25        and O12        Dist= 3.12D+00.
 Add virtual bond connecting atoms N6         and H28        Dist= 3.49D+00.
 Add virtual bond connecting atoms H32        and O29        Dist= 3.20D+00.
 Add virtual bond connecting atoms O37        and H27        Dist= 3.36D+00.

 GradGradGradGradGradGradGradGradGradGradGradGradGradGradGradGradGradGrad
 Berny optimization.
 Initialization pass.
                           ----------------------------
                           !    Initial Parameters    !
                           ! (Angstroms and Degrees)  !
 --------------------------                            --------------------------
 ! Name  Definition              Value          Derivative Info.                !
 --------------------------------------------------------------------------------
 ! R1    R(1,2)                  1.3968         estimate D2E/DX2                !
 ! R2    R(1,6)                  1.334          estimate D2E/DX2                !
 ! R3    R(1,20)                 1.092          estimate D2E/DX2                !
 ! R4    R(2,3)                  1.396          estimate D2E/DX2                !
 ! R5    R(2,7)                  1.5057         estimate D2E/DX2                !
 ! R6    R(3,4)                  1.3902         estimate D2E/DX2                !
 ! R7    R(3,23)                 1.091          estimate D2E/DX2                !
 ! R8    R(4,5)                  1.3922         estimate D2E/DX2                !
 ! R9    R(4,22)                 1.0881         estimate D2E/DX2                !
 ! R10   R(5,6)                  1.3363         estimate D2E/DX2                !
 ! R11   R(5,21)                 1.0902         estimate D2E/DX2                !
 ! R12   R(6,28)                 1.8443         estimate D2E/DX2                !
 ! R13   R(7,8)                  1.5306         estimate D2E/DX2                !
 ! R14   R(7,11)                 1.5082         estimate D2E/DX2                !
 ! R15   R(7,19)                 1.0995         estimate D2E/DX2                !
 ! R16   R(8,9)                  1.5466         estimate D2E/DX2                !
 ! R17   R(8,16)                 1.0963         estimate D2E/DX2                !
 ! R18   R(8,17)                 1.0938         estimate D2E/DX2                !
 ! R19   R(9,10)                 1.5392         estimate D2E/DX2                !
 ! R20   R(9,14)                 1.0943         estimate D2E/DX2                !
 ! R21   R(9,15)                 1.0942         estimate D2E/DX2                !
 ! R22   R(10,11)                1.4954         estimate D2E/DX2                !
 ! R23   R(10,13)                1.0962         estimate D2E/DX2                !
 ! R24   R(10,18)                1.094          estimate D2E/DX2                !
 ! R25   R(11,24)                1.4774         estimate D2E/DX2                !
 ! R26   R(11,25)                1.0504         estimate D2E/DX2                !
 ! R27   R(12,25)                1.6512         estimate D2E/DX2                !
 ! R28   R(12,26)                0.9934         estimate D2E/DX2                !
 ! R29   R(12,27)                0.9588         estimate D2E/DX2                !
 ! R30   R(24,34)                1.0939         estimate D2E/DX2                !
 ! R31   R(24,35)                1.0939         estimate D2E/DX2                !
 ! R32   R(24,36)                1.0954         estimate D2E/DX2                !
 ! R33   R(26,31)                1.6221         estimate D2E/DX2                !
 ! R34   R(27,37)                1.7769         estimate D2E/DX2                !
 ! R35   R(28,29)                0.9806         estimate D2E/DX2                !
 ! R36   R(29,30)                0.9593         estimate D2E/DX2                !
 ! R37   R(29,32)                1.6916         estimate D2E/DX2                !
 ! R38   R(31,32)                0.9854         estimate D2E/DX2                !
 ! R39   R(31,33)                0.9591         estimate D2E/DX2                !
 ! R40   R(37,38)                0.9748         estimate D2E/DX2                !
 ! R41   R(37,39)                0.9747         estimate D2E/DX2                !
 ! A1    A(2,1,6)              123.2997         estimate D2E/DX2                !
 ! A2    A(2,1,20)             120.9745         estimate D2E/DX2                !
 ! A3    A(6,1,20)             115.7212         estimate D2E/DX2                !
 ! A4    A(1,2,3)              117.6444         estimate D2E/DX2                !
 ! A5    A(1,2,7)              121.8015         estimate D2E/DX2                !
 ! A6    A(3,2,7)              120.5515         estimate D2E/DX2                !
 ! A7    A(2,3,4)              119.3824         estimate D2E/DX2                !
 ! A8    A(2,3,23)             120.4554         estimate D2E/DX2                !
 ! A9    A(4,3,23)             120.1614         estimate D2E/DX2                !
 ! A10   A(3,4,5)              118.4038         estimate D2E/DX2                !
 ! A11   A(3,4,22)             121.2547         estimate D2E/DX2                !
 ! A12   A(5,4,22)             120.3403         estimate D2E/DX2                !
 ! A13   A(4,5,6)              122.816          estimate D2E/DX2                !
 ! A14   A(4,5,21)             120.8418         estimate D2E/DX2                !
 ! A15   A(6,5,21)             116.3418         estimate D2E/DX2                !
 ! A16   A(1,6,5)              118.4458         estimate D2E/DX2                !
 ! A17   A(1,6,28)             112.2029         estimate D2E/DX2                !
 ! A18   A(5,6,28)             127.4393         estimate D2E/DX2                !
 ! A19   A(2,7,8)              117.4311         estimate D2E/DX2                !
 ! A20   A(2,7,11)             113.4878         estimate D2E/DX2                !
 ! A21   A(2,7,19)             108.7895         estimate D2E/DX2                !
 ! A22   A(8,7,11)             101.7459         estimate D2E/DX2                !
 ! A23   A(8,7,19)             109.68           estimate D2E/DX2                !
 ! A24   A(11,7,19)            104.8795         estimate D2E/DX2                !
 ! A25   A(7,8,9)              104.7682         estimate D2E/DX2                !
 ! A26   A(7,8,16)             109.5926         estimate D2E/DX2                !
 ! A27   A(7,8,17)             110.622          estimate D2E/DX2                !
 ! A28   A(9,8,16)             111.0724         estimate D2E/DX2                !
 ! A29   A(9,8,17)             113.1659         estimate D2E/DX2                !
 ! A30   A(16,8,17)            107.6059         estimate D2E/DX2                !
 ! A31   A(8,9,10)             105.3769         estimate D2E/DX2                !
 ! A32   A(8,9,14)             111.8012         estimate D2E/DX2                !
 ! A33   A(8,9,15)             111.033          estimate D2E/DX2                !
 ! A34   A(10,9,14)            110.0719         estimate D2E/DX2                !
 ! A35   A(10,9,15)            111.1583         estimate D2E/DX2                !
 ! A36   A(14,9,15)            107.4476         estimate D2E/DX2                !
 ! A37   A(9,10,11)            104.6863         estimate D2E/DX2                !
 ! A38   A(9,10,13)            112.3246         estimate D2E/DX2                !
 ! A39   A(9,10,18)            114.6666         estimate D2E/DX2                !
 ! A40   A(11,10,13)           107.3465         estimate D2E/DX2                !
 ! A41   A(11,10,18)           108.543          estimate D2E/DX2                !
 ! A42   A(13,10,18)           108.8975         estimate D2E/DX2                !
 ! A43   A(7,11,10)            104.0841         estimate D2E/DX2                !
 ! A44   A(7,11,24)            115.2861         estimate D2E/DX2                !
 ! A45   A(7,11,25)            109.134          estimate D2E/DX2                !
 ! A46   A(10,11,24)           114.7507         estimate D2E/DX2                !
 ! A47   A(10,11,25)           105.1413         estimate D2E/DX2                !
 ! A48   A(24,11,25)           107.8981         estimate D2E/DX2                !
 ! A49   A(25,12,26)           116.3936         estimate D2E/DX2                !
 ! A50   A(25,12,27)           135.0137         estimate D2E/DX2                !
 ! A51   A(26,12,27)           107.6118         estimate D2E/DX2                !
 ! A52   A(11,24,34)           108.6925         estimate D2E/DX2                !
 ! A53   A(11,24,35)           108.9213         estimate D2E/DX2                !
 ! A54   A(11,24,36)           109.1996         estimate D2E/DX2                !
 ! A55   A(34,24,35)           109.6401         estimate D2E/DX2                !
 ! A56   A(34,24,36)           110.0797         estimate D2E/DX2                !
 ! A57   A(35,24,36)           110.2753         estimate D2E/DX2                !
 ! A58   A(6,28,29)            158.8495         estimate D2E/DX2                !
 ! A59   A(28,29,30)           107.6153         estimate D2E/DX2                !
 ! A60   A(28,29,32)           108.1561         estimate D2E/DX2                !
 ! A61   A(30,29,32)           129.21           estimate D2E/DX2                !
 ! A62   A(26,31,32)           116.8524         estimate D2E/DX2                !
 ! A63   A(26,31,33)           126.7057         estimate D2E/DX2                !
 ! A64   A(32,31,33)           107.0254         estimate D2E/DX2                !
 ! A65   A(27,37,38)           131.6556         estimate D2E/DX2                !
 ! A66   A(27,37,39)           124.5755         estimate D2E/DX2                !
 ! A67   A(38,37,39)           101.7111         estimate D2E/DX2                !
 ! A68   L(11,25,12,1,-1)      188.5998         estimate D2E/DX2                !
 ! A69   L(12,26,31,1,-1)      168.9322         estimate D2E/DX2                !
 ! A70   L(12,27,37,9,-1)      177.5766         estimate D2E/DX2                !
 ! A71   L(29,32,31,1,-1)      169.1391         estimate D2E/DX2                !
 ! A72   L(11,25,12,1,-2)      179.5682         estimate D2E/DX2                !
 ! A73   L(12,26,31,1,-2)      184.0097         estimate D2E/DX2                !
 ! A74   L(12,27,37,9,-2)      188.7862         estimate D2E/DX2                !
 ! A75   L(29,32,31,1,-2)      177.6389         estimate D2E/DX2                !
 ! D1    D(6,1,2,3)             -0.4559         estimate D2E/DX2                !
 ! D2    D(6,1,2,7)           -179.8776         estimate D2E/DX2                !
 ! D3    D(20,1,2,3)          -179.6434         estimate D2E/DX2                !
 ! D4    D(20,1,2,7)             0.935          estimate D2E/DX2                !
 ! D5    D(2,1,6,5)              0.8468         estimate D2E/DX2                !
 ! D6    D(2,1,6,28)          -164.5907         estimate D2E/DX2                !
 ! D7    D(20,1,6,5)          -179.9265         estimate D2E/DX2                !
 ! D8    D(20,1,6,28)           14.636          estimate D2E/DX2                !
 ! D9    D(1,2,3,4)             -0.3922         estimate D2E/DX2                !
 ! D10   D(1,2,3,23)           179.9427         estimate D2E/DX2                !
 ! D11   D(7,2,3,4)            179.037          estimate D2E/DX2                !
 ! D12   D(7,2,3,23)            -0.6281         estimate D2E/DX2                !
 ! D13   D(1,2,7,8)             58.4701         estimate D2E/DX2                !
 ! D14   D(1,2,7,11)           -59.9305         estimate D2E/DX2                !
 ! D15   D(1,2,7,19)          -176.2639         estimate D2E/DX2                !
 ! D16   D(3,2,7,8)           -120.935          estimate D2E/DX2                !
 ! D17   D(3,2,7,11)           120.6644         estimate D2E/DX2                !
 ! D18   D(3,2,7,19)             4.331          estimate D2E/DX2                !
 ! D19   D(2,3,4,5)              0.8063         estimate D2E/DX2                !
 ! D20   D(2,3,4,22)          -179.5845         estimate D2E/DX2                !
 ! D21   D(23,3,4,5)          -179.5276         estimate D2E/DX2                !
 ! D22   D(23,3,4,22)            0.0816         estimate D2E/DX2                !
 ! D23   D(3,4,5,6)             -0.4279         estimate D2E/DX2                !
 ! D24   D(3,4,5,21)           179.3267         estimate D2E/DX2                !
 ! D25   D(22,4,5,6)           179.9592         estimate D2E/DX2                !
 ! D26   D(22,4,5,21)           -0.2863         estimate D2E/DX2                !
 ! D27   D(4,5,6,1)             -0.3913         estimate D2E/DX2                !
 ! D28   D(4,5,6,28)           162.5596         estimate D2E/DX2                !
 ! D29   D(21,5,6,1)           179.8438         estimate D2E/DX2                !
 ! D30   D(21,5,6,28)          -17.2053         estimate D2E/DX2                !
 ! D31   D(1,6,28,29)           41.295          estimate D2E/DX2                !
 ! D32   D(5,6,28,29)         -122.5379         estimate D2E/DX2                !
 ! D33   D(2,7,8,9)           -159.3283         estimate D2E/DX2                !
 ! D34   D(2,7,8,16)           -40.0853         estimate D2E/DX2                !
 ! D35   D(2,7,8,17)            78.403          estimate D2E/DX2                !
 ! D36   D(11,7,8,9)           -34.8171         estimate D2E/DX2                !
 ! D37   D(11,7,8,16)           84.4259         estimate D2E/DX2                !
 ! D38   D(11,7,8,17)         -157.0858         estimate D2E/DX2                !
 ! D39   D(19,7,8,9)            75.8487         estimate D2E/DX2                !
 ! D40   D(19,7,8,16)         -164.9084         estimate D2E/DX2                !
 ! D41   D(19,7,8,17)          -46.42           estimate D2E/DX2                !
 ! D42   D(2,7,11,10)          171.7242         estimate D2E/DX2                !
 ! D43   D(2,7,11,24)          -61.6986         estimate D2E/DX2                !
 ! D44   D(2,7,11,25)           59.8798         estimate D2E/DX2                !
 ! D45   D(8,7,11,10)           44.6105         estimate D2E/DX2                !
 ! D46   D(8,7,11,24)          171.1877         estimate D2E/DX2                !
 ! D47   D(8,7,11,25)          -67.2339         estimate D2E/DX2                !
 ! D48   D(19,7,11,10)         -69.6665         estimate D2E/DX2                !
 ! D49   D(19,7,11,24)          56.9107         estimate D2E/DX2                !
 ! D50   D(19,7,11,25)         178.4891         estimate D2E/DX2                !
 ! D51   D(7,8,9,10)            12.8575         estimate D2E/DX2                !
 ! D52   D(7,8,9,14)          -106.7044         estimate D2E/DX2                !
 ! D53   D(7,8,9,15)           133.3095         estimate D2E/DX2                !
 ! D54   D(16,8,9,10)         -105.3856         estimate D2E/DX2                !
 ! D55   D(16,8,9,14)          135.0525         estimate D2E/DX2                !
 ! D56   D(16,8,9,15)           15.0664         estimate D2E/DX2                !
 ! D57   D(17,8,9,10)          133.4532         estimate D2E/DX2                !
 ! D58   D(17,8,9,14)           13.8914         estimate D2E/DX2                !
 ! D59   D(17,8,9,15)         -106.0947         estimate D2E/DX2                !
 ! D60   D(8,9,10,11)           14.3188         estimate D2E/DX2                !
 ! D61   D(8,9,10,13)         -101.8372         estimate D2E/DX2                !
 ! D62   D(8,9,10,18)          133.1434         estimate D2E/DX2                !
 ! D63   D(14,9,10,11)         135.0206         estimate D2E/DX2                !
 ! D64   D(14,9,10,13)          18.8646         estimate D2E/DX2                !
 ! D65   D(14,9,10,18)        -106.1548         estimate D2E/DX2                !
 ! D66   D(15,9,10,11)        -106.0509         estimate D2E/DX2                !
 ! D67   D(15,9,10,13)         137.7931         estimate D2E/DX2                !
 ! D68   D(15,9,10,18)          12.7738         estimate D2E/DX2                !
 ! D69   D(9,10,11,7)          -36.7663         estimate D2E/DX2                !
 ! D70   D(9,10,11,24)        -163.6782         estimate D2E/DX2                !
 ! D71   D(9,10,11,25)          77.9408         estimate D2E/DX2                !
 ! D72   D(13,10,11,7)          82.7887         estimate D2E/DX2                !
 ! D73   D(13,10,11,24)        -44.1232         estimate D2E/DX2                !
 ! D74   D(13,10,11,25)       -162.5043         estimate D2E/DX2                !
 ! D75   D(18,10,11,7)        -159.6523         estimate D2E/DX2                !
 ! D76   D(18,10,11,24)         73.4357         estimate D2E/DX2                !
 ! D77   D(18,10,11,25)        -44.9453         estimate D2E/DX2                !
 ! D78   D(7,11,12,26)         -91.9425         estimate D2E/DX2                !
 ! D79   D(7,11,12,27)         104.6174         estimate D2E/DX2                !
 ! D80   D(10,11,12,26)        157.3962         estimate D2E/DX2                !
 ! D81   D(10,11,12,27)         -6.0439         estimate D2E/DX2                !
 ! D82   D(24,11,12,26)         36.8688         estimate D2E/DX2                !
 ! D83   D(24,11,12,27)       -126.5713         estimate D2E/DX2                !
 ! D84   D(7,11,24,34)        -178.4308         estimate D2E/DX2                !
 ! D85   D(7,11,24,35)          62.158          estimate D2E/DX2                !
 ! D86   D(7,11,24,36)         -58.3242         estimate D2E/DX2                !
 ! D87   D(10,11,24,34)        -57.4906         estimate D2E/DX2                !
 ! D88   D(10,11,24,35)       -176.9018         estimate D2E/DX2                !
 ! D89   D(10,11,24,36)         62.6159         estimate D2E/DX2                !
 ! D90   D(25,11,24,34)         59.3261         estimate D2E/DX2                !
 ! D91   D(25,11,24,35)        -60.0851         estimate D2E/DX2                !
 ! D92   D(25,11,24,36)        179.4327         estimate D2E/DX2                !
 ! D93   D(25,12,31,32)         93.8993         estimate D2E/DX2                !
 ! D94   D(25,12,31,33)       -120.185          estimate D2E/DX2                !
 ! D95   D(27,12,31,32)        -93.5201         estimate D2E/DX2                !
 ! D96   D(27,12,31,33)         52.3956         estimate D2E/DX2                !
 ! D97   D(25,12,37,38)        100.6564         estimate D2E/DX2                !
 ! D98   D(25,12,37,39)        -98.7007         estimate D2E/DX2                !
 ! D99   D(26,12,37,38)        -74.5574         estimate D2E/DX2                !
 ! D100  D(26,12,37,39)         86.0856         estimate D2E/DX2                !
 ! D101  D(6,28,29,30)        -147.8133         estimate D2E/DX2                !
 ! D102  D(6,28,29,32)          -4.4782         estimate D2E/DX2                !
 ! D103  D(28,29,31,26)        -57.9981         estimate D2E/DX2                !
 ! D104  D(28,29,31,33)        149.0032         estimate D2E/DX2                !
 ! D105  D(30,29,31,26)         72.1421         estimate D2E/DX2                !
 ! D106  D(30,29,31,33)        -80.8567         estimate D2E/DX2                !
 --------------------------------------------------------------------------------
 Trust Radius=3.00D-01 FncErr=1.00D-07 GrdErr=1.00D-06 EigMax=2.50D+02 EigMin=1.00D-04
 Number of steps in this run=    232 maximum allowed number of steps=    234.
 GradGradGradGradGradGradGradGradGradGradGradGradGradGradGradGradGradGrad

                          Input orientation:                          
 ---------------------------------------------------------------------
 Center     Atomic      Atomic             Coordinates (Angstroms)
 Number     Number       Type             X           Y           Z
 ---------------------------------------------------------------------
      1          6           0        1.016236   -0.445502   -0.526106
      2          6           0        0.035726   -1.329872   -0.070671
      3          6           0        0.458768   -2.555605    0.446377
      4          6           0        1.817225   -2.849164    0.480568
      5          6           0        2.713317   -1.893685    0.009022
      6          7           0        2.322278   -0.713574   -0.481058
      7          6           0       -1.430270   -0.993513   -0.140218
      8          6           0       -2.018305   -0.685040   -1.519329
      9          6           0       -3.311483    0.111459   -1.227340
     10          6           0       -3.225359    0.498594    0.259851
     11          7           0       -1.800067    0.245952    0.635463
     12          8           0       -0.627662    2.485151   -0.297692
     13          1           0       -3.848945   -0.142407    0.893757
     14          1           0       -4.208190   -0.489176   -1.407729
     15          1           0       -3.377900    0.999307   -1.863347
     16          1           0       -1.306430   -0.083147   -2.096252
     17          1           0       -2.198476   -1.608744   -2.076669
     18          1           0       -3.461188    1.545295    0.473569
     19          1           0       -2.002470   -1.804183    0.333396
     20          1           0        0.746570    0.530183   -0.935588
     21          1           0        3.787718   -2.077831    0.027409
     22          1           0        2.180166   -3.797839    0.870810
     23          1           0       -0.268147   -3.280455    0.815777
     24          6           0       -1.545946    0.179787    2.089356
     25          1           0       -1.265835    1.064699    0.251311
     26          1           0        0.242283    2.759624    0.095581
     27          1           0       -0.958251    3.222507   -0.813831
     28          1           0        3.352505    0.796828   -0.723160
     29          8           0        3.642573    1.729551   -0.636632
     30          1           0        4.068696    1.978543   -1.459202
     31          8           0        1.705121    2.881440    0.785820
     32          1           0        2.474262    2.564075    0.257812
     33          1           0        2.020564    3.599617    1.337774
     34          1           0       -1.876790    1.117086    2.546091
     35          1           0       -0.472925    0.048117    2.256264
     36          1           0       -2.102400   -0.662636    2.514346
     37          8           0       -1.476357    4.456157   -1.983049
     38          1           0       -1.859997    5.343926   -1.860989
     39          1           0       -1.190105    4.490637   -2.914145
 ---------------------------------------------------------------------
                    Distance matrix (angstroms):
                    1          2          3          4          5
     1  C    0.000000
     2  C    1.396757   0.000000
     3  C    2.389357   1.395967   0.000000
     4  C    2.726273   2.405380   1.390234   0.000000
     5  C    2.294271   2.737468   2.390065   1.392220   0.000000
     6  N    1.334031   2.403448   2.779547   2.395944   1.336320
     7  C    2.536655   1.505695   2.520454   3.791443   4.242864
     8  C    3.201923   2.594891   3.674085   4.836767   5.117121
     9  C    4.419399   3.823497   4.912164   6.163269   6.468957
    10  C    4.415900   3.753293   4.789125   6.056720   6.407323
    11  N    3.123926   2.520314   3.603722   4.763249   5.033995
    12  O    3.367982   3.878920   5.209913   5.919297   5.516377
    13  H    5.077191   4.175029   4.957829   6.293071   6.849307
    14  H    5.298471   4.528280   5.430316   6.740982   7.203269
    15  H    4.814989   4.504620   5.717713   6.877063   6.998435
    16  H    2.826913   2.731059   3.961557   4.903883   4.885549
    17  H    3.753898   3.015536   3.784607   4.919752   5.343876
    18  H    5.000995   4.559736   5.673110   6.868258   7.082860
    19  H    3.420138   2.131310   2.575867   3.962791   4.727777
    20  H    1.091951   2.170987   3.393338   3.817301   3.261214
    21  H    3.263739   3.827075   3.389057   2.164059   1.090223
    22  H    3.813695   3.402333   2.164833   1.088117   2.157019
    23  H    3.389284   2.164002   1.090995   2.155726   3.385722
    24  C    3.714351   3.073512   3.768372   4.803505   5.173818
    25  H    2.844808   2.744395   4.014836   4.987599   4.964312
    26  H    3.355344   4.098083   5.331190   5.838421   5.269420
    27  H    4.175605   4.718520   6.081336   6.800289   6.350820
    28  H    2.653369   3.993697   4.580430   4.135130   2.860684
    29  O    3.411850   4.763373   5.447209   5.054173   3.795817
    30  H    4.008014   5.398007   6.100927   5.669090   4.357394
    31  O    3.642013   4.610380   5.588388   5.739823   4.941831
    32  H    3.434810   4.606211   5.505352   5.457515   4.471092
    33  H    4.565710   5.497560   6.412531   6.508681   5.694019
    34  H    4.499964   4.061128   4.832421   5.800282   6.047358
    35  H    3.194189   2.751764   3.305013   4.097819   4.355781
    36  H    4.360893   3.420395   3.797290   4.927537   5.566261
    37  O    5.688758   6.278672   7.668874   8.383604   7.863982
    38  H    6.600917   7.165095   8.550041   9.280710   8.763285
    39  H    5.910680   6.592900   7.978811   8.627908   8.033753
                    6          7          8          9         10
     6  N    0.000000
     7  C    3.778380   0.000000
     8  C    4.463125   1.530650   0.000000
     9  C    5.742550   2.437573   1.546602   0.000000
    10  C    5.726655   2.368287   2.454272   1.539165   0.000000
    11  N    4.377332   1.508212   2.357436   2.402603   1.495450
    12  O    4.355182   3.573525   3.671021   3.701561   3.317423
    13  H    6.348255   2.764683   3.077122   2.202809   1.096165
    14  H    6.599703   3.094799   2.201457   1.094251   2.173124
    15  H    6.110378   3.276243   2.191774   1.094162   2.186767
    16  H    4.021668   2.161058   1.096303   2.193882   3.093854
    17  H    4.876938   2.172209   1.093763   2.217937   3.309787
    18  H    6.281901   3.308611   3.320835   2.229661   1.094017
    19  H    4.533896   1.099504   2.164560   2.796265   2.608380
    20  H    2.058248   2.773607   3.076045   4.090018   4.148047
    21  H    2.065732   5.332096   6.167833   7.534324   7.474975
    22  H    3.370524   4.682058   5.747125   7.059961   6.931977
    23  H    3.870525   2.737619   3.905375   4.994127   4.830670
    24  C    4.729511   2.522105   3.740810   3.757960   2.503828
    25  H    4.071016   2.101564   2.600570   2.698101   2.039677
    26  H    4.089254   4.115710   4.425370   4.625165   4.142920
    27  H    5.134719   4.295507   4.109789   3.922666   3.703009
    28  H    1.844260   5.140047   5.628092   6.718085   6.657593
    29  O    2.781410   5.778862   6.217310   7.164220   7.034730
    30  H    3.354733   6.388385   6.644537   7.616220   7.638628
    31  O    3.861345   5.069860   5.647778   6.073872   5.501294
    32  H    3.363333   5.297191   5.822211   6.457232   6.062334
    33  H    4.690714   5.932079   6.544753   6.868608   6.188535
    34  H    5.490639   3.445325   4.449194   4.160338   2.725447
    35  H    3.985758   2.782917   4.144975   4.494098   3.429940
    36  H    5.343483   2.758251   4.034614   4.007658   2.773489
    37  O    6.588758   5.753004   5.190439   4.776525   4.873594
    38  H    7.489255   6.580946   6.040714   5.466904   5.462547
    39  H    6.733540   6.150468   5.423934   5.150025   5.491168
                   11         12         13         14         15
    11  N    0.000000
    12  O    2.694313   0.000000
    13  H    2.101295   4.324382   0.000000
    14  H    3.242546   4.785288   2.355025   0.000000
    15  H    3.049779   3.496115   3.021095   1.764242   0.000000
    16  H    2.795398   3.208068   3.925309   3.009840   2.348817
    17  H    3.309726   4.732039   3.701030   2.395801   2.870275
    18  H    2.115142   3.083349   1.781924   2.869907   2.401295
    19  H    2.082130   4.548269   2.546561   3.102573   3.817989
    20  H    3.005719   2.473323   4.991757   5.080517   4.253477
    21  H    6.082190   6.357836   7.925594   8.277559   8.024327
    22  H    5.678899   6.980348   7.050737   7.546528   7.834559
    23  H    3.849005   5.883135   4.761884   5.315934   5.929977
    24  C    1.477417   3.443247   2.614779   4.445746   4.433005
    25  H    1.050392   1.651167   2.922721   3.718117   2.989460
    26  H    3.283476   0.993380   5.079076   5.711511   4.476811
    27  H    3.415990   0.958844   4.753379   4.969045   3.449464
    28  H    5.357081   4.344328   7.440260   7.699776   6.829303
    29  O    5.782873   4.349795   7.872049   8.194621   7.164156
    30  H    6.467756   4.864312   8.527830   8.637079   7.521571
    31  O    4.388023   2.602483   6.324789   7.151221   6.033043
    32  H    4.877110   3.152260   6.907418   7.533361   6.418381
    33  H    5.132010   3.306038   6.975029   7.940617   6.793541
    34  H    2.101252   3.393969   2.864599   4.862941   4.659436
    35  H    2.104148   3.533521   3.645578   5.259823   5.129799
    36  H    2.108824   4.471127   2.438722   4.455010   4.853159
    37  O    4.968624   2.728659   5.920471   5.678928   3.947152
    38  H    5.676725   3.483553   6.453247   6.304327   4.602146
    39  H    5.566788   3.344271   6.560080   6.014705   4.252060
                   16         17         18         19         20
    16  H    0.000000
    17  H    1.767364   0.000000
    18  H    3.728107   4.248072   0.000000
    19  H    3.057716   2.425908   3.656024   0.000000
    20  H    2.436827   3.814495   4.552077   3.823193   0.000000
    21  H    5.868479   6.362524   8.116202   5.804721   4.120398
    22  H    5.895655   5.714217   7.780216   4.664539   4.904085
    23  H    4.447552   3.858372   5.796592   2.328078   4.314846
    24  C    4.200692   4.580437   2.853687   2.688484   3.811652
    25  H    2.613475   3.665598   2.258306   2.963082   2.396708
    26  H    3.909474   5.455146   3.915759   5.091543   2.507593
    27  H    3.562749   5.145280   3.276451   5.260621   3.189020
    28  H    4.936133   6.199367   6.958360   6.046265   2.628140
    29  O    5.468912   6.880100   7.192351   6.730137   3.148760
    30  H    5.792096   7.247575   7.786043   7.374380   3.661754
    31  O    5.115130   6.602550   5.345422   5.992160   3.067650
    32  H    5.181026   6.685559   6.026112   6.255279   2.923327
    33  H    6.035244   7.522350   5.917491   6.811361   4.026495
    34  H    4.828791   5.376201   2.643677   3.666828   4.398700
    35  H    4.433549   4.949447   3.788042   3.077003   3.450721
    36  H    4.714551   4.688472   3.299399   2.463668   4.630496
    37  O    4.543894   6.108457   4.295072   6.695862   4.631614
    38  H    5.460303   6.964245   4.737465   7.478709   5.551818
    39  H    4.647794   6.238640   5.030852   7.129602   4.832246
                   21         22         23         24         25
    21  H    0.000000
    22  H    2.500795   0.000000
    23  H    4.303239   2.502988   0.000000
    24  C    6.147881   5.584825   3.902313   0.000000
    25  H    5.955168   5.991909   4.493814   2.059112   0.000000
    26  H    5.997977   6.881620   6.104242   3.718664   2.274081
    27  H    7.164181   7.872289   6.739464   4.246413   2.425958
    28  H    3.002737   5.002608   5.665835   5.682060   4.727622
    29  O    3.867580   5.912957   6.519462   6.062467   5.032190
    30  H    4.329334   6.508617   7.186153   6.881278   5.676107
    31  O    5.432013   6.696690   6.470211   4.423525   3.523184
    32  H    4.829653   6.398141   6.480020   5.020105   4.029454
    33  H    6.088785   7.413898   7.269530   4.998010   4.290295
    34  H    6.974088   6.589533   4.992002   1.093889   2.375295
    35  H    5.257426   4.873372   3.632675   1.093878   2.383691
    36  H    6.548368   5.556175   3.619751   1.095415   2.967298
    37  O    8.628176   9.468005   8.315550   5.905647   4.066777
    38  H    9.515525  10.361347   9.169461   6.509392   4.809015
    39  H    8.750785   9.715115   8.669037   6.614006   4.665073
                   26         27         28         29         30
    26  H    0.000000
    27  H    1.575618   0.000000
    28  H    3.767809   4.947197   0.000000
    29  O    3.627555   4.840237   0.980611   0.000000
    30  H    4.203436   5.218635   1.565611   0.959270   0.000000
    31  O    1.622086   3.125502   3.055569   2.665321   3.382578
    32  H    2.246395   3.655694   2.203810   1.691571   2.415203
    33  H    2.326137   3.693908   3.725204   3.166439   3.826983
    34  H    3.632272   4.070084   6.175443   6.400641   7.220338
    35  H    3.540105   4.442722   4.906266   5.304092   6.177180
    36  H    4.802065   5.242154   6.509030   6.975381   7.800470
    37  O    3.186323   1.776907   6.188370   5.954046   6.095949
    38  H    3.863466   2.531819   7.010060   6.696345   6.829102
    39  H    3.755875   2.464393   6.251396   6.013771   6.006868
                   31         32         33         34         35
    31  O    0.000000
    32  H    0.985439   0.000000
    33  H    0.959133   1.563492   0.000000
    34  H    4.363667   5.124612   4.776228   0.000000
    35  H    3.864429   4.360019   4.435568   1.788164   0.000000
    36  H    5.481377   6.037338   6.045656   1.794246   1.796375
    37  O    4.502019   4.920246   4.897957   5.641175   6.197537
    38  H    5.077352   5.568006   5.322918   6.106457   6.849915
    39  H    4.966044   5.215414   5.401956   6.454964   6.854449
                   36         37         38         39
    36  H    0.000000
    37  O    6.842553   0.000000
    38  H    7.435127   0.974788   0.000000
    39  H    7.540360   0.974715   1.511951   0.000000
 Stoichiometry    C10H23N2O4(1+)
 Framework group  C1[X(C10H23N2O4)]
 Deg. of freedom   111
 Full point group                 C1      NOp   1
 Largest Abelian subgroup         C1      NOp   1
 Largest concise Abelian subgroup C1      NOp   1
                         Standard orientation:                         
 ---------------------------------------------------------------------
 Center     Atomic      Atomic             Coordinates (Angstroms)
 Number     Number       Type             X           Y           Z
 ---------------------------------------------------------------------
      1          6           0        1.314350    0.138054   -0.551867
      2          6           0        1.150357   -1.215248   -0.247547
      3          6           0        2.299690   -1.966244    0.004967
      4          6           0        3.544765   -1.351479   -0.062879
      5          6           0        3.597304    0.006256   -0.366314
      6          7           0        2.504597    0.738386   -0.602383
      7          6           0       -0.209931   -1.859223   -0.202488
      8          6           0       -1.059348   -1.802691   -1.474567
      9          6           0       -2.510101   -2.032731   -0.990444
     10          6           0       -2.458643   -1.879862    0.540246
     11          7           0       -1.135901   -1.237682    0.812879
     12          8           0       -1.712827    1.343707    0.300128
     13          1           0       -2.464740   -2.847229    1.055748
     14          1           0       -2.873924   -3.029910   -1.256251
     15          1           0       -3.193382   -1.304308   -1.437340
     16          1           0       -0.952147   -0.818149   -1.944743
     17          1           0       -0.722598   -2.552397   -2.196273
     18          1           0       -3.245701   -1.248261    0.962730
     19          1           0       -0.096630   -2.903947    0.120968
     20          1           0        0.452235    0.777325   -0.752981
     21          1           0        4.551664    0.530664   -0.419027
     22          1           0        4.460623   -1.909280    0.121677
     23          1           0        2.224706   -3.027152    0.248117
     24          6           0       -0.683374   -1.325278    2.216555
     25          1           0       -1.270631   -0.222352    0.579905
     26          1           0       -1.141049    2.044222    0.711409
     27          1           0       -2.493883    1.775579   -0.050329
     28          1           0        2.359587    2.576752   -0.576357
     29          8           0        2.034089    3.464902   -0.317824
     30          1           0        2.095522    4.032363   -1.088806
     31          8           0        0.030463    2.956346    1.364672
     32          1           0        0.746507    3.261203    0.760160
     33          1           0       -0.076800    3.632516    2.036404
     34          1           0       -1.442726   -0.869739    2.858786
     35          1           0        0.259952   -0.781166    2.319739
     36          1           0       -0.545673   -2.378168    2.485619
     37          8           0       -3.818223    2.560872   -0.937368
     38          1           0       -4.638055    2.990191   -0.631147
     39          1           0       -3.752166    2.890401   -1.852308
 ---------------------------------------------------------------------
 Rotational constants (GHZ):           0.4520604           0.3660122           0.2440926
 Standard basis: Aug-CC-pVDZ (5D, 7F)
 There are   607 symmetry adapted cartesian basis functions of A   symmetry.
 There are   575 symmetry adapted basis functions of A   symmetry.
   575 basis functions,   941 primitive gaussians,   607 cartesian basis functions
    64 alpha electrons       64 beta electrons
       nuclear repulsion energy      1229.8150646573 Hartrees.
 NAtoms=   39 NActive=   39 NUniq=   39 SFac= 1.00D+00 NAtFMM=   60 NAOKFM=F Big=F
 Integral buffers will be    131072 words long.
 Raffenetti 2 integral format.
 Two-electron integral symmetry is turned on.
 Nuclear repulsion after empirical dispersion term =     1229.7851791719 Hartrees.
 One-electron integrals computed using PRISM.
 NBasis=   575 RedAO= T EigKep=  2.13D-06  NBF=   575
 NBsUse=   575 1.00D-06 EigRej= -1.00D+00 NBFU=   575
 ExpMin= 2.97D-02 ExpMax= 1.17D+04 ExpMxC= 4.01D+02 IAcc=3 IRadAn=         5 AccDes= 0.00D+00
 Harris functional with IExCor= 4639 and IRadAn=       5 diagonalized for initial guess.
 HarFok:  IExCor= 4639 AccDes= 0.00D+00 IRadAn=         5 IDoV= 1 UseB2=F ITyADJ=14
 ICtDFT=  3500011 ScaDFX=  1.000000  1.000000  1.000000  1.000000
 FoFCou: FMM=F IPFlag=           0 FMFlag=      100000 FMFlg1=           0
         NFxFlg=           0 DoJE=T BraDBF=F KetDBF=T FulRan=T
         wScrn=  0.000000 ICntrl=       500 IOpCl=  0 I1Cent=   200000004 NGrid=           0
         NMat0=    1 NMatS0=      1 NMatT0=    0 NMatD0=    1 NMtDS0=    0 NMtDT0=    0
 Petite list used in FoFCou.
 Requested convergence on RMS density matrix=1.00D-08 within 128 cycles.
 Requested convergence on MAX density matrix=1.00D-06.
 Requested convergence on             energy=1.00D-06.
 No special actions if energy rises.
 SCF Done:  E(RwB97XD) =  -805.035512150     A.U. after   15 cycles
            NFock= 15  Conv=0.34D-08     -V/T= 2.0063

 **********************************************************************

            Population analysis using the SCF density.

 **********************************************************************

 Orbital symmetries:
       Occupied  (A) (A) (A) (A) (A) (A) (A) (A) (A) (A) (A) (A)
                 (A) (A) (A) (A) (A) (A) (A) (A) (A) (A) (A) (A)
                 (A) (A) (A) (A) (A) (A) (A) (A) (A) (A) (A) (A)
                 (A) (A) (A) (A) (A) (A) (A) (A) (A) (A) (A) (A)
                 (A) (A) (A) (A) (A) (A) (A) (A) (A) (A) (A) (A)
                 (A) (A) (A) (A)
       Virtual   (A) (A) (A) (A) (A) (A) (A) (A) (A) (A) (A) (A)
                 (A) (A) (A) (A) (A) (A) (A) (A) (A) (A) (A) (A)
                 (A) (A) (A) (A) (A) (A) (A) (A) (A) (A) (A) (A)
                 (A) (A) (A) (A) (A) (A) (A) (A) (A) (A) (A) (A)
                 (A) (A) (A) (A) (A) (A) (A) (A) (A) (A) (A) (A)
                 (A) (A) (A) (A) (A) (A) (A) (A) (A) (A) (A) (A)
                 (A) (A) (A) (A) (A) (A) (A) (A) (A) (A) (A) (A)
                 (A) (A) (A) (A) (A) (A) (A) (A) (A) (A) (A) (A)
                 (A) (A) (A) (A) (A) (A) (A) (A) (A) (A) (A) (A)
                 (A) (A) (A) (A) (A) (A) (A) (A) (A) (A) (A) (A)
                 (A) (A) (A) (A) (A) (A) (A) (A) (A) (A) (A) (A)
                 (A) (A) (A) (A) (A) (A) (A) (A) (A) (A) (A) (A)
                 (A) (A) (A) (A) (A) (A) (A) (A) (A) (A) (A) (A)
                 (A) (A) (A) (A) (A) (A) (A) (A) (A) (A) (A) (A)
                 (A) (A) (A) (A) (A) (A) (A) (A) (A) (A) (A) (A)
                 (A) (A) (A) (A) (A) (A) (A) (A) (A) (A) (A) (A)
                 (A) (A) (A) (A) (A) (A) (A) (A) (A) (A) (A) (A)
                 (A) (A) (A) (A) (A) (A) (A) (A) (A) (A) (A) (A)
                 (A) (A) (A) (A) (A) (A) (A) (A) (A) (A) (A) (A)
                 (A) (A) (A) (A) (A) (A) (A) (A) (A) (A) (A) (A)
                 (A) (A) (A) (A) (A) (A) (A) (A) (A) (A) (A) (A)
                 (A) (A) (A) (A) (A) (A) (A) (A) (A) (A) (A) (A)
                 (A) (A) (A) (A) (A) (A) (A) (A) (A) (A) (A) (A)
                 (A) (A) (A) (A) (A) (A) (A) (A) (A) (A) (A) (A)
                 (A) (A) (A) (A) (A) (A) (A) (A) (A) (A) (A) (A)
                 (A) (A) (A) (A) (A) (A) (A) (A) (A) (A) (A) (A)
                 (A) (A) (A) (A) (A) (A) (A) (A) (A) (A) (A) (A)
                 (A) (A) (A) (A) (A) (A) (A) (A) (A) (A) (A) (A)
                 (A) (A) (A) (A) (A) (A) (A) (A) (A) (A) (A) (A)
                 (A) (A) (A) (A) (A) (A) (A) (A) (A) (A) (A) (A)
                 (A) (A) (A) (A) (A) (A) (A) (A) (A) (A) (A) (A)
                 (A) (A) (A) (A) (A) (A) (A) (A) (A) (A) (A) (A)
                 (A) (A) (A) (A) (A) (A) (A) (A) (A) (A) (A) (A)
                 (A) (A) (A) (A) (A) (A) (A) (A) (A) (A) (A) (A)
                 (A) (A) (A) (A) (A) (A) (A) (A) (A) (A) (A) (A)
                 (A) (A) (A) (A) (A) (A) (A) (A) (A) (A) (A) (A)
                 (A) (A) (A) (A) (A) (A) (A) (A) (A) (A) (A) (A)
                 (A) (A) (A) (A) (A) (A) (A) (A) (A) (A) (A) (A)
                 (A) (A) (A) (A) (A) (A) (A) (A) (A) (A) (A) (A)
                 (A) (A) (A) (A) (A) (A) (A) (A) (A) (A) (A) (A)
                 (A) (A) (A) (A) (A) (A) (A) (A) (A) (A) (A) (A)
                 (A) (A) (A) (A) (A) (A) (A) (A) (A) (A) (A) (A)
                 (A) (A) (A) (A) (A) (A) (A)
 The electronic state is 1-A.
 Alpha  occ. eigenvalues --  -19.40525 -19.36601 -19.36272 -19.36259 -14.67899
 Alpha  occ. eigenvalues --  -14.57936 -10.49212 -10.47799 -10.47320 -10.46045
 Alpha  occ. eigenvalues --  -10.45712 -10.44749 -10.44602 -10.43478 -10.43305
 Alpha  occ. eigenvalues --  -10.42981  -1.24810  -1.24241  -1.21911  -1.20606
 Alpha  occ. eigenvalues --   -1.19580  -1.17653  -1.05962  -1.03846  -1.00771
 Alpha  occ. eigenvalues --   -0.96315  -0.93722  -0.88507  -0.85304  -0.84390
 Alpha  occ. eigenvalues --   -0.82789  -0.77231  -0.74490  -0.73816  -0.73535
 Alpha  occ. eigenvalues --   -0.73121  -0.72456  -0.71598  -0.71059  -0.69011
 Alpha  occ. eigenvalues --   -0.68616  -0.65891  -0.64908  -0.64659  -0.63094
 Alpha  occ. eigenvalues --   -0.62357  -0.61709  -0.61530  -0.60826  -0.60499
 Alpha  occ. eigenvalues --   -0.59279  -0.58403  -0.57356  -0.56520  -0.56226
 Alpha  occ. eigenvalues --   -0.54803  -0.54712  -0.53033  -0.50829  -0.50310
 Alpha  occ. eigenvalues --   -0.49631  -0.49333  -0.47244  -0.46245
 Alpha virt. eigenvalues --   -0.09095  -0.08172  -0.06509  -0.05893  -0.04694
 Alpha virt. eigenvalues --   -0.04508  -0.03573  -0.03086  -0.02822  -0.02756
 Alpha virt. eigenvalues --   -0.02254  -0.01532  -0.01205  -0.01056  -0.00555
 Alpha virt. eigenvalues --   -0.00413   0.00153   0.00460   0.01234   0.01429
 Alpha virt. eigenvalues --    0.01628   0.01956   0.02606   0.02818   0.03134
 Alpha virt. eigenvalues --    0.03355   0.03976   0.04101   0.04511   0.04863
 Alpha virt. eigenvalues --    0.05102   0.05289   0.05311   0.05628   0.05946
 Alpha virt. eigenvalues --    0.06119   0.06401   0.06495   0.06848   0.07064
 Alpha virt. eigenvalues --    0.07276   0.07629   0.07900   0.08162   0.08454
 Alpha virt. eigenvalues --    0.08816   0.09214   0.09428   0.09998   0.10090
 Alpha virt. eigenvalues --    0.10383   0.10663   0.10752   0.11346   0.11440
 Alpha virt. eigenvalues --    0.11745   0.11887   0.12222   0.12558   0.12926
 Alpha virt. eigenvalues --    0.13240   0.13287   0.14030   0.14217   0.14815
 Alpha virt. eigenvalues --    0.15537   0.15563   0.15639   0.15987   0.16492
 Alpha virt. eigenvalues --    0.16746   0.17074   0.17389   0.17617   0.17910
 Alpha virt. eigenvalues --    0.18118   0.18428   0.18668   0.18927   0.19368
 Alpha virt. eigenvalues --    0.19446   0.19823   0.20209   0.20273   0.20589
 Alpha virt. eigenvalues --    0.21198   0.21396   0.21577   0.21915   0.22075
 Alpha virt. eigenvalues --    0.22706   0.23135   0.23293   0.23479   0.23873
 Alpha virt. eigenvalues --    0.24127   0.24456   0.24842   0.25145   0.25682
 Alpha virt. eigenvalues --    0.25800   0.26032   0.26308   0.26812   0.27360
 Alpha virt. eigenvalues --    0.27390   0.28011   0.28320   0.28646   0.29229
 Alpha virt. eigenvalues --    0.29435   0.29705   0.29996   0.30649   0.30835
 Alpha virt. eigenvalues --    0.31609   0.31700   0.32171   0.32533   0.32690
 Alpha virt. eigenvalues --    0.33252   0.33325   0.33726   0.34086   0.34760
 Alpha virt. eigenvalues --    0.34857   0.35309   0.35551   0.36321   0.36710
 Alpha virt. eigenvalues --    0.37103   0.37412   0.38048   0.38443   0.38837
 Alpha virt. eigenvalues --    0.39238   0.39391   0.39709   0.40417   0.41336
 Alpha virt. eigenvalues --    0.41477   0.41669   0.42138   0.42644   0.42953
 Alpha virt. eigenvalues --    0.43117   0.43507   0.44642   0.44733   0.44998
 Alpha virt. eigenvalues --    0.45392   0.45660   0.45833   0.46277   0.47118
 Alpha virt. eigenvalues --    0.47681   0.47842   0.48345   0.48679   0.49173
 Alpha virt. eigenvalues --    0.49489   0.49582   0.49815   0.50221   0.50341
 Alpha virt. eigenvalues --    0.50996   0.51611   0.51754   0.52413   0.52553
 Alpha virt. eigenvalues --    0.52767   0.53204   0.53383   0.53662   0.53954
 Alpha virt. eigenvalues --    0.54232   0.54987   0.55342   0.55636   0.55735
 Alpha virt. eigenvalues --    0.56392   0.56719   0.57438   0.57796   0.58028
 Alpha virt. eigenvalues --    0.58217   0.58977   0.59333   0.60051   0.60191
 Alpha virt. eigenvalues --    0.60689   0.61432   0.61644   0.61748   0.61914
 Alpha virt. eigenvalues --    0.62344   0.62843   0.63261   0.63926   0.64313
 Alpha virt. eigenvalues --    0.65410   0.65586   0.66129   0.66606   0.67132
 Alpha virt. eigenvalues --    0.67390   0.67780   0.68274   0.68957   0.69454
 Alpha virt. eigenvalues --    0.69671   0.69864   0.70220   0.70974   0.71581
 Alpha virt. eigenvalues --    0.71792   0.72208   0.72419   0.73116   0.73767
 Alpha virt. eigenvalues --    0.73981   0.74146   0.74844   0.75760   0.76331
 Alpha virt. eigenvalues --    0.77106   0.77454   0.77625   0.78101   0.78866
 Alpha virt. eigenvalues --    0.79112   0.79545   0.79639   0.80359   0.80488
 Alpha virt. eigenvalues --    0.81993   0.82500   0.83639   0.83942   0.84282
 Alpha virt. eigenvalues --    0.85077   0.85421   0.85891   0.86518   0.87286
 Alpha virt. eigenvalues --    0.87750   0.88095   0.89148   0.90265   0.90852
 Alpha virt. eigenvalues --    0.90932   0.91834   0.92522   0.92600   0.93610
 Alpha virt. eigenvalues --    0.94143   0.94738   0.95060   0.96404   0.97182
 Alpha virt. eigenvalues --    0.97653   0.99098   1.00125   1.00721   1.00930
 Alpha virt. eigenvalues --    1.01682   1.02637   1.03000   1.03673   1.04914
 Alpha virt. eigenvalues --    1.05619   1.06021   1.06479   1.07629   1.08908
 Alpha virt. eigenvalues --    1.09222   1.09869   1.10233   1.10348   1.11072
 Alpha virt. eigenvalues --    1.12120   1.12342   1.13368   1.14353   1.15646
 Alpha virt. eigenvalues --    1.16612   1.17083   1.18683   1.19066   1.19751
 Alpha virt. eigenvalues --    1.20055   1.20817   1.21511   1.23279   1.23530
 Alpha virt. eigenvalues --    1.24390   1.25924   1.26735   1.27888   1.29043
 Alpha virt. eigenvalues --    1.29766   1.30898   1.32316   1.32554   1.33797
 Alpha virt. eigenvalues --    1.34937   1.35195   1.35904   1.36166   1.37841
 Alpha virt. eigenvalues --    1.38013   1.39844   1.40802   1.41031   1.41703
 Alpha virt. eigenvalues --    1.42830   1.43396   1.43969   1.45291   1.46328
 Alpha virt. eigenvalues --    1.47293   1.47843   1.48162   1.49867   1.50806
 Alpha virt. eigenvalues --    1.51346   1.52016   1.53422   1.53934   1.55207
 Alpha virt. eigenvalues --    1.55548   1.56264   1.57555   1.57658   1.58509
 Alpha virt. eigenvalues --    1.59147   1.60183   1.60350   1.61206   1.62941
 Alpha virt. eigenvalues --    1.63847   1.64565   1.65553   1.66354   1.67890
 Alpha virt. eigenvalues --    1.68524   1.69089   1.69527   1.70085   1.70891
 Alpha virt. eigenvalues --    1.71402   1.72127   1.73063   1.74242   1.74529
 Alpha virt. eigenvalues --    1.75559   1.76138   1.76765   1.77454   1.78539
 Alpha virt. eigenvalues --    1.79300   1.80506   1.81011   1.81831   1.82057
 Alpha virt. eigenvalues --    1.82867   1.83263   1.83634   1.84169   1.85328
 Alpha virt. eigenvalues --    1.86230   1.86687   1.87318   1.87799   1.89344
 Alpha virt. eigenvalues --    1.89659   1.90733   1.91378   1.91655   1.92813
 Alpha virt. eigenvalues --    1.93793   1.95254   1.95540   1.96869   1.97761
 Alpha virt. eigenvalues --    1.99089   1.99400   2.00131   2.00567   2.00764
 Alpha virt. eigenvalues --    2.02941   2.04416   2.05078   2.05655   2.05997
 Alpha virt. eigenvalues --    2.07115   2.08782   2.09002   2.10343   2.11306
 Alpha virt. eigenvalues --    2.11757   2.12830   2.14010   2.14313   2.14580
 Alpha virt. eigenvalues --    2.15710   2.16560   2.18136   2.18944   2.19420
 Alpha virt. eigenvalues --    2.20542   2.21831   2.22297   2.23057   2.24149
 Alpha virt. eigenvalues --    2.25332   2.26683   2.27686   2.28479   2.29076
 Alpha virt. eigenvalues --    2.29933   2.30522   2.30869   2.32696   2.34529
 Alpha virt. eigenvalues --    2.35955   2.36258   2.37476   2.38988   2.39889
 Alpha virt. eigenvalues --    2.42628   2.43569   2.44478   2.45492   2.46831
 Alpha virt. eigenvalues --    2.47660   2.50166   2.50805   2.51845   2.53927
 Alpha virt. eigenvalues --    2.54238   2.55694   2.56044   2.57736   2.58545
 Alpha virt. eigenvalues --    2.58847   2.59641   2.60427   2.61398   2.63143
 Alpha virt. eigenvalues --    2.64293   2.65500   2.67495   2.69726   2.70081
 Alpha virt. eigenvalues --    2.71428   2.72071   2.72524   2.74008   2.74862
 Alpha virt. eigenvalues --    2.76340   2.76683   2.78548   2.79263   2.80412
 Alpha virt. eigenvalues --    2.82693   2.83229   2.85114   2.86764   2.88076
 Alpha virt. eigenvalues --    2.89176   2.90427   2.90916   2.92299   2.95292
 Alpha virt. eigenvalues --    2.97198   2.97861   2.99673   3.04318   3.10244
 Alpha virt. eigenvalues --    3.12068   3.14476   3.16418   3.25833   3.27983
 Alpha virt. eigenvalues --    3.28474   3.37016   3.37755   3.38689   3.41011
 Alpha virt. eigenvalues --    3.41953   3.44052   3.46452   3.47730   3.52898
 Alpha virt. eigenvalues --    3.53745   3.55738   3.59922   3.62554   3.65637
 Alpha virt. eigenvalues --    3.66609   3.77238   3.84235   3.84990   3.89786
 Alpha virt. eigenvalues --    4.00068   4.04341   4.08589   4.18297   4.26815
 Alpha virt. eigenvalues --    4.78540
          Condensed to atoms (all electrons):
               1          2          3          4          5          6
     1  C   15.016936  -3.179840  -1.660025  -0.187768  -1.132697  -0.289431
     2  C   -3.179840  22.277448  -8.374344   0.474944  -0.873041  -0.218178
     3  C   -1.660025  -8.374344  22.223618  -4.313166   1.710027  -0.637248
     4  C   -0.187768   0.474944  -4.313166  11.560074  -2.594077   0.377647
     5  C   -1.132697  -0.873041   1.710027  -2.594077   9.931489   0.064925
     6  N   -0.289431  -0.218178  -0.637248   0.377647   0.064925   7.779965
     7  C   -1.683449  -9.080567  -1.561432   0.681828  -1.060405   0.734538
     8  C   -0.578902   0.404479  -0.247719   0.033002  -0.112987  -0.037411
     9  C    0.050904   0.252365   0.001480  -0.021643   0.007367   0.008465
    10  C   -0.094916  -0.302579  -0.033586  -0.011173  -0.021749   0.027731
    11  N    0.128876   1.293539  -0.281230  -0.166725   0.124837  -0.075846
    12  O   -0.116239  -0.033114  -0.005273   0.004427  -0.009891   0.002402
    13  H    0.010958   0.145024   0.008661   0.007327  -0.005027  -0.002463
    14  H    0.026629   0.015984   0.003636  -0.007462   0.004391  -0.000684
    15  H   -0.027858  -0.171631   0.003604   0.002394  -0.004293   0.001154
    16  H   -0.182325   0.056256   0.005993  -0.021903   0.002078   0.023192
    17  H    0.254494   0.438994  -0.025469   0.000021   0.011027  -0.020050
    18  H   -0.003780  -0.105548   0.020304  -0.002281   0.002530   0.003269
    19  H   -0.151846   1.107464   0.028329  -0.059748   0.051304   0.000925
    20  H   -0.832433  -0.595485  -0.237701   0.092759  -0.110887  -0.108604
    21  H    0.170404  -0.141637   0.261277   0.045978  -0.423849  -0.162498
    22  H   -0.001216  -0.065808   0.610724  -1.158435   0.379189  -0.073409
    23  H    0.134944   1.181651  -2.492867   0.685138  -0.212352  -0.029942
    24  C   -0.026608   0.617873  -0.178660   0.064780  -0.016654  -0.013106
    25  H   -0.262205  -0.363291  -0.013273   0.003594  -0.030052   0.014034
    26  H    0.037451   0.009472  -0.001012  -0.002583   0.007154  -0.003129
    27  H    0.002464   0.000792  -0.001728   0.000331  -0.000692   0.000382
    28  H   -0.127930   0.008371   0.014881  -0.057863   0.073485   0.134023
    29  O   -0.006803  -0.035893   0.009136  -0.005942   0.019398  -0.040655
    30  H    0.002870   0.009252  -0.002893   0.006907  -0.012002  -0.005144
    31  O   -0.095393   0.051647  -0.021065  -0.001218   0.009644   0.016049
    32  H   -0.007928   0.009936  -0.008655   0.006400  -0.002821   0.007126
    33  H    0.012693  -0.004490   0.002128  -0.000234  -0.001488  -0.004794
    34  H   -0.031592   0.005308  -0.023766   0.010245  -0.004270   0.000342
    35  H    0.168292   0.007811  -0.022177   0.058324  -0.031448  -0.008875
    36  H   -0.013966   0.163116   0.028540  -0.028583   0.018269  -0.001818
    37  O    0.001426  -0.002923  -0.000244   0.000014  -0.000137   0.000043
    38  H    0.000483  -0.000304  -0.000087   0.000019  -0.000013  -0.000005
    39  H   -0.000598   0.000625   0.000167  -0.000080   0.000067   0.000040
               7          8          9         10         11         12
     1  C   -1.683449  -0.578902   0.050904  -0.094916   0.128876  -0.116239
     2  C   -9.080567   0.404479   0.252365  -0.302579   1.293539  -0.033114
     3  C   -1.561432  -0.247719   0.001480  -0.033586  -0.281230  -0.005273
     4  C    0.681828   0.033002  -0.021643  -0.011173  -0.166725   0.004427
     5  C   -1.060405  -0.112987   0.007367  -0.021749   0.124837  -0.009891
     6  N    0.734538  -0.037411   0.008465   0.027731  -0.075846   0.002402
     7  C   26.601359  -1.726205   0.176508  -0.357446  -4.535656   0.120002
     8  C   -1.726205   7.887161  -0.806667   0.604130  -0.366078   0.011731
     9  C    0.176508  -0.806667   6.365633  -0.225212  -0.573613   0.030849
    10  C   -0.357446   0.604130  -0.225212   5.709923   0.277858  -0.008832
    11  N   -4.535656  -0.366078  -0.573613   0.277858  13.684062  -0.454253
    12  O    0.120002   0.011731   0.030849  -0.008832  -0.454253   8.255179
    13  H    0.161446   0.050228  -0.046973  -0.317549  -0.057331  -0.011047
    14  H   -0.225084   0.149485  -0.097096   0.163505   0.026143  -0.006202
    15  H    0.409899   0.223791  -0.463314   0.117874  -0.112827   0.023109
    16  H   -0.245515  -0.093299   0.268154   0.012510  -0.130744   0.003340
    17  H   -0.173359  -0.843950   0.116080  -0.137274   0.261830   0.001260
    18  H    0.454335  -0.047807   0.245080  -0.255509  -1.060161   0.077948
    19  H   -3.298672   0.681950  -0.082139   0.029620  -0.349046   0.005929
    20  H    0.194598   0.037809   0.051236  -0.042957  -0.176903   0.037101
    21  H   -0.042032   0.001286   0.000514  -0.001126   0.005171  -0.000327
    22  H    0.044992   0.000829  -0.000098   0.000325  -0.001913   0.000211
    23  H   -0.144755  -0.039002  -0.003867  -0.007517   0.008648  -0.001306
    24  C   -1.022201   0.014082  -0.157724  -0.007908   1.010197  -0.005025
    25  H    0.526689  -0.244101   0.179942  -0.478157   0.095909  -0.016159
    26  H   -0.017727  -0.010270   0.025084   0.003576   0.045780   0.288304
    27  H   -0.027223   0.029740  -0.040177   0.022595   0.052661   0.339191
    28  H    0.026957  -0.005344  -0.000670   0.000772  -0.006535   0.000964
    29  O    0.016088  -0.000584  -0.000844   0.000274  -0.003005   0.000600
    30  H   -0.003602   0.001368   0.000148  -0.000053   0.000848   0.000615
    31  O    0.012453  -0.001321  -0.000079  -0.002721   0.000207  -0.073200
    32  H   -0.002632   0.001075  -0.001180  -0.000001   0.002288   0.005861
    33  H    0.000542  -0.000358   0.000065   0.000435   0.005101   0.001440
    34  H    0.058102  -0.080710   0.078108  -0.015393  -0.089317   0.015107
    35  H   -0.016440   0.072098  -0.043678  -0.090614  -0.147476   0.033356
    36  H   -0.224792   0.085930  -0.035320   0.154337  -0.482394  -0.007511
    37  O    0.003810   0.005595  -0.008643   0.009623  -0.002898  -0.067202
    38  H    0.000542  -0.000953   0.002331  -0.002184  -0.000241   0.006268
    39  H   -0.001131   0.000361  -0.001700   0.001397   0.002351   0.007382
              13         14         15         16         17         18
     1  C    0.010958   0.026629  -0.027858  -0.182325   0.254494  -0.003780
     2  C    0.145024   0.015984  -0.171631   0.056256   0.438994  -0.105548
     3  C    0.008661   0.003636   0.003604   0.005993  -0.025469   0.020304
     4  C    0.007327  -0.007462   0.002394  -0.021903   0.000021  -0.002281
     5  C   -0.005027   0.004391  -0.004293   0.002078   0.011027   0.002530
     6  N   -0.002463  -0.000684   0.001154   0.023192  -0.020050   0.003269
     7  C    0.161446  -0.225084   0.409899  -0.245515  -0.173359   0.454335
     8  C    0.050228   0.149485   0.223791  -0.093299  -0.843950  -0.047807
     9  C   -0.046973  -0.097096  -0.463314   0.268154   0.116080   0.245080
    10  C   -0.317549   0.163505   0.117874   0.012510  -0.137274  -0.255509
    11  N   -0.057331   0.026143  -0.112827  -0.130744   0.261830  -1.060161
    12  O   -0.011047  -0.006202   0.023109   0.003340   0.001260   0.077948
    13  H    2.501269  -0.317290   0.184857  -0.062285   0.060813  -0.648954
    14  H   -0.317290   1.996618  -0.562843   0.173511  -0.275841   0.139106
    15  H    0.184857  -0.562843   2.098414  -0.325171   0.121165  -0.271057
    16  H   -0.062285   0.173511  -0.325171   2.208994  -0.601357   0.056428
    17  H    0.060813  -0.275841   0.121165  -0.601357   2.490466  -0.042622
    18  H   -0.648954   0.139106  -0.271057   0.056428  -0.042622   2.874232
    19  H   -0.144801   0.055678  -0.031041   0.225439  -0.260605   0.112942
    20  H    0.004152  -0.004105   0.007229  -0.132712   0.053961  -0.011324
    21  H   -0.000069   0.000118  -0.000103  -0.001885   0.001634  -0.000011
    22  H   -0.000160  -0.000141   0.000075   0.001177  -0.002585   0.000035
    23  H    0.001422   0.002591  -0.002110  -0.004476   0.016372  -0.002083
    24  C    0.021513  -0.017676  -0.004322  -0.064914   0.072563  -0.164532
    25  H   -0.073698   0.000563   0.010478   0.113460  -0.026997   0.108123
    26  H   -0.001204   0.001392  -0.005719   0.001285  -0.001328   0.006374
    27  H    0.005858  -0.002713   0.009981   0.000317   0.002934  -0.018333
    28  H    0.000020   0.000041  -0.000108   0.000492  -0.000367   0.000442
    29  O    0.000034  -0.000043  -0.000221   0.002966   0.000017   0.000058
    30  H    0.000011  -0.000003   0.000001   0.000627   0.000027  -0.000046
    31  O   -0.000423  -0.000088   0.000368  -0.003008   0.000038  -0.001010
    32  H   -0.000136   0.000097  -0.000242   0.000733  -0.000266   0.000303
    33  H   -0.000013  -0.000018   0.000025  -0.000185   0.000045  -0.000246
    34  H   -0.000157  -0.004442   0.011728  -0.010252   0.002004  -0.017193
    35  H    0.015635  -0.002089  -0.002631   0.000670   0.004235   0.007743
    36  H    0.018597   0.007296  -0.009020   0.004302   0.006432   0.033523
    37  O    0.000212  -0.001264  -0.001712   0.003289   0.000488   0.003729
    38  H   -0.000094  -0.000034   0.000507  -0.000415  -0.000037  -0.000426
    39  H   -0.000187   0.000202  -0.001804   0.000914  -0.000157   0.000207
              19         20         21         22         23         24
     1  C   -0.151846  -0.832433   0.170404  -0.001216   0.134944  -0.026608
     2  C    1.107464  -0.595485  -0.141637  -0.065808   1.181651   0.617873
     3  C    0.028329  -0.237701   0.261277   0.610724  -2.492867  -0.178660
     4  C   -0.059748   0.092759   0.045978  -1.158435   0.685138   0.064780
     5  C    0.051304  -0.110887  -0.423849   0.379189  -0.212352  -0.016654
     6  N    0.000925  -0.108604  -0.162498  -0.073409  -0.029942  -0.013106
     7  C   -3.298672   0.194598  -0.042032   0.044992  -0.144755  -1.022201
     8  C    0.681950   0.037809   0.001286   0.000829  -0.039002   0.014082
     9  C   -0.082139   0.051236   0.000514  -0.000098  -0.003867  -0.157724
    10  C    0.029620  -0.042957  -0.001126   0.000325  -0.007517  -0.007908
    11  N   -0.349046  -0.176903   0.005171  -0.001913   0.008648   1.010197
    12  O    0.005929   0.037101  -0.000327   0.000211  -0.001306  -0.005025
    13  H   -0.144801   0.004152  -0.000069  -0.000160   0.001422   0.021513
    14  H    0.055678  -0.004105   0.000118  -0.000141   0.002591  -0.017676
    15  H   -0.031041   0.007229  -0.000103   0.000075  -0.002110  -0.004322
    16  H    0.225439  -0.132712  -0.001885   0.001177  -0.004476  -0.064914
    17  H   -0.260605   0.053961   0.001634  -0.002585   0.016372   0.072563
    18  H    0.112942  -0.011324  -0.000011   0.000035  -0.002083  -0.164532
    19  H    4.250999  -0.014415   0.000874  -0.000200  -0.174790  -0.129943
    20  H   -0.014415   3.891086   0.020746  -0.008365  -0.012624   0.013334
    21  H    0.000874   0.020746   2.030192  -0.125940  -0.003472   0.002915
    22  H   -0.000200  -0.008365  -0.125940   2.145127  -0.146991  -0.008816
    23  H   -0.174790  -0.012624  -0.003472  -0.146991   3.102328   0.053492
    24  C   -0.129943   0.013334   0.002915  -0.008816   0.053492   4.831810
    25  H    0.006902   0.037185   0.001768   0.000371  -0.006546  -0.376469
    26  H    0.002682  -0.015351  -0.000791   0.000436  -0.000095  -0.026356
    27  H   -0.003690  -0.008873  -0.000150  -0.000012  -0.000166   0.033246
    28  H   -0.000808  -0.029585  -0.053015   0.007337  -0.001585  -0.003814
    29  O    0.000476  -0.025935   0.004934  -0.000094  -0.000052   0.000618
    30  H   -0.000101  -0.000357   0.002985  -0.000345   0.000118   0.000470
    31  O    0.000991   0.027684  -0.000362   0.000089  -0.000828   0.006808
    32  H    0.000129  -0.019028   0.001389  -0.000314   0.000052   0.000996
    33  H   -0.000220   0.006480  -0.000107   0.000007   0.000071  -0.000470
    34  H   -0.001205   0.007208   0.000466  -0.001097   0.003119   0.116442
    35  H    0.033599   0.005160  -0.004145  -0.000067   0.012428   0.034193
    36  H    0.058866  -0.005541   0.000395   0.000336  -0.000458   0.310641
    37  O    0.000295  -0.008146  -0.000024   0.000002  -0.000011  -0.001046
    38  H    0.000095   0.001551   0.000001  -0.000000   0.000003  -0.000560
    39  H   -0.000167  -0.001753  -0.000002  -0.000001   0.000008   0.000678
              25         26         27         28         29         30
     1  C   -0.262205   0.037451   0.002464  -0.127930  -0.006803   0.002870
     2  C   -0.363291   0.009472   0.000792   0.008371  -0.035893   0.009252
     3  C   -0.013273  -0.001012  -0.001728   0.014881   0.009136  -0.002893
     4  C    0.003594  -0.002583   0.000331  -0.057863  -0.005942   0.006907
     5  C   -0.030052   0.007154  -0.000692   0.073485   0.019398  -0.012002
     6  N    0.014034  -0.003129   0.000382   0.134023  -0.040655  -0.005144
     7  C    0.526689  -0.017727  -0.027223   0.026957   0.016088  -0.003602
     8  C   -0.244101  -0.010270   0.029740  -0.005344  -0.000584   0.001368
     9  C    0.179942   0.025084  -0.040177  -0.000670  -0.000844   0.000148
    10  C   -0.478157   0.003576   0.022595   0.000772   0.000274  -0.000053
    11  N    0.095909   0.045780   0.052661  -0.006535  -0.003005   0.000848
    12  O   -0.016159   0.288304   0.339191   0.000964   0.000600   0.000615
    13  H   -0.073698  -0.001204   0.005858   0.000020   0.000034   0.000011
    14  H    0.000563   0.001392  -0.002713   0.000041  -0.000043  -0.000003
    15  H    0.010478  -0.005719   0.009981  -0.000108  -0.000221   0.000001
    16  H    0.113460   0.001285   0.000317   0.000492   0.002966   0.000627
    17  H   -0.026997  -0.001328   0.002934  -0.000367   0.000017   0.000027
    18  H    0.108123   0.006374  -0.018333   0.000442   0.000058  -0.000046
    19  H    0.006902   0.002682  -0.003690  -0.000808   0.000476  -0.000101
    20  H    0.037185  -0.015351  -0.008873  -0.029585  -0.025935  -0.000357
    21  H    0.001768  -0.000791  -0.000150  -0.053015   0.004934   0.002985
    22  H    0.000371   0.000436  -0.000012   0.007337  -0.000094  -0.000345
    23  H   -0.006546  -0.000095  -0.000166  -0.001585  -0.000052   0.000118
    24  C   -0.376469  -0.026356   0.033246  -0.003814   0.000618   0.000470
    25  H    1.748840  -0.029351  -0.066159  -0.003089  -0.002026   0.001134
    26  H   -0.029351   0.661487  -0.219462   0.001902  -0.015934  -0.001268
    27  H   -0.066159  -0.219462   0.721629   0.000033   0.005436  -0.000028
    28  H   -0.003089   0.001902   0.000033   0.625835   0.278824  -0.118005
    29  O   -0.002026  -0.015934   0.005436   0.278824   7.872491   0.373429
    30  H    0.001134  -0.001268  -0.000028  -0.118005   0.373429   0.580390
    31  O    0.007762  -0.074321   0.019368  -0.001901  -0.054833   0.001146
    32  H    0.004189  -0.003038  -0.001102  -0.003754   0.003758  -0.000603
    33  H   -0.001729  -0.009833   0.001899  -0.001406  -0.000844   0.000244
    34  H    0.117770  -0.005387  -0.002282  -0.000940  -0.000085   0.000070
    35  H   -0.024468   0.013342  -0.007700   0.001606   0.001108   0.000019
    36  H   -0.186011  -0.007355   0.009925   0.000383   0.000072  -0.000023
    37  O    0.010945   0.010355  -0.042679   0.000199   0.000285   0.000075
    38  H    0.002831  -0.001706  -0.006631  -0.000082  -0.000063   0.000010
    39  H   -0.002480  -0.004997   0.011291   0.000145   0.000005  -0.000013
              31         32         33         34         35         36
     1  C   -0.095393  -0.007928   0.012693  -0.031592   0.168292  -0.013966
     2  C    0.051647   0.009936  -0.004490   0.005308   0.007811   0.163116
     3  C   -0.021065  -0.008655   0.002128  -0.023766  -0.022177   0.028540
     4  C   -0.001218   0.006400  -0.000234   0.010245   0.058324  -0.028583
     5  C    0.009644  -0.002821  -0.001488  -0.004270  -0.031448   0.018269
     6  N    0.016049   0.007126  -0.004794   0.000342  -0.008875  -0.001818
     7  C    0.012453  -0.002632   0.000542   0.058102  -0.016440  -0.224792
     8  C   -0.001321   0.001075  -0.000358  -0.080710   0.072098   0.085930
     9  C   -0.000079  -0.001180   0.000065   0.078108  -0.043678  -0.035320
    10  C   -0.002721  -0.000001   0.000435  -0.015393  -0.090614   0.154337
    11  N    0.000207   0.002288   0.005101  -0.089317  -0.147476  -0.482394
    12  O   -0.073200   0.005861   0.001440   0.015107   0.033356  -0.007511
    13  H   -0.000423  -0.000136  -0.000013  -0.000157   0.015635   0.018597
    14  H   -0.000088   0.000097  -0.000018  -0.004442  -0.002089   0.007296
    15  H    0.000368  -0.000242   0.000025   0.011728  -0.002631  -0.009020
    16  H   -0.003008   0.000733  -0.000185  -0.010252   0.000670   0.004302
    17  H    0.000038  -0.000266   0.000045   0.002004   0.004235   0.006432
    18  H   -0.001010   0.000303  -0.000246  -0.017193   0.007743   0.033523
    19  H    0.000991   0.000129  -0.000220  -0.001205   0.033599   0.058866
    20  H    0.027684  -0.019028   0.006480   0.007208   0.005160  -0.005541
    21  H   -0.000362   0.001389  -0.000107   0.000466  -0.004145   0.000395
    22  H    0.000089  -0.000314   0.000007  -0.001097  -0.000067   0.000336
    23  H   -0.000828   0.000052   0.000071   0.003119   0.012428  -0.000458
    24  C    0.006808   0.000996  -0.000470   0.116442   0.034193   0.310641
    25  H    0.007762   0.004189  -0.001729   0.117770  -0.024468  -0.186011
    26  H   -0.074321  -0.003038  -0.009833  -0.005387   0.013342  -0.007355
    27  H    0.019368  -0.001102   0.001899  -0.002282  -0.007700   0.009925
    28  H   -0.001901  -0.003754  -0.001406  -0.000940   0.001606   0.000383
    29  O   -0.054833   0.003758  -0.000844  -0.000085   0.001108   0.000072
    30  H    0.001146  -0.000603   0.000244   0.000070   0.000019  -0.000023
    31  O    7.949339   0.330358   0.344277   0.008059  -0.010388  -0.000193
    32  H    0.330358   0.532691  -0.111927   0.000088  -0.001052   0.000108
    33  H    0.344277  -0.111927   0.611670   0.000929  -0.001231  -0.000079
    34  H    0.008059   0.000088   0.000929   1.971787  -0.610925  -0.380452
    35  H   -0.010388  -0.001052  -0.001231  -0.610925   1.967768  -0.385927
    36  H   -0.000193   0.000108  -0.000079  -0.380452  -0.385927   2.017837
    37  O   -0.002728  -0.000416  -0.000237  -0.000485  -0.000027  -0.000172
    38  H   -0.000245   0.000092   0.000051   0.000307  -0.000083  -0.000122
    39  H    0.000046   0.000075   0.000037  -0.000170   0.000100   0.000074
              37         38         39
     1  C    0.001426   0.000483  -0.000598
     2  C   -0.002923  -0.000304   0.000625
     3  C   -0.000244  -0.000087   0.000167
     4  C    0.000014   0.000019  -0.000080
     5  C   -0.000137  -0.000013   0.000067
     6  N    0.000043  -0.000005   0.000040
     7  C    0.003810   0.000542  -0.001131
     8  C    0.005595  -0.000953   0.000361
     9  C   -0.008643   0.002331  -0.001700
    10  C    0.009623  -0.002184   0.001397
    11  N   -0.002898  -0.000241   0.002351
    12  O   -0.067202   0.006268   0.007382
    13  H    0.000212  -0.000094  -0.000187
    14  H   -0.001264  -0.000034   0.000202
    15  H   -0.001712   0.000507  -0.001804
    16  H    0.003289  -0.000415   0.000914
    17  H    0.000488  -0.000037  -0.000157
    18  H    0.003729  -0.000426   0.000207
    19  H    0.000295   0.000095  -0.000167
    20  H   -0.008146   0.001551  -0.001753
    21  H   -0.000024   0.000001  -0.000002
    22  H    0.000002  -0.000000  -0.000001
    23  H   -0.000011   0.000003   0.000008
    24  C   -0.001046  -0.000560   0.000678
    25  H    0.010945   0.002831  -0.002480
    26  H    0.010355  -0.001706  -0.004997
    27  H   -0.042679  -0.006631   0.011291
    28  H    0.000199  -0.000082   0.000145
    29  O    0.000285  -0.000063   0.000005
    30  H    0.000075   0.000010  -0.000013
    31  O   -0.002728  -0.000245   0.000046
    32  H   -0.000416   0.000092   0.000075
    33  H   -0.000237   0.000051   0.000037
    34  H   -0.000485   0.000307  -0.000170
    35  H   -0.000027  -0.000083   0.000100
    36  H   -0.000172  -0.000122   0.000074
    37  O    7.770840   0.341703   0.332811
    38  H    0.341703   0.560443  -0.067602
    39  H    0.332811  -0.067602   0.559876
 Mulliken charges:
               1
     1  C    0.675921
     2  C    1.016321
     3  C    1.211116
     4  C    0.524732
     5  C    0.243651
     6  N   -0.462960
     7  C    1.225638
     8  C    0.947541
     9  C    0.750327
    10  C    1.277976
    11  N   -0.952111
    12  O   -0.456997
    13  H   -0.508173
    14  H   -0.241866
    15  H   -0.228627
    16  H   -0.285680
    17  H   -0.504637
    18  H   -0.493789
    19  H   -0.952050
    20  H   -1.086196
    21  H   -0.591504
    22  H   -0.595255
    23  H   -0.914492
    24  C    1.020153
    25  H    0.213772
    26  H    0.342144
    27  H    0.179725
    28  H    0.240090
    29  O   -0.396149
    30  H    0.161721
    31  O   -0.441008
    32  H    0.257350
    33  H    0.151771
    34  H   -0.127066
    35  H   -0.026043
    36  H   -0.149239
    37  O   -0.354747
    38  H    0.164653
    39  H    0.163987
 Sum of Mulliken charges =   1.00000
 Mulliken charges with hydrogens summed into heavy atoms:
               1
     1  C   -0.410274
     2  C    1.016321
     3  C    0.296624
     4  C   -0.070523
     5  C   -0.347853
     6  N   -0.462960
     7  C    0.273588
     8  C    0.157223
     9  C    0.279834
    10  C    0.276014
    11  N   -0.738339
    12  O    0.064872
    24  C    0.717806
    29  O    0.005661
    31  O   -0.031887
    37  O   -0.026107
 Electronic spatial extent (au):  <R**2>=           4779.3119
 Charge=              1.0000 electrons
 Dipole moment (field-independent basis, Debye):
    X=             -4.1050    Y=             -2.0373    Z=             -0.0150  Tot=              4.5827
 Quadrupole moment (field-independent basis, Debye-Ang):
[...]
 502,-0.00008097,-0.00007177,-0.00055387,-0.00003207,-0.00010517,-0.000
 08624,0.00020772,-0.00009339,0.00009416,0.00001283,-0.00007375,0.00006
 784,-0.00035208,-0.00002414,-0.00008021,-0.00047716,0.00020586,-0.0004
 4754,0.00003029,-0.00004736,-0.00003812,0.00052558,0.00035600,-0.00012
 373,-0.00089704,0.00031920,0.00117516,0.00613626,-0.00310996,0.0021160
 3,-0.00031374,-0.00001409,-0.00035538,0.00034604,0.00006591,-0.0000640
 7,-0.00001774,-0.00000235,0.00019255,0.00002723,-0.00003446,-0.0000603
 5,0.00000007,0.00000641,0.00000911,-0.00002235,0.00001208,0.00000060,-
 0.00024206,0.00025646,-0.00025866,-0.00011377,-0.00000235,0.00008282,-
 0.00001829,-0.00003552,0.00010607,-0.00000804,-0.00000844,-0.00000107,
 0.00000107,-0.00001124,-0.00000590,-0.00005939,-0.00007592,-0.00004247
 ,0.05379548,-0.06065604,0.01219227,0.00083570,0.00012298,0.00021421,-0
 .00000513,-0.00008921,0.00021981,0.00015644,-0.00000943,0.00006355,0.0
 0008874,0.00018488,-0.00000011,0.00001491,-0.00016818,-0.00004545,0.00
 000371,0.00000027,-0.00000144,0.00013571,0.00005671,-0.00021258,-0.000
 13436,0.00010320,0.00011241,-0.00005571,-0.00007391,0.00005272,0.02450
 026,-0.00339899,0.00628082,-0.06081416,0.05948732,0.00022717,0.0002164
 7,-0.00013582,0.00010569,-0.00024998,-0.00075083,0.00039621,-0.0005003
 4,0.00004757,-0.00022331,-0.00010908,0.00003079,0.00007886,0.00016650,
 -0.00009196,0.00003659,-0.00014310,0.00008820,-0.00114205,0.00063891,0
 .00134011,-0.00016933,0.00034429,0.00015084,-0.00179216,0.00039849,-0.
 00035680,0.00318565,-0.00028709,-0.00537003,-0.03851399,0.00925003,-0.
 01312403,0.00035990,0.00018794,-0.00001087,-0.00000858,-0.00023164,-0.
 00003678,0.00004449,0.00003375,-0.00051334,-0.00003613,-0.00007372,-0.
 00021230,0.00005107,-0.00001708,-0.00001947,0.00004424,-0.00003993,0.0
 0003101,-0.00013585,0.00022784,-0.00008017,0.00004671,-0.00018568,-0.0
 0019170,-0.00006022,0.00003706,0.00000664,-0.00001333,0.00000899,0.000
 00179,-0.00001039,0.00001667,0.00000921,0.00001266,0.00003107,0.000020
 67,-0.04204337,0.00966222,-0.05820326,-0.00076827,-0.00058813,0.001053
 97,-0.00009598,0.00011155,-0.00005520,-0.00006174,-0.00000867,-0.00003
 725,0.00013058,0.00017462,-0.00003033,-0.00007231,-0.00015561,0.000004
 79,0.00001483,0.00000995,-0.00000979,0.00005139,-0.00009130,-0.0000230
 0,-0.00001925,0.00008626,0.00002085,-0.00000357,0.00000662,0.00002867,
 0.01515145,-0.00164637,0.00437860,0.05764932,-0.01438057,0.06978436,-0
 .00018625,-0.00004392,0.00007407,-0.00005241,0.00014857,0.00001245,0.0
 0000847,-0.00029241,0.00004077,-0.00014126,0.00003671,-0.00008266,0.00
 002505,0.00009896,-0.00004440,0.00026785,-0.00001156,0.00004484,-0.000
 13202,-0.00039015,-0.00005519,0.00016319,0.00019990,0.00007079,-0.0000
 0743,-0.00000734,-0.00003963,0.00177655,0.00141930,-0.00077757,0.00183
 753,0.00430750,-0.00172495,0.00008657,-0.00000277,0.00012138,0.0000389
 1,-0.00027254,-0.00001678,-0.00000722,-0.00002449,0.00002834,-0.000028
 63,-0.00000374,0.00001917,-0.00008291,0.00006328,-0.00007299,-0.000012
 22,-0.00000838,0.00004402,-0.00010090,-0.00001142,-0.00003290,0.000049
 96,0.00021949,0.00047037,0.00001758,0.00001783,-0.00005912,0.00000985,
 0.00001103,-0.00000086,-0.00000862,0.00000497,0.00001136,0.00004752,0.
 00017564,0.00009508,-0.14592459,-0.12720889,0.04118370,0.00041597,0.00
 072758,-0.00119857,0.00001731,0.00006394,-0.00006249,-0.00004978,-0.00
 000552,-0.00002392,-0.00002223,-0.00006336,-0.00000645,-0.00001376,0.0
 0005621,0.00001878,0.00000117,0.00000046,0.00000042,-0.00005251,-0.000
 03519,0.00007195,0.00005264,-0.00003079,-0.00004198,0.00001909,0.00002
 898,-0.00001823,0.00593714,0.00844215,-0.00323241,-0.01322019,-0.02351
 750,0.00754828,0.14925760,0.00012096,0.00000203,-0.00000852,-0.0001116
 8,-0.00011162,0.00008348,-0.00004352,0.00004548,0.00008855,0.00003029,
 -0.00000580,0.00000453,-0.00000990,-0.00003961,0.00002384,-0.00010852,
 0.00005238,-0.00001162,0.00083146,0.00112942,-0.00098429,0.00008678,0.
 00016972,-0.00016163,0.00024559,0.00026824,-0.00008417,-0.00085897,-0.
 00025357,-0.00039670,-0.00256610,-0.00478027,0.00255004,-0.00020614,-0
 .00035919,0.00027110,0.00076988,0.00002254,0.00047708,0.00000746,0.000
 01164,0.00007266,0.00004642,-0.00003145,-0.00013431,-0.00002073,-0.000
 01111,-0.00008782,0.00001561,-0.00003099,0.00004520,-0.00004055,-0.000
 00215,-0.00001511,-0.00023827,0.00040937,0.00030970,0.00000493,-0.0000
 1599,-0.00001244,-0.00000558,-0.00000298,-0.00000564,0.00000370,0.0000
 0183,0.00000172,-0.00001218,-0.00002356,-0.00004253,-0.12474901,-0.213
 34319,0.05320819,0.00100979,0.00158628,0.00015587,0.00020816,-0.000004
 44,-0.00002309,-0.00013350,0.00003387,-0.00011544,0.00001123,0.0000042
 6,0.00000048,-0.00003176,0.00001298,0.00000849,0.00000507,0.00000339,-
 0.00000302,-0.00010696,-0.00001404,0.00002513,0.00003579,-0.00003695,-
 0.00002195,0.00001377,0.00001472,-0.00000726,-0.01562679,-0.01592705,0
 .00728210,0.00546184,0.00671911,-0.00291743,0.13591615,0.22452448,-0.0
 0005768,0.00018884,-0.00002131,-0.00014245,-0.00029041,-0.00004635,0.0
 0009444,0.00004945,0.00002161,-0.00000731,-0.00004037,0.00001969,0.000
 02783,-0.00001316,-0.00001652,-0.00003206,-0.00007353,0.00004435,0.000
 69916,0.00285951,0.00171401,-0.00028289,-0.00029712,0.00013972,-0.0000
 9039,-0.00027751,0.00029823,0.00289982,0.00002451,0.00113090,0.0223098
 0,0.03237316,-0.01941710,0.00109047,0.00150388,0.00005119,-0.00099579,
 -0.00022796,0.00016554,0.00000600,-0.00001869,-0.00004105,0.00001737,-
 0.00001403,0.00012690,-0.00000927,-0.00007350,0.00019455,-0.00006466,-
 0.00002319,-0.00003409,-0.00027336,-0.00007141,-0.00001534,-0.00034611
 ,-0.00100855,-0.00027779,-0.00005411,-0.00001038,0.00000803,-0.0000057
 4,-0.00000572,0.00000243,-0.00000324,0.00000048,0.00000316,0.00001719,
 -0.00005908,0.00000022,0.03407028,0.04470743,-0.06329000,-0.00309339,-
 0.00294328,-0.00516622,-0.00035841,0.00020248,-0.00021681,0.00010588,0
 .00000337,0.00009920,0.00002574,0.00004191,-0.00001769,-0.00000650,-0.
 00004464,0.00001340,0.00000327,0.00000341,-0.00000282,0.00013254,-0.00
 001306,0.00007876,-0.00000137,0.00003707,0.00000014,0.00003839,0.00002
 273,-0.00002902,-0.01042182,-0.01094979,0.00541857,-0.00286806,-0.0059
 6599,0.00223991,-0.04238090,-0.05961892,0.07687137,-0.00002634,-0.0004
 0859,0.00020401,-0.00008104,0.00015331,0.00002145,0.00009513,-0.000034
 98,0.00000383,-0.00003466,0.00003525,-0.00002477,0.00008630,-0.0000308
 4,-0.00000623,0.00003758,0.00027227,-0.00004700,0.00020108,-0.00014743
 ,-0.00025362,-0.00033071,-0.00026335,0.00034291,0.00025907,0.00029496,
 -0.00035089,-0.00066760,0.00027582,-0.00038179,0.00099415,0.00103087,-
 0.00013705,-0.00090577,0.00588794,-0.00773050,0.00011687,-0.00005170,0
 .00008622,0.00008201,0.00004242,0.00003992,-0.00087309,0.00004590,0.00
 041800,0.00014484,-0.00020112,-0.00011614,0.00013079,-0.00000496,-0.00
 002899,-0.00007448,0.00012846,-0.00031080,-0.00002256,0.00012009,0.000
 00366,0.00010059,-0.00016366,-0.00007475,-0.00001329,0.00000678,-0.000
 00438,0.00000785,0.00000743,-0.00000251,0.00000314,0.00002875,-0.00001
 145,0.00013869,0.00001689,0.00013961,-0.00176301,-0.00279699,0.0006646
 8,0.00165309,0.00030492,0.00031552,-0.00642018,-0.00134233,0.00353739,
 -0.00006154,-0.00027299,0.00006824,-0.00033552,0.00042140,-0.00000330,
 0.00010084,-0.00001848,0.00001391,-0.00099298,0.00015540,-0.00026970,0
 .00045471,-0.00049881,-0.00018136,-0.00000575,0.00005735,0.00014289,-0
 .00009757,-0.00003031,0.00002769,0.00002211,-0.00007706,0.00005875,0.0
 0000989,0.00007057,-0.00004850,0.26826133,-0.00003560,0.00017481,-0.00
 006185,-0.00008724,-0.00005048,0.00009531,-0.00000125,0.00009635,-0.00
 003893,0.00011005,0.00002122,-0.00001644,-0.00003936,-0.00007058,0.000
 02198,0.00017545,-0.00001106,0.00001643,-0.00012519,0.00007338,-0.0000
 7002,-0.00006420,0.00014452,0.00005855,-0.00043547,0.00010175,-0.00035
 338,0.00003476,-0.00025207,-0.00035349,-0.00018596,-0.00035117,0.00026
 688,0.00515250,-0.00098568,0.00703265,0.00001219,-0.00001511,0.0001583
 9,-0.00002630,-0.00038477,0.00021559,0.00018698,-0.00102205,0.00002974
 ,-0.00015350,0.00025560,0.00000607,0.00000219,-0.00007492,0.00003078,0
 .00011516,0.00003642,-0.00000243,0.00000489,-0.00003783,0.00003638,-0.
 00013859,0.00000036,0.00002201,0.00000833,-0.00001257,0.00000419,0.000
 01053,-0.00000613,-0.00000003,-0.00001230,0.00001618,-0.00000423,0.000
 02178,0.00000881,-0.00027631,0.00040518,0.00081526,-0.00029402,-0.0013
 9115,-0.00156951,0.00067456,0.00072115,-0.00373561,-0.00278698,-0.0001
 7363,-0.00018156,0.00001902,0.00016685,0.00019358,0.00000050,-0.000048
 82,-0.00005248,0.00001036,0.00062638,0.00072557,-0.00002915,-0.0000043
 6,-0.00007006,-0.00002008,0.00014136,-0.00018895,0.00003774,0.00000532
 ,0.00000635,-0.00000950,0.00001134,0.00000220,0.00002846,-0.00000655,-
 0.00001603,0.00001911,-0.18738570,0.45320503,-0.00002935,-0.00019343,0
 .00018285,-0.00000905,0.00014537,0.00005481,0.00004189,-0.00006067,0.0
 0002491,-0.00007654,-0.00000211,-0.00000912,0.00005034,0.00002525,-0.0
 0004901,-0.00007924,0.00015688,0.00005242,0.00003601,-0.00042194,-0.00
 046532,0.00008608,0.00017396,0.00003838,-0.00002621,0.00044322,0.00002
 048,-0.00026077,-0.00048282,-0.00022454,0.00087597,0.00121666,-0.00000
 823,-0.00809606,0.00772524,-0.00505032,0.00005083,0.00014597,0.0001540
 5,0.00003237,0.00011556,0.00002617,0.00039226,0.00002948,-0.00094898,-
 0.00015892,0.00010978,-0.00016619,-0.00000504,0.00006764,0.00002316,-0
 .00021346,-0.00017320,0.00035032,-0.00000342,0.00009007,0.00011462,0.0
 0014769,-0.00013523,-0.00023961,-0.00000997,0.00000824,-0.00001340,-0.
 00000209,0.00000435,-0.00000646,0.00000659,-0.00000057,-0.00001344,0.0
 0011128,-0.00000534,0.00021841,-0.00150916,-0.00279434,0.00058182,0.00
 239586,0.00173091,-0.00060152,0.00269076,-0.00473260,-0.00536284,0.000
 04002,-0.00002331,-0.00003640,-0.00027487,0.00017957,0.00021125,-0.000
 00468,0.00005284,-0.00006638,-0.00149052,-0.00019044,0.00022753,0.0003
 9395,-0.00044144,-0.00037910,0.00003914,0.00003270,0.00005622,-0.00005
 783,-0.00002534,0.00009632,-0.00000602,-0.00006459,0.00001681,0.000022
 70,0.00005949,-0.00004618,-0.27379268,-0.01971768,0.48348872,0.0000209
 3,0.00007289,-0.00004242,0.00000982,-0.00002888,0.00001192,-0.00001646
 ,0.00000940,-0.00000054,0.00000371,-0.00001016,0.00000543,-0.00002054,
 0.00001596,-0.00000246,-0.00002110,-0.00007798,0.00001241,-0.00004199,
 0.00001371,0.00000513,0.00002882,0.00009366,-0.00005416,-0.00021645,-0
 .00017613,0.00009326,0.00015689,-0.00015790,0.00000397,-0.00021203,-0.
 00012959,0.00008607,0.00004901,-0.00094084,-0.00034057,-0.00001267,0.0
 0000012,0.00002656,-0.00002591,-0.00013388,0.00002554,0.00043900,0.000
 05082,-0.00022625,-0.00004937,0.00007423,0.00001455,-0.00001807,-0.000
 00333,0.00000955,0.00009974,-0.00001358,0.00010021,0.00000169,-0.00002
 235,0.00000647,-0.00001188,0.00002992,0.00002277,0.00000354,0.00000005
 ,0.00000074,-0.00000111,-0.00000267,0.00000047,-0.00000116,-0.00000594
 ,0.00000266,-0.00002588,-0.00000416,-0.00002284,0.00029745,0.00051616,
 -0.00019985,-0.00016410,0.00024251,-0.00006312,-0.00102529,0.00212630,
 0.00071617,0.00003751,0.00009619,-0.00002088,0.00008871,-0.00015747,-0
 .00000688,-0.00002309,0.00001280,-0.00000510,0.00022399,-0.00026802,0.
 00004664,-0.00014861,0.00017623,0.00008711,-0.00006549,0.00005581,-0.0
 0006913,0.00002987,0.00000670,-0.00000289,-0.00000685,0.00001688,-0.00
 000714,0.00000149,-0.00001853,0.00000706,-0.14294861,0.20283137,0.0827
 4433,0.15355612,0.00000192,-0.00000841,0.00000442,0.00002256,0.0000260
 8,-0.00001408,-0.00000543,-0.00002439,0.00001120,-0.00002718,-0.000008
 19,0.00000334,0.00001015,0.00001620,-0.00000509,-0.00004638,-0.0000008
 1,-0.00000339,-0.00000901,-0.00003570,-0.00003233,0.00000117,0.0000861
 6,-0.00004408,-0.00020952,-0.00004558,-0.00004353,0.00012774,-0.000164
 72,-0.00001887,-0.00001422,0.00011457,-0.00002496,-0.00035582,0.000670
 68,-0.00041639,-0.00002683,0.00007458,0.00000676,-0.00000159,-0.000084
 86,0.00002831,0.00034726,-0.00016241,-0.00005734,-0.00001936,0.0000399
 2,0.00000340,-0.00001848,0.00001478,0.00000489,-0.00002612,-0.00003926
 ,0.00018927,0.00000438,0.00000201,0.00000297,0.00001549,0.00000103,-0.
 00000923,-0.00000207,0.00000278,-0.00000054,-0.00000323,0.00000209,-0.
 00000003,0.00000413,-0.00000613,0.00000188,-0.00001270,-0.00000666,0.0
 0008024,-0.00000580,-0.00009284,0.00000681,0.00023206,0.00010969,0.000
 23706,0.00061293,-0.00169313,0.00013227,0.00004186,0.00004034,-0.00000
 067,-0.00005315,-0.00004095,-0.00001214,0.00002227,0.00000997,0.000002
 85,-0.00010957,-0.00013874,-0.00004884,0.00000973,0.00001580,0.0000153
 7,-0.00003026,0.00006339,-0.00000544,0.00001016,-0.00000077,0.00001356
 ,-0.00000751,0.00000832,-0.00001199,0.00000342,0.00000181,-0.00000192,
 0.23290682,-0.38070750,-0.10919442,-0.22496104,0.37640912,0.00000566,-
 0.00003063,0.00000163,-0.00000414,-0.00001009,-0.00003175,0.00000485,0
 .00000051,-0.00000620,-0.00000125,0.00000347,0.00000165,-0.00000169,0.
 00000395,0.00000253,-0.00000257,-0.00000102,-0.00001608,0.00001851,0.0
 0006599,0.00008936,-0.00001935,-0.00005342,-0.00001952,0.00009259,0.00
 000950,0.00008541,-0.00012633,0.00024197,0.00015474,0.00003957,-0.0000
 3541,-0.00010381,-0.00075600,0.00019844,-0.00273391,0.00001792,-0.0000
 5571,-0.00004509,0.00000761,0.00002040,-0.00002608,-0.00011705,-0.0000
 1172,0.00005362,0.00003736,-0.00004847,-0.00001237,0.00001814,-0.00000
 020,-0.00001531,0.00001633,0.00007031,-0.00009552,-0.00000036,0.000004
 21,-0.00001629,0.00000929,0.00000161,0.00002158,-0.00000013,0.00000141
 ,0.00000210,0.,0.00000054,0.00000226,0.00000014,0.00000312,0.00000383,
 -0.00001208,0.00002235,0.00005404,-0.00008631,-0.00005035,0.00007483,0
 .00001750,0.00025387,-0.00009370,0.00045198,0.00108185,0.00465167,0.00
 000784,0.00000643,0.00000906,0.00001887,-0.00003166,-0.00004359,0.0000
 0914,-0.00000803,0.00001335,0.00005643,-0.00015852,-0.00011581,-0.0000
 6027,0.00005972,0.00006907,-0.00009417,0.00005153,0.00001395,-0.000006
 19,0.00000754,-0.00002457,0.00000218,-0.00000059,-0.00000380,-0.000000
 74,-0.00000394,-0.00001149,0.06397192,-0.06446818,-0.06585536,-0.08597
 209,0.09978152,0.07415967,0.00000020,0.00011872,-0.00002195,0.00003980
 ,-0.00004489,0.00000568,-0.00002441,-0.00000880,0.00000444,-0.00001690
 ,-0.00002120,0.00000999,-0.00003140,0.00003922,-0.00001968,-0.00005731
 ,-0.00009548,0.00004449,0.00002846,-0.00005152,-0.00001011,0.00009467,
 0.00001114,-0.00006159,0.00001039,-0.00012946,-0.00004947,0.00008035,0
 .00005163,0.00003149,-0.00004988,0.00000373,-0.00004303,-0.00243584,0.
 00109237,-0.00067962,-0.00001258,0.00001211,-0.00003150,-0.00001962,-0
 .00001820,0.00002298,-0.00004346,-0.00000412,0.00024863,0.00000363,0.0
 0002215,0.00001215,-0.00001678,-0.00000593,0.00001227,-0.00002089,0.00
 000083,0.00001050,-0.00000221,-0.00001009,0.00001675,0.00004004,0.0000
 3175,-0.00006357,0.00000426,0.00000222,-0.00000241,-0.00000448,-0.0000
 0210,0.00000081,-0.00000037,-0.00001355,0.00000319,-0.00001975,-0.0000
 0133,0.00002543,0.00006775,0.00007076,-0.00002055,0.00041830,0.0004354
 3,-0.00048996,0.00388408,-0.00160055,-0.00006095,0.00006734,0.00017962
 ,-0.00006221,0.00008983,-0.00020698,0.00011916,-0.00008058,0.00004960,
 -0.00004534,-0.00013980,-0.00022287,0.00033162,-0.00010896,0.00011671,
 -0.00009742,0.00000720,-0.00001400,-0.00005864,0.00001045,0.00000363,0
 .00000314,-0.00000570,0.00000529,-0.00001687,0.00000160,-0.00000675,-0
 .00000119,-0.11724535,-0.02042859,0.19594779,-0.00999163,-0.00842879,0
 .02245690,0.12547954,0.00002484,-0.00008881,0.00000014,0.00002460,0.00
 000910,-0.00003663,0.00000690,-0.00002743,0.00001017,-0.00003157,-0.00
 000508,0.00000506,0.00001907,0.00001999,0.00000661,-0.00005040,-0.0000
 0896,-0.00003542,0.00010479,0.00008751,0.00010759,-0.00021678,-0.00012
 006,0.00007174,-0.00007355,-0.00027739,-0.00008588,0.00002594,0.000191
 99,-0.00000065,-0.00007519,-0.00007837,-0.00009244,0.00104643,-0.00052
 362,-0.00001837,-0.00000669,-0.00002646,-0.00005397,0.00000231,-0.0000
 5455,0.00001515,-0.00021586,0.00018906,0.00058334,0.00019890,-0.000121
 75,0.00006885,0.00003875,-0.00000954,-0.00001862,0.00004442,0.00004516
 ,-0.00014454,-0.00000930,0.00000795,-0.00007186,0.00002232,0.00003066,
 0.00007504,-0.00000207,0.00000478,0.00000169,-0.00000191,0.00000209,0.
 00000178,0.00000266,-0.00000134,0.00000451,-0.00000611,-0.00001941,0.0
 0002945,0.00005577,0.00022406,-0.00001236,0.00002278,-0.00005068,0.000
 22075,-0.00222908,0.00055850,0.00016705,0.00006733,0.00006195,0.000015
 04,-0.00005288,-0.00010412,-0.00006680,0.00004205,0.00001897,0.0000147
 0,0.00008704,-0.00019860,-0.00003554,-0.00004850,0.00012176,0.00008698
 ,-0.00002251,0.00006556,-0.00003601,0.00000804,0.00000088,-0.00001731,
 -0.00000172,0.00000943,0.,-0.00000555,-0.00000359,0.00000489,-0.048534
 30,-0.06608127,0.12614627,0.02067074,0.00555173,-0.03692233,0.02906829
 ,0.06059990,-0.00000725,0.00007420,-0.00003617,-0.00000174,-0.00004725
 ,0.00000615,-0.00001053,0.00001617,-0.00000813,0.00002219,-0.00000329,
 -0.00000018,-0.00001918,-0.00000334,0.00000901,0.00002439,-0.00006033,
 -0.00001065,0.00000015,0.00007502,0.00007107,-0.00001629,-0.00002159,-
 0.00001914,0.00000879,-0.00016710,0.00001561,0.00002561,0.00004406,0.0
 0001366,-0.00012803,-0.00023145,0.00000515,-0.00055210,-0.00075346,0.0
 0081777,-0.00000604,-0.00002450,-0.00000650,-0.00002728,-0.00004016,0.
 00002039,-0.00001611,0.00021386,0.00012283,0.00001715,0.00004593,0.000
 07564,-0.00001323,-0.00005274,0.00001877,0.00001589,0.00001111,-0.0000
 3679,-0.00000065,-0.00001796,-0.00001167,-0.00003548,0.00005414,0.0000
 2468,0.00000421,-0.00000144,0.00000476,0.00000097,-0.00000167,0.000004
 34,-0.00000285,0.00000074,0.00000502,-0.00001384,-0.00000132,-0.000047
 18,0.00024137,0.00051058,-0.00013591,-0.00031185,0.00026255,-0.0003624
 3,0.00135949,0.00102641,-0.00240609,0.00000202,0.00004162,0.00000429,0
 .00012010,-0.00011312,-0.00006288,-0.00001106,-0.00000707,0.00002623,0
 .00029958,-0.00017816,0.00006290,-0.00019029,0.00018837,0.00011085,-0.
 00003817,0.00000493,-0.00003280,0.00001268,0.00000523,-0.00001819,0.00
 000131,0.00001379,0.00000193,-0.00000570,-0.00001183,0.00000789,0.2137
 1583,0.07971796,-0.40639684,0.00300730,0.00941914,-0.01019407,-0.21747
 135,-0.08998806,0.41835665\\0.00000301,-0.00000090,0.00000052,0.000000
 25,-0.00000147,-0.00000047,0.00000032,0.00000008,-0.00000167,0.0000025
 4,0.00000174,0.00000040,0.00000245,-0.00000068,0.00000099,-0.00000855,
 0.00000866,-0.00000751,0.00000036,0.00000553,0.00000779,0.00000091,-0.
 00000175,-0.00000116,0.00000014,-0.00000106,0.00000185,0.00000234,0.00
 000026,-0.00000204,-0.00000467,-0.00000936,-0.00001311,-0.00001374,-0.
 00000366,-0.00000147,0.00000029,-0.00000085,-0.00000014,0.00000028,0.0
 0000015,-0.00000131,-0.00000204,0.00000109,0.00000069,-0.00000027,-0.0
 0000198,-0.00000037,0.00000019,-0.00000088,-0.00000101,-0.00000172,-0.
 00000053,0.00000002,0.00000058,0.00000040,0.00000004,0.00000018,-0.000
 00073,-0.00000134,0.00000069,0.00000108,-0.00000017,0.00000144,0.00000
 056,-0.00000044,0.00000080,0.00000035,0.00000004,-0.00000042,-0.000000
 49,0.00000689,0.00000520,0.00000608,0.00000340,0.00001560,0.00000106,-
 0.00000042,0.00000402,0.00000104,0.00000419,0.00001607,-0.00000987,0.0
 0001590,-0.00001405,0.00000635,-0.00000800,-0.00000198,0.00000347,0.00
 000030,-0.00000942,0.00000105,0.00000155,0.00000542,-0.00000678,-0.000
 00345,-0.00000137,0.00000396,0.00000199,0.00000065,0.00000004,-0.00000
 064,0.00000046,-0.00000006,-0.00000036,0.00000035,-0.00000013,-0.00000
 038,-0.00000841,0.00000309,-0.00000580,-0.00000329,-0.00000033,0.00000
 549,0.00000542,-0.00000452,-0.00000079\\\@


 IT IS BETTER TO THINK YOU ARE HALF DRY THAN TO KNOW YOU
 ARE ALL WET.  -- SNOOPY
 Job cpu time:       1 days  8 hours  9 minutes  1.8 seconds.
 Elapsed time:       0 days  1 hours  8 minutes 56.4 seconds.
 File lengths (MBytes):  RWF=   1240 Int=      0 D2E=      0 Chk=     32 Scr=      8
 Normal termination of Gaussian 16 at Wed Feb  1 18:28:37 2023.
