 Entering Gaussian System, Link 0=g16
 Input=NicPyr4h2bPyBwB97XDaVDZOptFreq.gjf
 Output=NicPyr4h2bPyBwB97XDaVDZOptFreq.log
 Initial command:
 /sw/contrib/gaussian/g16/A03/g16/l1.exe "/gscratch/scrubbed/gds001/Gau-12396.inp" -scrdir="/gscratch/scrubbed/gds001/"
 Entering Link 1 = /sw/contrib/gaussian/g16/A03/g16/l1.exe PID=     12397.
  
 Copyright (c) 1988,1990,1992,1993,1995,1998,2003,2009,2016,
            Gaussian, Inc.  All Rights Reserved.
  
 This is part of the Gaussian(R) 16 program.  It is based on
 the Gaussian(R) 09 system (copyright 2009, Gaussian, Inc.),
 the Gaussian(R) 03 system (copyright 2003, Gaussian, Inc.),
 the Gaussian(R) 98 system (copyright 1998, Gaussian, Inc.),
 the Gaussian(R) 94 system (copyright 1995, Gaussian, Inc.),
 the Gaussian 92(TM) system (copyright 1992, Gaussian, Inc.),
 the Gaussian 90(TM) system (copyright 1990, Gaussian, Inc.),
 the Gaussian 88(TM) system (copyright 1988, Gaussian, Inc.),
 the Gaussian 86(TM) system (copyright 1986, Carnegie Mellon
 University), and the Gaussian 82(TM) system (copyright 1983,
 Carnegie Mellon University). Gaussian is a federally registered
 trademark of Gaussian, Inc.
  
 This software contains proprietary and confidential information,
 including trade secrets, belonging to Gaussian, Inc.
  
 This software is provided under written license and may be
 used, copied, transmitted, or stored only in accord with that
 written license.
  
 The following legend is applicable only to US Government
 contracts under FAR:
  
                    RESTRICTED RIGHTS LEGEND
  
 Use, reproduction and disclosure by the US Government is
 subject to restrictions as set forth in subparagraphs (a)
 and (c) of the Commercial Computer Software - Restricted
 Rights clause in FAR 52.227-19.
  
 Gaussian, Inc.
 340 Quinnipiac St., Bldg. 40, Wallingford CT 06492
  
  
 ---------------------------------------------------------------
 Warning -- This program may not be used in any manner that
 competes with the business of Gaussian, Inc. or will provide
 assistance to any competitor of Gaussian, Inc.  The licensee
 of this program is prohibited from giving any competitor of
 Gaussian, Inc. access to this program.  By using this program,
 the user acknowledges that Gaussian, Inc. is engaged in the
 business of creating and licensing software in the field of
 computational chemistry and represents and warrants to the
 licensee that it is not a competitor of Gaussian, Inc. and that
 it will not use this program in any manner prohibited above.
 ---------------------------------------------------------------
  

 Cite this work as:
 Gaussian 16, Revision A.03,
 M. J. Frisch, G. W. Trucks, H. B. Schlegel, G. E. Scuseria, 
 M. A. Robb, J. R. Cheeseman, G. Scalmani, V. Barone, 
 G. A. Petersson, H. Nakatsuji, X. Li, M. Caricato, A. V. Marenich, 
 J. Bloino, B. G. Janesko, R. Gomperts, B. Mennucci, H. P. Hratchian, 
 J. V. Ortiz, A. F. Izmaylov, J. L. Sonnenberg, D. Williams-Young, 
 F. Ding, F. Lipparini, F. Egidi, J. Goings, B. Peng, A. Petrone, 
 T. Henderson, D. Ranasinghe, V. G. Zakrzewski, J. Gao, N. Rega, 
 G. Zheng, W. Liang, M. Hada, M. Ehara, K. Toyota, R. Fukuda, 
 J. Hasegawa, M. Ishida, T. Nakajima, Y. Honda, O. Kitao, H. Nakai, 
 T. Vreven, K. Throssell, J. A. Montgomery, Jr., J. E. Peralta, 
 F. Ogliaro, M. J. Bearpark, J. J. Heyd, E. N. Brothers, K. N. Kudin, 
 V. N. Staroverov, T. A. Keith, R. Kobayashi, J. Normand, 
 K. Raghavachari, A. P. Rendell, J. C. Burant, S. S. Iyengar, 
 J. Tomasi, M. Cossi, J. M. Millam, M. Klene, C. Adamo, R. Cammi, 
 J. W. Ochterski, R. L. Martin, K. Morokuma, O. Farkas, 
 J. B. Foresman, and D. J. Fox, Gaussian, Inc., Wallingford CT, 2016.
 
 ******************************************
 Gaussian 16:  ES64L-G16RevA.03 25-Dec-2016
                 7-Nov-2022 
 ******************************************
 %nprocshared=28
 Will use up to   28 processors via shared memory.
 %mem=41GB
 -----------------------------
 # wB97XD/aug-cc-pVDZ opt freq
 -----------------------------
 1/18=20,19=15,26=3,38=1/1,3;
 2/9=110,12=2,17=6,18=5,40=1/2;
 3/5=16,7=10,11=2,25=1,30=1,71=1,74=-58/1,2,3;
 4//1;
 5/5=2,38=5/2;
 6/7=2,8=2,9=2,10=2,28=1/1;
 7//1,2,3,16;
 1/18=20,19=15,26=3/3(2);
 2/9=110/2;
 99//99;
 2/9=110/2;
 3/5=16,7=10,11=2,25=1,30=1,71=1,74=-58/1,2,3;
 4/5=5,16=3,69=1/1;
 5/5=2,38=5/2;
 7//1,2,3,16;
 1/18=20,19=15,26=3/3(-5);
 2/9=110/2;
 6/7=2,8=2,9=2,10=2,19=2,28=1/1;
 99/9=1/99;
 ----
 blah
 ----
 Symbolic Z-matrix:
 Charge =  1 Multiplicity = 1
 C                     1.17292   0.12149  -0.65848 
 C                     0.52221  -1.03977  -0.24318 
 C                     1.30713  -2.07174   0.27113 
 C                     2.68496  -1.89437   0.35358 
 C                     3.2266   -0.67477  -0.04768 
 N                     2.48474   0.32225  -0.54198 
 C                    -0.97975  -1.12396  -0.30444 
 C                    -1.65672  -0.78192  -1.65191 
 C                    -2.82446   0.17189  -1.31461 
 C                    -3.00775   0.03112   0.19131 
 N                    -1.61069  -0.15752   0.68153 
 O                    -0.62499   2.39879   0.63229 
 H                    -3.57811  -0.86627   0.46295 
 H                    -3.74336  -0.07534  -1.85366 
 H                    -2.55874   1.20726  -1.55787 
 H                    -0.94835  -0.31972  -2.34531 
 H                    -2.00904  -1.70606  -2.12087 
 H                    -3.44781   0.90289   0.68523 
 H                    -1.30158  -2.11727   0.03398 
 H                     0.60702   0.94938  -1.09028 
 H                     4.29751  -0.48741   0.03378 
 H                     3.33172  -2.68028   0.73876 
 H                     0.85054  -3.00544   0.6031 
 C                    -1.49683  -0.57481   2.09547 
 H                    -1.14199   0.77831   0.60501 
 H                    -1.01503   3.11754   1.13482 
 H                     0.28462   2.69505   0.39556 
 O                     1.90324   3.02746  -0.05653 
 H                     2.44794   2.26522  -0.3266 
 H                     2.29567   3.81491  -0.43909 
 H                    -1.95963   0.18842   2.72786 
 H                    -0.43752  -0.66947   2.35175 
 H                    -2.00787  -1.53384   2.23076 
 O                     3.16855   5.11247  -1.23354 
 H                     3.78156   5.71375  -0.74291 
 H                     3.28739   5.46118  -2.13409 
 O                     4.94537   6.91969  -0.2495 
 H                     5.88929   6.7821   -0.05186 
 H                     4.80423   7.83461   0.05362 
 
 Add virtual bond connecting atoms H25        and O12        Dist= 3.21D+00.
 Add virtual bond connecting atoms O28        and H27        Dist= 3.24D+00.
 Add virtual bond connecting atoms O37        and H35        Dist= 3.30D+00.
 Add virtual bond connecting atoms O34        and H30        Dist= 3.31D+00.

 GradGradGradGradGradGradGradGradGradGradGradGradGradGradGradGradGradGrad
 Berny optimization.
 Initialization pass.
                           ----------------------------
                           !    Initial Parameters    !
                           ! (Angstroms and Degrees)  !
 --------------------------                            --------------------------
 ! Name  Definition              Value          Derivative Info.                !
 --------------------------------------------------------------------------------
 ! R1    R(1,2)                  1.3944         estimate D2E/DX2                !
 ! R2    R(1,6)                  1.3322         estimate D2E/DX2                !
 ! R3    R(1,20)                 1.0918         estimate D2E/DX2                !
 ! R4    R(2,3)                  1.3948         estimate D2E/DX2                !
 ! R5    R(2,7)                  1.5056         estimate D2E/DX2                !
 ! R6    R(3,4)                  1.3916         estimate D2E/DX2                !
 ! R7    R(3,23)                 1.0911         estimate D2E/DX2                !
 ! R8    R(4,5)                  1.3935         estimate D2E/DX2                !
 ! R9    R(4,22)                 1.0883         estimate D2E/DX2                !
 ! R10   R(5,6)                  1.3374         estimate D2E/DX2                !
 ! R11   R(5,21)                 1.0902         estimate D2E/DX2                !
 ! R12   R(7,8)                  1.5463         estimate D2E/DX2                !
 ! R13   R(7,11)                 1.518          estimate D2E/DX2                !
 ! R14   R(7,19)                 1.0976         estimate D2E/DX2                !
 ! R15   R(8,9)                  1.545          estimate D2E/DX2                !
 ! R16   R(8,16)                 1.0937         estimate D2E/DX2                !
 ! R17   R(8,17)                 1.0946         estimate D2E/DX2                !
 ! R18   R(9,10)                 1.5236         estimate D2E/DX2                !
 ! R19   R(9,14)                 1.0936         estimate D2E/DX2                !
 ! R20   R(9,15)                 1.0963         estimate D2E/DX2                !
 ! R21   R(10,11)                1.4925         estimate D2E/DX2                !
 ! R22   R(10,13)                1.0974         estimate D2E/DX2                !
 ! R23   R(10,18)                1.0943         estimate D2E/DX2                !
 ! R24   R(11,24)                1.4786         estimate D2E/DX2                !
 ! R25   R(11,25)                1.0494         estimate D2E/DX2                !
 ! R26   R(12,25)                1.7012         estimate D2E/DX2                !
 ! R27   R(12,26)                0.9598         estimate D2E/DX2                !
 ! R28   R(12,27)                0.9855         estimate D2E/DX2                !
 ! R29   R(24,31)                1.0939         estimate D2E/DX2                !
 ! R30   R(24,32)                1.094          estimate D2E/DX2                !
 ! R31   R(24,33)                1.0951         estimate D2E/DX2                !
 ! R32   R(27,28)                1.7131         estimate D2E/DX2                !
 ! R33   R(28,29)                0.975          estimate D2E/DX2                !
 ! R34   R(28,30)                0.9594         estimate D2E/DX2                !
 ! R35   R(30,34)                1.7541         estimate D2E/DX2                !
 ! R36   R(34,35)                0.989          estimate D2E/DX2                !
 ! R37   R(34,36)                0.973          estimate D2E/DX2                !
 ! R38   R(35,37)                1.7471         estimate D2E/DX2                !
 ! R39   R(37,38)                0.9742         estimate D2E/DX2                !
 ! R40   R(37,39)                0.9741         estimate D2E/DX2                !
 ! A1    A(2,1,6)              123.9846         estimate D2E/DX2                !
 ! A2    A(2,1,20)             120.4903         estimate D2E/DX2                !
 ! A3    A(6,1,20)             115.5109         estimate D2E/DX2                !
 ! A4    A(1,2,3)              117.6038         estimate D2E/DX2                !
 ! A5    A(1,2,7)              119.9986         estimate D2E/DX2                !
 ! A6    A(3,2,7)              122.3453         estimate D2E/DX2                !
 ! A7    A(2,3,4)              118.9922         estimate D2E/DX2                !
 ! A8    A(2,3,23)             120.652          estimate D2E/DX2                !
 ! A9    A(4,3,23)             120.3558         estimate D2E/DX2                !
 ! A10   A(3,4,5)              118.6416         estimate D2E/DX2                !
 ! A11   A(3,4,22)             121.1532         estimate D2E/DX2                !
 ! A12   A(5,4,22)             120.1966         estimate D2E/DX2                !
 ! A13   A(4,5,6)              122.9062         estimate D2E/DX2                !
 ! A14   A(4,5,21)             120.7103         estimate D2E/DX2                !
 ! A15   A(6,5,21)             116.3831         estimate D2E/DX2                !
 ! A16   A(1,6,5)              117.7867         estimate D2E/DX2                !
 ! A17   A(2,7,8)              117.3775         estimate D2E/DX2                !
 ! A18   A(2,7,11)             110.6477         estimate D2E/DX2                !
 ! A19   A(2,7,19)             109.3025         estimate D2E/DX2                !
 ! A20   A(8,7,11)             104.0766         estimate D2E/DX2                !
 ! A21   A(8,7,19)             109.9074         estimate D2E/DX2                !
 ! A22   A(11,7,19)            104.7158         estimate D2E/DX2                !
 ! A23   A(7,8,9)              106.0937         estimate D2E/DX2                !
 ! A24   A(7,8,16)             111.2479         estimate D2E/DX2                !
 ! A25   A(7,8,17)             109.1183         estimate D2E/DX2                !
 ! A26   A(9,8,16)             111.5328         estimate D2E/DX2                !
 ! A27   A(9,8,17)             111.8059         estimate D2E/DX2                !
 ! A28   A(16,8,17)            107.076          estimate D2E/DX2                !
 ! A29   A(8,9,10)             104.4582         estimate D2E/DX2                !
 ! A30   A(8,9,14)             112.8223         estimate D2E/DX2                !
 ! A31   A(8,9,15)             110.573          estimate D2E/DX2                !
 ! A32   A(10,9,14)            111.421          estimate D2E/DX2                !
 ! A33   A(10,9,15)            109.6191         estimate D2E/DX2                !
 ! A34   A(14,9,15)            107.9262         estimate D2E/DX2                !
 ! A35   A(9,10,11)            102.927          estimate D2E/DX2                !
 ! A36   A(9,10,13)            112.5028         estimate D2E/DX2                !
 ! A37   A(9,10,18)            114.8903         estimate D2E/DX2                !
 ! A38   A(11,10,13)           107.5672         estimate D2E/DX2                !
 ! A39   A(11,10,18)           109.1982         estimate D2E/DX2                !
 ! A40   A(13,10,18)           109.3112         estimate D2E/DX2                !
 ! A41   A(7,11,10)            104.8441         estimate D2E/DX2                !
 ! A42   A(7,11,24)            114.1696         estimate D2E/DX2                !
 ! A43   A(7,11,25)            109.5574         estimate D2E/DX2                !
 ! A44   A(10,11,24)           114.9496         estimate D2E/DX2                !
 ! A45   A(10,11,25)           106.3435         estimate D2E/DX2                !
 ! A46   A(24,11,25)           106.6781         estimate D2E/DX2                !
 ! A47   A(25,12,26)           126.7417         estimate D2E/DX2                !
 ! A48   A(25,12,27)           124.2647         estimate D2E/DX2                !
 ! A49   A(26,12,27)           106.0053         estimate D2E/DX2                !
 ! A50   A(11,24,31)           108.8645         estimate D2E/DX2                !
 ! A51   A(11,24,32)           108.8444         estimate D2E/DX2                !
 ! A52   A(11,24,33)           109.2297         estimate D2E/DX2                !
 ! A53   A(31,24,32)           109.5486         estimate D2E/DX2                !
 ! A54   A(31,24,33)           110.0095         estimate D2E/DX2                !
 ! A55   A(32,24,33)           110.3141         estimate D2E/DX2                !
 ! A56   A(27,28,29)           116.6953         estimate D2E/DX2                !
 ! A57   A(27,28,30)           130.6143         estimate D2E/DX2                !
 ! A58   A(29,28,30)           107.6199         estimate D2E/DX2                !
 ! A59   A(30,34,35)           122.2444         estimate D2E/DX2                !
 ! A60   A(30,34,36)           138.1671         estimate D2E/DX2                !
 ! A61   A(35,34,36)            99.5299         estimate D2E/DX2                !
 ! A62   A(35,37,38)           127.2496         estimate D2E/DX2                !
 ! A63   A(35,37,39)           129.7691         estimate D2E/DX2                !
 ! A64   A(38,37,39)           102.1172         estimate D2E/DX2                !
 ! A65   L(11,25,12,1,-1)      190.2522         estimate D2E/DX2                !
 ! A66   L(12,27,28,1,-1)      173.6638         estimate D2E/DX2                !
 ! A67   L(28,30,34,21,-1)     172.7566         estimate D2E/DX2                !
 ! A68   L(34,35,37,21,-1)     187.0949         estimate D2E/DX2                !
 ! A69   L(11,25,12,1,-2)      180.3874         estimate D2E/DX2                !
 ! A70   L(12,27,28,1,-2)      180.7833         estimate D2E/DX2                !
 ! A71   L(28,30,34,21,-2)     177.4225         estimate D2E/DX2                !
 ! A72   L(34,35,37,21,-2)     166.4249         estimate D2E/DX2                !
 ! D1    D(6,1,2,3)             -2.884          estimate D2E/DX2                !
 ! D2    D(6,1,2,7)            174.5472         estimate D2E/DX2                !
 ! D3    D(20,1,2,3)           178.5457         estimate D2E/DX2                !
 ! D4    D(20,1,2,7)            -4.023          estimate D2E/DX2                !
 ! D5    D(2,1,6,5)              2.9108         estimate D2E/DX2                !
 ! D6    D(20,1,6,5)          -178.4543         estimate D2E/DX2                !
 ! D7    D(1,2,3,4)              0.4182         estimate D2E/DX2                !
 ! D8    D(1,2,3,23)          -179.4924         estimate D2E/DX2                !
 ! D9    D(7,2,3,4)           -176.9485         estimate D2E/DX2                !
 ! D10   D(7,2,3,23)             3.1408         estimate D2E/DX2                !
 ! D11   D(1,2,7,8)             52.3863         estimate D2E/DX2                !
 ! D12   D(1,2,7,11)           -66.8122         estimate D2E/DX2                !
 ! D13   D(1,2,7,19)           178.3777         estimate D2E/DX2                !
 ! D14   D(3,2,7,8)           -130.3082         estimate D2E/DX2                !
 ! D15   D(3,2,7,11)           110.4932         estimate D2E/DX2                !
 ! D16   D(3,2,7,19)            -4.3169         estimate D2E/DX2                !
 ! D17   D(2,3,4,5)              1.7499         estimate D2E/DX2                !
 ! D18   D(2,3,4,22)          -179.3191         estimate D2E/DX2                !
 ! D19   D(23,3,4,5)          -178.3392         estimate D2E/DX2                !
 ! D20   D(23,3,4,22)            0.5918         estimate D2E/DX2                !
 ! D21   D(3,4,5,6)             -1.7989         estimate D2E/DX2                !
 ! D22   D(3,4,5,21)           177.9485         estimate D2E/DX2                !
 ! D23   D(22,4,5,6)           179.2595         estimate D2E/DX2                !
 ! D24   D(22,4,5,21)           -0.9931         estimate D2E/DX2                !
 ! D25   D(4,5,6,1)             -0.4913         estimate D2E/DX2                !
 ! D26   D(21,5,6,1)           179.7511         estimate D2E/DX2                !
 ! D27   D(2,7,8,9)           -133.1138         estimate D2E/DX2                !
 ! D28   D(2,7,8,16)           -11.6438         estimate D2E/DX2                !
 ! D29   D(2,7,8,17)           106.276          estimate D2E/DX2                !
 ! D30   D(11,7,8,9)           -10.4818         estimate D2E/DX2                !
 ! D31   D(11,7,8,16)          110.9882         estimate D2E/DX2                !
 ! D32   D(11,7,8,17)         -131.092          estimate D2E/DX2                !
 ! D33   D(19,7,8,9)           101.1931         estimate D2E/DX2                !
 ! D34   D(19,7,8,16)         -137.3369         estimate D2E/DX2                !
 ! D35   D(19,7,8,17)          -19.4171         estimate D2E/DX2                !
 ! D36   D(2,7,11,10)          159.9561         estimate D2E/DX2                !
 ! D37   D(2,7,11,24)          -73.3701         estimate D2E/DX2                !
 ! D38   D(2,7,11,25)           46.1847         estimate D2E/DX2                !
 ! D39   D(8,7,11,10)           33.0061         estimate D2E/DX2                !
 ! D40   D(8,7,11,24)          159.6799         estimate D2E/DX2                !
 ! D41   D(8,7,11,25)          -80.7653         estimate D2E/DX2                !
 ! D42   D(19,7,11,10)         -82.3857         estimate D2E/DX2                !
 ! D43   D(19,7,11,24)          44.2881         estimate D2E/DX2                !
 ! D44   D(19,7,11,25)         163.843          estimate D2E/DX2                !
 ! D45   D(7,8,9,10)           -15.0835         estimate D2E/DX2                !
 ! D46   D(7,8,9,14)          -136.2617         estimate D2E/DX2                !
 ! D47   D(7,8,9,15)           102.7655         estimate D2E/DX2                !
 ! D48   D(16,8,9,10)         -136.3705         estimate D2E/DX2                !
 ! D49   D(16,8,9,14)          102.4513         estimate D2E/DX2                !
 ! D50   D(16,8,9,15)          -18.5215         estimate D2E/DX2                !
 ! D51   D(17,8,9,10)          103.7707         estimate D2E/DX2                !
 ! D52   D(17,8,9,14)          -17.4075         estimate D2E/DX2                !
 ! D53   D(17,8,9,15)         -138.3803         estimate D2E/DX2                !
 ! D54   D(8,9,10,11)           35.3663         estimate D2E/DX2                !
 ! D55   D(8,9,10,13)          -80.119          estimate D2E/DX2                !
 ! D56   D(8,9,10,18)          153.9493         estimate D2E/DX2                !
 ! D57   D(14,9,10,11)         157.469          estimate D2E/DX2                !
 ! D58   D(14,9,10,13)          41.9837         estimate D2E/DX2                !
 ! D59   D(14,9,10,18)         -83.948          estimate D2E/DX2                !
 ! D60   D(15,9,10,11)         -83.1342         estimate D2E/DX2                !
 ! D61   D(15,9,10,13)         161.3804         estimate D2E/DX2                !
 ! D62   D(15,9,10,18)          35.4487         estimate D2E/DX2                !
 ! D63   D(9,10,11,7)          -42.8679         estimate D2E/DX2                !
 ! D64   D(9,10,11,24)        -169.0587         estimate D2E/DX2                !
 ! D65   D(9,10,11,25)          73.1475         estimate D2E/DX2                !
 ! D66   D(13,10,11,7)          76.1155         estimate D2E/DX2                !
 ! D67   D(13,10,11,24)        -50.0753         estimate D2E/DX2                !
 ! D68   D(13,10,11,25)       -167.8691         estimate D2E/DX2                !
 ! D69   D(18,10,11,7)        -165.3596         estimate D2E/DX2                !
 ! D70   D(18,10,11,24)         68.4495         estimate D2E/DX2                !
 ! D71   D(18,10,11,25)        -49.3443         estimate D2E/DX2                !
 ! D72   D(7,11,12,26)         172.6129         estimate D2E/DX2                !
 ! D73   D(7,11,12,27)         -29.8962         estimate D2E/DX2                !
 ! D74   D(10,11,12,26)         59.3195         estimate D2E/DX2                !
 ! D75   D(10,11,12,27)       -143.1895         estimate D2E/DX2                !
 ! D76   D(24,11,12,26)        -60.8878         estimate D2E/DX2                !
 ! D77   D(24,11,12,27)         96.6032         estimate D2E/DX2                !
 ! D78   D(7,11,24,31)         178.9007         estimate D2E/DX2                !
 ! D79   D(7,11,24,32)          59.5443         estimate D2E/DX2                !
 ! D80   D(7,11,24,33)         -60.9567         estimate D2E/DX2                !
 ! D81   D(10,11,24,31)        -59.8677         estimate D2E/DX2                !
 ! D82   D(10,11,24,32)       -179.2241         estimate D2E/DX2                !
 ! D83   D(10,11,24,33)         60.2748         estimate D2E/DX2                !
 ! D84   D(25,11,24,31)         57.7373         estimate D2E/DX2                !
 ! D85   D(25,11,24,32)        -61.6192         estimate D2E/DX2                !
 ! D86   D(25,11,24,33)        177.8798         estimate D2E/DX2                !
 ! D87   D(25,12,28,29)          1.2595         estimate D2E/DX2                !
 ! D88   D(25,12,28,30)        151.5333         estimate D2E/DX2                !
 ! D89   D(26,12,28,29)        162.531          estimate D2E/DX2                !
 ! D90   D(26,12,28,30)        -47.1952         estimate D2E/DX2                !
 ! D91   D(27,28,34,35)        108.6292         estimate D2E/DX2                !
 ! D92   D(27,28,34,36)        -79.2506         estimate D2E/DX2                !
 ! D93   D(29,28,34,35)       -100.3259         estimate D2E/DX2                !
 ! D94   D(29,28,34,36)         71.7943         estimate D2E/DX2                !
 ! D95   D(30,34,37,38)         78.9827         estimate D2E/DX2                !
 ! D96   D(30,34,37,39)        -96.1641         estimate D2E/DX2                !
 ! D97   D(36,34,37,38)        -97.9787         estimate D2E/DX2                !
 ! D98   D(36,34,37,39)         86.8745         estimate D2E/DX2                !
 --------------------------------------------------------------------------------
 Trust Radius=3.00D-01 FncErr=1.00D-07 GrdErr=1.00D-06 EigMax=2.50D+02 EigMin=1.00D-04
 Number of steps in this run=    220 maximum allowed number of steps=    234.
 GradGradGradGradGradGradGradGradGradGradGradGradGradGradGradGradGradGrad

                          Input orientation:                          
 ---------------------------------------------------------------------
 Center     Atomic      Atomic             Coordinates (Angstroms)
 Number     Number       Type             X           Y           Z
 ---------------------------------------------------------------------
      1          6           0        1.172915    0.121486   -0.658481
      2          6           0        0.522205   -1.039773   -0.243176
      3          6           0        1.307127   -2.071745    0.271133
      4          6           0        2.684958   -1.894367    0.353582
      5          6           0        3.226600   -0.674765   -0.047680
      6          7           0        2.484739    0.322251   -0.541982
      7          6           0       -0.979752   -1.123957   -0.304442
      8          6           0       -1.656716   -0.781916   -1.651907
      9          6           0       -2.824463    0.171892   -1.314606
     10          6           0       -3.007755    0.031120    0.191314
     11          7           0       -1.610690   -0.157521    0.681529
     12          8           0       -0.624994    2.398791    0.632286
     13          1           0       -3.578114   -0.866265    0.462950
     14          1           0       -3.743356   -0.075338   -1.853655
     15          1           0       -2.558737    1.207259   -1.557872
     16          1           0       -0.948351   -0.319717   -2.345309
     17          1           0       -2.009044   -1.706061   -2.120872
     18          1           0       -3.447805    0.902893    0.685228
     19          1           0       -1.301577   -2.117266    0.033981
     20          1           0        0.607023    0.949376   -1.090281
     21          1           0        4.297508   -0.487411    0.033784
     22          1           0        3.331717   -2.680277    0.738756
     23          1           0        0.850539   -3.005436    0.603095
     24          6           0       -1.496831   -0.574810    2.095471
     25          1           0       -1.141989    0.778314    0.605014
     26          1           0       -1.015034    3.117539    1.134816
     27          1           0        0.284617    2.695054    0.395555
     28          8           0        1.903238    3.027458   -0.056530
     29          1           0        2.447936    2.265218   -0.326598
     30          1           0        2.295670    3.814909   -0.439093
     31          1           0       -1.959628    0.188424    2.727859
     32          1           0       -0.437522   -0.669468    2.351750
     33          1           0       -2.007875   -1.533840    2.230762
     34          8           0        3.168548    5.112467   -1.233538
     35          1           0        3.781556    5.713752   -0.742915
     36          1           0        3.287385    5.461175   -2.134092
     37          8           0        4.945370    6.919688   -0.249503
     38          1           0        5.889291    6.782099   -0.051858
     39          1           0        4.804235    7.834606    0.053622
 ---------------------------------------------------------------------
                    Distance matrix (angstroms):
                    1          2          3          4          5
     1  C    0.000000
     2  C    1.394426   0.000000
     3  C    2.385887   1.394841   0.000000
     4  C    2.715549   2.400823   1.391646   0.000000
     5  C    2.285764   2.735910   2.395323   1.393491   0.000000
     6  N    1.332201   2.407475   2.789111   2.399066   1.337435
     7  C    2.512060   1.505561   2.541536   3.802187   4.238053
     8  C    3.132067   2.607434   3.761131   4.910160   5.141187
     9  C    4.051182   3.717026   4.961704   6.116044   6.239975
    10  C    4.267121   3.714325   4.800689   6.011723   6.278740
    11  N    3.101923   2.486501   3.513735   4.645081   4.919214
    12  O    3.175638   3.729105   4.883566   5.428136   4.974322
    13  H    4.980516   4.164293   5.035430   6.347836   6.826533
    14  H    5.063290   4.660342   5.831616   7.035907   7.225036
    15  H    3.989114   4.033582   5.389066   6.385145   6.268398
    16  H    2.745873   2.664579   3.873313   4.792126   4.778637
    17  H    3.950111   3.221320   4.105168   5.309617   5.724829
    18  H    4.875162   4.516289   5.623995   6.748736   6.897379
    19  H    3.408024   2.136349   2.619857   4.005532   4.753090
    20  H    1.091827   2.163676   3.386852   3.806498   3.253772
    21  H    3.257770   3.825536   3.392466   2.163819   1.090221
    22  H    3.802969   3.398353   2.165167   1.088260   2.156759
    23  H    3.387203   2.165135   1.091078   2.159126   3.391342
    24  C    3.898285   3.124415   3.664861   4.718344   5.187860
    25  H    2.717834   2.606609   3.772596   4.674609   4.649948
    26  H    4.120603   4.641682   5.750396   6.278493   5.811310
    27  H    2.919472   3.796493   4.876821   5.179400   4.495264
    28  O    3.056205   4.299355   5.144374   5.000364   3.931643
    29  H    2.516230   3.826012   4.524155   4.221489   3.054114
    30  H    3.866534   5.172185   6.011184   5.777172   4.601848
    31  H    4.613524   4.061405   4.670712   5.616706   5.945223
    32  H    3.504370   2.791387   3.056002   3.904220   4.379850
    33  H    4.604916   3.572923   3.888281   5.067195   5.773131
    34  O    5.405843   6.770082   7.572439   7.200592   5.907765
    35  H    6.171351   7.515531   8.231953   7.764554   6.450153
    36  H    5.929645   7.313283   8.151774   7.788160   6.481248
    37  O    7.785515   9.105902   9.713586   9.119251   7.789135
    38  H    8.183884   9.488092   9.974523   9.258142   7.918002
    39  H    8.554869   9.857914  10.507752   9.961637   8.654974
                    6          7          8          9         10
     6  N    0.000000
     7  C    3.761734   0.000000
     8  C    4.427501   1.546265   0.000000
     9  C    5.367232   2.470347   1.545042   0.000000
    10  C    5.548871   2.385953   2.425654   1.523551   0.000000
    11  N    4.301128   1.517966   2.415970   2.359303   1.492544
    12  O    3.919357   3.662385   4.049554   3.686073   3.387901
    13  H    6.259444   2.721540   2.858584   2.192137   1.097449
    14  H    6.377126   3.337240   2.212243   1.093646   2.175854
    15  H    5.220337   3.082020   2.186161   1.096254   2.155127
    16  H    3.930677   2.193838   1.093716   2.196321   3.286136
    17  H    5.176971   2.167419   1.094581   2.200382   3.059645
    18  H    6.085907   3.343479   3.392459   2.218615   1.094341
    19  H    4.540833   1.097618   2.179794   3.062370   2.747974
    20  H    2.054199   2.726556   2.904705   3.525606   3.943640
    21  H    2.067170   5.326261   6.195246   7.278414   7.325337
    22  H    3.372364   4.700974   5.848377   7.088703   6.916666
    23  H    3.880117   2.777328   4.039233   5.222895   4.927136
    24  C    4.859401   2.515654   3.756501   3.734809   2.505166
    25  H    3.831025   2.114726   2.791586   2.623625   2.051957
    26  H    4.782645   4.479174   4.835631   4.236807   3.793035
    27  H    3.368933   4.083316   4.477744   4.354007   4.240044
    28  O    2.809262   5.060369   5.452507   5.664642   5.758239
    29  H    1.955215   4.820378   5.281064   5.758156   5.918107
    30  H    3.499285   5.927809   6.182481   6.344593   6.545288
    31  H    5.519254   3.446353   4.496183   4.133973   2.749068
    32  H    4.230461   2.748805   4.186687   4.455058   3.429928
    33  H    5.596138   2.766279   3.970368   4.018205   2.758298
    34  O    4.887946   7.547490   7.629021   7.767370   8.123855
    35  H    5.548909   8.343655   8.520256   8.641674   8.902799
    36  H    5.439448   8.057298   7.978272   8.124209   8.632601
    37  O    7.047441   9.990512  10.240556  10.345893  10.530854
    38  H    7.318527  10.476320  10.803551  11.009945  11.171047
    39  H    7.884813  10.669515  10.903997  10.898911  11.042669
                   11         12         13         14         15
    11  N    0.000000
    12  O    2.740210   0.000000
    13  H    2.102582   4.405699   0.000000
    14  H    3.313937   4.693122   2.453473   0.000000
    15  H    2.788608   3.155298   3.069585   1.770837   0.000000
    16  H    3.102700   4.044863   3.885960   2.848420   2.354794
    17  H    3.226471   5.132766   3.137415   2.395517   3.017709
    18  H    2.121198   3.195117   1.787822   2.736825   2.431991
    19  H    2.086976   4.605486   2.632801   3.700665   3.894472
    20  H    3.046766   2.566302   4.819175   4.534157   3.210480
    21  H    5.952748   5.737542   7.896400   8.269687   7.239708
    22  H    5.549321   6.439241   7.149299   7.972638   7.421919
    23  H    3.764893   5.602117   4.920230   5.977037   5.834359
    24  C    1.478623   3.426852   2.661167   4.570771   4.201230
    25  H    1.049439   1.701168   2.942707   3.679794   2.620924
    26  H    3.359508   0.959826   4.784504   5.154528   3.644552
    27  H    3.436736   0.985498   5.254353   5.381318   3.756870
    28  O    4.799637   2.694744   6.743601   6.688873   5.047413
    29  H    4.833056   3.221832   6.836874   6.792805   5.263277
    30  H    5.682925   3.418117   7.564946   7.321533   5.622879
    31  H    2.104496   3.325417   2.976857   4.923568   4.445722
    32  H    2.104293   3.522203   3.670097   5.382096   4.827712
    33  H    2.110008   4.464647   2.456922   4.671358   4.708590
    34  O    7.367589   5.023574   9.172827   8.664427   6.939571
    35  H    8.097975   5.683118   9.945626   9.558850   7.821250
    36  H    7.967974   5.686630   9.691038   8.953376   7.252929
    37  O    9.692040   7.228072  11.566263  11.269324   9.521308
    38  H   10.244311   7.881456  12.181718  11.960719  10.233089
    39  H   10.267405   7.704509  12.088692  11.801111  10.036533
                   16         17         18         19         20
    16  H    0.000000
    17  H    1.759941   0.000000
    18  H    4.114146   4.092783   0.000000
    19  H    3.002827   2.304993   3.761885   0.000000
    20  H    2.367463   3.867463   4.426762   3.782990   0.000000
    21  H    5.762572   6.774972   7.896024   5.831482   4.116741
    22  H    5.779505   6.135984   7.668370   4.720286   4.893232
    23  H    4.375177   4.157594   5.810124   2.396735   4.308986
    24  C    4.481789   4.395411   2.824658   2.582060   4.110762
    25  H    3.153977   3.788715   2.310572   2.955661   2.441788
    26  H    4.891875   5.903785   3.320416   5.356970   3.504719
    27  H    4.256923   5.564450   4.150509   5.079879   2.314961
    28  O    4.957182   6.478708   5.804967   6.061948   2.658428
    29  H    4.721424   6.233390   6.135103   5.778843   2.388224
    30  H    5.590390   7.200004   6.536929   6.953753   3.389226
    31  H    5.197877   5.205930   2.626305   3.606413   4.663147
    32  H    4.737682   4.852685   3.783044   2.866141   3.944529
    33  H    4.851506   4.355041   3.224863   2.380145   4.902385
    34  O    6.906049   8.607389   8.073308   8.594048   4.890119
    35  H    7.832141   9.512278   8.800433   9.368385   5.735643
    36  H    7.169713   8.911880   8.607514   9.120959   5.350721
    37  O    9.567515  11.236968  10.369230  10.989598   7.427839
    38  H   10.121712  11.777664  11.058468  11.441794   7.937338
    39  H   10.263532  11.923653  10.795542  11.675661   8.144414
                   21         22         23         24         25
    21  H    0.000000
    22  H    2.497679   0.000000
    23  H    4.306525   2.506068   0.000000
    24  C    6.150818   5.439535   3.693951   0.000000
    25  H    5.613955   5.656305   4.276323   2.044094   0.000000
    26  H    6.513911   7.257119   6.422921   3.845572   2.401829
    27  H    5.134419   6.188440   5.732271   4.093322   2.398535
    28  O    4.253821   5.937278   6.159472   5.400733   3.843136
    29  H    3.335829   5.135559   5.585320   5.430779   3.995791
    30  H    4.768745   6.681928   7.049232   6.330617   4.704101
    31  H    6.845914   6.339109   4.755250   1.093902   2.350101
    32  H    5.275094   4.566428   3.189615   1.093972   2.375591
    33  H    6.758667   5.661417   3.603530   1.095084   2.956158
    34  O    5.851435   8.040114   8.639834   8.074230   6.383251
    35  H    6.270876   8.535656   9.296603   8.686991   7.100476
    36  H    6.411374   8.633566   9.225720   8.786982   7.003660
    37  O    7.440773   9.784675  10.770453  10.157183   8.689224
    38  H    7.442236   9.833759  11.027866  10.643774   9.269078
    39  H    8.337453  10.639571  11.551629  10.704712   9.244072
                   26         27         28         29         30
    26  H    0.000000
    27  H    1.553735   0.000000
    28  O    3.153368   1.713128   0.000000
    29  H    3.854133   2.320822   0.975009   0.000000
    30  H    3.731525   2.448478   0.959394   1.561212   0.000000
    31  H    3.465510   4.093833   5.543886   5.750600   6.425616
    32  H    4.019437   3.958307   4.994620   4.910377   5.947166
    33  H    4.880795   5.148500   6.429148   6.389615   7.365985
    34  O    5.204921   4.100596   2.708066   3.073865   1.754057
    35  H    5.768316   4.757860   3.348937   3.720786   2.430179
    36  H    5.889754   4.802828   3.486418   3.766411   2.562560
    37  O    7.204103   6.323469   4.943811   5.282728   4.086136
    38  H    7.906131   6.951006   5.475945   5.685123   4.676353
    39  H    7.568592   6.852653   5.615744   6.059273   4.763783
                   31         32         33         34         35
    31  H    0.000000
    32  H    1.787245   0.000000
    33  H    1.793217   1.796604   0.000000
    34  O    8.138615   7.699922   9.108794   0.000000
    35  H    8.691186   8.253670   9.741040   0.988955   0.000000
    36  H    8.886598   8.460644   9.799080   0.972994   1.497789
    37  O   10.092255   9.661125  11.223256   2.718726   1.747055
    38  H   10.621154  10.066367  11.693179   3.403892   2.462006
    39  H   10.552984  10.250691  11.786117   3.426702   2.485631
                   36         37         38         39
    36  H    0.000000
    37  O    2.903076   0.000000
    38  H    3.584753   0.974157   0.000000
    39  H    3.566524   0.974103   1.515336   0.000000
 Stoichiometry    C10H23N2O4(1+)
 Framework group  C1[X(C10H23N2O4)]
 Deg. of freedom   111
 Full point group                 C1      NOp   1
 Largest Abelian subgroup         C1      NOp   1
 Largest concise Abelian subgroup C1      NOp   1
                         Standard orientation:                         
 ---------------------------------------------------------------------
 Center     Atomic      Atomic             Coordinates (Angstroms)
 Number     Number       Type             X           Y           Z
 ---------------------------------------------------------------------
      1          6           0        0.244395    0.915942   -0.600475
      2          6           0        1.574455    1.189610   -0.283506
      3          6           0        1.882027    2.476465    0.158065
      4          6           0        0.859458    3.413840    0.269244
      5          6           0       -0.443191    3.019980   -0.030418
      6          7           0       -0.750856    1.789361   -0.454272
      7          6           0        2.608243    0.098324   -0.367729
      8          6           0        2.698833   -0.694627   -1.692100
      9          6           0        2.755055   -2.186695   -1.294954
     10          6           0        3.080161   -2.172174    0.193435
     11          7           0        2.349631   -0.966223    0.683022
     12          8           0       -0.231426   -1.872542    0.842655
     13          1           0        4.148513   -2.014137    0.388484
     14          1           0        3.502818   -2.748618   -1.861659
     15          1           0        1.781487   -2.664724   -1.454415
     16          1           0        1.843149   -0.483578   -2.339771
     17          1           0        3.597161   -0.384261   -2.235042
     18          1           0        2.737042   -3.050718    0.748424
     19          1           0        3.592582    0.510408   -0.110769
     20          1           0       -0.044997   -0.068664   -0.973157
     21          1           0       -1.274356    3.717242    0.077152
     22          1           0        1.061492    4.430878    0.599586
     23          1           0        2.908119    2.747118    0.411706
     24          6           0        2.685662   -0.550398    2.061608
     25          1           0        1.330934   -1.218370    0.684347
     26          1           0       -0.490359   -2.613619    1.394946
     27          1           0       -1.061606   -1.381835    0.639646
     28          8           0       -2.393203   -0.383856    0.232588
     29          1           0       -2.186223    0.512800   -0.089605
     30          1           0       -3.270131   -0.610804   -0.083525
     31          1           0        2.448753   -1.370220    2.745997
     32          1           0        2.087433    0.327867    2.321508
     33          1           0        3.753290   -0.313012    2.116616
     34          8           0       -4.872675   -0.819428   -0.765467
     35          1           0       -5.693775   -0.721508   -0.223029
     36          1           0       -5.273679   -0.992298   -1.634966
     37          8           0       -7.330422   -0.595576    0.375076
     38          1           0       -7.825140    0.220199    0.571922
     39          1           0       -7.912706   -1.282497    0.746508
 ---------------------------------------------------------------------
 Rotational constants (GHZ):           0.5729806           0.2053142           0.1704972
 Standard basis: Aug-CC-pVDZ (5D, 7F)
 There are   607 symmetry adapted cartesian basis functions of A   symmetry.
 There are   575 symmetry adapted basis functions of A   symmetry.
   575 basis functions,   941 primitive gaussians,   607 cartesian basis functions
    64 alpha electrons       64 beta electrons
       nuclear repulsion energy      1180.7752914078 Hartrees.
 NAtoms=   39 NActive=   39 NUniq=   39 SFac= 1.00D+00 NAtFMM=   60 NAOKFM=F Big=F
 Integral buffers will be    131072 words long.
 Raffenetti 2 integral format.
 Two-electron integral symmetry is turned on.
 Nuclear repulsion after empirical dispersion term =     1180.7466190140 Hartrees.
 One-electron integrals computed using PRISM.
 NBasis=   575 RedAO= T EigKep=  2.39D-06  NBF=   575
 NBsUse=   575 1.00D-06 EigRej= -1.00D+00 NBFU=   575
 ExpMin= 2.97D-02 ExpMax= 1.17D+04 ExpMxC= 4.01D+02 IAcc=3 IRadAn=         5 AccDes= 0.00D+00
 Harris functional with IExCor= 4639 and IRadAn=       5 diagonalized for initial guess.
 HarFok:  IExCor= 4639 AccDes= 0.00D+00 IRadAn=         5 IDoV= 1 UseB2=F ITyADJ=14
 ICtDFT=  3500011 ScaDFX=  1.000000  1.000000  1.000000  1.000000
 FoFCou: FMM=F IPFlag=           0 FMFlag=      100000 FMFlg1=           0
         NFxFlg=           0 DoJE=T BraDBF=F KetDBF=T FulRan=T
         wScrn=  0.000000 ICntrl=       500 IOpCl=  0 I1Cent=   200000004 NGrid=           0
         NMat0=    1 NMatS0=      1 NMatT0=    0 NMatD0=    1 NMtDS0=    0 NMtDT0=    0
 Petite list used in FoFCou.
 Requested convergence on RMS density matrix=1.00D-08 within 128 cycles.
 Requested convergence on MAX density matrix=1.00D-06.
 Requested convergence on             energy=1.00D-06.
 No special actions if energy rises.
 SCF Done:  E(RwB97XD) =  -805.025513833     A.U. after   14 cycles
            NFock= 14  Conv=0.74D-08     -V/T= 2.0063

 **********************************************************************

            Population analysis using the SCF density.

 **********************************************************************

 Orbital symmetries:
       Occupied  (A) (A) (A) (A) (A) (A) (A) (A) (A) (A) (A) (A)
                 (A) (A) (A) (A) (A) (A) (A) (A) (A) (A) (A) (A)
                 (A) (A) (A) (A) (A) (A) (A) (A) (A) (A) (A) (A)
                 (A) (A) (A) (A) (A) (A) (A) (A) (A) (A) (A) (A)
                 (A) (A) (A) (A) (A) (A) (A) (A) (A) (A) (A) (A)
                 (A) (A) (A) (A)
       Virtual   (A) (A) (A) (A) (A) (A) (A) (A) (A) (A) (A) (A)
                 (A) (A) (A) (A) (A) (A) (A) (A) (A) (A) (A) (A)
                 (A) (A) (A) (A) (A) (A) (A) (A) (A) (A) (A) (A)
                 (A) (A) (A) (A) (A) (A) (A) (A) (A) (A) (A) (A)
                 (A) (A) (A) (A) (A) (A) (A) (A) (A) (A) (A) (A)
                 (A) (A) (A) (A) (A) (A) (A) (A) (A) (A) (A) (A)
                 (A) (A) (A) (A) (A) (A) (A) (A) (A) (A) (A) (A)
                 (A) (A) (A) (A) (A) (A) (A) (A) (A) (A) (A) (A)
                 (A) (A) (A) (A) (A) (A) (A) (A) (A) (A) (A) (A)
                 (A) (A) (A) (A) (A) (A) (A) (A) (A) (A) (A) (A)
                 (A) (A) (A) (A) (A) (A) (A) (A) (A) (A) (A) (A)
                 (A) (A) (A) (A) (A) (A) (A) (A) (A) (A) (A) (A)
                 (A) (A) (A) (A) (A) (A) (A) (A) (A) (A) (A) (A)
                 (A) (A) (A) (A) (A) (A) (A) (A) (A) (A) (A) (A)
                 (A) (A) (A) (A) (A) (A) (A) (A) (A) (A) (A) (A)
                 (A) (A) (A) (A) (A) (A) (A) (A) (A) (A) (A) (A)
                 (A) (A) (A) (A) (A) (A) (A) (A) (A) (A) (A) (A)
                 (A) (A) (A) (A) (A) (A) (A) (A) (A) (A) (A) (A)
                 (A) (A) (A) (A) (A) (A) (A) (A) (A) (A) (A) (A)
                 (A) (A) (A) (A) (A) (A) (A) (A) (A) (A) (A) (A)
                 (A) (A) (A) (A) (A) (A) (A) (A) (A) (A) (A) (A)
                 (A) (A) (A) (A) (A) (A) (A) (A) (A) (A) (A) (A)
                 (A) (A) (A) (A) (A) (A) (A) (A) (A) (A) (A) (A)
                 (A) (A) (A) (A) (A) (A) (A) (A) (A) (A) (A) (A)
                 (A) (A) (A) (A) (A) (A) (A) (A) (A) (A) (A) (A)
                 (A) (A) (A) (A) (A) (A) (A) (A) (A) (A) (A) (A)
                 (A) (A) (A) (A) (A) (A) (A) (A) (A) (A) (A) (A)
                 (A) (A) (A) (A) (A) (A) (A) (A) (A) (A) (A) (A)
                 (A) (A) (A) (A) (A) (A) (A) (A) (A) (A) (A) (A)
                 (A) (A) (A) (A) (A) (A) (A) (A) (A) (A) (A) (A)
                 (A) (A) (A) (A) (A) (A) (A) (A) (A) (A) (A) (A)
                 (A) (A) (A) (A) (A) (A) (A) (A) (A) (A) (A) (A)
                 (A) (A) (A) (A) (A) (A) (A) (A) (A) (A) (A) (A)
                 (A) (A) (A) (A) (A) (A) (A) (A) (A) (A) (A) (A)
                 (A) (A) (A) (A) (A) (A) (A) (A) (A) (A) (A) (A)
                 (A) (A) (A) (A) (A) (A) (A) (A) (A) (A) (A) (A)
                 (A) (A) (A) (A) (A) (A) (A) (A) (A) (A) (A) (A)
                 (A) (A) (A) (A) (A) (A) (A) (A) (A) (A) (A) (A)
                 (A) (A) (A) (A) (A) (A) (A) (A) (A) (A) (A) (A)
                 (A) (A) (A) (A) (A) (A) (A) (A) (A) (A) (A) (A)
                 (A) (A) (A) (A) (A) (A) (A) (A) (A) (A) (A) (A)
                 (A) (A) (A) (A) (A) (A) (A) (A) (A) (A) (A) (A)
                 (A) (A) (A) (A) (A) (A) (A)
 The electronic state is 1-A.
 Alpha  occ. eigenvalues --  -19.38583 -19.38539 -19.34722 -19.33683 -14.68575
 Alpha  occ. eigenvalues --  -14.57264 -10.49420 -10.48185 -10.47865 -10.45670
 Alpha  occ. eigenvalues --  -10.45294 -10.44424 -10.44358 -10.43520 -10.43404
 Alpha  occ. eigenvalues --  -10.42687  -1.25211  -1.22735  -1.22321  -1.18961
 Alpha  occ. eigenvalues --   -1.17804  -1.17006  -1.05844  -1.04134  -1.00653
 Alpha  occ. eigenvalues --   -0.96212  -0.94097  -0.88396  -0.85129  -0.84818
 Alpha  occ. eigenvalues --   -0.82599  -0.77363  -0.74582  -0.74140  -0.72670
 Alpha  occ. eigenvalues --   -0.71800  -0.71303  -0.70215  -0.69638  -0.68756
 Alpha  occ. eigenvalues --   -0.68072  -0.66267  -0.64862  -0.64632  -0.62554
 Alpha  occ. eigenvalues --   -0.62114  -0.61643  -0.61395  -0.60905  -0.60469
 Alpha  occ. eigenvalues --   -0.58635  -0.58396  -0.57393  -0.56337  -0.55978
 Alpha  occ. eigenvalues --   -0.54965  -0.53099  -0.52308  -0.51198  -0.49022
 Alpha  occ. eigenvalues --   -0.47935  -0.47636  -0.46529  -0.45912
 Alpha virt. eigenvalues --   -0.08739  -0.07998  -0.06461  -0.05260  -0.04615
 Alpha virt. eigenvalues --   -0.04372  -0.03813  -0.02829  -0.02558  -0.02329
 Alpha virt. eigenvalues --   -0.02000  -0.01950  -0.00903  -0.00698  -0.00567
 Alpha virt. eigenvalues --   -0.00063   0.00207   0.00685   0.00746   0.01496
 Alpha virt. eigenvalues --    0.01606   0.01978   0.02393   0.02765   0.03228
 Alpha virt. eigenvalues --    0.03555   0.03917   0.04091   0.04262   0.04599
 Alpha virt. eigenvalues --    0.05240   0.05574   0.05649   0.05863   0.06257
 Alpha virt. eigenvalues --    0.06466   0.06787   0.06859   0.06990   0.07324
 Alpha virt. eigenvalues --    0.07397   0.07911   0.08096   0.08308   0.08540
 Alpha virt. eigenvalues --    0.08830   0.08919   0.09359   0.09895   0.10217
 Alpha virt. eigenvalues --    0.10393   0.10769   0.10927   0.11386   0.11564
 Alpha virt. eigenvalues --    0.11964   0.12052   0.12346   0.12596   0.12830
 Alpha virt. eigenvalues --    0.13251   0.13680   0.13824   0.14210   0.14797
 Alpha virt. eigenvalues --    0.15212   0.15365   0.15637   0.15732   0.16383
 Alpha virt. eigenvalues --    0.16540   0.16677   0.17117   0.17291   0.17832
 Alpha virt. eigenvalues --    0.18145   0.18583   0.18638   0.19077   0.19439
 Alpha virt. eigenvalues --    0.19678   0.19805   0.20379   0.20652   0.20758
 Alpha virt. eigenvalues --    0.21169   0.21221   0.21267   0.21914   0.22183
 Alpha virt. eigenvalues --    0.22497   0.22827   0.22966   0.23144   0.23679
 Alpha virt. eigenvalues --    0.23846   0.24196   0.24861   0.25024   0.25217
 Alpha virt. eigenvalues --    0.25536   0.25767   0.26664   0.26778   0.27055
 Alpha virt. eigenvalues --    0.27381   0.27883   0.28114   0.28615   0.28800
 Alpha virt. eigenvalues --    0.29210   0.29408   0.30045   0.30458   0.30762
 Alpha virt. eigenvalues --    0.30918   0.31467   0.32070   0.32269   0.32412
 Alpha virt. eigenvalues --    0.32842   0.33211   0.33359   0.34231   0.34350
 Alpha virt. eigenvalues --    0.34558   0.34996   0.35353   0.35764   0.36165
 Alpha virt. eigenvalues --    0.36945   0.37290   0.37539   0.37979   0.38046
 Alpha virt. eigenvalues --    0.38245   0.38834   0.39536   0.40490   0.40637
 Alpha virt. eigenvalues --    0.41069   0.41795   0.41815   0.42152   0.42566
 Alpha virt. eigenvalues --    0.42837   0.43454   0.43585   0.43733   0.44107
 Alpha virt. eigenvalues --    0.44760   0.45070   0.45223   0.46139   0.46295
 Alpha virt. eigenvalues --    0.46632   0.47225   0.47290   0.47586   0.47896
 Alpha virt. eigenvalues --    0.48406   0.48984   0.49469   0.49750   0.49882
 Alpha virt. eigenvalues --    0.50518   0.50988   0.51099   0.51579   0.51975
 Alpha virt. eigenvalues --    0.52513   0.53072   0.53284   0.53531   0.53707
 Alpha virt. eigenvalues --    0.53899   0.54475   0.54700   0.55019   0.55952
 Alpha virt. eigenvalues --    0.56341   0.56813   0.56984   0.57227   0.57721
 Alpha virt. eigenvalues --    0.57907   0.58128   0.58315   0.59153   0.59348
 Alpha virt. eigenvalues --    0.59764   0.60417   0.60498   0.60884   0.61507
 Alpha virt. eigenvalues --    0.61940   0.62320   0.62763   0.63145   0.63980
 Alpha virt. eigenvalues --    0.64307   0.64695   0.65139   0.65791   0.65952
 Alpha virt. eigenvalues --    0.66412   0.66559   0.67182   0.67479   0.68592
 Alpha virt. eigenvalues --    0.68803   0.69149   0.69722   0.70153   0.70696
 Alpha virt. eigenvalues --    0.71169   0.71270   0.71903   0.72503   0.72993
 Alpha virt. eigenvalues --    0.73311   0.73721   0.74519   0.74832   0.75678
 Alpha virt. eigenvalues --    0.75861   0.76448   0.76919   0.77126   0.77270
 Alpha virt. eigenvalues --    0.78638   0.78819   0.79238   0.79444   0.80328
 Alpha virt. eigenvalues --    0.80593   0.81521   0.82454   0.83129   0.83654
 Alpha virt. eigenvalues --    0.84153   0.84977   0.85721   0.86480   0.86913
 Alpha virt. eigenvalues --    0.87177   0.87515   0.88157   0.88658   0.89820
 Alpha virt. eigenvalues --    0.90534   0.91956   0.92324   0.92575   0.93393
 Alpha virt. eigenvalues --    0.93800   0.93812   0.94991   0.95709   0.96496
 Alpha virt. eigenvalues --    0.96888   0.97707   0.98716   0.99297   1.00439
 Alpha virt. eigenvalues --    1.00943   1.01207   1.01798   1.03639   1.04601
 Alpha virt. eigenvalues --    1.04828   1.05440   1.05954   1.07099   1.07331
 Alpha virt. eigenvalues --    1.07510   1.07804   1.08659   1.09333   1.10373
 Alpha virt. eigenvalues --    1.11847   1.13803   1.14319   1.14514   1.14867
 Alpha virt. eigenvalues --    1.15551   1.16773   1.17019   1.17427   1.18177
 Alpha virt. eigenvalues --    1.18570   1.19845   1.20984   1.21409   1.21814
 Alpha virt. eigenvalues --    1.22751   1.24335   1.24437   1.25525   1.27229
 Alpha virt. eigenvalues --    1.29276   1.30102   1.30859   1.31721   1.32535
 Alpha virt. eigenvalues --    1.33106   1.34100   1.34454   1.35495   1.35917
 Alpha virt. eigenvalues --    1.37285   1.37407   1.39783   1.40373   1.40708
 Alpha virt. eigenvalues --    1.41786   1.42038   1.42521   1.43936   1.44698
 Alpha virt. eigenvalues --    1.45284   1.46585   1.47212   1.48712   1.49271
 Alpha virt. eigenvalues --    1.50441   1.51914   1.52322   1.52982   1.53239
 Alpha virt. eigenvalues --    1.54317   1.54857   1.56205   1.57020   1.57778
 Alpha virt. eigenvalues --    1.58798   1.59821   1.60696   1.61838   1.62599
 Alpha virt. eigenvalues --    1.62996   1.64510   1.64769   1.64938   1.65961
 Alpha virt. eigenvalues --    1.66822   1.67487   1.68664   1.69584   1.70279
 Alpha virt. eigenvalues --    1.70634   1.70923   1.73235   1.73498   1.74132
 Alpha virt. eigenvalues --    1.74353   1.75100   1.75411   1.77317   1.77747
 Alpha virt. eigenvalues --    1.78255   1.80310   1.80966   1.81531   1.82220
 Alpha virt. eigenvalues --    1.83089   1.83990   1.84694   1.85141   1.85762
 Alpha virt. eigenvalues --    1.86240   1.87300   1.87637   1.88243   1.88658
 Alpha virt. eigenvalues --    1.90167   1.90624   1.90917   1.91280   1.91906
 Alpha virt. eigenvalues --    1.92404   1.93261   1.94386   1.95667   1.96064
 Alpha virt. eigenvalues --    1.97537   1.98127   1.98647   1.98997   1.99639
 Alpha virt. eigenvalues --    2.01151   2.02436   2.03686   2.04411   2.05205
 Alpha virt. eigenvalues --    2.06453   2.08416   2.08508   2.09366   2.10304
 Alpha virt. eigenvalues --    2.11468   2.12414   2.12726   2.13309   2.14028
 Alpha virt. eigenvalues --    2.15937   2.16766   2.17129   2.18779   2.19070
 Alpha virt. eigenvalues --    2.19126   2.21344   2.22681   2.23465   2.24351
 Alpha virt. eigenvalues --    2.25013   2.25375   2.26819   2.26969   2.28675
 Alpha virt. eigenvalues --    2.29017   2.30350   2.30751   2.31784   2.32293
 Alpha virt. eigenvalues --    2.33872   2.34722   2.36298   2.36960   2.38397
 Alpha virt. eigenvalues --    2.39984   2.42397   2.43443   2.44399   2.45287
 Alpha virt. eigenvalues --    2.46570   2.48738   2.49117   2.51213   2.52580
 Alpha virt. eigenvalues --    2.54032   2.54201   2.55013   2.55673   2.57498
 Alpha virt. eigenvalues --    2.57627   2.59498   2.61403   2.61625   2.62264
 Alpha virt. eigenvalues --    2.64372   2.65971   2.66401   2.66835   2.69324
 Alpha virt. eigenvalues --    2.70159   2.71041   2.72137   2.74100   2.74505
 Alpha virt. eigenvalues --    2.75913   2.76482   2.77771   2.78917   2.80616
 Alpha virt. eigenvalues --    2.82000   2.82290   2.83498   2.85281   2.85752
 Alpha virt. eigenvalues --    2.87086   2.89230   2.89744   2.90894   2.92496
 Alpha virt. eigenvalues --    2.94977   2.96249   2.99561   3.04726   3.09065
 Alpha virt. eigenvalues --    3.11432   3.15625   3.19232   3.29542   3.31901
 Alpha virt. eigenvalues --    3.33881   3.35034   3.36291   3.38510   3.39603
 Alpha virt. eigenvalues --    3.42285   3.42967   3.43268   3.49598   3.51066
 Alpha virt. eigenvalues --    3.51950   3.54799   3.58214   3.59961   3.63758
 Alpha virt. eigenvalues --    3.67253   3.71061   3.81308   3.86874   3.90074
 Alpha virt. eigenvalues --    3.92433   4.05362   4.11088   4.18973   4.20928
 Alpha virt. eigenvalues --    4.77272
          Condensed to atoms (all electrons):
               1          2          3          4          5          6
     1  C   13.370974  -3.687251  -1.101696   0.062155  -1.220928   0.408155
     2  C   -3.687251  20.445798  -8.432011  -0.138159  -0.961668  -0.100054
     3  C   -1.101696  -8.432011  20.992321  -2.756864   1.108867  -0.660815
     4  C    0.062155  -0.138159  -2.756864  10.341525  -1.993829   0.276168
     5  C   -1.220928  -0.961668   1.108867  -1.993829   9.254453   0.185505
     6  N    0.408155  -0.100054  -0.660815   0.276168   0.185505   7.430300
     7  C   -0.709797  -5.085541  -1.736291   0.321374  -0.553952   0.232300
     8  C   -0.065284   0.727664  -0.255205  -0.062891  -0.109932   0.012114
     9  C   -0.183636   0.270167  -0.051524  -0.024597   0.027490  -0.010314
    10  C   -0.014781  -0.065373  -0.102324   0.024843  -0.041378   0.035016
    11  N   -0.394288   0.774544  -0.391844  -0.105096   0.146856  -0.024219
    12  O   -0.058507   0.036570  -0.030231  -0.003917   0.007091   0.013097
    13  H   -0.005243   0.058965   0.012018  -0.003800   0.000260   0.000490
    14  H    0.018580  -0.031573   0.011983  -0.000211   0.001603  -0.001464
    15  H   -0.016546   0.015973  -0.007249  -0.002240   0.001026  -0.001299
    16  H   -0.016417  -0.346028   0.030447  -0.019593  -0.002152   0.023630
    17  H    0.025819   0.221077  -0.016863   0.005249  -0.003476  -0.009493
    18  H   -0.017916  -0.077344   0.002086   0.004812  -0.004911   0.001354
    19  H   -0.059147   0.774908  -0.060573  -0.027715   0.021325   0.003918
    20  H   -0.780508  -0.772788  -0.003184  -0.018854   0.099551  -0.307041
    21  H    0.166151  -0.119667   0.260386  -0.018667  -0.325152  -0.194294
    22  H   -0.012099   0.077749   0.427680  -1.005956   0.317505  -0.074195
    23  H   -0.049978   0.998815  -2.224221   0.502012  -0.225862   0.022977
    24  C   -0.007940   0.161576  -0.036817   0.080451  -0.030933   0.001634
    25  H   -0.103364  -0.081922  -0.140819  -0.032410   0.018771  -0.024092
    26  H    0.012061  -0.011170   0.009498  -0.002056   0.001078  -0.005719
    27  H    0.024660   0.067685  -0.049721   0.031406  -0.033762   0.021175
    28  O   -0.025425  -0.034085  -0.003090  -0.015781   0.040776  -0.044973
    29  H   -0.071927  -0.003956  -0.001772  -0.029933   0.050864   0.110945
    30  H    0.000115   0.004184   0.005894  -0.006536   0.006759  -0.015685
    31  H    0.000446  -0.046425  -0.030167   0.015036  -0.007624  -0.001736
    32  H    0.011178   0.004116   0.060826   0.002415  -0.008405   0.004270
    33  H    0.015815   0.059384   0.067972  -0.010439   0.006044   0.001250
    34  O   -0.004005   0.003019  -0.000752   0.000487   0.002766   0.001678
    35  H   -0.001059   0.000253  -0.000132   0.000385  -0.001047   0.000839
    36  H    0.001133  -0.000402  -0.000117  -0.000018   0.000233  -0.000244
    37  O   -0.000056   0.000061  -0.000009   0.000048   0.000248   0.000059
    38  H    0.000007   0.000011  -0.000001   0.000016   0.000024  -0.000018
    39  H   -0.000000   0.000002   0.000001   0.000000   0.000018   0.000003
               7          8          9         10         11         12
     1  C   -0.709797  -0.065284  -0.183636  -0.014781  -0.394288  -0.058507
     2  C   -5.085541   0.727664   0.270167  -0.065373   0.774544   0.036570
     3  C   -1.736291  -0.255205  -0.051524  -0.102324  -0.391844  -0.030231
     4  C    0.321374  -0.062891  -0.024597   0.024843  -0.105096  -0.003917
     5  C   -0.553952  -0.109932   0.027490  -0.041378   0.146856   0.007091
     6  N    0.232300   0.012114  -0.010314   0.035016  -0.024219   0.013097
     7  C   19.854647  -2.303101  -0.091038  -0.502315  -2.760023   0.036385
     8  C   -2.303101   8.147215  -0.385281   0.399868  -1.132054   0.045348
     9  C   -0.091038  -0.385281   5.864348   0.197466  -0.276960   0.032405
    10  C   -0.502315   0.399868   0.197466   5.571926  -0.034286   0.026175
    11  N   -2.760023  -1.132054  -0.276960  -0.034286  12.298905  -0.282165
    12  O    0.036385   0.045348   0.032405   0.026175  -0.282165   8.026045
    13  H    0.221619  -0.162237   0.053137  -0.288576   0.006373  -0.016072
    14  H    0.054977   0.229734  -0.297444   0.091525   0.017317  -0.002461
    15  H    0.084996   0.100184  -0.173325  -0.121896   0.030440  -0.004491
    16  H    0.051654  -0.315782   0.269015   0.042873   0.169747   0.008857
    17  H    0.356063  -0.783003   0.087102  -0.144686   0.227838   0.000091
    18  H    0.270158   0.209458  -0.005894  -0.149044  -0.877356   0.069578
    19  H   -2.738534   0.686199   0.006084  -0.004032  -0.023349   0.008581
    20  H    0.374117  -0.076687   0.003108   0.023696  -0.293054   0.018595
    21  H    0.004035   0.001437   0.000281  -0.000620   0.006614  -0.000135
    22  H   -0.009533   0.006279   0.000722  -0.001304  -0.003708   0.000064
    23  H    0.214770  -0.036845  -0.016964   0.023837  -0.010965  -0.001605
    24  C   -0.433740  -0.225581   0.059115  -0.067944   0.843172  -0.037611
    25  H   -0.016269   0.165186  -0.127173  -0.290899   0.643449  -0.059327
    26  H    0.022566   0.000575  -0.000611  -0.003666   0.000353   0.352237
    27  H   -0.080323   0.007775  -0.008694   0.026727   0.034330   0.312727
    28  O   -0.007296  -0.011842   0.008229  -0.005174   0.007508  -0.069845
    29  H    0.006696  -0.011601   0.003825   0.001516  -0.007925   0.006710
    30  H    0.006137   0.001395   0.001471  -0.003897   0.002903   0.006607
    31  H    0.102195  -0.043428   0.038180   0.031836  -0.274040   0.009531
    32  H    0.062610   0.090327  -0.042562  -0.072385   0.121883   0.001820
    33  H   -0.006631  -0.026960   0.057615   0.113108  -0.554635  -0.000750
    34  O    0.000035   0.000083   0.000018   0.000074   0.000160   0.000158
    35  H   -0.000304  -0.000033  -0.000137   0.000102   0.000183  -0.000467
    36  H   -0.000120   0.000056   0.000043   0.000002  -0.000062   0.000093
    37  O    0.000001   0.000001   0.000001   0.000001   0.000001   0.000006
    38  H    0.000009   0.000001   0.000001  -0.000001  -0.000003   0.000003
    39  H   -0.000000   0.000000   0.000001  -0.000000   0.000000   0.000008
              13         14         15         16         17         18
     1  C   -0.005243   0.018580  -0.016546  -0.016417   0.025819  -0.017916
     2  C    0.058965  -0.031573   0.015973  -0.346028   0.221077  -0.077344
     3  C    0.012018   0.011983  -0.007249   0.030447  -0.016863   0.002086
     4  C   -0.003800  -0.000211  -0.002240  -0.019593   0.005249   0.004812
     5  C    0.000260   0.001603   0.001026  -0.002152  -0.003476  -0.004911
     6  N    0.000490  -0.001464  -0.001299   0.023630  -0.009493   0.001354
     7  C    0.221619   0.054977   0.084996   0.051654   0.356063   0.270158
     8  C   -0.162237   0.229734   0.100184  -0.315782  -0.783003   0.209458
     9  C    0.053137  -0.297444  -0.173325   0.269015   0.087102  -0.005894
    10  C   -0.288576   0.091525  -0.121896   0.042873  -0.144686  -0.149044
    11  N    0.006373   0.017317   0.030440   0.169747   0.227838  -0.877356
    12  O   -0.016072  -0.002461  -0.004491   0.008857   0.000091   0.069578
    13  H    2.120553  -0.166712   0.165291  -0.046041   0.047361  -0.503566
    14  H   -0.166712   1.950202  -0.499931   0.124590  -0.288928   0.044233
    15  H    0.165291  -0.499931   2.091266  -0.374479   0.198285  -0.224285
    16  H   -0.046041   0.124590  -0.374479   2.347532  -0.616378   0.027269
    17  H    0.047361  -0.288928   0.198285  -0.616378   2.398079  -0.016057
    18  H   -0.503566   0.044233  -0.224285   0.027269  -0.016057   2.623526
    19  H   -0.110628   0.042979  -0.068693   0.216561  -0.376261   0.065003
    20  H    0.008734   0.009532   0.028496  -0.164786   0.038718  -0.021666
    21  H    0.000087   0.000072  -0.000127   0.001216   0.000511  -0.000128
    22  H   -0.000267  -0.000013   0.000076   0.000333  -0.000729   0.000022
    23  H    0.001686   0.000275   0.000554  -0.004659   0.003961  -0.001651
    24  C   -0.025281  -0.003445  -0.006406   0.008104   0.027283  -0.078148
    25  H   -0.021925   0.008064   0.047973  -0.007157  -0.006198   0.085030
    26  H    0.000800  -0.000169   0.000063   0.000564  -0.000342  -0.001104
    27  H   -0.000959  -0.002210   0.007460  -0.003852   0.001918  -0.007861
    28  O   -0.000438   0.000384   0.000990  -0.002863  -0.000116   0.000113
    29  H   -0.000122  -0.000166   0.001237  -0.004233   0.001015   0.000194
    30  H   -0.000170   0.000259  -0.001483   0.003007  -0.000527   0.000670
    31  H    0.003925  -0.001632   0.005863  -0.001005  -0.000119  -0.004529
    32  H   -0.015365   0.002753  -0.013033   0.012635  -0.006626   0.005621
    33  H    0.060531  -0.002520   0.005437  -0.005934   0.011490   0.031649
    34  O    0.000004  -0.000005   0.000136   0.000066  -0.000003   0.000005
    35  H    0.000011  -0.000011   0.000072  -0.000267   0.000015  -0.000034
    36  H   -0.000004   0.000000  -0.000016   0.000146  -0.000000   0.000016
    37  O    0.000000   0.000000  -0.000000   0.000017  -0.000000   0.000000
    38  H   -0.000000   0.000000  -0.000001   0.000004  -0.000000   0.000000
    39  H   -0.000000   0.000000  -0.000001   0.000003  -0.000000   0.000000
              19         20         21         22         23         24
     1  C   -0.059147  -0.780508   0.166151  -0.012099  -0.049978  -0.007940
     2  C    0.774908  -0.772788  -0.119667   0.077749   0.998815   0.161576
     3  C   -0.060573  -0.003184   0.260386   0.427680  -2.224221  -0.036817
     4  C   -0.027715  -0.018854  -0.018667  -1.005956   0.502012   0.080451
     5  C    0.021325   0.099551  -0.325152   0.317505  -0.225862  -0.030933
     6  N    0.003918  -0.307041  -0.194294  -0.074195   0.022977   0.001634
     7  C   -2.738534   0.374117   0.004035  -0.009533   0.214770  -0.433740
     8  C    0.686199  -0.076687   0.001437   0.006279  -0.036845  -0.225581
     9  C    0.006084   0.003108   0.000281   0.000722  -0.016964   0.059115
    10  C   -0.004032   0.023696  -0.000620  -0.001304   0.023837  -0.067944
    11  N   -0.023349  -0.293054   0.006614  -0.003708  -0.010965   0.843172
    12  O    0.008581   0.018595  -0.000135   0.000064  -0.001605  -0.037611
    13  H   -0.110628   0.008734   0.000087  -0.000267   0.001686  -0.025281
    14  H    0.042979   0.009532   0.000072  -0.000013   0.000275  -0.003445
    15  H   -0.068693   0.028496  -0.000127   0.000076   0.000554  -0.006406
    16  H    0.216561  -0.164786   0.001216   0.000333  -0.004659   0.008104
    17  H   -0.376261   0.038718   0.000511  -0.000729   0.003961   0.027283
    18  H    0.065003  -0.021666  -0.000128   0.000022  -0.001651  -0.078148
    19  H    3.655848  -0.028711   0.000269   0.000042  -0.148529  -0.007075
    20  H   -0.028711   4.116066   0.012797  -0.010935  -0.016967  -0.025824
    21  H    0.000269   0.012797   1.915403  -0.112263  -0.004551   0.002473
    22  H    0.000042  -0.010935  -0.112263   2.140606  -0.149203  -0.010285
    23  H   -0.148529  -0.016967  -0.004551  -0.149203   2.966214   0.049393
    24  C   -0.007075  -0.025824   0.002473  -0.010285   0.049393   4.425418
    25  H   -0.026314  -0.058179  -0.001721   0.005583  -0.008022  -0.209145
    26  H    0.000778   0.011148  -0.000058   0.000065  -0.000403  -0.010778
    27  H   -0.001628  -0.060909  -0.000204  -0.000749   0.003615   0.023258
    28  O    0.000355   0.064676  -0.000179   0.000262  -0.000735   0.000912
    29  H   -0.002168  -0.012185  -0.039315   0.004221   0.000531  -0.000787
    30  H    0.000484  -0.006695   0.003793   0.000089  -0.000646  -0.002747
    31  H    0.014028   0.000832   0.000347  -0.001366   0.002895   0.227558
    32  H    0.040206   0.006214  -0.002611   0.000572  -0.028794   0.061748
    33  H   -0.005664   0.004124   0.000070   0.000192   0.013839   0.206029
    34  O    0.000001  -0.002528   0.000102  -0.000008  -0.000020   0.000023
    35  H   -0.000027   0.003899  -0.000068   0.000001   0.000012   0.000090
    36  H    0.000002  -0.002277  -0.000071   0.000005  -0.000003   0.000011
    37  O   -0.000000  -0.000711   0.000036  -0.000000  -0.000000   0.000000
    38  H    0.000001  -0.000024   0.000003   0.000000  -0.000000  -0.000001
    39  H    0.000000  -0.000039   0.000000  -0.000000   0.000000  -0.000001
              25         26         27         28         29         30
     1  C   -0.103364   0.012061   0.024660  -0.025425  -0.071927   0.000115
     2  C   -0.081922  -0.011170   0.067685  -0.034085  -0.003956   0.004184
     3  C   -0.140819   0.009498  -0.049721  -0.003090  -0.001772   0.005894
     4  C   -0.032410  -0.002056   0.031406  -0.015781  -0.029933  -0.006536
     5  C    0.018771   0.001078  -0.033762   0.040776   0.050864   0.006759
     6  N   -0.024092  -0.005719   0.021175  -0.044973   0.110945  -0.015685
     7  C   -0.016269   0.022566  -0.080323  -0.007296   0.006696   0.006137
     8  C    0.165186   0.000575   0.007775  -0.011842  -0.011601   0.001395
     9  C   -0.127173  -0.000611  -0.008694   0.008229   0.003825   0.001471
    10  C   -0.290899  -0.003666   0.026727  -0.005174   0.001516  -0.003897
    11  N    0.643449   0.000353   0.034330   0.007508  -0.007925   0.002903
    12  O   -0.059327   0.352237   0.312727  -0.069845   0.006710   0.006607
    13  H   -0.021925   0.000800  -0.000959  -0.000438  -0.000122  -0.000170
    14  H    0.008064  -0.000169  -0.002210   0.000384  -0.000166   0.000259
    15  H    0.047973   0.000063   0.007460   0.000990   0.001237  -0.001483
    16  H   -0.007157   0.000564  -0.003852  -0.002863  -0.004233   0.003007
    17  H   -0.006198  -0.000342   0.001918  -0.000116   0.001015  -0.000527
    18  H    0.085030  -0.001104  -0.007861   0.000113   0.000194   0.000670
    19  H   -0.026314   0.000778  -0.001628   0.000355  -0.002168   0.000484
    20  H   -0.058179   0.011148  -0.060909   0.064676  -0.012185  -0.006695
    21  H   -0.001721  -0.000058  -0.000204  -0.000179  -0.039315   0.003793
    22  H    0.005583   0.000065  -0.000749   0.000262   0.004221   0.000089
    23  H   -0.008022  -0.000403   0.003615  -0.000735   0.000531  -0.000646
    24  C   -0.209145  -0.010778   0.023258   0.000912  -0.000787  -0.002747
    25  H    1.255136  -0.025649  -0.028974  -0.017012  -0.012415   0.013886
    26  H   -0.025649   0.609958  -0.139147  -0.001169  -0.000826   0.000932
    27  H   -0.028974  -0.139147   0.592377   0.019745  -0.004822  -0.009879
    28  O   -0.017012  -0.001169   0.019745   7.921647   0.344426   0.308169
    29  H   -0.012415  -0.000826  -0.004822   0.344426   0.658087  -0.164488
    30  H    0.013886   0.000932  -0.009879   0.308169  -0.164488   0.594640
    31  H    0.038331  -0.000381   0.000502  -0.000834  -0.001059  -0.000071
    32  H   -0.009713   0.001315  -0.007220   0.001059  -0.000732   0.000788
    33  H   -0.146468   0.000698   0.005971   0.000369   0.001556  -0.000726
    34  O   -0.001539  -0.000265   0.010547  -0.072727   0.001255  -0.016227
    35  H   -0.000850   0.000190   0.000595   0.003132  -0.000577  -0.007459
    36  H    0.000092  -0.000088  -0.000346   0.005932   0.000473   0.004067
    37  O    0.000002  -0.000012   0.000286  -0.000706  -0.000824   0.003499
    38  H    0.000010  -0.000001   0.000028   0.000042  -0.000304  -0.000494
    39  H    0.000012  -0.000001  -0.000005  -0.000065   0.000224  -0.000882
              31         32         33         34         35         36
     1  C    0.000446   0.011178   0.015815  -0.004005  -0.001059   0.001133
     2  C   -0.046425   0.004116   0.059384   0.003019   0.000253  -0.000402
     3  C   -0.030167   0.060826   0.067972  -0.000752  -0.000132  -0.000117
     4  C    0.015036   0.002415  -0.010439   0.000487   0.000385  -0.000018
     5  C   -0.007624  -0.008405   0.006044   0.002766  -0.001047   0.000233
     6  N   -0.001736   0.004270   0.001250   0.001678   0.000839  -0.000244
     7  C    0.102195   0.062610  -0.006631   0.000035  -0.000304  -0.000120
     8  C   -0.043428   0.090327  -0.026960   0.000083  -0.000033   0.000056
     9  C    0.038180  -0.042562   0.057615   0.000018  -0.000137   0.000043
    10  C    0.031836  -0.072385   0.113108   0.000074   0.000102   0.000002
    11  N   -0.274040   0.121883  -0.554635   0.000160   0.000183  -0.000062
    12  O    0.009531   0.001820  -0.000750   0.000158  -0.000467   0.000093
    13  H    0.003925  -0.015365   0.060531   0.000004   0.000011  -0.000004
    14  H   -0.001632   0.002753  -0.002520  -0.000005  -0.000011   0.000000
    15  H    0.005863  -0.013033   0.005437   0.000136   0.000072  -0.000016
    16  H   -0.001005   0.012635  -0.005934   0.000066  -0.000267   0.000146
    17  H   -0.000119  -0.006626   0.011490  -0.000003   0.000015  -0.000000
    18  H   -0.004529   0.005621   0.031649   0.000005  -0.000034   0.000016
    19  H    0.014028   0.040206  -0.005664   0.000001  -0.000027   0.000002
    20  H    0.000832   0.006214   0.004124  -0.002528   0.003899  -0.002277
    21  H    0.000347  -0.002611   0.000070   0.000102  -0.000068  -0.000071
    22  H   -0.001366   0.000572   0.000192  -0.000008   0.000001   0.000005
    23  H    0.002895  -0.028794   0.013839  -0.000020   0.000012  -0.000003
    24  C    0.227558   0.061748   0.206029   0.000023   0.000090   0.000011
    25  H    0.038331  -0.009713  -0.146468  -0.001539  -0.000850   0.000092
    26  H   -0.000381   0.001315   0.000698  -0.000265   0.000190  -0.000088
    27  H    0.000502  -0.007220   0.005971   0.010547   0.000595  -0.000346
    28  O   -0.000834   0.001059   0.000369  -0.072727   0.003132   0.005932
    29  H   -0.001059  -0.000732   0.001556   0.001255  -0.000577   0.000473
    30  H   -0.000071   0.000788  -0.000726  -0.016227  -0.007459   0.004067
    31  H    1.956857  -0.513847  -0.369781   0.000019   0.000040  -0.000008
    32  H   -0.513847   1.777022  -0.437215  -0.000037  -0.000030   0.000005
    33  H   -0.369781  -0.437215   2.094075   0.000006   0.000004   0.000003
    34  O    0.000019  -0.000037   0.000006   7.803488   0.329571   0.342454
    35  H    0.000040  -0.000030   0.000004   0.329571   0.538237  -0.095050
    36  H   -0.000008   0.000005   0.000003   0.342454  -0.095050   0.599200
    37  O    0.000000  -0.000000   0.000000  -0.040813  -0.006807   0.005358
    38  H   -0.000000   0.000000  -0.000000   0.002105  -0.000899  -0.000968
    39  H   -0.000001   0.000001  -0.000000   0.002250  -0.001885  -0.000592
              37         38         39
     1  C   -0.000056   0.000007  -0.000000
     2  C    0.000061   0.000011   0.000002
     3  C   -0.000009  -0.000001   0.000001
     4  C    0.000048   0.000016   0.000000
     5  C    0.000248   0.000024   0.000018
     6  N    0.000059  -0.000018   0.000003
     7  C    0.000001   0.000009  -0.000000
     8  C    0.000001   0.000001   0.000000
     9  C    0.000001   0.000001   0.000001
    10  C    0.000001  -0.000001  -0.000000
    11  N    0.000001  -0.000003   0.000000
    12  O    0.000006   0.000003   0.000008
    13  H    0.000000  -0.000000  -0.000000
    14  H    0.000000   0.000000   0.000000
    15  H   -0.000000  -0.000001  -0.000001
    16  H    0.000017   0.000004   0.000003
    17  H   -0.000000  -0.000000  -0.000000
    18  H    0.000000   0.000000   0.000000
    19  H   -0.000000   0.000001   0.000000
    20  H   -0.000711  -0.000024  -0.000039
    21  H    0.000036   0.000003   0.000000
    22  H   -0.000000   0.000000  -0.000000
    23  H   -0.000000  -0.000000   0.000000
    24  C    0.000000  -0.000001  -0.000001
    25  H    0.000002   0.000010   0.000012
    26  H   -0.000012  -0.000001  -0.000001
    27  H    0.000286   0.000028  -0.000005
    28  O   -0.000706   0.000042  -0.000065
    29  H   -0.000824  -0.000304   0.000224
    30  H    0.003499  -0.000494  -0.000882
    31  H    0.000000  -0.000000  -0.000001
    32  H   -0.000000   0.000000   0.000001
    33  H    0.000000  -0.000000  -0.000000
    34  O   -0.040813   0.002105   0.002250
    35  H   -0.006807  -0.000899  -0.001885
    36  H    0.005358  -0.000968  -0.000592
    37  O    7.707834   0.345101   0.345826
    38  H    0.345101   0.560529  -0.065655
    39  H    0.345826  -0.065655   0.558278
 Mulliken charges:
               1
     1  C    0.490551
     2  C    1.292893
     3  C    1.104313
     4  C    0.611183
     5  C    0.225897
     6  N   -0.311223
     7  C    0.757464
     8  C    1.176849
     9  C    0.716331
    10  C    1.303986
    11  N   -0.886544
    12  O   -0.451196
    13  H   -0.394438
    14  H   -0.310168
    15  H   -0.270321
    16  H   -0.406641
    17  H   -0.382069
    18  H   -0.449304
    19  H   -0.848523
    20  H   -1.159752
    21  H   -0.556252
    22  H   -0.589453
    23  H   -0.874762
    24  C    1.042243
    25  H    0.176030
    26  H    0.178738
    27  H    0.248479
    28  O   -0.414370
    29  H    0.178362
    30  H    0.268863
    31  H   -0.150365
    32  H   -0.110810
    33  H   -0.189509
    34  O   -0.361582
    35  H    0.239513
    36  H    0.141061
    37  O   -0.358447
    38  H    0.160476
    39  H    0.162498
 Sum of Mulliken charges =   1.00000
 Mulliken charges with hydrogens summed into heavy atoms:
               1
     1  C   -0.669202
     2  C    1.292893
     3  C    0.229551
     4  C    0.021730
     5  C   -0.330354
     6  N   -0.311223
     7  C   -0.091059
     8  C    0.388139
     9  C    0.135842
    10  C    0.460244
    11  N   -0.710513
    12  O   -0.023979
    24  C    0.591559
    28  O    0.032854
    34  O    0.018992
    37  O   -0.035473
 Electronic spatial extent (au):  <R**2>=           6513.0129
 Charge=              1.0000 electrons
 Dipole moment (field-independent basis, Debye):
    X=              2.4494    Y=             -1.7819    Z=              2.3233  Tot=              3.8174
 Quadrupole moment (field-independent basis, Debye-Ang):
   XX=              8.6275   YY=            -68.2489   ZZ=            -86.3326
   XY=             -2.9543   XZ=             -0.8191   YZ=             -0.5055
 Traceless Quadrupole moment (field-independent basis, Debye-Ang):
   XX=             57.2788   YY=            -19.5976   ZZ=            -37.6812
   XY=             -2.9543   XZ=             -0.8191   YZ=             -0.5055
 Octapole moment (field-independent basis, Debye-Ang**2):
  XXX=           -587.2116  YYY=              2.0139  ZZZ=              8.6685  XYY=            -10.6930
  XXY=            -70.1649  XXZ=             61.5048  XZZ=            -13.3580  YZZ=            -30.9963
  YYZ=             25.4081  XYZ=              5.0403
 Hexadecapole moment (field-independent basis, Debye-Ang**3):
 XXXX=            231.6964 YYYY=          -1536.5697 ZZZZ=           -560.9231 XXXY=            289.3504
 XXXZ=           -486.9700 YYYX=             19.6425 YYYZ=             -1.3392 ZZZX=             55.5336
[...]
 008147,0.00004921,0.00001801,0.00027126,0.00001428,-0.00006120,0.00000
 040,-0.00000145,-0.00000780,-0.00002593,-0.00000096,0.00000013,-0.0000
 0850,0.00001259,-0.00006385,-0.00000705,-0.00001969,0.00009485,0.00011
 129,-0.00003011,0.00063633,0.00027676,-0.00020869,0.00000447,0.0000121
 2,-0.00000017,0.00000990,0.00001033,-0.00000113,-0.00001752,-0.0000010
 5,-0.00000913,0.00000174,-0.00000694,-0.00001939,0.00000457,0.00000865
 ,-0.00000541,-0.00000900,-0.00001120,0.00000709,0.00001079,0.00001441,
 -0.00000631,-0.00006083,-0.00006722,-0.00001027,-0.00000807,-0.0000273
 2,0.00000940,0.00000387,0.00001459,-0.00000442,0.00000956,0.00001212,-
 0.00000274,-0.00000132,-0.00000836,0.00005300,-0.00012392,-0.00027914,
 0.00004595,-0.00010470,0.00002044,0.00009423,-0.00088545,-0.00022177,0
 .00024038,0.00084083,0.00033083,0.00071184,-0.00012308,-0.00063750,-0.
 00002029,-0.00216616,-0.00154675,-0.00188506,-0.00000571,-0.00001040,0
 .00001002,-0.00000064,-0.00000941,0.00001609,0.00000315,0.00001198,0.0
 0000341,-0.19220466,-0.18032193,-0.12237793,0.18364968,0.18076254,-0.0
 0004752,-0.00011459,0.00005593,-0.00003030,0.00005626,-0.00003626,0.00
 002573,0.00000182,-0.00000757,-0.00001614,0.00002786,-0.00004037,0.000
 15801,-0.00004817,0.00004012,-0.00005961,0.00028053,0.00000616,-0.0000
 3616,0.00000355,0.00000405,-0.00000997,-0.00002006,0.00000378,-0.00000
 064,-0.00001272,0.00001033,-0.00003652,-0.00000480,-0.00001177,0.00006
 218,0.00010005,-0.00003663,0.00061332,0.00025138,-0.00028439,0.0000040
 0,0.00001133,-0.00000040,0.00000613,0.00000849,-0.00000222,-0.00001559
 ,0.00000158,-0.00000719,0.00000317,-0.00000747,-0.00001534,0.00000350,
 0.00000635,-0.00000509,-0.00000907,-0.00000938,0.00000837,0.00000771,0
 .00001280,-0.00000495,-0.00006579,-0.00006458,-0.00001235,-0.00001773,
 0.00000356,0.00001819,0.00000526,0.00001854,-0.00000140,0.00000395,0.0
 0001059,0.00000014,0.00000714,-0.00000829,0.00006261,-0.00010249,-0.00
 025232,0.00004828,-0.00005351,0.00001947,0.00015440,-0.00091278,-0.000
 17711,0.00027141,0.00100224,0.00408254,-0.00279345,0.00026473,-0.00032
 749,-0.00009259,-0.00024020,-0.00577134,0.00515813,0.00000374,-0.00000
 552,0.00000970,-0.00000101,0.00000059,0.00001813,0.00000146,0.00000762
 ,-0.00000133,-0.10751879,-0.08635381,-0.13345873,0.13593153,0.11384331
 ,0.15468900,0.00008825,-0.00007901,0.00003779,-0.00002501,0.00002575,-
 0.00002094,0.00002023,-0.00001800,0.00001340,-0.00004643,-0.00001709,0
 .00000944,0.00002256,0.00004905,-0.00002459,-0.00007913,-0.00005761,-0
 .00002079,0.00004900,-0.00002161,-0.00000862,-0.00001696,-0.00000497,0
 .00001588,-0.00000155,-0.00002667,0.00000378,0.00001690,0.00000021,0.0
 0001437,-0.00001313,0.00005109,-0.00001451,-0.00022339,0.00015580,-0.0
 0020779,-0.00000117,0.00000663,-0.00000633,-0.00000241,0.00000539,-0.0
 0000284,-0.00001326,0.00000546,0.00000036,0.00001262,-0.00001470,0.000
 00273,0.00000200,0.00000535,-0.00000151,-0.00000791,-0.00000562,0.0000
 0756,-0.00000644,0.00000377,-0.00000311,0.00000245,-0.00001200,0.00001
 843,-0.00000402,0.00001855,-0.00001008,-0.00000066,0.00000075,0.000000
 47,-0.00000137,-0.00000247,0.00000037,0.00000879,-0.00000506,0.0000228
 7,-0.00002196,-0.00010783,0.00002352,0.00001009,-0.00005982,0.00014951
 ,0.00040734,-0.00002586,0.00014209,-0.00033608,-0.00121423,-0.00023525
 ,-0.00002522,-0.00006952,0.00006528,0.00016797,0.00261040,0.00058350,-
 0.00000037,-0.00000030,0.00000317,0.00000036,-0.00000008,-0.00000395,0
 .00000108,0.00000179,-0.00000244,-0.03014847,-0.03480462,0.07144070,0.
 00404719,0.00621242,-0.03118402,0.02716422,-0.00001852,-0.00004428,0.0
 0001378,-0.00000191,0.00003529,-0.00001149,0.00000990,0.00000692,-0.00
 000346,0.00001487,0.00002240,0.00000500,0.00002340,-0.00003841,0.00002
 585,0.00005543,-0.00000894,-0.00015055,-0.00004701,0.00002525,0.000027
 95,-0.00001123,-0.00002131,0.00000615,-0.00000172,0.00000333,0.0000042
 6,-0.00001564,0.00000035,-0.00000067,0.00002389,-0.00001389,-0.0000173
 2,-0.00004552,-0.00002888,-0.00009913,-0.00000087,0.00000257,-0.000002
 01,0.00000573,0.00000229,-0.00000228,-0.00000861,-0.00000008,0.0000027
 6,-0.00000146,-0.00000049,-0.00000501,0.00000073,0.00000124,-0.0000041
 4,0.00000299,-0.00000366,-0.00000294,0.00000673,0.00000250,-0.00000987
 ,-0.00004305,-0.00002518,0.00006237,-0.00000264,-0.00001819,0.00001074
 ,0.00000095,0.00000725,0.00000115,0.00000418,0.00000713,-0.00000178,0.
 00000098,-0.00000736,0.00001928,-0.00000553,0.00002071,0.00001313,-0.0
 0002135,0.00003766,0.00002595,0.00009727,-0.00003851,0.00010760,-0.001
 22289,-0.00337591,-0.00054818,-0.00029078,-0.00040047,0.00062277,0.001
 83024,0.00517459,0.00255589,0.00000397,-0.00000106,-0.00000169,-0.0000
 0085,0.00000711,0.00000828,-0.00000292,0.00000106,0.00000122,-0.031212
 07,-0.04200354,0.10364338,0.00350523,0.00568937,-0.02718662,0.02832656
 ,0.03604387,0.00002827,-0.00000949,-0.00000243,-0.00000482,-0.00000601
 ,0.00000071,0.00000193,-0.00000406,0.00000352,-0.00000859,-0.00000641,
 0.00001230,-0.00001605,0.00001742,-0.00000975,-0.00000726,-0.00009552,
 -0.00006828,0.00000974,0.00001523,0.00002249,-0.00000934,-0.00000369,0
 .00000659,-0.00000230,-0.00000444,-0.00000186,0.00002481,0.00000651,0.
 00001601,-0.00003316,-0.00004750,-0.00001199,-0.00025023,-0.00012245,-
 0.00001720,-0.00000299,-0.00000118,-0.00000357,-0.00000250,-0.00000305
 ,-0.00000052,0.00000023,0.00000427,0.00000901,0.00000467,0.00000240,0.
 00001080,-0.00000258,-0.00000470,0.00000069,0.00000338,-0.00000058,-0.
 00000294,-0.00000215,-0.00000370,-0.00000475,0.00000793,0.00002242,0.0
 0003234,0.00000122,0.00000913,0.00000497,-0.00000117,-0.00000056,0.000
 00444,-0.00000201,-0.00000051,0.00000252,0.00000176,-0.00000205,0.0000
 0278,0.00004576,0.00011060,-0.00000384,0.00004484,0.00002066,0.0000069
 7,0.00034576,0.00008738,-0.00001550,-0.00094947,-0.00141859,0.00062678
 ,0.00008227,0.00028414,0.00002261,0.00121690,0.00186669,-0.00149161,0.
 00000715,0.00000335,-0.00000366,-0.00000162,0.00000906,-0.00000091,-0.
 00000259,-0.00000406,-0.00000130,0.03219831,0.06978233,-0.52420889,0.0
 0801394,0.00844196,-0.02051177,-0.04103959,-0.07921428,0.54491272,0.00
 001907,0.00009829,-0.00005088,0.00002733,-0.00005446,0.00003081,-0.000
 02663,0.00001230,-0.00000696,0.00003874,-0.00000623,0.00002159,-0.0001
 4980,0.00001931,-0.00001604,0.00008285,-0.00021193,-0.00003697,-0.0000
 0921,0.00003639,0.00003194,0.00000864,0.00000933,-0.00000759,0.0000015
 7,0.00001555,-0.00000502,0.00003487,0.00001375,0.00001296,-0.00005526,
 -0.00013591,0.00001239,-0.00038403,-0.00033094,0.00007797,-0.00000307,
 -0.00001120,0.00000102,-0.00000428,-0.00000945,0.00000053,0.00001415,-
 0.00000128,0.00001150,-0.00000292,0.00001059,0.00001254,-0.00000451,-0
 .00000941,0.00000198,0.00001427,0.00000598,-0.00000995,-0.00000180,-0.
 00001190,0.00000068,0.00004412,0.00004711,0.00002824,0.00001043,-0.000
 00787,-0.00000009,-0.00000540,-0.00001230,0.00000636,-0.00000378,-0.00
 000308,0.00000270,-0.00000611,0.00000905,-0.00002931,0.00011112,0.0003
 0876,-0.00003501,0.00009574,0.00006396,-0.00003366,0.00049711,0.000189
 30,-0.00007199,-0.00033260,-0.00143093,0.00050260,-0.00021839,0.000348
 38,0.00003414,0.00039631,0.00188719,-0.00087815,0.00001521,0.00001002,
 -0.00001046,-0.00000304,0.00001874,-0.00000472,-0.00000651,-0.00001179
 ,-0.00000406,-0.00322175,-0.00841628,-0.00573650,-0.00731677,0.0030161
 9,0.00164180,-0.00105496,-0.00065197,0.00035574,0.52613189,0.00007940,
 0.00004674,-0.00002050,0.00000051,-0.00003965,0.00001795,-0.00000125,-
 0.00000615,0.00001114,-0.00003585,-0.00002768,0.00002334,-0.00005569,0
 .00008150,-0.00003885,-0.00003385,-0.00023253,-0.00004777,0.00006619,0
 .00000204,0.00000408,0.00000040,0.00002037,0.00000571,-0.00000088,0.00
 000112,-0.00001063,0.00006604,0.00000986,0.00002275,-0.00009272,-0.000
 08611,0.00001438,-0.00056411,-0.00019474,0.00008927,-0.00000367,-0.000
 00896,-0.00000130,-0.00000979,-0.00000874,-0.00000005,0.00001264,0.000
 00323,0.00000879,0.00000180,0.00000373,0.00001913,-0.00000393,-0.00000
 767,0.00000400,0.00000723,0.00000592,-0.00000459,-0.00000967,-0.000010
 97,0.00000484,0.00004703,0.00005268,0.00001508,0.00000273,0.00003135,-
 0.00000009,-0.00000200,-0.00000571,0.00000577,-0.00000864,-0.00000920,
 0.00000457,0.00000898,0.00000572,-0.00002881,0.00010406,0.00021644,-0.
 00002781,0.00009065,-0.00002964,-0.00002528,0.00078183,0.00014861,-0.0
 0011469,-0.00075303,-0.00107989,0.00019837,0.00001070,0.00042189,0.000
 11500,0.00061336,0.00131932,-0.00042968,0.00001072,0.00000915,-0.00000
 793,0.00000061,0.00001370,-0.00001125,-0.00000388,-0.00001116,-0.00000
 607,-0.00762187,-0.00189720,-0.00501440,0.00260728,-0.00789631,0.00069
 577,-0.00062967,-0.00109733,0.00031389,-0.21131056,0.49739539,0.000009
 97,0.00003864,-0.00002302,0.00000708,-0.00001997,0.00001557,-0.0000118
 5,-0.00000071,0.00000536,0.00000532,-0.00001025,0.00001374,-0.00004450
 ,0.00001475,-0.00001595,0.00001034,-0.00006121,0.00004613,0.00001626,-
 0.00001834,-0.00001913,0.00000642,0.00000976,-0.00000183,0.00000149,0.
 00000737,-0.00000429,-0.00000432,-0.00000157,-0.00000349,-0.00000541,-
 0.00001062,0.00002867,-0.00014320,-0.00005050,0.00016601,-0.00000069,-
 0.00000439,0.00000126,-0.00000061,-0.00000072,0.00000188,0.00000425,-0
 .00000270,-0.00000090,-0.00000383,0.00000027,0.00000086,0.00000052,0.0
 0000037,0.00000190,0.00000051,0.00000565,-0.00000300,-0.00000310,-0.00
 000361,0.00000369,0.00002372,0.00001515,-0.00000996,0.00000928,-0.0000
 0191,-0.00001940,-0.00000091,-0.00000984,-0.00000511,-0.00000168,-0.00
 000599,-0.00000331,-0.00000892,0.00000407,-0.00003954,0.00001860,0.000
 04274,-0.00002264,-0.00000521,-0.00000785,-0.00009655,0.00023538,0.000
 04078,-0.00013955,-0.00019353,-0.00073873,0.00073397,-0.00007079,0.000
 10262,-0.00008322,0.00029467,0.00126540,-0.00101877,-0.00001247,-0.000
 00050,-0.00000327,0.00000266,-0.00001148,-0.00001208,0.00000232,0.0000
 0004,0.00000344,-0.00581831,-0.00550416,-0.00093561,0.00005461,-0.0005
 1152,-0.00270596,0.00029826,0.00020323,0.00046585,0.14732029,0.1834217
 7,0.18867277,-0.00001185,-0.00002146,0.00000950,-0.00000586,0.00001576
 ,-0.00000784,0.00000743,-0.00000417,0.00000288,-0.00001062,-0.00000114
 ,-0.00000381,0.00004325,-0.00000811,0.00000423,-0.00001815,0.00005985,
 0.00002050,0.00000414,-0.00001407,-0.00001279,-0.00000122,-0.00000113,
 0.00000115,-0.00000009,-0.00000323,0.00000081,-0.00001181,-0.00000404,
 -0.00000400,0.00001596,0.00003856,0.00000091,0.00010196,0.00008353,0.0
 0000711,0.00000080,0.00000255,-0.00000019,0.00000130,0.00000242,0.0000
 0031,-0.00000334,-0.00000007,-0.00000331,0.00000033,-0.00000283,-0.000
 00320,0.00000147,0.00000279,0.00000003,-0.00000396,-0.00000130,0.00000
 221,0.00000041,0.00000294,0.00000024,-0.00000913,-0.00001106,-0.000009
 49,-0.00000037,-0.00000106,-0.00000331,0.00000228,0.00000288,-0.000003
 06,0.00000135,-0.00000010,-0.00000136,-0.00000071,-0.00000203,0.000001
 52,-0.00002979,-0.00008247,0.00000583,-0.00002523,-0.00001339,-0.00000
 968,-0.00012801,-0.00004507,-0.00000299,0.00013169,0.00020577,0.000091
 32,0.00001094,-0.00011514,-0.00003858,-0.00011886,-0.00015025,-0.00009
 879,-0.00000701,-0.00000332,0.00000242,0.00000120,-0.00000859,-0.00000
 078,0.00000278,0.00000367,0.00000221,0.00037113,-0.00006498,0.00024542
 ,-0.00130806,0.00073997,-0.00066376,-0.00001807,-0.00014988,-0.0000626
 2,-0.44856545,0.13421382,-0.15895721,0.45913853,-0.00003373,0.00002426
 ,-0.00001450,0.00001632,-0.00000240,0.00000460,-0.00001306,0.00000717,
 -0.00000782,0.00004040,0.00000914,0.00000049,-0.00004813,-0.00003717,0
 .00001226,0.00006091,0.00002729,0.00001893,-0.00003676,0.00000771,0.00
 000661,0.00000461,-0.00000601,-0.00000701,0.00000070,0.00000469,0.0000
 0369,-0.00002105,-0.00000222,-0.00000778,0.00002840,-0.00000315,0.0000
 0058,0.00009797,-0.00001855,0.00001168,0.00000033,0.00000059,0.0000009
 5,0.00000356,0.00000075,0.00000044,-0.00000019,-0.00000236,-0.00000112
 ,-0.00000258,0.00000197,-0.00000512,0.00000030,0.00000106,-0.00000097,
 0.00000149,-0.00000065,-0.00000070,0.00000420,0.00000103,-0.00000198,-
 0.00000152,-0.00000508,0.00000190,0.00000454,-0.00002612,-0.00000396,-
 0.00000193,-0.00000370,-0.00000149,0.00000424,0.00000266,-0.00000185,-
 0.00000808,-0.00000053,-0.00000059,-0.00001133,0.00000197,-0.00000130,
 -0.00000940,0.00002251,-0.00001444,-0.00013446,0.00000407,0.00000118,0
 .00022338,-0.00020589,0.00024679,-0.00013337,-0.00006370,-0.00005966,-
 0.00009817,0.00043372,-0.00034974,-0.00000207,-0.00000181,0.00000041,-
 0.00000128,-0.00000213,0.00000255,0.00000020,0.00000192,0.00000276,-0.
 00118849,-0.00291296,-0.00129696,0.00108785,0.00501553,0.00182066,-0.0
 0013727,-0.00000249,0.00000490,0.09056617,-0.06616084,0.01048444,-0.13
 018869,0.07345792,-0.00000244,0.00000076,0.00000140,0.00000282,0.00000
 146,-0.00000107,0.00000258,0.00000140,-0.00000211,0.00000224,0.0000009
 0,-0.00000155,-0.00000555,-0.00000277,0.00000317,0.00001191,-0.0000154
 6,-0.00003334,-0.00000422,0.00001131,0.00001104,-0.00000166,-0.0000021
 5,0.00000030,-0.00000072,-0.00000071,0.00000029,0.00000949,0.00000094,
 0.00000339,-0.00000821,-0.00001267,-0.00001023,-0.00003072,-0.00001787
 ,-0.00003774,-0.00000034,0.00000044,-0.00000039,-0.00000071,-0.0000011
 3,-0.00000064,0.00000069,0.00000098,0.00000157,0.00000135,0.00000190,0
 .00000226,-0.00000130,-0.00000163,-0.00000018,0.00000156,-0.00000105,0
 .00000006,0.00000076,-0.00000011,-0.00000116,-0.00000036,0.00000382,0.
 00000788,-0.00000323,-0.00000078,0.00001243,-0.00000041,0.00000317,0.0
 0000432,0.00000042,0.00000154,0.00000214,0.00000480,-0.00000162,0.0000
 1151,0.00000901,0.00002241,0.00000376,0.00001189,-0.00000077,0.0000223
 4,0.00003388,0.00000872,0.00002508,-0.00003728,-0.00006730,-0.00011279
 ,-0.00002334,0.00001889,0.00006171,-0.00000976,0.00002697,0.00006193,0
 .00000668,0.00000112,0.00000015,-0.00000110,0.00000711,0.00000454,-0.0
 0000168,-0.00000142,-0.00000149,-0.00006054,-0.00090086,-0.00015608,0.
 00027953,0.00164144,-0.00019052,-0.00023768,0.00018671,0.00012816,-0.1
 8696590,0.03424371,-0.07886389,0.16765009,-0.02662477,0.07404496,0.000
 00875,-0.00001070,0.00000694,-0.00000275,0.00000706,-0.00000331,0.0000
 0555,-0.00000628,0.00000557,-0.00001432,-0.00000671,0.00000226,0.00001
 714,0.00000940,-0.00000597,-0.00002159,0.00000238,0.00000477,0.0000193
 2,-0.00001669,-0.00001390,-0.00000132,0.00000237,0.00000268,-0.0000012
 8,-0.00000546,-0.00000092,0.00000248,-0.00000529,-0.00000067,0.0000000
 1,0.00003043,0.00000295,-0.00005525,0.00007568,0.00003086,-0.00000015,
 0.00000203,-0.00000063,-0.00000062,0.00000130,0.00000004,-0.00000107,0
 .00000083,-0.00000301,0.00000116,-0.00000253,0.00000013,0.00000037,0.0
 0000196,0.00000079,-0.00000348,-0.00000084,0.00000256,-0.00000197,0.00
 000146,0.00000116,0.00000365,0.00000071,-0.00000692,-0.00000109,0.0000
 0418,-0.00000150,0.00000055,0.00000073,-0.00000103,0.00000029,-0.00000
 215,-0.00000036,0.00000335,-0.00000302,-0.00000176,-0.00001468,-0.0000
 5981,0.00000305,-0.00001368,-0.00004937,-0.00001455,0.00010864,-0.0000
 2428,-0.00003768,-0.00014637,-0.00005650,0.00009998,0.00002398,0.00000
 629,0.00000676,0.00011454,0.00014682,-0.00015543,-0.00000534,-0.000002
 46,0.00000192,0.00000165,-0.00000541,-0.00000231,0.00000187,0.00000230
 ,0.00000126,-0.00294064,-0.00088066,-0.00110514,0.00529918,0.00052745,
 0.00127598,0.00002693,-0.00015662,0.00000645,-0.06616713,0.08241506,0.
 01696457,-0.00955936,0.03992604,0.01936747,0.07331267,-0.00001888,-0.0
 0000843,0.00000262,0.00000025,0.00000819,-0.00000165,-0.00000252,0.000
 00110,-0.00000202,0.00001186,0.00000658,-0.00000373,0.00000622,-0.0000
 2033,0.00000755,0.00001098,0.00005336,0.00001714,-0.00001594,-0.000005
 20,-0.00000484,0.00000073,-0.00000427,-0.00000204,0.00000045,0.0000007
 8,0.00000239,-0.00002207,-0.00000273,-0.00000732,0.00002854,0.00002713
 ,0.,0.00012896,0.00006038,0.00001078,0.00000087,0.00000229,0.00000052,
 0.00000294,0.00000285,0.00000052,-0.00000357,-0.00000152,-0.00000284,-
 0.00000089,-0.00000107,-0.00000504,0.00000109,0.00000225,-0.00000062,-
 0.00000248,-0.00000151,0.00000079,0.00000206,0.00000303,-0.00000078,-0
 .00000901,-0.00001137,-0.00000582,0.00000054,-0.00000819,-0.00000263,0
 .00000013,-0.00000042,-0.00000240,0.00000230,0.00000164,-0.00000204,-0
 .00000410,-0.00000126,0.00000171,-0.00003000,-0.00006421,0.00000489,-0
 .00003690,-0.00000140,-0.00001331,-0.00015645,-0.00004175,-0.00000402,
 0.00013472,0.00018274,0.00006847,-0.00000483,-0.00008670,-0.00003100,-
 0.00006566,-0.00013906,-0.00005018,-0.00000656,-0.00000341,0.00000192,
 0.00000063,-0.00000691,0.00000076,0.00000153,0.00000392,0.00000273,-0.
 00001486,0.00035276,0.00028686,0.00063041,-0.00141074,-0.00090039,-0.0
 0016497,0.00003911,-0.00004947,0.12594112,-0.42097833,-0.18868049,-0.0
 0447693,-0.00956820,-0.00853264,-0.12186968,0.43161893,0.00000178,-0.0
 0000158,0.00000244,0.00000134,0.00000021,-0.00000280,0.00000107,0.0000
 0030,-0.00000207,0.00000102,0.00000081,-0.00000153,-0.00000339,-0.0000
 0078,0.00000246,0.00000336,-0.00000759,-0.00001675,-0.00000411,0.00000
 998,0.00001034,-0.00000140,-0.00000178,-0.00000021,-0.00000021,-0.0000
 0219,0.00000105,0.00000786,0.00000186,0.00000403,-0.00000633,-0.000010
 66,-0.00001014,-0.00001136,-0.00001496,-0.00005141,-0.00000024,0.00000
 057,-0.00000061,-0.00000070,-0.00000111,-0.00000051,0.00000049,0.00000
 113,0.00000174,0.00000166,0.00000078,0.00000173,-0.00000086,-0.0000013
 0,-0.00000026,0.00000134,-0.00000151,0.00000080,0.00000057,0.,-0.00000
 122,-0.00000150,0.00000167,0.00000627,-0.00000131,0.00000004,0.0000048
 9,-0.00000053,0.00000185,0.00000257,0.00000028,0.00000173,0.00000182,0
 .00000223,-0.00000021,0.00001222,0.00000648,0.00001839,0.00000481,0.00
 001421,0.00000357,0.00003511,0.00000044,0.00000765,0.00003455,0.000024
 03,-0.00000218,-0.00009612,-0.00000777,0.00000656,0.00002334,-0.000062
 21,-0.00004221,0.00006873,0.00000651,0.00000143,0.00000058,-0.00000146
 ,0.00000615,0.00000348,-0.00000141,-0.00000145,-0.00000167,-0.00069487
 ,0.00013545,-0.00006820,0.00135394,-0.00004654,-0.00033843,0.00017055,
 -0.00028604,0.00006850,0.04379549,-0.21344959,-0.10613063,-0.00816194,
 0.01577592,0.00499879,-0.03643306,0.19789563,0.10143234\\0.00000328,0.
 00000112,-0.00000193,0.00000159,-0.00000498,0.00000230,-0.00000368,0.0
 0000076,-0.00000172,0.00000142,0.00000203,-0.00000278,-0.00000041,-0.0
 0000289,0.00000294,-0.00000266,0.00000248,-0.00000238,-0.00000064,0.00
 000663,0.00000857,-0.00000433,0.00000324,-0.00000467,0.00000170,-0.000
 00385,-0.00000157,-0.00000417,0.00000366,0.00000410,0.00000738,-0.0000
 1166,-0.00000514,0.00000687,0.00001777,0.00000448,-0.00000023,-0.00000
 027,0.00000037,-0.00000008,0.00000088,0.00000098,-0.00000095,0.0000016
 9,0.00000138,-0.00000029,-0.00000008,0.00000065,-0.00000138,0.00000010
 ,0.00000141,0.00000068,-0.00000035,0.00000155,-0.00000068,-0.00000069,
 -0.00000112,-0.00000173,0.00000149,0.00000027,-0.00000009,-0.00000098,
 -0.00000260,0.00000025,-0.00000033,-0.00000128,0.00000058,-0.00000035,
 -0.00000075,0.00000021,0.00000052,0.00000348,0.00000060,0.00000447,0.0
 0000262,-0.00000387,-0.00000831,-0.00000247,-0.00000378,-0.00000993,-0
 .00000061,0.00000162,-0.00000350,-0.00000453,-0.00000281,0.00000242,0.
 00000013,0.00000720,0.00000626,0.00000174,0.00000126,-0.00000005,-0.00
 000008,0.00000024,-0.00000028,-0.00000028,0.00000072,-0.00000035,-0.00
 000074,-0.00000335,0.00000035,-0.00000569,0.00000209,-0.00000322,0.000
 00678,-0.00000197,-0.00000214,-0.00000064,-0.00000543,-0.00000178,-0.0
 0000323,-0.00000234,0.00000262,0.00000017,0.00000719,-0.00000251,0.000
 00030\\\@


 KNOWLEDGE IS OF TWO KINDS:  WE KNOW A SUBJECT OURSELVES OR WE KNOW 
 WHERE WE CAN FIND INFORMATION UPON IT.

                                    -- SAMUEL JOHNSON
 Job cpu time:       1 days  3 hours 53 minutes 55.0 seconds.
 Elapsed time:       0 days  0 hours 59 minutes 50.4 seconds.
 File lengths (MBytes):  RWF=   1240 Int=      0 D2E=      0 Chk=     32 Scr=      8
 Normal termination of Gaussian 16 at Mon Nov  7 22:41:57 2022.
