 Entering Gaussian System, Link 0=g16
 Input=NicPySa4hYibb.gjf
 Output=NicPySa4hYibb.log
 Initial command:
 /sw/contrib/gaussian/g16/A03/g16/l1.exe "/gscratch/scrubbed/gds001/Gau-32326.inp" -scrdir="/gscratch/scrubbed/gds001/"
 Entering Link 1 = /sw/contrib/gaussian/g16/A03/g16/l1.exe PID=     32327.
  
 Copyright (c) 1988,1990,1992,1993,1995,1998,2003,2009,2016,
            Gaussian, Inc.  All Rights Reserved.
  
 This is part of the Gaussian(R) 16 program.  It is based on
 the Gaussian(R) 09 system (copyright 2009, Gaussian, Inc.),
 the Gaussian(R) 03 system (copyright 2003, Gaussian, Inc.),
 the Gaussian(R) 98 system (copyright 1998, Gaussian, Inc.),
 the Gaussian(R) 94 system (copyright 1995, Gaussian, Inc.),
 the Gaussian 92(TM) system (copyright 1992, Gaussian, Inc.),
 the Gaussian 90(TM) system (copyright 1990, Gaussian, Inc.),
 the Gaussian 88(TM) system (copyright 1988, Gaussian, Inc.),
 the Gaussian 86(TM) system (copyright 1986, Carnegie Mellon
 University), and the Gaussian 82(TM) system (copyright 1983,
 Carnegie Mellon University). Gaussian is a federally registered
 trademark of Gaussian, Inc.
  
 This software contains proprietary and confidential information,
 including trade secrets, belonging to Gaussian, Inc.
  
 This software is provided under written license and may be
 used, copied, transmitted, or stored only in accord with that
 written license.
  
 The following legend is applicable only to US Government
 contracts under FAR:
  
                    RESTRICTED RIGHTS LEGEND
  
 Use, reproduction and disclosure by the US Government is
 subject to restrictions as set forth in subparagraphs (a)
 and (c) of the Commercial Computer Software - Restricted
 Rights clause in FAR 52.227-19.
  
 Gaussian, Inc.
 340 Quinnipiac St., Bldg. 40, Wallingford CT 06492
  
  
 ---------------------------------------------------------------
 Warning -- This program may not be used in any manner that
 competes with the business of Gaussian, Inc. or will provide
 assistance to any competitor of Gaussian, Inc.  The licensee
 of this program is prohibited from giving any competitor of
 Gaussian, Inc. access to this program.  By using this program,
 the user acknowledges that Gaussian, Inc. is engaged in the
 business of creating and licensing software in the field of
 computational chemistry and represents and warrants to the
 licensee that it is not a competitor of Gaussian, Inc. and that
 it will not use this program in any manner prohibited above.
 ---------------------------------------------------------------
  

 Cite this work as:
 Gaussian 16, Revision A.03,
 M. J. Frisch, G. W. Trucks, H. B. Schlegel, G. E. Scuseria, 
 M. A. Robb, J. R. Cheeseman, G. Scalmani, V. Barone, 
 G. A. Petersson, H. Nakatsuji, X. Li, M. Caricato, A. V. Marenich, 
 J. Bloino, B. G. Janesko, R. Gomperts, B. Mennucci, H. P. Hratchian, 
 J. V. Ortiz, A. F. Izmaylov, J. L. Sonnenberg, D. Williams-Young, 
 F. Ding, F. Lipparini, F. Egidi, J. Goings, B. Peng, A. Petrone, 
 T. Henderson, D. Ranasinghe, V. G. Zakrzewski, J. Gao, N. Rega, 
 G. Zheng, W. Liang, M. Hada, M. Ehara, K. Toyota, R. Fukuda, 
 J. Hasegawa, M. Ishida, T. Nakajima, Y. Honda, O. Kitao, H. Nakai, 
 T. Vreven, K. Throssell, J. A. Montgomery, Jr., J. E. Peralta, 
 F. Ogliaro, M. J. Bearpark, J. J. Heyd, E. N. Brothers, K. N. Kudin, 
 V. N. Staroverov, T. A. Keith, R. Kobayashi, J. Normand, 
 K. Raghavachari, A. P. Rendell, J. C. Burant, S. S. Iyengar, 
 J. Tomasi, M. Cossi, J. M. Millam, M. Klene, C. Adamo, R. Cammi, 
 J. W. Ochterski, R. L. Martin, K. Morokuma, O. Farkas, 
 J. B. Foresman, and D. J. Fox, Gaussian, Inc., Wallingford CT, 2016.
 
 ******************************************
 Gaussian 16:  ES64L-G16RevA.03 25-Dec-2016
                27-Jan-2023 
 ******************************************
 %nprocshared=28
 Will use up to   28 processors via shared memory.
 %mem=41GB
 -----------------------------
 # wB97XD/aug-cc-pVDZ opt freq
 -----------------------------
 1/18=20,19=15,26=3,38=1/1,3;
 2/9=110,12=2,17=6,18=5,40=1/2;
 3/5=16,7=10,11=2,25=1,30=1,71=1,74=-58/1,2,3;
 4//1;
 5/5=2,38=5/2;
 6/7=2,8=2,9=2,10=2,28=1/1;
 7//1,2,3,16;
 1/18=20,19=15,26=3/3(2);
 2/9=110/2;
 99//99;
 2/9=110/2;
 3/5=16,7=10,11=2,25=1,30=1,71=1,74=-58/1,2,3;
 4/5=5,16=3,69=1/1;
 5/5=2,38=5/2;
 7//1,2,3,16;
 1/18=20,19=15,26=3/3(-5);
 2/9=110/2;
 6/7=2,8=2,9=2,10=2,19=2,28=1/1;
 99/9=1/99;
 ----
 blah
 ----
 Symbolic Z-matrix:
 Charge =  1 Multiplicity = 1
 C                    -1.12634   2.39928  -0.19853 
 C                    -1.18732   1.00295  -0.15662 
 C                     0.01501   0.3143   -0.07424 
 N                     1.18198   0.97388  -0.02879 
 C                     1.25828   2.31208  -0.0593 
 C                     0.0986    3.06179  -0.14591 
 C                    -2.5064    0.26012  -0.15769 
 N                    -2.34212  -1.12321  -0.58557 
 C                    -3.35156  -1.91248   0.11513 
 C                    -3.32158  -1.32689   1.52023 
 C                    -3.1506    0.17999   1.25894 
 O                     3.43893  -0.35068   0.11653 
 O                     4.79268  -1.20765  -2.12644 
 H                    -3.09374  -2.97778   0.07573 
 H                    -4.22656  -1.55084   2.09438 
 H                    -2.46034  -1.7259    2.07053 
 H                    -4.12182   0.68751   1.24616 
 H                    -2.53555   0.67041   2.02198 
 H                    -4.35458  -1.78586  -0.34005 
 H                    -3.19011   0.8091   -0.83486 
 H                     0.0502   -0.77232  -0.05132 
 H                     2.25618   2.74151  -0.01744 
 H                     0.15735   4.14721  -0.17665 
 H                    -2.04931   2.97542  -0.27467 
 C                    -2.33698  -1.29757  -2.02591 
 H                     2.08457   0.41667   0.0304 
 H                     3.9523   -0.68196  -0.64193 
 H                     3.86731  -0.6559    0.93625 
 H                     5.59408  -0.79678  -2.46153 
 H                     4.80341  -2.10957  -2.45757 
 O                     4.54351  -1.1326    2.5178 
 H                     5.30558  -0.7101    2.92289 
 H                     4.51751  -2.02364   2.87642 
 H                    -2.17675  -2.35475  -2.2687 
 H                    -1.519    -0.71929  -2.47708 
 H                    -3.2874   -0.97177  -2.49216 
 O                     4.81044  -3.72013  -3.22981 
 H                     4.01877  -3.84907  -3.78154 
 H                     5.06953  -4.63144  -3.0115 
 
 Add virtual bond connecting atoms H26        and O12        Dist= 2.95D+00.
 Add virtual bond connecting atoms O31        and H28        Dist= 3.37D+00.
 Add virtual bond connecting atoms H27        and O13        Dist= 3.37D+00.
 Add virtual bond connecting atoms O37        and H30        Dist= 3.38D+00.

 GradGradGradGradGradGradGradGradGradGradGradGradGradGradGradGradGradGrad
 Berny optimization.
 Initialization pass.
                           ----------------------------
                           !    Initial Parameters    !
                           ! (Angstroms and Degrees)  !
 --------------------------                            --------------------------
 ! Name  Definition              Value          Derivative Info.                !
 --------------------------------------------------------------------------------
 ! R1    R(1,2)                  1.3983         estimate D2E/DX2                !
 ! R2    R(1,6)                  1.3936         estimate D2E/DX2                !
 ! R3    R(1,24)                 1.0907         estimate D2E/DX2                !
 ! R4    R(2,3)                  1.388          estimate D2E/DX2                !
 ! R5    R(2,7)                  1.5139         estimate D2E/DX2                !
 ! R6    R(3,4)                  1.3412         estimate D2E/DX2                !
 ! R7    R(3,21)                 1.0874         estimate D2E/DX2                !
 ! R8    R(4,5)                  1.3407         estimate D2E/DX2                !
 ! R9    R(4,26)                 1.0624         estimate D2E/DX2                !
 ! R10   R(5,6)                  1.3836         estimate D2E/DX2                !
 ! R11   R(5,22)                 1.0872         estimate D2E/DX2                !
 ! R12   R(6,23)                 1.0874         estimate D2E/DX2                !
 ! R13   R(7,8)                  1.4573         estimate D2E/DX2                !
 ! R14   R(7,11)                 1.5583         estimate D2E/DX2                !
 ! R15   R(7,20)                 1.1079         estimate D2E/DX2                !
 ! R16   R(8,9)                  1.4604         estimate D2E/DX2                !
 ! R17   R(8,25)                 1.4509         estimate D2E/DX2                !
 ! R18   R(9,10)                 1.5225         estimate D2E/DX2                !
 ! R19   R(9,14)                 1.0968         estimate D2E/DX2                !
 ! R20   R(9,19)                 1.1087         estimate D2E/DX2                !
 ! R21   R(10,11)                1.5389         estimate D2E/DX2                !
 ! R22   R(10,15)                1.0949         estimate D2E/DX2                !
 ! R23   R(10,16)                1.0972         estimate D2E/DX2                !
 ! R24   R(11,17)                1.0959         estimate D2E/DX2                !
 ! R25   R(11,18)                1.0959         estimate D2E/DX2                !
 ! R26   R(12,26)                1.559          estimate D2E/DX2                !
 ! R27   R(12,27)                0.9739         estimate D2E/DX2                !
 ! R28   R(12,28)                0.974          estimate D2E/DX2                !
 ! R29   R(13,27)                1.785          estimate D2E/DX2                !
 ! R30   R(13,29)                0.9609         estimate D2E/DX2                !
 ! R31   R(13,30)                0.9608         estimate D2E/DX2                !
 ! R32   R(25,34)                1.0965         estimate D2E/DX2                !
 ! R33   R(25,35)                1.0987         estimate D2E/DX2                !
 ! R34   R(25,36)                1.1076         estimate D2E/DX2                !
 ! R35   R(28,31)                1.7849         estimate D2E/DX2                !
 ! R36   R(30,37)                1.7862         estimate D2E/DX2                !
 ! R37   R(31,32)                0.9609         estimate D2E/DX2                !
 ! R38   R(31,33)                0.9608         estimate D2E/DX2                !
 ! R39   R(37,38)                0.9735         estimate D2E/DX2                !
 ! R40   R(37,39)                0.9722         estimate D2E/DX2                !
 ! A1    A(2,1,6)              120.7923         estimate D2E/DX2                !
 ! A2    A(2,1,24)             119.5164         estimate D2E/DX2                !
 ! A3    A(6,1,24)             119.6912         estimate D2E/DX2                !
 ! A4    A(1,2,3)              117.3508         estimate D2E/DX2                !
 ! A5    A(1,2,7)              121.8692         estimate D2E/DX2                !
 ! A6    A(3,2,7)              120.7544         estimate D2E/DX2                !
 ! A7    A(2,3,4)              120.7767         estimate D2E/DX2                !
 ! A8    A(2,3,21)             121.6717         estimate D2E/DX2                !
 ! A9    A(4,3,21)             117.5502         estimate D2E/DX2                !
 ! A10   A(3,4,5)              122.6555         estimate D2E/DX2                !
 ! A11   A(3,4,26)             118.892          estimate D2E/DX2                !
 ! A12   A(5,4,26)             118.4522         estimate D2E/DX2                !
 ! A13   A(4,5,6)              119.6399         estimate D2E/DX2                !
 ! A14   A(4,5,22)             116.4626         estimate D2E/DX2                !
 ! A15   A(6,5,22)             123.897          estimate D2E/DX2                !
 ! A16   A(1,6,5)              118.7822         estimate D2E/DX2                !
 ! A17   A(1,6,23)             121.3945         estimate D2E/DX2                !
 ! A18   A(5,6,23)             119.8225         estimate D2E/DX2                !
 ! A19   A(2,7,8)              111.5779         estimate D2E/DX2                !
 ! A20   A(2,7,11)             112.6315         estimate D2E/DX2                !
 ! A21   A(2,7,20)             107.1585         estimate D2E/DX2                !
 ! A22   A(8,7,11)             105.3498         estimate D2E/DX2                !
 ! A23   A(8,7,20)             111.1298         estimate D2E/DX2                !
 ! A24   A(11,7,20)            109.0277         estimate D2E/DX2                !
 ! A25   A(7,8,9)              107.1104         estimate D2E/DX2                !
 ! A26   A(7,8,25)             113.9511         estimate D2E/DX2                !
 ! A27   A(9,8,25)             114.4441         estimate D2E/DX2                !
 ! A28   A(8,9,10)             102.7859         estimate D2E/DX2                !
 ! A29   A(8,9,14)             110.1941         estimate D2E/DX2                !
 ! A30   A(8,9,19)             111.506          estimate D2E/DX2                !
 ! A31   A(10,9,14)            113.7101         estimate D2E/DX2                !
 ! A32   A(10,9,19)            110.6571         estimate D2E/DX2                !
 ! A33   A(14,9,19)            107.9894         estimate D2E/DX2                !
 ! A34   A(9,10,11)            102.8326         estimate D2E/DX2                !
 ! A35   A(9,10,15)            112.8921         estimate D2E/DX2                !
 ! A36   A(9,10,16)            109.7833         estimate D2E/DX2                !
 ! A37   A(11,10,15)           112.4055         estimate D2E/DX2                !
 ! A38   A(11,10,16)           110.7352         estimate D2E/DX2                !
 ! A39   A(15,10,16)           108.1444         estimate D2E/DX2                !
 ! A40   A(7,11,10)            104.5156         estimate D2E/DX2                !
 ! A41   A(7,11,17)            109.3874         estimate D2E/DX2                !
 ! A42   A(7,11,18)            112.207          estimate D2E/DX2                !
 ! A43   A(10,11,17)           110.9148         estimate D2E/DX2                !
 ! A44   A(10,11,18)           112.4774         estimate D2E/DX2                !
 ! A45   A(17,11,18)           107.3524         estimate D2E/DX2                !
 ! A46   A(26,12,27)           125.6129         estimate D2E/DX2                !
 ! A47   A(26,12,28)           125.6502         estimate D2E/DX2                !
 ! A48   A(27,12,28)           108.4812         estimate D2E/DX2                !
 ! A49   A(27,13,29)           123.8304         estimate D2E/DX2                !
 ! A50   A(27,13,30)           124.6316         estimate D2E/DX2                !
 ! A51   A(29,13,30)           105.7753         estimate D2E/DX2                !
 ! A52   A(8,25,34)            109.6459         estimate D2E/DX2                !
 ! A53   A(8,25,35)            110.3072         estimate D2E/DX2                !
 ! A54   A(8,25,36)            112.3033         estimate D2E/DX2                !
 ! A55   A(34,25,35)           107.9243         estimate D2E/DX2                !
 ! A56   A(34,25,36)           108.4078         estimate D2E/DX2                !
 ! A57   A(35,25,36)           108.1302         estimate D2E/DX2                !
 ! A58   A(28,31,32)           123.8183         estimate D2E/DX2                !
 ! A59   A(28,31,33)           124.6203         estimate D2E/DX2                !
 ! A60   A(32,31,33)           105.7753         estimate D2E/DX2                !
 ! A61   A(30,37,38)           111.1761         estimate D2E/DX2                !
 ! A62   A(30,37,39)           138.5167         estimate D2E/DX2                !
 ! A63   A(38,37,39)           102.6982         estimate D2E/DX2                !
 ! A64   L(4,26,12,34,-1)      181.9302         estimate D2E/DX2                !
 ! A65   L(12,27,13,25,-1)     176.3125         estimate D2E/DX2                !
 ! A66   L(12,28,31,10,-1)     176.3947         estimate D2E/DX2                !
 ! A67   L(13,30,37,8,-1)      180.6009         estimate D2E/DX2                !
 ! A68   L(4,26,12,34,-2)      178.9498         estimate D2E/DX2                !
 ! A69   L(12,27,13,25,-2)     176.2616         estimate D2E/DX2                !
 ! A70   L(12,28,31,10,-2)     183.7565         estimate D2E/DX2                !
 ! A71   L(13,30,37,8,-2)      174.4152         estimate D2E/DX2                !
 ! D1    D(6,1,2,3)             -0.603          estimate D2E/DX2                !
 ! D2    D(6,1,2,7)            177.5699         estimate D2E/DX2                !
 ! D3    D(24,1,2,3)           179.3151         estimate D2E/DX2                !
 ! D4    D(24,1,2,7)            -2.512          estimate D2E/DX2                !
 ! D5    D(2,1,6,5)              0.3863         estimate D2E/DX2                !
 ! D6    D(2,1,6,23)          -179.9294         estimate D2E/DX2                !
 ! D7    D(24,1,6,5)          -179.5317         estimate D2E/DX2                !
 ! D8    D(24,1,6,23)            0.1527         estimate D2E/DX2                !
 ! D9    D(1,2,3,4)              0.4095         estimate D2E/DX2                !
 ! D10   D(1,2,3,21)          -179.1446         estimate D2E/DX2                !
 ! D11   D(7,2,3,4)           -177.7848         estimate D2E/DX2                !
 ! D12   D(7,2,3,21)             2.6611         estimate D2E/DX2                !
 ! D13   D(1,2,7,8)            159.5636         estimate D2E/DX2                !
 ! D14   D(1,2,7,11)           -82.1885         estimate D2E/DX2                !
 ! D15   D(1,2,7,20)            37.7058         estimate D2E/DX2                !
 ! D16   D(3,2,7,8)            -22.3249         estimate D2E/DX2                !
 ! D17   D(3,2,7,11)            95.923          estimate D2E/DX2                !
 ! D18   D(3,2,7,20)          -144.1827         estimate D2E/DX2                !
 ! D19   D(2,3,4,5)              0.0087         estimate D2E/DX2                !
 ! D20   D(2,3,4,26)          -179.7726         estimate D2E/DX2                !
 ! D21   D(21,3,4,5)           179.5807         estimate D2E/DX2                !
 ! D22   D(21,3,4,26)           -0.2006         estimate D2E/DX2                !
 ! D23   D(3,4,5,6)             -0.2428         estimate D2E/DX2                !
 ! D24   D(3,4,5,22)          -179.9717         estimate D2E/DX2                !
 ! D25   D(26,4,5,6)           179.5394         estimate D2E/DX2                !
 ! D26   D(26,4,5,22)           -0.1895         estimate D2E/DX2                !
 ! D27   D(3,4,12,27)           87.728          estimate D2E/DX2                !
 ! D28   D(3,4,12,28)          -87.035          estimate D2E/DX2                !
 ! D29   D(5,4,12,27)          -92.0377         estimate D2E/DX2                !
 ! D30   D(5,4,12,28)           93.1993         estimate D2E/DX2                !
 ! D31   D(4,5,6,1)              0.0417         estimate D2E/DX2                !
 ! D32   D(4,5,6,23)          -179.6477         estimate D2E/DX2                !
 ! D33   D(22,5,6,1)           179.7494         estimate D2E/DX2                !
 ! D34   D(22,5,6,23)            0.0599         estimate D2E/DX2                !
 ! D35   D(2,7,8,9)            148.6368         estimate D2E/DX2                !
 ! D36   D(2,7,8,25)           -83.737          estimate D2E/DX2                !
 ! D37   D(11,7,8,9)            26.1116         estimate D2E/DX2                !
 ! D38   D(11,7,8,25)          153.7378         estimate D2E/DX2                !
 ! D39   D(20,7,8,9)           -91.8281         estimate D2E/DX2                !
 ! D40   D(20,7,8,25)           35.7981         estimate D2E/DX2                !
 ! D41   D(2,7,11,10)         -122.5476         estimate D2E/DX2                !
 ! D42   D(2,7,11,17)          118.6344         estimate D2E/DX2                !
 ! D43   D(2,7,11,18)           -0.3892         estimate D2E/DX2                !
 ! D44   D(8,7,11,10)           -0.7023         estimate D2E/DX2                !
 ! D45   D(8,7,11,17)         -119.5203         estimate D2E/DX2                !
 ! D46   D(8,7,11,18)          121.4561         estimate D2E/DX2                !
 ! D47   D(20,7,11,10)         118.6442         estimate D2E/DX2                !
 ! D48   D(20,7,11,17)          -0.1738         estimate D2E/DX2                !
 ! D49   D(20,7,11,18)        -119.1974         estimate D2E/DX2                !
 ! D50   D(7,8,9,10)           -41.4167         estimate D2E/DX2                !
 ! D51   D(7,8,9,14)          -162.9377         estimate D2E/DX2                !
 ! D52   D(7,8,9,19)            77.1534         estimate D2E/DX2                !
 ! D53   D(25,8,9,10)         -168.754          estimate D2E/DX2                !
 ! D54   D(25,8,9,14)           69.725          estimate D2E/DX2                !
 ! D55   D(25,8,9,19)          -50.1839         estimate D2E/DX2                !
 ! D56   D(7,8,25,34)          178.142          estimate D2E/DX2                !
 ! D57   D(7,8,25,35)           59.421          estimate D2E/DX2                !
 ! D58   D(7,8,25,36)          -61.2711         estimate D2E/DX2                !
 ! D59   D(9,8,25,34)          -58.1096         estimate D2E/DX2                !
 ! D60   D(9,8,25,35)         -176.8306         estimate D2E/DX2                !
 ! D61   D(9,8,25,36)           62.4773         estimate D2E/DX2                !
 ! D62   D(8,9,10,11)           39.224          estimate D2E/DX2                !
 ! D63   D(8,9,10,15)          160.5919         estimate D2E/DX2                !
 ! D64   D(8,9,10,16)          -78.6696         estimate D2E/DX2                !
 ! D65   D(14,9,10,11)         158.3203         estimate D2E/DX2                !
 ! D66   D(14,9,10,15)         -80.3118         estimate D2E/DX2                !
 ! D67   D(14,9,10,16)          40.4267         estimate D2E/DX2                !
 ! D68   D(19,9,10,11)         -79.9397         estimate D2E/DX2                !
 ! D69   D(19,9,10,15)          41.4282         estimate D2E/DX2                !
 ! D70   D(19,9,10,16)         162.1667         estimate D2E/DX2                !
 ! D71   D(9,10,11,7)          -23.3301         estimate D2E/DX2                !
 ! D72   D(9,10,11,17)          94.4468         estimate D2E/DX2                !
 ! D73   D(9,10,11,18)        -145.3111         estimate D2E/DX2                !
 ! D74   D(15,10,11,7)        -145.0289         estimate D2E/DX2                !
 ! D75   D(15,10,11,17)        -27.252          estimate D2E/DX2                !
 ! D76   D(15,10,11,18)         92.9901         estimate D2E/DX2                !
 ! D77   D(16,10,11,7)          93.8901         estimate D2E/DX2                !
 ! D78   D(16,10,11,17)       -148.333          estimate D2E/DX2                !
 ! D79   D(16,10,11,18)        -28.0909         estimate D2E/DX2                !
 ! D80   D(26,12,13,29)        106.1897         estimate D2E/DX2                !
 ! D81   D(26,12,13,30)       -102.0292         estimate D2E/DX2                !
 ! D82   D(28,12,13,29)        -78.9423         estimate D2E/DX2                !
 ! D83   D(28,12,13,30)         72.8388         estimate D2E/DX2                !
 ! D84   D(26,12,31,32)       -106.2393         estimate D2E/DX2                !
 ! D85   D(26,12,31,33)        102.0696         estimate D2E/DX2                !
 ! D86   D(27,12,31,32)         78.9152         estimate D2E/DX2                !
 ! D87   D(27,12,31,33)        -72.7759         estimate D2E/DX2                !
 ! D88   D(27,13,37,38)         83.7467         estimate D2E/DX2                !
 ! D89   D(27,13,37,39)        -60.1584         estimate D2E/DX2                !
 ! D90   D(29,13,37,38)       -119.8231         estimate D2E/DX2                !
 ! D91   D(29,13,37,39)         96.2718         estimate D2E/DX2                !
 --------------------------------------------------------------------------------
 Trust Radius=3.00D-01 FncErr=1.00D-07 GrdErr=1.00D-06 EigMax=2.50D+02 EigMin=1.00D-04
 Number of steps in this run=    212 maximum allowed number of steps=    234.
 GradGradGradGradGradGradGradGradGradGradGradGradGradGradGradGradGradGrad

                          Input orientation:                          
 ---------------------------------------------------------------------
 Center     Atomic      Atomic             Coordinates (Angstroms)
 Number     Number       Type             X           Y           Z
 ---------------------------------------------------------------------
      1          6           0       -1.126336    2.399281   -0.198532
      2          6           0       -1.187324    1.002951   -0.156621
      3          6           0        0.015009    0.314300   -0.074237
      4          7           0        1.181983    0.973879   -0.028789
      5          6           0        1.258284    2.312080   -0.059304
      6          6           0        0.098598    3.061786   -0.145906
      7          6           0       -2.506400    0.260122   -0.157689
      8          7           0       -2.342116   -1.123212   -0.585566
      9          6           0       -3.351562   -1.912481    0.115134
     10          6           0       -3.321579   -1.326894    1.520230
     11          6           0       -3.150595    0.179990    1.258936
     12          8           0        3.438930   -0.350679    0.116534
     13          8           0        4.792677   -1.207647   -2.126440
     14          1           0       -3.093735   -2.977779    0.075727
     15          1           0       -4.226560   -1.550844    2.094382
     16          1           0       -2.460335   -1.725901    2.070530
     17          1           0       -4.121821    0.687506    1.246158
     18          1           0       -2.535551    0.670406    2.021984
     19          1           0       -4.354579   -1.785864   -0.340052
     20          1           0       -3.190110    0.809101   -0.834861
     21          1           0        0.050204   -0.772322   -0.051324
     22          1           0        2.256175    2.741509   -0.017442
     23          1           0        0.157354    4.147207   -0.176650
     24          1           0       -2.049314    2.975421   -0.274669
     25          6           0       -2.336982   -1.297567   -2.025912
     26          1           0        2.084568    0.416668    0.030404
     27          1           0        3.952300   -0.681956   -0.641928
     28          1           0        3.867309   -0.655896    0.936248
     29          1           0        5.594082   -0.796784   -2.461534
     30          1           0        4.803406   -2.109566   -2.457567
     31          8           0        4.543509   -1.132603    2.517797
     32          1           0        5.305579   -0.710098    2.922885
     33          1           0        4.517506   -2.023640    2.876415
     34          1           0       -2.176754   -2.354747   -2.268703
     35          1           0       -1.519001   -0.719289   -2.477075
     36          1           0       -3.287397   -0.971774   -2.492159
     37          8           0        4.810444   -3.720134   -3.229808
     38          1           0        4.018768   -3.849066   -3.781535
     39          1           0        5.069525   -4.631442   -3.011496
 ---------------------------------------------------------------------
                    Distance matrix (angstroms):
                    1          2          3          4          5
     1  C    0.000000
     2  C    1.398290   0.000000
     3  C    2.380181   1.388032   0.000000
     4  N    2.718257   2.372931   1.341245   0.000000
     5  C    2.390272   2.775660   2.353100   1.340722   0.000000
     6  C    1.393609   2.427450   2.749691   2.355163   1.383630
     7  C    2.546026   1.513855   2.523371   3.759020   4.288713
     8  N    3.746448   2.457256   2.807835   4.138486   5.004105
     9  C    4.862233   3.641088   4.040819   5.376320   6.255240
    10  C    4.653774   3.577017   4.045820   5.289148   6.059060
    11  C    3.338726   2.556462   3.437505   4.589088   5.071664
    12  O    5.338839   4.827955   3.493111   2.620951   3.446218
    13  O    7.194545   6.672881   5.417931   4.711296   5.399395
    14  H    5.732247   4.419796   4.530404   5.823082   6.851344
    15  H    5.520175   4.563534   5.115914   6.335173   7.045854
    16  H    4.893396   3.745316   3.858727   4.996242   5.888091
    17  H    3.740352   3.267808   4.358450   5.462402   5.769662
    18  H    3.147314   2.583529   3.320589   4.256504   4.628179
    19  H    5.287440   4.224055   4.855373   6.194077   6.955300
    20  H    2.681930   2.123379   3.331091   4.448831   4.759059
    21  H    3.385998   2.166600   1.087433   2.081021   3.312560
    22  H    3.404599   3.860005   3.304148   2.068462   1.087174
    23  H    2.168775   3.419782   3.836916   3.337924   2.143247
    24  H    1.090698   2.155829   3.373895   3.808925   3.380327
    25  C    4.297868   3.179362   3.455288   4.640160   5.461047
    26  H    3.780618   3.329262   2.074730   1.062378   2.069633
    27  H    5.956775   5.430485   4.100861   3.285177   4.069573
    28  H    5.963080   5.430971   4.099094   3.286098   4.075171
    29  H    7.778176   7.385062   6.169258   5.340423   5.851059
    30  H    7.784265   7.132388   5.872319   5.340534   6.153902
    31  O    7.211088   6.674994   5.414747   4.714045   5.412947
    32  H    7.796218   7.387536   6.166219   5.343426   5.865800
    33  H    7.801954   7.134749   5.868968   5.343318   6.167612
    34  H    5.290536   4.088276   4.091860   5.232407   6.201629
    35  H    3.882193   2.908716   3.032346   4.019482   4.769500
    36  H    4.614642   3.710065   4.290247   5.461604   6.112749
    37  O    9.048824   8.229534   7.016443   6.741365   7.684890
    38  H    8.851657   7.986580   6.863509   6.737303   7.709409
    39  H    9.784300   8.890718   7.657414   7.445076   8.453017
                    6          7          8          9         10
     6  C    0.000000
     7  C    3.825634   0.000000
     8  N    4.864627   1.457285   0.000000
     9  C    6.059297   2.347112   1.460448   0.000000
    10  C    5.808109   2.449193   2.331354   1.522533   0.000000
    11  C    4.564601   1.558279   2.398783   2.393137   1.538899
    12  O    4.782427   5.982911   5.874542   6.967784   6.973366
    13  O    6.647176   7.701094   7.299773   8.476442   8.896829
    14  H    6.834944   3.299007   2.107524   1.096762   2.205430
    15  H    6.708371   3.363090   3.303955   2.194043   1.094895
    16  H    5.863674   2.985192   2.726180   2.157005   1.097168
    17  H    5.038550   2.182436   3.130697   2.938103   2.184791
    18  H    4.166196   2.218143   3.170773   3.312591   2.204270
    19  H    6.585453   2.763165   2.132930   1.108724   2.176785
    20  H    4.045349   1.107881   2.124871   2.887138   3.182171
    21  H    3.835580   2.759253   2.476234   3.591613   3.761150
    22  H    2.184999   5.372064   6.033499   7.288615   7.073025
    23  H    1.087445   4.712258   5.847382   7.008384   6.704339
    24  H    2.153501   2.755986   4.120823   5.073399   4.832208
    25  C    5.335769   2.438310   1.450870   2.447768   3.680410
    26  H    3.312372   4.597485   4.727175   5.914696   5.872479
    27  H    5.395615   6.544983   6.310115   7.445383   7.615785
    28  H    5.403277   6.531459   6.410247   7.373285   7.243713
    29  H    7.102890   8.487789   8.161437   9.375956   9.778777
    30  H    7.363551   8.021105   7.452232   8.553428   9.080244
    31  O    6.666742   7.668059   7.552667   8.289339   7.930479
    32  H    7.124411   8.453300   8.424199   9.180157   8.762176
    33  H    7.383951   7.984774   7.736310   8.340219   7.985984
    34  H    6.246785   3.376772   2.092122   2.694151   4.089391
    35  H    4.727315   2.704395   2.102018   3.391391   4.426841
    36  H    5.765368   2.752685   2.133445   2.772548   4.028218
    37  O    8.815122   8.877869   8.055751   9.004143   9.717008
    38  H    8.737586   8.520299   7.622686   8.558981   9.399508
    39  H    9.597264   9.458661   8.551330   9.385269  10.092929
                   11         12         13         14         15
    11  C    0.000000
    12  O    6.708840   0.000000
    13  O    8.745392   2.756439   0.000000
    14  H    3.372643   7.041238   8.377255   0.000000
    15  H    2.202602   8.006998   9.963923   2.719265   0.000000
    16  H    2.183475   6.364799   8.395792   2.438777   1.775039
    17  H    1.095909   7.714845   9.717731   3.982610   2.395968
    18  H    1.095915   6.353564   8.627829   4.172378   2.792616
    19  H    2.805516   7.937695   9.337977   1.784170   2.449100
    20  H    2.186625   6.796647   8.334287   3.896013   3.901799
    21  H    3.587310   3.418980   5.194869   3.842465   4.847769
    22  H    6.117490   3.313380   5.145634   7.832016   8.056671
    23  H    5.361179   5.575453   7.345908   7.835732   7.539501
    24  H    3.373307   6.429370   8.230429   6.054270   5.553366
    25  C    3.692610   6.232803   7.130935   2.795116   4.539986
    26  H    5.382587   1.559018   3.824164   6.191861   6.925420
    27  H    7.403199   0.973939   1.785038   7.445297   8.668109
    28  H    7.074872   0.973959   3.246659   7.388354   8.225140
    29  H    9.553291   3.389709   0.960909   9.309812  10.852188
    30  H    9.073070   3.403157   0.960842   8.338837  10.127818
    31  O    7.906128   2.756368   4.651522   8.227750   8.790240
    32  H    8.664171   3.389567   5.099638   9.154079   9.604944
    33  H    8.140761   3.402803   5.076428   8.166102   8.791689
    34  H    4.451684   6.421958   7.064633   2.593333   4.887175
    35  H    4.174755   5.607474   6.340246   3.754645   5.377786
    36  H    3.926320   7.241168   8.091785   3.264292   4.717384
    37  O    9.936696   4.942902   2.744144   8.599633  10.710754
    38  H    9.645693   5.269712   3.211755   8.137893  10.382372
    39  H   10.438240   5.546922   3.547160   8.882813  11.044333
                   16         17         18         19         20
    16  H    0.000000
    17  H    3.043790   0.000000
    18  H    2.397979   1.765914   0.000000
    19  H    3.066376   2.947507   3.862815   0.000000
    20  H    3.924297   2.283311   2.934152   2.886982   0.000000
    21  H    3.422628   4.606555   3.614720   4.529100   3.689778
    22  H    6.823697   6.818684   5.604406   8.018931   5.836471
    23  H    6.811425   5.683771   4.916693   7.455573   4.773019
    24  H    5.269851   3.441330   3.290005   5.290402   2.511608
    25  C    4.120622   4.222867   4.505309   2.674183   2.566024
    26  H    5.422994   6.330140   5.037487   6.815497   5.359563
    27  H    7.040535   8.404268   7.142655   8.385343   7.298938
    28  H    6.516946   8.107217   6.628312   8.396738   7.422278
    29  H    9.288514  10.504707   9.399229  10.220314   9.076726
    30  H    8.568127  10.059864   9.036311   9.405176   8.663030
    31  O    7.043144   8.945267   7.321869   9.368566   8.649820
    32  H    7.878311   9.676806   8.012536  10.252935   9.413042
    33  H    7.030531   9.200327   7.598260   9.440132   9.011400
    34  H    4.393724   5.039131   5.262156   2.964160   3.618387
    35  H    4.751851   4.755650   4.817277   3.707419   2.797400
    36  H    4.697964   4.174265   4.862048   2.536372   2.434670
    37  O    9.216006  10.920023  10.041006   9.802537   9.500452
    38  H    8.985169  10.589021   9.852185   9.285125   9.074653
    39  H    9.537712  11.441140  10.549062  10.200376  10.127133
                   21         22         23         24         25
    21  H    0.000000
    22  H    4.149032   0.000000
    23  H    4.922291   2.531083   0.000000
    24  H    4.301562   4.319504   2.500415   0.000000
    25  C    3.142218   6.437793   6.267938   4.626881   0.000000
    26  H    2.357756   2.331657   4.204039   4.871270   5.168863
    27  H    3.947573   3.871296   6.159457   7.037802   6.469116
    28  H    3.944508   3.879129   6.170260   7.046929   6.905024
    29  H    6.045188   5.443779   7.695567   8.799626   7.958789
    30  H    5.492828   5.997960   8.120073   8.808059   7.199362
    31  O    5.188446   5.164114   7.373927   8.254638   8.247040
    32  H    6.038937   5.464245   7.726885   8.826203   9.123840
    33  H    5.485822   6.016201   8.149324   8.834199   8.458369
    34  H    3.518548   7.119751   7.218043   5.692372   1.096472
    35  H    2.889547   5.681450   5.637810   4.333902   1.098657
    36  H    4.139690   7.116452   6.590285   4.693662   1.107617
    37  O    6.438341   7.654829   9.636808  10.030931   7.642244
    38  H    6.255424   7.791714   9.583637   9.782297   7.070213
    39  H    6.989207   8.440362  10.451338  10.771837   8.181837
                   26         27         28         29         30
    26  H    0.000000
    27  H    2.268794   0.000000
    28  H    2.269166   1.580678   0.000000
    29  H    4.472014   2.453487   3.813990   0.000000
    30  H    4.468102   2.461503   3.808860   1.532508   0.000000
    31  O    3.825409   3.245993   1.784879   5.100021   5.077032
    32  H    4.473361   3.813141   2.453219   5.392839   5.582110
    33  H    4.469236   3.807665   2.461245   5.581925   5.342330
    34  H    5.579023   6.558196   7.049007   7.927820   6.987018
    35  H    4.534706   5.770987   6.377078   7.113522   6.473491
    36  H    6.095006   7.478005   7.939998   8.883256   8.170487
    37  O    5.930642   4.082163   5.256908   3.122548   1.786151
    38  H    6.038915   4.460060   5.698838   3.679734   2.322587
    39  H    6.606553   4.739355   5.730181   3.909248   2.595672
                   31         32         33         34         35
    31  O    0.000000
    32  H    0.960915   0.000000
    33  H    0.960849   1.532518   0.000000
    34  H    8.340633   9.254338   8.449555   0.000000
    35  H    7.865978   8.702560   8.173164   1.775044   0.000000
    36  H    9.297775  10.160237   9.531239   1.787757   1.786393
    37  O    6.308846   6.867395   6.344278   7.183936   7.045108
    38  H    6.880124   7.513871   6.921649   6.550278   6.493381
    39  H    6.564423   7.116849   6.463192   7.631753   7.681095
                   36         37         38         39
    36  H    0.000000
    37  O    8.583276   0.000000
    38  H    7.957471   0.973538   0.000000
    39  H    9.137890   0.972248   1.519594   0.000000
 Stoichiometry    C10H23N2O4(1+)
 Framework group  C1[X(C10H23N2O4)]
 Deg. of freedom   111
 Full point group                 C1      NOp   1
 Largest Abelian subgroup         C1      NOp   1
 Largest concise Abelian subgroup C1      NOp   1
                         Standard orientation:                         
 ---------------------------------------------------------------------
 Center     Atomic      Atomic             Coordinates (Angstroms)
 Number     Number       Type             X           Y           Z
 ---------------------------------------------------------------------
      1          6           0        2.003920   -1.923314   -1.338070
      2          6           0        1.783815   -0.744860   -0.618338
      3          6           0        0.495334   -0.509379   -0.158994
      4          7           0       -0.489063   -1.389161   -0.395393
      5          6           0       -0.293802   -2.527642   -1.076032
      6          6           0        0.965319   -2.823824   -1.567277
      7          6           0        2.905179    0.223860   -0.308691
      8          7           0        2.394538    1.552178    0.005152
      9          6           0        3.320536    2.153730    0.960960
     10          6           0        3.637833    0.995761    1.897195
     11          6           0        3.739011   -0.202411    0.936801
     12          8           0       -2.915745   -0.915808    0.474396
     13          8           0       -4.759558    0.506301   -1.000704
     14          1           0        2.847259    3.007772    1.460470
     15          1           0        4.558266    1.150724    2.469545
     16          1           0        2.813338    0.855789    2.607402
     17          1           0        4.778511   -0.376383    0.636487
     18          1           0        3.368508   -1.131234    1.385180
     19          1           0        4.241496    2.516501    0.461461
     20          1           0        3.568514    0.250280   -1.195646
     21          1           0        0.242683    0.390952    0.396058
     22          1           0       -1.162627   -3.167396   -1.209473
     23          1           0        1.125754   -3.743654   -2.124690
     24          1           0        3.000671   -2.138290   -1.725233
     25          6           0        2.121809    2.369339   -1.162277
     26          1           0       -1.464982   -1.177076   -0.033109
     27          1           0       -3.601403   -0.414089   -0.001745
     28          1           0       -3.259711   -1.149343    1.355160
     29          1           0       -5.503220    0.108373   -1.461103
     30          1           0       -5.007839    1.421431   -0.845427
     31          8           0       -3.755277   -1.656245    2.993225
     32          1           0       -4.339309   -2.398660    3.169536
     33          1           0       -3.854724   -1.062136    3.741806
     34          1           0        1.711651    3.336336   -0.847736
     35          1           0        1.377700    1.879455   -1.805209
     36          1           0        3.030959    2.555088   -1.767057
     37          8           0       -5.468652    3.142984   -0.726087
     38          1           0       -4.819589    3.712740   -1.175390
     39          1           0       -5.870101    3.746283   -0.077908
 ---------------------------------------------------------------------
 Rotational constants (GHZ):           0.4421598           0.1875270           0.1653923
 Standard basis: Aug-CC-pVDZ (5D, 7F)
 There are   607 symmetry adapted cartesian basis functions of A   symmetry.
 There are   575 symmetry adapted basis functions of A   symmetry.
   575 basis functions,   941 primitive gaussians,   607 cartesian basis functions
    64 alpha electrons       64 beta electrons
       nuclear repulsion energy      1126.4535823464 Hartrees.
 NAtoms=   39 NActive=   39 NUniq=   39 SFac= 1.00D+00 NAtFMM=   60 NAOKFM=F Big=F
 Integral buffers will be    131072 words long.
 Raffenetti 2 integral format.
 Two-electron integral symmetry is turned on.
 Nuclear repulsion after empirical dispersion term =     1126.4299207814 Hartrees.
 One-electron integrals computed using PRISM.
 NBasis=   575 RedAO= T EigKep=  2.39D-06  NBF=   575
 NBsUse=   575 1.00D-06 EigRej= -1.00D+00 NBFU=   575
 ExpMin= 2.97D-02 ExpMax= 1.17D+04 ExpMxC= 4.01D+02 IAcc=3 IRadAn=         5 AccDes= 0.00D+00
 Harris functional with IExCor= 4639 and IRadAn=       5 diagonalized for initial guess.
 HarFok:  IExCor= 4639 AccDes= 0.00D+00 IRadAn=         5 IDoV= 1 UseB2=F ITyADJ=14
 ICtDFT=  3500011 ScaDFX=  1.000000  1.000000  1.000000  1.000000
 FoFCou: FMM=F IPFlag=           0 FMFlag=      100000 FMFlg1=           0
         NFxFlg=           0 DoJE=T BraDBF=F KetDBF=T FulRan=T
         wScrn=  0.000000 ICntrl=       500 IOpCl=  0 I1Cent=   200000004 NGrid=           0
         NMat0=    1 NMatS0=      1 NMatT0=    0 NMatD0=    1 NMtDS0=    0 NMtDT0=    0
 Petite list used in FoFCou.
 Requested convergence on RMS density matrix=1.00D-08 within 128 cycles.
 Requested convergence on MAX density matrix=1.00D-06.
 Requested convergence on             energy=1.00D-06.
 No special actions if energy rises.
 SCF Done:  E(RwB97XD) =  -805.020826127     A.U. after   14 cycles
            NFock= 14  Conv=0.61D-08     -V/T= 2.0063

 **********************************************************************

            Population analysis using the SCF density.

 **********************************************************************

 Orbital symmetries:
       Occupied  (A) (A) (A) (A) (A) (A) (A) (A) (A) (A) (A) (A)
                 (A) (A) (A) (A) (A) (A) (A) (A) (A) (A) (A) (A)
                 (A) (A) (A) (A) (A) (A) (A) (A) (A) (A) (A) (A)
                 (A) (A) (A) (A) (A) (A) (A) (A) (A) (A) (A) (A)
                 (A) (A) (A) (A) (A) (A) (A) (A) (A) (A) (A) (A)
                 (A) (A) (A) (A)
       Virtual   (A) (A) (A) (A) (A) (A) (A) (A) (A) (A) (A) (A)
                 (A) (A) (A) (A) (A) (A) (A) (A) (A) (A) (A) (A)
                 (A) (A) (A) (A) (A) (A) (A) (A) (A) (A) (A) (A)
                 (A) (A) (A) (A) (A) (A) (A) (A) (A) (A) (A) (A)
                 (A) (A) (A) (A) (A) (A) (A) (A) (A) (A) (A) (A)
                 (A) (A) (A) (A) (A) (A) (A) (A) (A) (A) (A) (A)
                 (A) (A) (A) (A) (A) (A) (A) (A) (A) (A) (A) (A)
                 (A) (A) (A) (A) (A) (A) (A) (A) (A) (A) (A) (A)
                 (A) (A) (A) (A) (A) (A) (A) (A) (A) (A) (A) (A)
                 (A) (A) (A) (A) (A) (A) (A) (A) (A) (A) (A) (A)
                 (A) (A) (A) (A) (A) (A) (A) (A) (A) (A) (A) (A)
                 (A) (A) (A) (A) (A) (A) (A) (A) (A) (A) (A) (A)
                 (A) (A) (A) (A) (A) (A) (A) (A) (A) (A) (A) (A)
                 (A) (A) (A) (A) (A) (A) (A) (A) (A) (A) (A) (A)
                 (A) (A) (A) (A) (A) (A) (A) (A) (A) (A) (A) (A)
                 (A) (A) (A) (A) (A) (A) (A) (A) (A) (A) (A) (A)
                 (A) (A) (A) (A) (A) (A) (A) (A) (A) (A) (A) (A)
                 (A) (A) (A) (A) (A) (A) (A) (A) (A) (A) (A) (A)
                 (A) (A) (A) (A) (A) (A) (A) (A) (A) (A) (A) (A)
                 (A) (A) (A) (A) (A) (A) (A) (A) (A) (A) (A) (A)
                 (A) (A) (A) (A) (A) (A) (A) (A) (A) (A) (A) (A)
                 (A) (A) (A) (A) (A) (A) (A) (A) (A) (A) (A) (A)
                 (A) (A) (A) (A) (A) (A) (A) (A) (A) (A) (A) (A)
                 (A) (A) (A) (A) (A) (A) (A) (A) (A) (A) (A) (A)
                 (A) (A) (A) (A) (A) (A) (A) (A) (A) (A) (A) (A)
                 (A) (A) (A) (A) (A) (A) (A) (A) (A) (A) (A) (A)
                 (A) (A) (A) (A) (A) (A) (A) (A) (A) (A) (A) (A)
                 (A) (A) (A) (A) (A) (A) (A) (A) (A) (A) (A) (A)
                 (A) (A) (A) (A) (A) (A) (A) (A) (A) (A) (A) (A)
                 (A) (A) (A) (A) (A) (A) (A) (A) (A) (A) (A) (A)
                 (A) (A) (A) (A) (A) (A) (A) (A) (A) (A) (A) (A)
                 (A) (A) (A) (A) (A) (A) (A) (A) (A) (A) (A) (A)
                 (A) (A) (A) (A) (A) (A) (A) (A) (A) (A) (A) (A)
                 (A) (A) (A) (A) (A) (A) (A) (A) (A) (A) (A) (A)
                 (A) (A) (A) (A) (A) (A) (A) (A) (A) (A) (A) (A)
                 (A) (A) (A) (A) (A) (A) (A) (A) (A) (A) (A) (A)
                 (A) (A) (A) (A) (A) (A) (A) (A) (A) (A) (A) (A)
                 (A) (A) (A) (A) (A) (A) (A) (A) (A) (A) (A) (A)
                 (A) (A) (A) (A) (A) (A) (A) (A) (A) (A) (A) (A)
                 (A) (A) (A) (A) (A) (A) (A) (A) (A) (A) (A) (A)
                 (A) (A) (A) (A) (A) (A) (A) (A) (A) (A) (A) (A)
                 (A) (A) (A) (A) (A) (A) (A) (A) (A) (A) (A) (A)
                 (A) (A) (A) (A) (A) (A) (A)
 The electronic state is 1-A.
 Alpha  occ. eigenvalues --  -19.39819 -19.39405 -19.36549 -19.36440 -14.65862
 Alpha  occ. eigenvalues --  -14.54610 -10.49595 -10.48904 -10.46378 -10.45614
 Alpha  occ. eigenvalues --  -10.45592 -10.44493 -10.41124 -10.41074 -10.39987
 Alpha  occ. eigenvalues --  -10.38810  -1.24307  -1.24090  -1.23266  -1.21342
 Alpha  occ. eigenvalues --   -1.20255  -1.15010  -1.06759  -1.03034  -0.98699
 Alpha  occ. eigenvalues --   -0.94217  -0.89096  -0.87918  -0.86762  -0.80946
 Alpha  occ. eigenvalues --   -0.78016  -0.77005  -0.74539  -0.73307  -0.73073
 Alpha  occ. eigenvalues --   -0.73009  -0.72196  -0.71814  -0.69488  -0.68298
 Alpha  occ. eigenvalues --   -0.67607  -0.66169  -0.63235  -0.63039  -0.62848
 Alpha  occ. eigenvalues --   -0.61653  -0.61138  -0.59981  -0.59807  -0.57419
 Alpha  occ. eigenvalues --   -0.56620  -0.55610  -0.55275  -0.54651  -0.53818
 Alpha  occ. eigenvalues --   -0.52647  -0.52068  -0.51938  -0.51558  -0.50785
 Alpha  occ. eigenvalues --   -0.50588  -0.49936  -0.47621  -0.40597
 Alpha virt. eigenvalues --   -0.12658  -0.09225  -0.06115  -0.04919  -0.04773
 Alpha virt. eigenvalues --   -0.03863  -0.03199  -0.03085  -0.02584  -0.02147
 Alpha virt. eigenvalues --   -0.01853  -0.01311  -0.00949  -0.00828  -0.00448
 Alpha virt. eigenvalues --   -0.00059   0.00243   0.00540   0.01068   0.01791
 Alpha virt. eigenvalues --    0.01985   0.02163   0.02699   0.03106   0.03170
 Alpha virt. eigenvalues --    0.03724   0.03951   0.04189   0.04792   0.04926
 Alpha virt. eigenvalues --    0.04996   0.05551   0.06041   0.06124   0.06353
 Alpha virt. eigenvalues --    0.06679   0.06842   0.07168   0.07487   0.07751
 Alpha virt. eigenvalues --    0.07991   0.08442   0.08796   0.09096   0.09127
 Alpha virt. eigenvalues --    0.09331   0.09723   0.10037   0.10452   0.10696
 Alpha virt. eigenvalues --    0.10907   0.11401   0.11606   0.11936   0.12175
 Alpha virt. eigenvalues --    0.12727   0.12754   0.12968   0.13222   0.13420
 Alpha virt. eigenvalues --    0.13525   0.13795   0.13937   0.14365   0.14754
 Alpha virt. eigenvalues --    0.15124   0.15604   0.16033   0.16214   0.16303
 Alpha virt. eigenvalues --    0.16401   0.16836   0.17134   0.17272   0.17414
 Alpha virt. eigenvalues --    0.17615   0.17800   0.18125   0.18411   0.18769
 Alpha virt. eigenvalues --    0.19286   0.19727   0.19918   0.20380   0.20693
 Alpha virt. eigenvalues --    0.21082   0.21326   0.21586   0.21936   0.22120
 Alpha virt. eigenvalues --    0.22383   0.22630   0.22978   0.23226   0.23545
 Alpha virt. eigenvalues --    0.23874   0.24007   0.24669   0.25108   0.25376
 Alpha virt. eigenvalues --    0.25821   0.25957   0.26066   0.26510   0.26808
 Alpha virt. eigenvalues --    0.27367   0.27632   0.28005   0.28514   0.28617
 Alpha virt. eigenvalues --    0.29169   0.29330   0.29660   0.29965   0.30038
 Alpha virt. eigenvalues --    0.30392   0.30819   0.31226   0.31758   0.32127
 Alpha virt. eigenvalues --    0.32529   0.32985   0.33517   0.33792   0.34211
 Alpha virt. eigenvalues --    0.34365   0.34510   0.35318   0.35538   0.36359
 Alpha virt. eigenvalues --    0.36545   0.36894   0.37047   0.37340   0.37828
 Alpha virt. eigenvalues --    0.38463   0.39264   0.39659   0.39845   0.40209
 Alpha virt. eigenvalues --    0.40382   0.40800   0.41405   0.42238   0.42824
 Alpha virt. eigenvalues --    0.42943   0.43434   0.43690   0.43885   0.44267
 Alpha virt. eigenvalues --    0.44436   0.44695   0.44919   0.45176   0.45722
 Alpha virt. eigenvalues --    0.45885   0.46204   0.46648   0.46910   0.47131
 Alpha virt. eigenvalues --    0.47641   0.47837   0.48559   0.48817   0.49506
 Alpha virt. eigenvalues --    0.50141   0.50475   0.50655   0.50843   0.51162
 Alpha virt. eigenvalues --    0.51241   0.51682   0.51770   0.52048   0.52266
 Alpha virt. eigenvalues --    0.52539   0.52778   0.53580   0.53837   0.54236
 Alpha virt. eigenvalues --    0.54496   0.55208   0.55461   0.55898   0.56208
 Alpha virt. eigenvalues --    0.56776   0.57279   0.57643   0.57925   0.58232
 Alpha virt. eigenvalues --    0.58645   0.58732   0.59259   0.59661   0.59993
 Alpha virt. eigenvalues --    0.60638   0.61193   0.61267   0.62682   0.62832
 Alpha virt. eigenvalues --    0.63322   0.63835   0.63962   0.64779   0.65154
 Alpha virt. eigenvalues --    0.65621   0.65923   0.66214   0.66582   0.67201
 Alpha virt. eigenvalues --    0.68154   0.68353   0.68822   0.69293   0.69568
 Alpha virt. eigenvalues --    0.70175   0.70536   0.70901   0.71148   0.71422
 Alpha virt. eigenvalues --    0.72186   0.72457   0.73029   0.73249   0.74142
 Alpha virt. eigenvalues --    0.74812   0.75063   0.75385   0.75907   0.76381
 Alpha virt. eigenvalues --    0.76818   0.77243   0.77656   0.78743   0.79331
 Alpha virt. eigenvalues --    0.79701   0.80172   0.80289   0.81068   0.81328
 Alpha virt. eigenvalues --    0.81700   0.82580   0.82969   0.83774   0.84709
 Alpha virt. eigenvalues --    0.85070   0.85843   0.86468   0.86833   0.87211
 Alpha virt. eigenvalues --    0.88222   0.88891   0.89781   0.90172   0.90912
 Alpha virt. eigenvalues --    0.91509   0.92811   0.93203   0.93647   0.94540
 Alpha virt. eigenvalues --    0.95182   0.96243   0.96939   0.98014   0.98151
 Alpha virt. eigenvalues --    0.99096   0.99379   1.00423   1.00770   1.02070
 Alpha virt. eigenvalues --    1.02226   1.02885   1.04055   1.04115   1.04474
 Alpha virt. eigenvalues --    1.04628   1.06146   1.06925   1.07900   1.08367
 Alpha virt. eigenvalues --    1.08971   1.10111   1.10365   1.11272   1.11587
 Alpha virt. eigenvalues --    1.13003   1.14385   1.15585   1.15726   1.17301
 Alpha virt. eigenvalues --    1.17831   1.18570   1.19000   1.19147   1.20391
 Alpha virt. eigenvalues --    1.20963   1.22202   1.23364   1.23637   1.24897
 Alpha virt. eigenvalues --    1.26548   1.27399   1.27974   1.29139   1.30356
 Alpha virt. eigenvalues --    1.30760   1.32056   1.32691   1.33935   1.34662
 Alpha virt. eigenvalues --    1.34850   1.35476   1.36119   1.36582   1.38250
 Alpha virt. eigenvalues --    1.38460   1.38801   1.40008   1.41307   1.42092
 Alpha virt. eigenvalues --    1.42502   1.43139   1.44105   1.45113   1.46709
 Alpha virt. eigenvalues --    1.46947   1.48199   1.49663   1.51215   1.52023
 Alpha virt. eigenvalues --    1.52106   1.53388   1.54195   1.55274   1.57774
 Alpha virt. eigenvalues --    1.58244   1.58820   1.59632   1.61233   1.62401
 Alpha virt. eigenvalues --    1.63060   1.63373   1.64652   1.65038   1.65549
 Alpha virt. eigenvalues --    1.66465   1.67880   1.68630   1.68953   1.69384
 Alpha virt. eigenvalues --    1.69885   1.71683   1.71933   1.72686   1.72777
 Alpha virt. eigenvalues --    1.73371   1.74118   1.75492   1.75940   1.76472
 Alpha virt. eigenvalues --    1.77106   1.77507   1.78933   1.79595   1.80134
 Alpha virt. eigenvalues --    1.81408   1.81961   1.83026   1.83926   1.84224
 Alpha virt. eigenvalues --    1.84598   1.87003   1.87356   1.87860   1.88636
 Alpha virt. eigenvalues --    1.88927   1.89678   1.90302   1.90777   1.91249
 Alpha virt. eigenvalues --    1.92632   1.92852   1.94042   1.94512   1.95582
 Alpha virt. eigenvalues --    1.95932   1.96356   1.97847   1.98067   1.98440
 Alpha virt. eigenvalues --    1.99595   2.00809   2.01587   2.03022   2.04347
 Alpha virt. eigenvalues --    2.06280   2.06940   2.08557   2.08962   2.10032
 Alpha virt. eigenvalues --    2.10111   2.10916   2.12138   2.12431   2.12677
 Alpha virt. eigenvalues --    2.13053   2.15010   2.15248   2.16843   2.18002
 Alpha virt. eigenvalues --    2.18725   2.19449   2.19967   2.20572   2.21103
 Alpha virt. eigenvalues --    2.23228   2.24416   2.24904   2.25396   2.25741
 Alpha virt. eigenvalues --    2.27057   2.28344   2.29989   2.30528   2.31065
 Alpha virt. eigenvalues --    2.32212   2.32732   2.34598   2.35739   2.37102
 Alpha virt. eigenvalues --    2.37402   2.38710   2.41402   2.42488   2.43963
 Alpha virt. eigenvalues --    2.44346   2.45179   2.47938   2.48050   2.49324
 Alpha virt. eigenvalues --    2.49841   2.51142   2.51411   2.53830   2.54871
 Alpha virt. eigenvalues --    2.56515   2.57017   2.57519   2.58111   2.58693
 Alpha virt. eigenvalues --    2.61300   2.62691   2.62975   2.64172   2.65283
 Alpha virt. eigenvalues --    2.66330   2.68451   2.69542   2.69859   2.71524
 Alpha virt. eigenvalues --    2.73390   2.74151   2.75357   2.76772   2.77442
 Alpha virt. eigenvalues --    2.78654   2.79847   2.80681   2.81107   2.82366
 Alpha virt. eigenvalues --    2.83659   2.85035   2.85708   2.86021   2.87931
 Alpha virt. eigenvalues --    2.90176   2.91457   2.98031   3.03128   3.04690
 Alpha virt. eigenvalues --    3.11539   3.15799   3.17853   3.21918   3.25128
 Alpha virt. eigenvalues --    3.29289   3.29554   3.33714   3.35747   3.37187
 Alpha virt. eigenvalues --    3.40661   3.42199   3.42970   3.45810   3.46588
 Alpha virt. eigenvalues --    3.49318   3.52219   3.54002   3.57492   3.64786
 Alpha virt. eigenvalues --    3.66295   3.68082   3.73950   3.80360   3.89221
 Alpha virt. eigenvalues --    3.90675   3.99084   4.05948   4.10401   4.21511
 Alpha virt. eigenvalues --    4.59931
          Condensed to atoms (all electrons):
               1          2          3          4          5          6
     1  C   21.921915  -9.948404  -1.979406   0.178591   1.609570  -4.265574
     2  C   -9.948404  20.726702  -2.923027  -0.086774  -1.932524   1.891142
     3  C   -1.979406  -2.923027  16.084786  -1.641869  -0.640665  -0.906565
     4  N    0.178591  -0.086774  -1.641869   7.876205   0.441490   0.014149
     5  C    1.609570  -1.932524  -0.640665   0.441490  10.093608  -2.815187
     6  C   -4.265574   1.891142  -0.906565   0.014149  -2.815187  12.124025
     7  C   -0.083441  -4.468700  -3.168213   0.732184  -0.195268  -0.529471
     8  N   -0.302236   0.827297   0.954282  -0.163038  -0.019249  -0.002541
     9  C    0.090357  -0.231761  -0.324436   0.064045  -0.001380  -0.016339
    10  C   -0.233162   0.443762   0.062496  -0.064910  -0.025935   0.065595
    11  C   -0.469562   0.379520  -0.405946   0.060433  -0.236009   0.347819
    12  O    0.062343  -0.133446   0.052669  -0.197557   0.073076  -0.073746
    13  O   -0.000147   0.001494  -0.003325  -0.001187   0.006431   0.001469
    14  H    0.009788  -0.212098  -0.061514   0.011677  -0.000604  -0.001069
    15  H    0.001023  -0.047539  -0.005146  -0.004032  -0.005488   0.008701
    16  H   -0.017857   0.144924   0.092126  -0.007169   0.011939  -0.007727
    17  H   -0.067906   0.228333   0.099431  -0.010712   0.014534  -0.015623
    18  H    0.160674  -0.535245  -0.143577   0.035280  -0.025988   0.032950
    19  H   -0.009540   0.220804   0.022977  -0.001221   0.002060   0.001816
    20  H   -0.052804   0.593649  -0.048336   0.004446  -0.041155   0.074691
    21  H   -0.113373  -0.290024  -0.865781  -0.021829  -0.144453   0.090045
    22  H    0.042064   0.140753   0.190872  -0.071381  -0.925371   0.343133
    23  H    0.727417  -0.240239   0.003532  -0.040841   0.463937  -1.172654
    24  H   -2.261527   1.093938   0.259347  -0.091307  -0.191237   0.803283
    25  C   -0.082898  -0.040735   0.157094  -0.018972  -0.011089  -0.032325
    26  H    0.062879  -0.556186   0.464379  -0.010516  -0.267025  -0.256866
    27  H    0.002889   0.000651   0.010589  -0.001370  -0.002466   0.005171
    28  H    0.001611   0.003211   0.000841   0.002218  -0.005546   0.008945
    29  H   -0.000246   0.000223   0.001438  -0.000023  -0.001781   0.000048
    30  H   -0.000399   0.001142  -0.002801   0.001353   0.001353   0.000348
    31  O   -0.000442   0.002710  -0.004543   0.000011   0.006640   0.001668
    32  H   -0.000161   0.000404   0.000686   0.000233  -0.001349  -0.000216
    33  H   -0.000284   0.000425  -0.002002   0.000371  -0.000050   0.000472
    34  H    0.028798  -0.008220  -0.038369   0.009940   0.007621  -0.008839
    35  H   -0.178657   0.183391  -0.086815  -0.003292  -0.048059   0.051393
    36  H    0.050201   0.019261   0.083776  -0.007577   0.006004  -0.004425
    37  O    0.000002   0.000179   0.000256   0.000143   0.000005   0.000030
    38  H    0.000008   0.000062  -0.000144   0.000076   0.000007   0.000006
    39  H    0.000011  -0.000038   0.000048  -0.000053  -0.000061  -0.000010
               7          8          9         10         11         12
     1  C   -0.083441  -0.302236   0.090357  -0.233162  -0.469562   0.062343
     2  C   -4.468700   0.827297  -0.231761   0.443762   0.379520  -0.133446
     3  C   -3.168213   0.954282  -0.324436   0.062496  -0.405946   0.052669
     4  N    0.732184  -0.163038   0.064045  -0.064910   0.060433  -0.197557
     5  C   -0.195268  -0.019249  -0.001380  -0.025935  -0.236009   0.073076
     6  C   -0.529471  -0.002541  -0.016339   0.065595   0.347819  -0.073746
     7  C   18.053793  -2.609207   0.071352  -0.903015  -0.172061   0.001345
     8  N   -2.609207   9.416645   0.007644   0.072032  -0.438243   0.003189
     9  C    0.071352   0.007644   5.543102   0.242298   0.004789   0.000356
    10  C   -0.903015   0.072032   0.242298   5.647975  -0.022945  -0.000690
    11  C   -0.172061  -0.438243   0.004789  -0.022945   6.147009  -0.001856
    12  O    0.001345   0.003189   0.000356  -0.000690  -0.001856   8.051921
    13  O    0.000297   0.000076  -0.000002  -0.000010   0.000030  -0.043193
    14  H    0.495893  -0.666977   0.020212  -0.057149   0.090434   0.000030
    15  H    0.054786  -0.008314   0.073057  -0.241247   0.268017  -0.000001
    16  H   -0.128130   0.080247  -0.081710  -0.092161  -0.042715  -0.000238
    17  H    0.328235   0.136004  -0.197776   0.118419  -0.723610  -0.000083
    18  H   -0.090721   0.030759   0.165688   0.176884  -0.074115   0.000226
    19  H   -0.381028   0.408876  -0.326669   0.028599  -0.071941  -0.000045
    20  H   -1.611115  -0.197103  -0.057256   0.102229   0.366446   0.000252
    21  H    0.604192  -0.382302   0.014053   0.036064   0.036989  -0.006308
    22  H    0.016570   0.003069  -0.000561  -0.000130   0.006463   0.001133
    23  H   -0.000096  -0.002358  -0.000875   0.000125  -0.015281  -0.001787
    24  H   -0.481122   0.051650  -0.018222   0.022353   0.060350   0.001242
    25  C   -0.335526   0.461090  -0.228148  -0.015384  -0.008337  -0.000790
    26  H   -0.143145   0.020567   0.002809   0.008386  -0.048454   0.039752
    27  H    0.000480   0.001429   0.000040   0.000107   0.000566   0.328331
    28  H    0.002577  -0.000849  -0.000270  -0.000047   0.000248   0.343259
    29  H    0.000022  -0.000032  -0.000018  -0.000001   0.000001   0.001472
    30  H    0.000053  -0.000014   0.000064  -0.000012   0.000016   0.002647
    31  O    0.000667  -0.000057   0.000004  -0.000027   0.000083  -0.040004
    32  H    0.000015  -0.000001  -0.000007  -0.000002   0.000006   0.001979
    33  H    0.000069  -0.000023   0.000041  -0.000003   0.000058   0.001848
    34  H   -0.028692  -0.326094   0.077496   0.006828  -0.003903  -0.000279
    35  H    0.123312  -0.097259  -0.125545  -0.036023   0.075179   0.000181
    36  H   -0.121767   0.155439   0.044769   0.052344  -0.059878   0.000045
    37  O    0.000093  -0.000013   0.000004  -0.000002  -0.000001   0.000154
    38  H    0.000137  -0.000043   0.000006   0.000001   0.000005   0.000026
    39  H   -0.000019   0.000010  -0.000005   0.000001  -0.000003   0.000102
              13         14         15         16         17         18
     1  C   -0.000147   0.009788   0.001023  -0.017857  -0.067906   0.160674
     2  C    0.001494  -0.212098  -0.047539   0.144924   0.228333  -0.535245
     3  C   -0.003325  -0.061514  -0.005146   0.092126   0.099431  -0.143577
     4  N   -0.001187   0.011677  -0.004032  -0.007169  -0.010712   0.035280
     5  C    0.006431  -0.000604  -0.005488   0.011939   0.014534  -0.025988
     6  C    0.001469  -0.001069   0.008701  -0.007727  -0.015623   0.032950
     7  C    0.000297   0.495893   0.054786  -0.128130   0.328235  -0.090721
     8  N    0.000076  -0.666977  -0.008314   0.080247   0.136004   0.030759
     9  C   -0.000002   0.020212   0.073057  -0.081710  -0.197776   0.165688
    10  C   -0.000010  -0.057149  -0.241247  -0.092161   0.118419   0.176884
    11  C    0.000030   0.090434   0.268017  -0.042715  -0.723610  -0.074115
    12  O   -0.043193   0.000030  -0.000001  -0.000238  -0.000083   0.000226
    13  O    7.729724   0.000008  -0.000000  -0.000030   0.000001   0.000021
    14  H    0.000008   2.422143   0.018204  -0.213270  -0.020435   0.015182
    15  H   -0.000000   0.018204   1.824541  -0.396119  -0.229466   0.058060
    16  H   -0.000030  -0.213270  -0.396119   2.046023   0.163917  -0.261739
    17  H    0.000001  -0.020435  -0.229466   0.163917   2.180736  -0.443832
    18  H    0.000021   0.015182   0.058060  -0.261739  -0.443832   2.253844
    19  H   -0.000001  -0.392183  -0.148830   0.149039   0.065456  -0.020985
    20  H   -0.000006   0.035760   0.027719  -0.039129  -0.253056   0.097570
    21  H    0.002394   0.014376   0.010981  -0.020312  -0.010137   0.014326
    22  H    0.001621  -0.000062  -0.000127   0.000256   0.000998   0.000358
    23  H   -0.000010  -0.000065   0.000063   0.000149  -0.001273  -0.002406
    24  H   -0.000017  -0.002281   0.001858   0.002382  -0.002342  -0.007615
    25  C    0.000002  -0.017359   0.009179  -0.012395   0.000050   0.007840
    26  H   -0.014007  -0.004186   0.000188   0.004807   0.001745  -0.003809
    27  H    0.004457   0.000066   0.000032  -0.000108  -0.000033   0.000087
    28  H    0.004835   0.000092   0.000014  -0.000344  -0.000024   0.000312
    29  H    0.365859   0.000002   0.000000  -0.000005  -0.000000   0.000000
    30  H    0.328986  -0.000004  -0.000004   0.000022   0.000004  -0.000003
    31  O   -0.001363   0.000012  -0.000003  -0.000020   0.000001   0.000121
    32  H   -0.000041  -0.000001  -0.000000   0.000015   0.000000  -0.000014
    33  H    0.000057   0.000007   0.000000  -0.000008  -0.000001   0.000012
    34  H   -0.000025   0.018800  -0.003966   0.006986   0.000946   0.000884
    35  H    0.000361  -0.005463  -0.001020  -0.003422  -0.001197   0.001647
    36  H    0.000000   0.017286   0.006963  -0.003197   0.000404  -0.000081
    37  O   -0.037006   0.000018  -0.000000   0.000004   0.000000   0.000000
    38  H    0.000211   0.000020   0.000000  -0.000003  -0.000000   0.000001
    39  H    0.002630  -0.000004   0.000000   0.000000  -0.000000  -0.000000
              19         20         21         22         23         24
     1  C   -0.009540  -0.052804  -0.113373   0.042064   0.727417  -2.261527
     2  C    0.220804   0.593649  -0.290024   0.140753  -0.240239   1.093938
     3  C    0.022977  -0.048336  -0.865781   0.190872   0.003532   0.259347
     4  N   -0.001221   0.004446  -0.021829  -0.071381  -0.040841  -0.091307
     5  C    0.002060  -0.041155  -0.144453  -0.925371   0.463937  -0.191237
     6  C    0.001816   0.074691   0.090045   0.343133  -1.172654   0.803283
     7  C   -0.381028  -1.611115   0.604192   0.016570  -0.000096  -0.481122
     8  N    0.408876  -0.197103  -0.382302   0.003069  -0.002358   0.051650
     9  C   -0.326669  -0.057256   0.014053  -0.000561  -0.000875  -0.018222
    10  C    0.028599   0.102229   0.036064  -0.000130   0.000125   0.022353
    11  C   -0.071941   0.366446   0.036989   0.006463  -0.015281   0.060350
    12  O   -0.000045   0.000252  -0.006308   0.001133  -0.001787   0.001242
    13  O   -0.000001  -0.000006   0.002394   0.001621  -0.000010  -0.000017
    14  H   -0.392183   0.035760   0.014376  -0.000062  -0.000065  -0.002281
    15  H   -0.148830   0.027719   0.010981  -0.000127   0.000063   0.001858
    16  H    0.149039  -0.039129  -0.020312   0.000256   0.000149   0.002382
    17  H    0.065456  -0.253056  -0.010137   0.000998  -0.001273  -0.002342
    18  H   -0.020985   0.097570   0.014326   0.000358  -0.002406  -0.007615
    19  H    1.948859  -0.054948   0.003831   0.000094   0.000003   0.000569
    20  H   -0.054948   2.497293   0.044662  -0.000290   0.000350  -0.042279
    21  H    0.003831   0.044662   3.094695   0.010036  -0.000438  -0.021718
    22  H    0.000094  -0.000290   0.010036   2.225277  -0.120186  -0.014010
    23  H    0.000003   0.000350  -0.000438  -0.120186   2.089986  -0.133378
    24  H    0.000569  -0.042279  -0.021718  -0.014010  -0.133378   2.819936
    25  C   -0.000288   0.091129  -0.070578  -0.000038   0.002694   0.005171
    26  H    0.000293  -0.007826  -0.039662  -0.187017   0.005952   0.017317
    27  H   -0.000024   0.000033   0.007405   0.003396   0.000242   0.000037
    28  H   -0.000019   0.000137   0.000354   0.007287  -0.000148  -0.000246
    29  H   -0.000000   0.000002   0.000383  -0.000101   0.000009  -0.000009
    30  H    0.000004  -0.000014  -0.001624   0.000279  -0.000006  -0.000004
    31  O    0.000000   0.000038   0.001294   0.001355   0.000023  -0.000039
    32  H    0.000000   0.000001   0.000052  -0.000189   0.000010  -0.000005
    33  H   -0.000001   0.000002  -0.000220  -0.000037   0.000004  -0.000005
    34  H   -0.003942   0.014161  -0.003138  -0.000024   0.000079   0.001473
    35  H   -0.001360   0.020964   0.011947   0.000845   0.000416  -0.004888
    36  H    0.010330   0.003503   0.000742  -0.000022  -0.000062   0.002948
    37  O    0.000001   0.000004  -0.000595  -0.000043   0.000002  -0.000000
    38  H   -0.000003   0.000004  -0.000198  -0.000009   0.000000   0.000000
    39  H    0.000000  -0.000000  -0.000019  -0.000010   0.000000   0.000000
              25         26         27         28         29         30
     1  C   -0.082898   0.062879   0.002889   0.001611  -0.000246  -0.000399
     2  C   -0.040735  -0.556186   0.000651   0.003211   0.000223   0.001142
     3  C    0.157094   0.464379   0.010589   0.000841   0.001438  -0.002801
     4  N   -0.018972  -0.010516  -0.001370   0.002218  -0.000023   0.001353
     5  C   -0.011089  -0.267025  -0.002466  -0.005546  -0.001781   0.001353
     6  C   -0.032325  -0.256866   0.005171   0.008945   0.000048   0.000348
     7  C   -0.335526  -0.143145   0.000480   0.002577   0.000022   0.000053
     8  N    0.461090   0.020567   0.001429  -0.000849  -0.000032  -0.000014
     9  C   -0.228148   0.002809   0.000040  -0.000270  -0.000018   0.000064
    10  C   -0.015384   0.008386   0.000107  -0.000047  -0.000001  -0.000012
    11  C   -0.008337  -0.048454   0.000566   0.000248   0.000001   0.000016
    12  O   -0.000790   0.039752   0.328331   0.343259   0.001472   0.002647
    13  O    0.000002  -0.014007   0.004457   0.004835   0.365859   0.328986
    14  H   -0.017359  -0.004186   0.000066   0.000092   0.000002  -0.000004
    15  H    0.009179   0.000188   0.000032   0.000014   0.000000  -0.000004
    16  H   -0.012395   0.004807  -0.000108  -0.000344  -0.000005   0.000022
    17  H    0.000050   0.001745  -0.000033  -0.000024  -0.000000   0.000004
    18  H    0.007840  -0.003809   0.000087   0.000312   0.000000  -0.000003
    19  H   -0.000288   0.000293  -0.000024  -0.000019  -0.000000   0.000004
    20  H    0.091129  -0.007826   0.000033   0.000137   0.000002  -0.000014
    21  H   -0.070578  -0.039662   0.007405   0.000354   0.000383  -0.001624
    22  H   -0.000038  -0.187017   0.003396   0.007287  -0.000101   0.000279
    23  H    0.002694   0.005952   0.000242  -0.000148   0.000009  -0.000006
    24  H    0.005171   0.017317   0.000037  -0.000246  -0.000009  -0.000004
    25  C    4.577184  -0.012571  -0.000182   0.001016   0.000008  -0.000017
    26  H   -0.012571   1.868798  -0.038643  -0.029230   0.002102   0.002242
    27  H   -0.000182  -0.038643   0.615902  -0.162629  -0.004006  -0.004638
    28  H    0.001016  -0.029230  -0.162629   0.625804  -0.000850  -0.001912
    29  H    0.000008   0.002102  -0.004006  -0.000850   0.610640  -0.106679
    30  H   -0.000017   0.002242  -0.004638  -0.001912  -0.106679   0.570597
    31  O   -0.000019  -0.011841   0.001653  -0.011820   0.000192  -0.000242
    32  H   -0.000003   0.003183  -0.001769  -0.002154   0.000070  -0.000045
    33  H   -0.000016   0.003603  -0.003276   0.000662   0.000014   0.000099
    34  H    0.373975   0.000728  -0.000401   0.000141  -0.000009   0.000081
    35  H    0.341103  -0.024761   0.000410   0.000468   0.000054  -0.000112
    36  H    0.060017   0.005654   0.000039  -0.000047  -0.000001  -0.000014
    37  O   -0.000032   0.000267  -0.005834   0.001391   0.005423   0.002095
    38  H   -0.000018   0.000013  -0.000207   0.000054  -0.000989  -0.003324
    39  H    0.000002   0.000344  -0.000342  -0.000122  -0.000068   0.000069
              31         32         33         34         35         36
     1  C   -0.000442  -0.000161  -0.000284   0.028798  -0.178657   0.050201
     2  C    0.002710   0.000404   0.000425  -0.008220   0.183391   0.019261
     3  C   -0.004543   0.000686  -0.002002  -0.038369  -0.086815   0.083776
     4  N    0.000011   0.000233   0.000371   0.009940  -0.003292  -0.007577
     5  C    0.006640  -0.001349  -0.000050   0.007621  -0.048059   0.006004
     6  C    0.001668  -0.000216   0.000472  -0.008839   0.051393  -0.004425
     7  C    0.000667   0.000015   0.000069  -0.028692   0.123312  -0.121767
     8  N   -0.000057  -0.000001  -0.000023  -0.326094  -0.097259   0.155439
     9  C    0.000004  -0.000007   0.000041   0.077496  -0.125545   0.044769
    10  C   -0.000027  -0.000002  -0.000003   0.006828  -0.036023   0.052344
    11  C    0.000083   0.000006   0.000058  -0.003903   0.075179  -0.059878
    12  O   -0.040004   0.001979   0.001848  -0.000279   0.000181   0.000045
    13  O   -0.001363  -0.000041   0.000057  -0.000025   0.000361   0.000000
    14  H    0.000012  -0.000001   0.000007   0.018800  -0.005463   0.017286
    15  H   -0.000003  -0.000000   0.000000  -0.003966  -0.001020   0.006963
    16  H   -0.000020   0.000015  -0.000008   0.006986  -0.003422  -0.003197
    17  H    0.000001   0.000000  -0.000001   0.000946  -0.001197   0.000404
    18  H    0.000121  -0.000014   0.000012   0.000884   0.001647  -0.000081
    19  H    0.000000   0.000000  -0.000001  -0.003942  -0.001360   0.010330
    20  H    0.000038   0.000001   0.000002   0.014161   0.020964   0.003503
    21  H    0.001294   0.000052  -0.000220  -0.003138   0.011947   0.000742
    22  H    0.001355  -0.000189  -0.000037  -0.000024   0.000845  -0.000022
    23  H    0.000023   0.000010   0.000004   0.000079   0.000416  -0.000062
    24  H   -0.000039  -0.000005  -0.000005   0.001473  -0.004888   0.002948
    25  C   -0.000019  -0.000003  -0.000016   0.373975   0.341103   0.060017
    26  H   -0.011841   0.003183   0.003603   0.000728  -0.024761   0.005654
    27  H    0.001653  -0.001769  -0.003276  -0.000401   0.000410   0.000039
    28  H   -0.011820  -0.002154   0.000662   0.000141   0.000468  -0.000047
    29  H    0.000192   0.000070   0.000014  -0.000009   0.000054  -0.000001
    30  H   -0.000242  -0.000045   0.000099   0.000081  -0.000112  -0.000014
    31  O    7.687183   0.353285   0.350030  -0.000004   0.000010  -0.000005
    32  H    0.353285   0.569839  -0.073787   0.000002  -0.000007  -0.000001
    33  H    0.350030  -0.073787   0.568534  -0.000009  -0.000001   0.000000
    34  H   -0.000004   0.000002  -0.000009   1.902534  -0.497442  -0.308728
    35  H    0.000010  -0.000007  -0.000001  -0.497442   2.021644  -0.424393
    36  H   -0.000005  -0.000001   0.000000  -0.308728  -0.424393   1.582105
    37  O    0.000074  -0.000032  -0.000001  -0.000070   0.000078  -0.000006
    38  H   -0.000003  -0.000001  -0.000001  -0.000044  -0.000001   0.000003
    39  H    0.000026   0.000002   0.000004  -0.000002  -0.000009   0.000001
              37         38         39
     1  C    0.000002   0.000008   0.000011
     2  C    0.000179   0.000062  -0.000038
     3  C    0.000256  -0.000144   0.000048
     4  N    0.000143   0.000076  -0.000053
     5  C    0.000005   0.000007  -0.000061
     6  C    0.000030   0.000006  -0.000010
     7  C    0.000093   0.000137  -0.000019
     8  N   -0.000013  -0.000043   0.000010
     9  C    0.000004   0.000006  -0.000005
    10  C   -0.000002   0.000001   0.000001
    11  C   -0.000001   0.000005  -0.000003
    12  O    0.000154   0.000026   0.000102
    13  O   -0.037006   0.000211   0.002630
    14  H    0.000018   0.000020  -0.000004
    15  H   -0.000000   0.000000   0.000000
    16  H    0.000004  -0.000003   0.000000
    17  H    0.000000  -0.000000  -0.000000
    18  H    0.000000   0.000001  -0.000000
    19  H    0.000001  -0.000003   0.000000
    20  H    0.000004   0.000004  -0.000000
    21  H   -0.000595  -0.000198  -0.000019
    22  H   -0.000043  -0.000009  -0.000010
    23  H    0.000002   0.000000   0.000000
    24  H   -0.000000   0.000000   0.000000
    25  C   -0.000032  -0.000018   0.000002
    26  H    0.000267   0.000013   0.000344
    27  H   -0.005834  -0.000207  -0.000342
    28  H    0.001391   0.000054  -0.000122
    29  H    0.005423  -0.000989  -0.000068
    30  H    0.002095  -0.003324   0.000069
    31  O    0.000074  -0.000003   0.000026
    32  H   -0.000032  -0.000001   0.000002
    33  H   -0.000001  -0.000001   0.000004
    34  H   -0.000070  -0.000044  -0.000002
    35  H    0.000078  -0.000001  -0.000009
    36  H   -0.000006   0.000003   0.000001
    37  O    7.678005   0.348085   0.342527
    38  H    0.348085   0.583637  -0.069611
    39  H    0.342527  -0.069611   0.551985
 Mulliken charges:
               1
     1  C    1.117886
     2  C    0.750982
     3  C    0.710855
     4  N    0.012784
     5  C    0.799664
     6  C    0.242277
     7  C    0.964665
     8  N   -0.414353
     9  C    1.188792
    10  C    0.606359
    11  C    0.950397
    12  O   -0.467554
    13  O   -0.350594
    14  H   -0.515286
    15  H   -0.272084
    16  H   -0.375027
    17  H   -0.361706
    18  H   -0.442595
    19  H   -0.450584
    20  H   -0.569729
    21  H   -1.006114
    22  H   -0.676251
    23  H   -0.562893
    24  H   -0.871600
    25  C    0.800167
    26  H    0.139737
    27  H    0.241919
    28  H    0.210778
    29  H    0.126858
    30  H    0.210415
    31  O   -0.336650
    32  H    0.150004
    33  H    0.153413
    34  H   -0.219274
    35  H   -0.293679
    36  H   -0.171628
    37  O   -0.335204
    38  H    0.142238
    39  H    0.172614
 Sum of Mulliken charges =   1.00000
 Mulliken charges with hydrogens summed into heavy atoms:
               1
     1  C    0.246286
     2  C    0.750982
     3  C   -0.295260
     4  N    0.152521
     5  C    0.123413
     6  C   -0.320616
     7  C    0.394936
     8  N   -0.414353
     9  C    0.222923
    10  C   -0.040752
    11  C    0.146096
    12  O   -0.014857
    13  O   -0.013320
    25  C    0.115586
    31  O   -0.033233
    37  O   -0.020351
 Electronic spatial extent (au):  <R**2>=           7111.0952
 Charge=              1.0000 electrons
 Dipole moment (field-independent basis, Debye):
    X=             -4.3201    Y=             -1.1467    Z=              0.6343  Tot=              4.5145
 Quadrupole moment (field-independent basis, Debye-Ang):
   XX=            -25.6306   YY=            -55.4290   ZZ=            -75.0482
   XY=            -10.2274   XZ=            -14.7025   YZ=              2.0188
 Traceless Quadrupole moment (field-independent basis, Debye-Ang):
   XX=             26.4054   YY=             -3.3930   ZZ=            -23.0123
   XY=            -10.2274   XZ=            -14.7025   YZ=              2.0188
 Octapole moment (field-independent basis, Debye-Ang**2):
  XXX=           -295.1165  YYY=             42.2493  ZZZ=             71.2897  XYY=           -129.9058
  XXY=             62.3603  XXZ=             64.4955  XZZ=            -93.0133  YZZ=            -27.2070
  YYZ=            -19.3527  XYZ=             40.5728
 Hexadecapole moment (field-independent basis, Debye-Ang**3):
 XXXX=          -3800.0475 YYYY=          -1409.6134 ZZZZ=           -815.1298 XXXY=           -362.1633
 XXXZ=           -264.6212 YYYX=           -402.1714 YYYZ=            -13.7882 ZZZX=           -295.3169
 ZZZY=            -96.9974 XXYY=           -594.9701 XXZZ=           -709.5581 YYZZ=           -393.6383
 XXYZ=            -90.2809 YYXZ=            -86.6433 ZZXY=             86.3985
 N-N= 1.126429920781D+03 E-N=-4.117823249461D+03  KE= 7.999763450319D+02
 Calling FoFJK, ICntrl=      2127 FMM=F ISym2X=0 I1Cent= 0 IOpClX= 0 NMat=1 NMatS=1 NMatT=0.
 ***** Axes restored to original set *****
 -------------------------------------------------------------------
 Center     Atomic                   Forces (Hartrees/Bohr)
 Number     Number              X              Y              Z
 -------------------------------------------------------------------
      1        6           0.000006129    0.000011791   -0.000005160
[...]
 8696,-0.00018572,0.00005335,-0.00022871,-0.00002749,-0.00004508,0.0010
 2291,0.00012935,-0.00018728,0.00444715,0.00199224,-0.00187757,0.000310
 53,0.00044714,-0.00051722,-0.00011215,0.00033796,-0.00036557,-0.000018
 71,0.00008546,0.00024299,0.00002764,-0.00008480,-0.00008769,-0.0000532
 2,-0.00003311,-0.00005177,0.00007333,0.00042748,-0.00022139,-0.0000284
 3,0.00005122,0.00000312,0.00003805,-0.00001381,-0.00005900,-0.00001348
 ,0.00002013,0.00001958,0.00000229,0.00002005,0.00003246,-0.00015757,-0
 .00010413,-0.00001543,0.00006442,0.00000659,-0.00002317,0.00003947,0.0
 0004834,0.00024023,0.00000255,-0.00000403,-0.00000339,0.00000623,0.000
 01639,-0.00000658,0.00000557,-0.00002835,-0.00000994,-0.10632569,-0.11
 605764,0.04999521,-0.00010709,0.00012353,0.00004436,0.00001926,0.00003
 375,0.00007147,0.00001507,-0.00000265,0.00003939,0.00000996,0.00001246
 ,0.00000556,0.00004901,0.00000528,0.00001568,0.00000245,-0.00000426,-0
 .00003066,-0.00000298,0.00000510,0.00000672,-0.00000425,0.00000228,0.0
 0001151,-0.02422034,-0.01278166,0.01138212,0.11550668,0.11975573,-0.00
 030026,-0.00056909,-0.00000840,-0.00014904,-0.00011279,-0.00036480,-0.
 00011332,-0.00033437,-0.00025898,-0.00021848,-0.00037195,0.00007234,-0
 .00015707,0.00040601,-0.00009864,0.00040683,-0.00002538,0.00005434,0.0
 0079628,0.00133203,0.00124130,0.02840541,0.02128207,-0.01880997,-0.001
 46586,-0.00397111,-0.00509170,0.00171893,0.00101101,-0.00075190,-0.000
 05728,0.00040197,-0.00002425,0.00016075,-0.00007390,0.00002621,0.00003
 073,-0.00002578,-0.00004531,-0.00020870,0.00012697,0.00011617,-0.00009
 745,-0.00026444,-0.00065045,-0.00003212,0.00000977,-0.00007245,-0.0000
 2829,-0.00004316,0.00006504,-0.00005466,-0.00008572,-0.00001462,0.0003
 3617,-0.00007873,-0.00001061,-0.00004186,-0.00042859,-0.00009888,0.000
 07366,0.00017707,-0.00032810,-0.00001107,0.00000707,-0.00000907,0.0000
 0477,-0.00000252,-0.00000299,-0.00000028,0.00004134,-0.00001015,0.0705
 7107,0.04469558,-0.08113024,-0.00023786,0.00010097,-0.00003132,-0.0000
 4733,0.00001672,0.00005929,-0.00001812,0.00001852,-0.00006403,-0.00000
 249,-0.00000063,0.00000553,-0.00000472,0.00002936,0.00001641,0.0000125
 8,-0.00001820,0.00003547,-0.00000294,0.00000160,-0.00000414,0.00000348
 ,0.00000652,-0.00000480,-0.00621765,-0.00292538,0.00277488,-0.08388280
 ,-0.05367073,0.09813461,-0.00003260,0.00038501,-0.00006104,-0.00021280
 ,-0.00044104,0.00017027,-0.00015387,0.00021260,0.00007479,0.00019738,0
 .00015563,-0.00003018,0.00007849,-0.00021537,-0.00000620,-0.00023503,-
 0.00004146,0.00003108,0.00146218,0.00023900,0.00131518,0.00299187,-0.0
 0212610,-0.00652686,0.00322700,-0.00069859,0.00140535,0.00011631,0.000
 05231,0.00026790,0.00011055,-0.00004652,0.00014130,-0.00013429,0.00001
 498,-0.00002586,-0.00005349,0.00000778,0.00003362,-0.00025881,0.000173
 87,-0.00003249,-0.00000819,-0.00001983,-0.00009337,-0.00008085,0.00004
 451,0.00015182,0.00004174,-0.00003238,-0.00006910,-0.00002080,-0.00008
 990,0.00008155,0.00043206,0.00100905,-0.00165579,-0.00032741,-0.001511
 10,-0.00113365,0.00031123,0.00013718,0.00016207,0.00001006,-0.00001189
 ,-0.00000278,-0.00001783,-0.00000544,-0.00001840,0.00003059,-0.0000298
 0,-0.00004010,-0.22269099,0.07118367,-0.07738369,0.00014579,-0.0000451
 0,0.00004831,0.00005741,-0.00000244,-0.00004463,0.00003089,-0.00000487
 ,0.00005513,0.00000766,0.00000797,-0.00000612,0.00002579,-0.00002211,-
 0.00001383,-0.00003155,0.00000190,-0.00003224,0.00000902,0.00000386,0.
 00000411,0.00001372,-0.00000171,0.00000753,-0.00244359,-0.00012385,-0.
 00048513,-0.01959437,0.00971901,-0.00917618,0.23700387,0.00006370,0.00
 015484,-0.00000061,0.00014811,-0.00035956,0.00027840,-0.00007007,-0.00
 005422,0.00001459,0.00019201,0.00013936,-0.00000124,0.00006324,-0.0001
 2221,0.00003254,-0.00011163,-0.00000233,-0.00003183,-0.00325577,0.0031
 0404,-0.00190526,-0.00368043,0.00191160,-0.00021273,0.00132436,0.00019
 439,0.00004695,-0.00019170,0.00005560,0.00008310,0.00006395,-0.0000237
 3,0.00002591,0.00004569,-0.00000015,-0.00000445,0.00001277,0.00000869,
 -0.00001431,0.00017205,-0.00013568,-0.00010792,-0.00000115,0.00002215,
 0.00008233,-0.00008361,-0.00010488,-0.00009615,0.00004142,-0.00001509,
 0.00002734,-0.00001825,-0.00002077,0.00004720,-0.00033013,-0.00022433,
 0.00025580,0.00075092,0.00041326,0.00125030,-0.00002396,-0.00004248,0.
 00003782,0.00000357,-0.00000070,-0.00001116,0.00000202,0.00000344,-0.0
 0000795,-0.00000619,-0.00002655,0.00000636,0.07060807,-0.07936953,0.03
 143724,-0.00003796,0.00003064,0.00000808,-0.00001352,-0.00000260,0.000
 02004,-0.00001242,-0.00000341,-0.00001436,-0.00000182,-0.00000367,0.00
 000268,-0.00000977,-0.00000603,0.00000376,0.00001289,0.00000323,0.0000
 0990,-0.00000347,-0.00000229,-0.00000154,-0.00000755,-0.00000135,-0.00
 000443,0.02634506,-0.00873850,0.01185865,-0.01410420,0.00562425,-0.006
 64628,-0.07788861,0.07759195,-0.00020009,-0.00004796,0.00000922,0.0002
 8932,-0.00050497,0.00020237,-0.00004564,0.00009580,0.00004408,-0.00011
 244,-0.00018900,0.00005190,-0.00004895,-0.00001716,-0.00005966,0.00000
 550,-0.00005489,0.00003000,-0.00180476,0.00637151,0.00108016,-0.028201
 65,0.00856577,-0.03503615,-0.00531456,-0.00196637,0.00188480,0.0004485
 3,-0.00008997,0.00032291,0.00027806,0.00019456,0.00060326,-0.00005895,
 0.00004249,0.00005411,0.00001560,0.00002082,0.00003939,0.00042300,0.00
 017602,-0.00010324,0.00017831,-0.00014507,-0.00009811,0.00012649,0.000
 03970,0.00028988,0.00009084,-0.00005628,-0.00006631,-0.00002967,-0.000
 01667,0.00012936,0.00202411,-0.00000940,0.00064532,0.00117583,-0.00175
 215,0.00092182,0.00037743,0.00007477,-0.00015848,-0.00000204,-0.000016
 04,-0.00000724,-0.00001701,-0.00000898,-0.00001207,0.00002152,-0.00000
 503,-0.00001555,-0.07743962,0.03187328,-0.08284183,0.00010666,-0.00006
 365,-0.00001092,0.00000463,-0.00002111,-0.00005893,0.00000530,0.000003
 41,-0.00001002,-0.00000398,-0.00000393,-0.00000419,-0.00001931,-0.0000
 1229,-0.00001128,-0.00001451,0.00000217,0.00001086,0.00000470,-0.00000
 086,-0.00000306,0.00000950,-0.00000346,-0.00000537,0.00565527,-0.00162
 289,0.00324133,0.00918402,-0.00438865,0.00529000,0.09288727,-0.0364714
 5,0.10364535,-0.00001981,-0.00005320,0.00000132,-0.00003582,0.00008738
 ,-0.00000162,0.00005054,-0.00009523,0.00000647,0.00004206,-0.00005800,
 0.00002434,-0.00004716,0.00002931,-0.00000663,0.00006514,-0.00000175,0
 .00000180,-0.00000487,-0.00009634,-0.00001381,-0.00008219,0.00007908,0
 .00006615,0.00005751,0.00000461,-0.00000615,0.00000168,-0.00000054,-0.
 00000296,0.00000710,-0.00000069,0.00000109,0.00039440,0.00006109,-0.00
 004488,0.00417679,0.00069716,0.00113231,0.00001002,0.00001497,-0.00000
 665,-0.00000926,0.00000305,0.00000648,0.00000341,-0.00000186,-0.000007
 01,-0.00000754,0.00000642,0.00000115,0.00000659,0.00000511,0.00000859,
 -0.00001424,0.00000631,-0.00000511,-0.00000559,0.00001963,-0.00000868,
 0.00001496,-0.00003316,-0.00004857,-0.00001363,0.00000253,-0.00000295,
 -0.00000138,0.00000020,-0.00000196,-0.00000127,-0.00000363,-0.00000333
 ,0.00005242,-0.00004984,-0.00006353,-0.00018647,0.00002756,-0.00005968
 ,-0.00037302,-0.00001266,0.00028418,-0.00011705,0.00000103,-0.00008223
 ,-0.00026067,0.00121519,0.00045855,-0.00618203,-0.00055622,-0.00371038
 ,0.00015123,-0.00001572,-0.00002747,-0.00005079,0.00001411,0.00004977,
 -0.00008773,-0.00001496,0.00002138,0.00005179,0.00004554,-0.00000003,0
 .00000089,-0.00005931,0.00000321,-0.00003152,0.00002223,0.00002657,0.2
 8808580,-0.00001571,-0.00000245,0.00000317,-0.00007147,-0.00002319,0.0
 0002403,-0.00010371,-0.00015539,0.00000464,0.00047065,-0.00030266,0.00
 002418,-0.00002932,0.00021023,-0.00001299,0.00011025,-0.00000126,-0.00
 000116,-0.00006077,-0.00010292,-0.00006283,0.00009691,0.00011190,0.000
 00734,-0.00005249,-0.00007485,0.00003946,0.00002292,-0.00001721,-0.000
 01379,-0.00000078,0.00003016,0.00003761,0.00137552,-0.00043693,-0.0020
 0062,0.00006745,-0.01258626,-0.00786568,0.00000463,0.00002669,0.000001
 37,0.00001086,0.00001054,-0.00000667,-0.00000931,-0.00000183,-0.000002
 47,0.00000959,0.00000590,-0.00000697,-0.00000086,0.00000505,0.00002017
 ,0.00002483,0.00000449,0.00000088,0.00001845,0.00002619,0.00000096,-0.
 00006610,-0.00004864,0.00001205,-0.00002644,0.00005630,0.00003231,0.00
 000440,0.00000325,0.00000854,0.00000366,-0.00000507,0.00000310,-0.0000
 4801,-0.00006377,-0.00001796,-0.00101782,0.00055415,0.00001027,-0.0017
 2217,0.00051791,0.00296179,0.00024884,-0.00031797,0.00057819,0.0010207
 9,-0.00002863,-0.00049442,-0.00050401,-0.00421091,0.00309327,-0.000018
 55,0.00019533,-0.00036122,-0.00001486,-0.00001343,0.00007896,-0.000049
 55,-0.00011791,-0.00000550,0.00000765,0.00001875,0.00000344,0.00001498
 ,0.00001722,-0.00001724,0.00001724,0.00000466,0.00000217,-0.24048289,0
 .37035742,0.00000958,0.00001739,0.00000135,-0.00000026,-0.00005512,0.0
 0001118,-0.00007524,-0.00002087,-0.00000589,0.00028351,-0.00016672,0.0
 0003381,0.00000942,0.00009295,-0.00000897,0.00002795,-0.00000948,0.000
 00642,-0.00003630,-0.00002685,-0.00002357,0.00005270,0.00000202,0.0000
 6131,-0.00002557,0.00001363,0.00000671,-0.00001308,0.00000157,-0.00001
 082,-0.00000126,0.00001202,0.00000784,0.00048075,-0.00051819,-0.000356
 57,0.00096836,-0.00732060,0.00156870,-0.00000765,0.00000174,-0.0000061
 3,0.00000517,0.00000250,0.00000189,0.00000353,-0.00000313,0.00001053,0
 .00000608,-0.00000251,0.00000170,-0.00000201,0.00000672,0.00000990,0.0
 0001677,-0.00000846,0.00000692,0.00001808,0.00000055,0.00000467,-0.000
 05325,0.00000901,-0.00001704,-0.00001519,0.00002752,-0.00000832,0.0000
 0468,-0.00000175,-0.00000565,0.00000443,-0.00000297,-0.00000409,-0.000
 00390,0.00000417,-0.00006817,-0.00061132,0.00037318,-0.00006295,-0.000
 35464,0.00037934,0.00058487,0.00003237,0.00013269,0.00014907,0.0003626
 6,-0.00052160,-0.00079310,-0.00376080,0.00217752,-0.00685926,0.0000395
 8,-0.00015989,-0.00023900,0.00000848,0.00006816,0.00006844,-0.00003497
 ,0.00006789,0.00017578,0.00000013,0.00001298,-0.00001295,-0.00000789,-
 0.00001411,-0.00001492,0.00002074,-0.00000977,0.00000923,0.23509631,0.
 03536699,0.55143963,0.00000693,0.00002791,-0.00000038,0.00002548,-0.00
 003692,-0.00000264,-0.00001674,0.00004883,-0.00000248,-0.00006661,0.00
 005778,-0.00001918,0.00002424,-0.00003226,0.00000720,-0.00004145,0.000
 00402,-0.00000271,0.00001099,0.00006702,0.00001155,0.00004037,-0.00004
 950,-0.00006031,-0.00003123,-0.00000931,0.00000189,0.00000236,-0.00000
 024,0.00000447,-0.00000500,-0.00000291,-0.00000306,-0.00026294,0.00008
 685,0.00011166,-0.00013048,0.00091302,0.00033783,-0.00000357,-0.000009
 35,0.00000636,0.00000482,-0.00000231,-0.00000518,-0.00000305,0.0000014
 0,0.00000089,0.00000381,-0.00000338,-0.00000114,-0.00000349,-0.0000043
 6,-0.00000766,0.00000494,-0.00000143,0.00000214,-0.00000042,-0.0000116
 8,0.00000507,0.00000746,0.00001459,0.00003011,0.00000877,-0.00000486,0
 .00000241,-0.00000009,0.00000046,0.00000152,0.00000036,0.00000373,0.00
 000280,-0.00003375,0.00003331,0.00005974,0.00019889,-0.00008289,0.0000
 3987,0.00023828,-0.00010654,-0.00024192,0.00002214,-0.00000977,-0.0000
 0707,-0.00003508,-0.00003501,-0.00019743,0.00000875,-0.00197814,-0.000
 28520,-0.00004518,0.00001301,0.00003480,0.00001502,-0.00000638,-0.0000
 1918,0.00002793,0.00000004,-0.00002209,-0.00003368,-0.00003446,0.00000
 738,0.00000301,0.00004309,0.00000343,0.00001485,-0.00001184,-0.0000196
 8,-0.05814057,0.00038689,-0.12521094,0.06651519,0.00000554,-0.00000225
 ,-0.00000027,0.00002207,0.00000376,-0.00000320,0.00000393,0.00001311,-
 0.00000151,-0.00000854,0.00000540,0.00001144,0.00000378,-0.00001805,-0
 .00000036,-0.00001111,-0.00000346,0.00000287,0.00000789,0.00001186,0.0
 0000939,-0.00002734,-0.00002903,0.00001859,0.00001658,0.00003053,-0.00
 000899,-0.00000825,0.00000317,0.00000305,0.00000068,-0.00000542,-0.000
 00801,0.00000301,-0.00003025,0.00007801,0.00050269,-0.00284945,0.00061
 609,-0.00000079,-0.00000675,-0.00000104,-0.00000283,-0.00000149,0.0000
 0320,0.00000315,-0.00000008,0.00000194,-0.00000189,-0.00000141,0.00000
 216,0.00000004,-0.00000037,-0.00000222,-0.00000550,-0.00000210,-0.0000
 0003,0.00000012,-0.00000494,-0.00000015,0.00000683,0.00001096,-0.00001
 165,-0.00000144,-0.00000243,-0.00001137,0.00000111,-0.00000242,-0.0000
 0488,0.00000076,0.00000075,-0.00000281,0.00002375,0.00002610,-0.000018
 65,-0.00000307,0.00000277,-0.00003383,0.00000982,-0.00001828,-0.000059
 32,-0.00001224,0.00003638,-0.00004193,-0.00005529,-0.00023795,-0.00043
 955,-0.00139854,0.00466132,-0.00213805,0.00000041,-0.00002818,0.000020
 90,0.00000349,0.00000766,-0.00000532,0.00000552,0.00001492,0.00000644,
 0.00000319,0.00000167,-0.00000229,-0.00000829,-0.00001809,-0.00000097,
 -0.00000413,-0.00000231,0.00000445,-0.01973178,-0.05910575,-0.12767193
 ,0.00838420,0.05236382,-0.00000630,-0.00001458,-0.00000069,-0.00000603
 ,0.00003351,-0.00000384,0.00003234,-0.00001344,0.00000359,-0.00007763,
 0.00004006,-0.00000736,-0.00000923,-0.00002244,0.00000213,0.00000207,0
 .00000290,-0.00000211,0.00001249,-0.00000819,0.00000607,-0.00003191,0.
 00001609,-0.00001730,0.00001748,-0.00000883,-0.00000179,0.00000546,-0.
 00000065,0.00000260,0.00000142,-0.00000353,-0.00000178,-0.00009407,0.0
 0013994,0.00011408,-0.00030067,0.00122738,0.00048898,0.00000489,0.0000
 0264,0.00000141,-0.00000264,-0.00000033,0.00000022,-0.00000152,0.00000
 050,-0.00000504,-0.00000297,0.00000218,-0.00000033,0.00000139,-0.00000
 146,-0.00000209,-0.00000837,0.00000478,-0.00000338,-0.00000792,0.00000
 417,-0.00000320,0.00001889,-0.00000961,-0.00000409,0.00000338,-0.00000
 690,0.00000363,-0.00000123,0.00000090,0.00000271,-0.00000207,0.0000006
 7,0.00000176,0.00000899,-0.00001216,0.00001707,0.00014634,-0.00010665,
 0.00000861,0.00005938,-0.00008335,-0.00016105,-0.00001912,-0.00001997,
 -0.00003700,0.00006411,-0.00019895,0.00008937,0.00028973,-0.00144639,-
 0.00122849,-0.00000275,0.00003668,0.00005351,-0.00000137,-0.00001776,-
 0.00001538,0.00000284,-0.00001913,-0.00003391,0.00001142,0.00000248,0.
 00000708,0.00000589,-0.00000515,0.00000811,-0.00001660,0.00000957,0.00
 000211,-0.15793026,-0.08586205,-0.47491983,0.15582085,0.09552410,0.486
 77151,0.00000657,0.00001811,-0.00000086,0.00001622,-0.00003274,0.00000
 085,-0.00002388,0.00002480,-0.00000058,0.00002356,-0.00000607,-0.00000
 191,0.00001688,0.00000111,0.00000100,-0.00001748,-0.00000025,-0.000001
 05,-0.00000123,0.00003032,0.00000438,0.00002774,-0.00003160,-0.0000139
 7,-0.00001932,0.00000863,0.00000116,-0.00000430,0.00000057,0.00000017,
 -0.00000239,0.00000116,-0.00000045,-0.00003248,-0.00011500,-0.00010915
 ,-0.00030124,-0.00155777,-0.00123820,-0.00000448,-0.00000659,0.0000009
 7,0.00000361,-0.00000075,-0.00000119,-0.00000018,0.00000074,0.00000458
 ,0.00000321,-0.00000295,0.00000042,-0.00000297,-0.00000120,-0.00000198
 ,0.00000562,-0.00000401,0.00000280,0.00000391,-0.00000732,0.00000351,-
 0.00000785,0.00001489,0.00000774,0.00000239,0.00000319,0.00000124,0.00
 000112,-0.00000008,0.00000076,0.00000110,0.00000146,0.00000103,-0.0000
 1322,0.00002153,0.00000988,-0.00002685,0.00004017,0.00000557,-0.000007
 25,0.00007367,0.00009155,0.00007188,0.00002024,0.00006761,0.00022774,-
 0.00013750,0.00012244,0.00028857,0.00186112,0.00182216,-0.00008863,-0.
 00001508,-0.00002365,0.00003559,-0.00000408,-0.00002037,0.00005112,0.0
 0002348,0.00001821,-0.00001326,-0.00001152,-0.00000218,-0.00000118,0.0
 0001115,-0.00000147,0.00000954,-0.00000798,-0.00000563,-0.22749971,0.2
 4037829,-0.10723701,-0.00833124,0.01227249,0.00201331,0.23560278,0.000
 00250,-0.00000049,0.00000044,0.00001445,0.00000470,-0.00000400,0.00000
 981,0.00001765,0.00000052,-0.00006226,0.00003833,-0.00000147,0.0000055
 6,-0.00002650,0.00000189,-0.00001617,0.00000036,-0.00000014,0.00000870
 ,0.00001373,0.00001062,-0.00002125,-0.00001886,0.00000574,0.00001287,0
 .00001904,-0.00000849,-0.00000506,0.00000330,0.00000209,0.00000109,-0.
 00000467,-0.00000615,-0.00011578,0.00007864,0.00008780,-0.00104166,-0.
 00075076,-0.00093219,-0.00000029,-0.00000500,-0.00000129,-0.00000283,-
 0.00000136,0.00000196,0.00000267,0.00000066,0.00000076,-0.00000187,-0.
 00000112,0.00000147,-0.00000003,-0.00000077,-0.00000299,-0.00000505,-0
 .00000130,-0.00000008,-0.00000249,-0.00000409,-0.00000025,0.00001152,0
 .00000661,-0.00000439,0.00000398,-0.00000583,-0.00000387,0.00000026,-0
 .00000085,-0.00000187,-0.00000036,0.00000118,-0.00000126,0.00001037,0.
 00000912,-0.00000347,0.00012886,-0.00007187,-0.00000266,0.00007538,-0.
 00011051,-0.00010841,0.00001870,-0.00000247,-0.00006697,0.00022385,-0.
 00053706,-0.00007842,0.00234335,0.00078455,0.00218902,-0.00004269,-0.0
 0000303,0.00008393,0.00001425,-0.00000530,-0.00003370,0.00002644,0.000
 02416,-0.00003507,0.00000261,0.00000018,-0.00000204,-0.00000415,-0.000
 00800,0.00000237,-0.00000332,0.00000028,0.00000128,0.25892528,-0.29453
 910,0.09774343,-0.00765261,0.00517631,-0.00918702,-0.25286464,0.289920
 13,-0.00000362,-0.00000482,0.00000035,-0.00000815,0.00001170,-0.000001
 25,0.00000782,-0.00000836,0.00000326,-0.00003292,0.00001646,-0.0000104
 8,-0.00000550,-0.00000294,0.00000337,0.00000335,0.00000238,-0.00000345
 ,0.00000524,-0.00000059,0.00000094,-0.00000335,0.00000961,-0.00002634,
 0.00000036,-0.00001466,0.00000511,0.00000990,-0.00000467,0.00000374,0.
 00000087,0.00000020,0.00000331,0.00001885,0.00012489,-0.00033785,-0.00
 066810,-0.00183882,-0.00142956,0.00000350,0.00000213,0.00000374,0.0000
 0017,0.00000063,-0.00000203,-0.00000364,0.00000161,-0.00000455,-0.0000
 0076,0.00000185,-0.00000205,-0.00000008,-0.00000307,-0.00000122,-0.000
 00259,0.00000410,-0.00000332,-0.00000350,0.00000268,-0.00000181,0.0000
 0719,-0.00000852,0.00001525,0.00000109,-0.00000126,0.00000951,-0.00000
 078,0.00000091,0.00000363,-0.00000081,0.00000027,0.00000234,-0.0000055
 2,-0.00000414,0.00002649,0.00006868,-0.00004738,0.00003290,-0.00015838
 ,-0.00002011,0.00044867,0.00008726,-0.00015592,0.00011021,0.00006178,-
 0.00016357,0.00001532,0.00171792,0.00312703,0.00241957,-0.00007274,0.0
 0016293,0.00004906,0.00000077,-0.00005355,-0.00003347,0.00003848,-0.00
 007970,-0.00011892,-0.00000187,-0.00000454,0.00000483,0.00000399,0.000
 00916,0.00000101,-0.00000377,0.00000286,-0.00000507,-0.07515577,0.0544
 1667,-0.07074272,-0.03038370,0.03416571,-0.01113592,0.10447833,-0.0896
 4714,0.08069742\\-0.00000106,-0.00000217,0.00000020,-0.00000145,0.0000
 0251,-0.00000069,0.00000286,-0.00000069,0.00000039,-0.00000044,-0.0000
 0027,-0.00000028,-0.00000116,0.00000316,0.00000105,0.00000276,-0.00000
 072,0.00000103,-0.00000032,-0.00000054,-0.00000015,0.00000008,0.000000
 32,-0.00000032,0.00000015,0.00000119,-0.00000101,-0.00000022,-0.000000
 03,-0.00000021,-0.00000009,-0.00000057,0.,-0.00000197,0.00000106,0.000
 00013,-0.00000139,0.00000041,-0.00000050,-0.00000024,0.00000028,-0.000
 00090,-0.00000019,-0.00000001,-0.00000050,-0.00000021,-0.00000033,-0.0
 0000068,-0.00000004,-0.00000019,-0.00000004,-0.00000048,-0.00000041,0.
 00000033,-0.00000026,0.00000046,-0.00000079,0.00000030,0.00000068,-0.0
 0000002,-0.00000025,-0.00000027,-0.00000022,0.00000035,-0.00000064,0.0
 0000068,0.00000005,0.00000009,0.00000100,0.00000061,0.00000066,0.00000
 067,0.00000040,0.00000070,-0.00000031,-0.00000130,-0.00000216,0.000002
 10,0.00000299,-0.00000167,-0.00000098,0.00000022,0.00000131,-0.0000006
 8,0.00000034,0.00000058,0.00000256,0.00000068,0.00000008,-0.00000047,-
 0.00000043,-0.00000183,-0.00000245,-0.00000065,-0.00000229,0.00000179,
 0.00000058,-0.00000030,0.00000188,0.00000010,0.00000066,-0.00000068,0.
 00000016,0.00000072,-0.00000027,0.00000015,0.00000083,-0.00000038,0.,-
 0.00000664,-0.00000289,-0.00000231,0.00000446,-0.00000162,0.00000170,0
 .00000159,0.00000321\\\@


 Age does not diminish the extreme disappointment of
 having a scoop of ice cream fall from the cone.
 -- Jim Fiebig
 Job cpu time:       1 days  0 hours 31 minutes 37.6 seconds.
 Elapsed time:       0 days  0 hours 52 minutes 36.7 seconds.
 File lengths (MBytes):  RWF=   1240 Int=      0 D2E=      0 Chk=     32 Scr=      8
 Normal termination of Gaussian 16 at Fri Jan 27 16:42:12 2023.
