 Entering Gaussian System, Link 0=g16
 Input=NicPySa4hYiab.gjf
 Output=NicPySa4hYiab.log
 Initial command:
 /sw/contrib/gaussian/g16/A03/g16/l1.exe "/gscratch/scrubbed/gds001/Gau-23882.inp" -scrdir="/gscratch/scrubbed/gds001/"
 Entering Link 1 = /sw/contrib/gaussian/g16/A03/g16/l1.exe PID=     23883.
  
 Copyright (c) 1988,1990,1992,1993,1995,1998,2003,2009,2016,
            Gaussian, Inc.  All Rights Reserved.
  
 This is part of the Gaussian(R) 16 program.  It is based on
 the Gaussian(R) 09 system (copyright 2009, Gaussian, Inc.),
 the Gaussian(R) 03 system (copyright 2003, Gaussian, Inc.),
 the Gaussian(R) 98 system (copyright 1998, Gaussian, Inc.),
 the Gaussian(R) 94 system (copyright 1995, Gaussian, Inc.),
 the Gaussian 92(TM) system (copyright 1992, Gaussian, Inc.),
 the Gaussian 90(TM) system (copyright 1990, Gaussian, Inc.),
 the Gaussian 88(TM) system (copyright 1988, Gaussian, Inc.),
 the Gaussian 86(TM) system (copyright 1986, Carnegie Mellon
 University), and the Gaussian 82(TM) system (copyright 1983,
 Carnegie Mellon University). Gaussian is a federally registered
 trademark of Gaussian, Inc.
  
 This software contains proprietary and confidential information,
 including trade secrets, belonging to Gaussian, Inc.
  
 This software is provided under written license and may be
 used, copied, transmitted, or stored only in accord with that
 written license.
  
 The following legend is applicable only to US Government
 contracts under FAR:
  
                    RESTRICTED RIGHTS LEGEND
  
 Use, reproduction and disclosure by the US Government is
 subject to restrictions as set forth in subparagraphs (a)
 and (c) of the Commercial Computer Software - Restricted
 Rights clause in FAR 52.227-19.
  
 Gaussian, Inc.
 340 Quinnipiac St., Bldg. 40, Wallingford CT 06492
  
  
 ---------------------------------------------------------------
 Warning -- This program may not be used in any manner that
 competes with the business of Gaussian, Inc. or will provide
 assistance to any competitor of Gaussian, Inc.  The licensee
 of this program is prohibited from giving any competitor of
 Gaussian, Inc. access to this program.  By using this program,
 the user acknowledges that Gaussian, Inc. is engaged in the
 business of creating and licensing software in the field of
 computational chemistry and represents and warrants to the
 licensee that it is not a competitor of Gaussian, Inc. and that
 it will not use this program in any manner prohibited above.
 ---------------------------------------------------------------
  

 Cite this work as:
 Gaussian 16, Revision A.03,
 M. J. Frisch, G. W. Trucks, H. B. Schlegel, G. E. Scuseria, 
 M. A. Robb, J. R. Cheeseman, G. Scalmani, V. Barone, 
 G. A. Petersson, H. Nakatsuji, X. Li, M. Caricato, A. V. Marenich, 
 J. Bloino, B. G. Janesko, R. Gomperts, B. Mennucci, H. P. Hratchian, 
 J. V. Ortiz, A. F. Izmaylov, J. L. Sonnenberg, D. Williams-Young, 
 F. Ding, F. Lipparini, F. Egidi, J. Goings, B. Peng, A. Petrone, 
 T. Henderson, D. Ranasinghe, V. G. Zakrzewski, J. Gao, N. Rega, 
 G. Zheng, W. Liang, M. Hada, M. Ehara, K. Toyota, R. Fukuda, 
 J. Hasegawa, M. Ishida, T. Nakajima, Y. Honda, O. Kitao, H. Nakai, 
 T. Vreven, K. Throssell, J. A. Montgomery, Jr., J. E. Peralta, 
 F. Ogliaro, M. J. Bearpark, J. J. Heyd, E. N. Brothers, K. N. Kudin, 
 V. N. Staroverov, T. A. Keith, R. Kobayashi, J. Normand, 
 K. Raghavachari, A. P. Rendell, J. C. Burant, S. S. Iyengar, 
 J. Tomasi, M. Cossi, J. M. Millam, M. Klene, C. Adamo, R. Cammi, 
 J. W. Ochterski, R. L. Martin, K. Morokuma, O. Farkas, 
 J. B. Foresman, and D. J. Fox, Gaussian, Inc., Wallingford CT, 2016.
 
 ******************************************
 Gaussian 16:  ES64L-G16RevA.03 25-Dec-2016
                27-Jan-2023 
 ******************************************
 %nprocshared=28
 Will use up to   28 processors via shared memory.
 %mem=41GB
 -----------------------------
 # wB97XD/aug-cc-pVDZ opt freq
 -----------------------------
 1/18=20,19=15,26=3,38=1/1,3;
 2/9=110,12=2,17=6,18=5,40=1/2;
 3/5=16,7=10,11=2,25=1,30=1,71=1,74=-58/1,2,3;
 4//1;
 5/5=2,38=5/2;
 6/7=2,8=2,9=2,10=2,28=1/1;
 7//1,2,3,16;
 1/18=20,19=15,26=3/3(2);
 2/9=110/2;
 99//99;
 2/9=110/2;
 3/5=16,7=10,11=2,25=1,30=1,71=1,74=-58/1,2,3;
 4/5=5,16=3,69=1/1;
 5/5=2,38=5/2;
 7//1,2,3,16;
 1/18=20,19=15,26=3/3(-5);
 2/9=110/2;
 6/7=2,8=2,9=2,10=2,19=2,28=1/1;
 99/9=1/99;
 ----
 blah
 ----
 Symbolic Z-matrix:
 Charge =  1 Multiplicity = 1
 C                    -1.12634   2.39928  -0.19853 
 C                    -1.18732   1.00295  -0.15662 
 C                     0.01501   0.3143   -0.07424 
 N                     1.18198   0.97388  -0.02879 
 C                     1.25828   2.31208  -0.0593 
 C                     0.0986    3.06179  -0.14591 
 C                    -2.5064    0.26012  -0.15769 
 N                    -2.34212  -1.12321  -0.58557 
 C                    -3.35156  -1.91248   0.11513 
 C                    -3.32158  -1.32689   1.52023 
 C                    -3.1506    0.17999   1.25894 
 O                     3.43893  -0.35068   0.11653 
 O                     4.79268  -1.20765  -2.12644 
 H                    -3.09374  -2.97778   0.07573 
 H                    -4.22656  -1.55084   2.09438 
 H                    -2.46034  -1.7259    2.07053 
 H                    -4.12182   0.68751   1.24616 
 H                    -2.53555   0.67041   2.02198 
 H                    -4.35458  -1.78586  -0.34005 
 H                    -3.19011   0.8091   -0.83486 
 H                     0.0502   -0.77232  -0.05132 
 H                     2.25618   2.74151  -0.01744 
 H                     0.15735   4.14721  -0.17665 
 H                    -2.04931   2.97542  -0.27467 
 C                    -2.33698  -1.29757  -2.02591 
 H                     2.08457   0.41667   0.0304 
 H                     3.9523   -0.68196  -0.64193 
 H                     3.86731  -0.6559    0.93625 
 H                     5.59408  -0.79678  -2.46153 
 H                     4.80341  -2.10957  -2.45757 
 O                     4.54351  -1.1326    2.5178 
 H                     5.30558  -0.7101    2.92289 
 H                     4.51751  -2.02364   2.87642 
 H                    -2.17675  -2.35475  -2.2687 
 H                    -1.519    -0.71929  -2.47708 
 H                    -3.2874   -0.97177  -2.49216 
 O                     4.46608  -3.58439   3.74875 
 H                     4.80823  -4.49348   3.70977 
 H                     3.6022   -3.69904   4.18303 
 
 Add virtual bond connecting atoms H26        and O12        Dist= 2.95D+00.
 Add virtual bond connecting atoms O31        and H28        Dist= 3.37D+00.
 Add virtual bond connecting atoms H27        and O13        Dist= 3.37D+00.
 Add virtual bond connecting atoms O37        and H33        Dist= 3.38D+00.

 GradGradGradGradGradGradGradGradGradGradGradGradGradGradGradGradGradGrad
 Berny optimization.
 Initialization pass.
                           ----------------------------
                           !    Initial Parameters    !
                           ! (Angstroms and Degrees)  !
 --------------------------                            --------------------------
 ! Name  Definition              Value          Derivative Info.                !
 --------------------------------------------------------------------------------
 ! R1    R(1,2)                  1.3983         estimate D2E/DX2                !
 ! R2    R(1,6)                  1.3936         estimate D2E/DX2                !
 ! R3    R(1,24)                 1.0907         estimate D2E/DX2                !
 ! R4    R(2,3)                  1.388          estimate D2E/DX2                !
 ! R5    R(2,7)                  1.5139         estimate D2E/DX2                !
 ! R6    R(3,4)                  1.3412         estimate D2E/DX2                !
 ! R7    R(3,21)                 1.0874         estimate D2E/DX2                !
 ! R8    R(4,5)                  1.3407         estimate D2E/DX2                !
 ! R9    R(4,26)                 1.0624         estimate D2E/DX2                !
 ! R10   R(5,6)                  1.3836         estimate D2E/DX2                !
 ! R11   R(5,22)                 1.0872         estimate D2E/DX2                !
 ! R12   R(6,23)                 1.0874         estimate D2E/DX2                !
 ! R13   R(7,8)                  1.4573         estimate D2E/DX2                !
 ! R14   R(7,11)                 1.5583         estimate D2E/DX2                !
 ! R15   R(7,20)                 1.1079         estimate D2E/DX2                !
 ! R16   R(8,9)                  1.4604         estimate D2E/DX2                !
 ! R17   R(8,25)                 1.4509         estimate D2E/DX2                !
 ! R18   R(9,10)                 1.5225         estimate D2E/DX2                !
 ! R19   R(9,14)                 1.0968         estimate D2E/DX2                !
 ! R20   R(9,19)                 1.1087         estimate D2E/DX2                !
 ! R21   R(10,11)                1.5389         estimate D2E/DX2                !
 ! R22   R(10,15)                1.0949         estimate D2E/DX2                !
 ! R23   R(10,16)                1.0972         estimate D2E/DX2                !
 ! R24   R(11,17)                1.0959         estimate D2E/DX2                !
 ! R25   R(11,18)                1.0959         estimate D2E/DX2                !
 ! R26   R(12,26)                1.559          estimate D2E/DX2                !
 ! R27   R(12,27)                0.9739         estimate D2E/DX2                !
 ! R28   R(12,28)                0.974          estimate D2E/DX2                !
 ! R29   R(13,27)                1.785          estimate D2E/DX2                !
 ! R30   R(13,29)                0.9609         estimate D2E/DX2                !
 ! R31   R(13,30)                0.9608         estimate D2E/DX2                !
 ! R32   R(25,34)                1.0965         estimate D2E/DX2                !
 ! R33   R(25,35)                1.0987         estimate D2E/DX2                !
 ! R34   R(25,36)                1.1076         estimate D2E/DX2                !
 ! R35   R(28,31)                1.7849         estimate D2E/DX2                !
 ! R36   R(31,32)                0.9609         estimate D2E/DX2                !
 ! R37   R(31,33)                0.9608         estimate D2E/DX2                !
 ! R38   R(33,37)                1.7887         estimate D2E/DX2                !
 ! R39   R(37,38)                0.9721         estimate D2E/DX2                !
 ! R40   R(37,39)                0.9737         estimate D2E/DX2                !
 ! A1    A(2,1,6)              120.7923         estimate D2E/DX2                !
 ! A2    A(2,1,24)             119.5164         estimate D2E/DX2                !
 ! A3    A(6,1,24)             119.6912         estimate D2E/DX2                !
 ! A4    A(1,2,3)              117.3508         estimate D2E/DX2                !
 ! A5    A(1,2,7)              121.8692         estimate D2E/DX2                !
 ! A6    A(3,2,7)              120.7544         estimate D2E/DX2                !
 ! A7    A(2,3,4)              120.7767         estimate D2E/DX2                !
 ! A8    A(2,3,21)             121.6717         estimate D2E/DX2                !
 ! A9    A(4,3,21)             117.5502         estimate D2E/DX2                !
 ! A10   A(3,4,5)              122.6555         estimate D2E/DX2                !
 ! A11   A(3,4,26)             118.892          estimate D2E/DX2                !
 ! A12   A(5,4,26)             118.4522         estimate D2E/DX2                !
 ! A13   A(4,5,6)              119.6399         estimate D2E/DX2                !
 ! A14   A(4,5,22)             116.4626         estimate D2E/DX2                !
 ! A15   A(6,5,22)             123.897          estimate D2E/DX2                !
 ! A16   A(1,6,5)              118.7822         estimate D2E/DX2                !
 ! A17   A(1,6,23)             121.3945         estimate D2E/DX2                !
 ! A18   A(5,6,23)             119.8225         estimate D2E/DX2                !
 ! A19   A(2,7,8)              111.5779         estimate D2E/DX2                !
 ! A20   A(2,7,11)             112.6315         estimate D2E/DX2                !
 ! A21   A(2,7,20)             107.1585         estimate D2E/DX2                !
 ! A22   A(8,7,11)             105.3498         estimate D2E/DX2                !
 ! A23   A(8,7,20)             111.1298         estimate D2E/DX2                !
 ! A24   A(11,7,20)            109.0277         estimate D2E/DX2                !
 ! A25   A(7,8,9)              107.1104         estimate D2E/DX2                !
 ! A26   A(7,8,25)             113.9511         estimate D2E/DX2                !
 ! A27   A(9,8,25)             114.4441         estimate D2E/DX2                !
 ! A28   A(8,9,10)             102.7859         estimate D2E/DX2                !
 ! A29   A(8,9,14)             110.1941         estimate D2E/DX2                !
 ! A30   A(8,9,19)             111.506          estimate D2E/DX2                !
 ! A31   A(10,9,14)            113.7101         estimate D2E/DX2                !
 ! A32   A(10,9,19)            110.6571         estimate D2E/DX2                !
 ! A33   A(14,9,19)            107.9894         estimate D2E/DX2                !
 ! A34   A(9,10,11)            102.8326         estimate D2E/DX2                !
 ! A35   A(9,10,15)            112.8921         estimate D2E/DX2                !
 ! A36   A(9,10,16)            109.7833         estimate D2E/DX2                !
 ! A37   A(11,10,15)           112.4055         estimate D2E/DX2                !
 ! A38   A(11,10,16)           110.7352         estimate D2E/DX2                !
 ! A39   A(15,10,16)           108.1444         estimate D2E/DX2                !
 ! A40   A(7,11,10)            104.5156         estimate D2E/DX2                !
 ! A41   A(7,11,17)            109.3874         estimate D2E/DX2                !
 ! A42   A(7,11,18)            112.207          estimate D2E/DX2                !
 ! A43   A(10,11,17)           110.9148         estimate D2E/DX2                !
 ! A44   A(10,11,18)           112.4774         estimate D2E/DX2                !
 ! A45   A(17,11,18)           107.3524         estimate D2E/DX2                !
 ! A46   A(26,12,27)           125.6129         estimate D2E/DX2                !
 ! A47   A(26,12,28)           125.6502         estimate D2E/DX2                !
 ! A48   A(27,12,28)           108.4812         estimate D2E/DX2                !
 ! A49   A(27,13,29)           123.8304         estimate D2E/DX2                !
 ! A50   A(27,13,30)           124.6316         estimate D2E/DX2                !
 ! A51   A(29,13,30)           105.7753         estimate D2E/DX2                !
 ! A52   A(8,25,34)            109.6459         estimate D2E/DX2                !
 ! A53   A(8,25,35)            110.3072         estimate D2E/DX2                !
 ! A54   A(8,25,36)            112.3033         estimate D2E/DX2                !
 ! A55   A(34,25,35)           107.9243         estimate D2E/DX2                !
 ! A56   A(34,25,36)           108.4078         estimate D2E/DX2                !
 ! A57   A(35,25,36)           108.1302         estimate D2E/DX2                !
 ! A58   A(28,31,32)           123.8183         estimate D2E/DX2                !
 ! A59   A(28,31,33)           124.6203         estimate D2E/DX2                !
 ! A60   A(32,31,33)           105.7753         estimate D2E/DX2                !
 ! A61   A(33,37,38)           141.8407         estimate D2E/DX2                !
 ! A62   A(33,37,39)           110.2288         estimate D2E/DX2                !
 ! A63   A(38,37,39)           102.7118         estimate D2E/DX2                !
 ! A64   L(4,26,12,34,-1)      181.9302         estimate D2E/DX2                !
 ! A65   L(12,27,13,25,-1)     176.3125         estimate D2E/DX2                !
 ! A66   L(12,28,31,10,-1)     176.3947         estimate D2E/DX2                !
 ! A67   L(31,33,37,8,-1)      182.5813         estimate D2E/DX2                !
 ! A68   L(4,26,12,34,-2)      178.9498         estimate D2E/DX2                !
 ! A69   L(12,27,13,25,-2)     176.2616         estimate D2E/DX2                !
 ! A70   L(12,28,31,10,-2)     183.7565         estimate D2E/DX2                !
 ! A71   L(31,33,37,8,-2)      187.0718         estimate D2E/DX2                !
 ! D1    D(6,1,2,3)             -0.603          estimate D2E/DX2                !
 ! D2    D(6,1,2,7)            177.5699         estimate D2E/DX2                !
 ! D3    D(24,1,2,3)           179.3151         estimate D2E/DX2                !
 ! D4    D(24,1,2,7)            -2.512          estimate D2E/DX2                !
 ! D5    D(2,1,6,5)              0.3863         estimate D2E/DX2                !
 ! D6    D(2,1,6,23)          -179.9294         estimate D2E/DX2                !
 ! D7    D(24,1,6,5)          -179.5317         estimate D2E/DX2                !
 ! D8    D(24,1,6,23)            0.1527         estimate D2E/DX2                !
 ! D9    D(1,2,3,4)              0.4095         estimate D2E/DX2                !
 ! D10   D(1,2,3,21)          -179.1446         estimate D2E/DX2                !
 ! D11   D(7,2,3,4)           -177.7848         estimate D2E/DX2                !
 ! D12   D(7,2,3,21)             2.6611         estimate D2E/DX2                !
 ! D13   D(1,2,7,8)            159.5636         estimate D2E/DX2                !
 ! D14   D(1,2,7,11)           -82.1885         estimate D2E/DX2                !
 ! D15   D(1,2,7,20)            37.7058         estimate D2E/DX2                !
 ! D16   D(3,2,7,8)            -22.3249         estimate D2E/DX2                !
 ! D17   D(3,2,7,11)            95.923          estimate D2E/DX2                !
 ! D18   D(3,2,7,20)          -144.1827         estimate D2E/DX2                !
 ! D19   D(2,3,4,5)              0.0087         estimate D2E/DX2                !
 ! D20   D(2,3,4,26)          -179.7726         estimate D2E/DX2                !
 ! D21   D(21,3,4,5)           179.5807         estimate D2E/DX2                !
 ! D22   D(21,3,4,26)           -0.2006         estimate D2E/DX2                !
 ! D23   D(3,4,5,6)             -0.2428         estimate D2E/DX2                !
 ! D24   D(3,4,5,22)          -179.9717         estimate D2E/DX2                !
 ! D25   D(26,4,5,6)           179.5394         estimate D2E/DX2                !
 ! D26   D(26,4,5,22)           -0.1895         estimate D2E/DX2                !
 ! D27   D(3,4,12,27)           87.728          estimate D2E/DX2                !
 ! D28   D(3,4,12,28)          -87.035          estimate D2E/DX2                !
 ! D29   D(5,4,12,27)          -92.0377         estimate D2E/DX2                !
 ! D30   D(5,4,12,28)           93.1993         estimate D2E/DX2                !
 ! D31   D(4,5,6,1)              0.0417         estimate D2E/DX2                !
 ! D32   D(4,5,6,23)          -179.6477         estimate D2E/DX2                !
 ! D33   D(22,5,6,1)           179.7494         estimate D2E/DX2                !
 ! D34   D(22,5,6,23)            0.0599         estimate D2E/DX2                !
 ! D35   D(2,7,8,9)            148.6368         estimate D2E/DX2                !
 ! D36   D(2,7,8,25)           -83.737          estimate D2E/DX2                !
 ! D37   D(11,7,8,9)            26.1116         estimate D2E/DX2                !
 ! D38   D(11,7,8,25)          153.7378         estimate D2E/DX2                !
 ! D39   D(20,7,8,9)           -91.8281         estimate D2E/DX2                !
 ! D40   D(20,7,8,25)           35.7981         estimate D2E/DX2                !
 ! D41   D(2,7,11,10)         -122.5476         estimate D2E/DX2                !
 ! D42   D(2,7,11,17)          118.6344         estimate D2E/DX2                !
 ! D43   D(2,7,11,18)           -0.3892         estimate D2E/DX2                !
 ! D44   D(8,7,11,10)           -0.7023         estimate D2E/DX2                !
 ! D45   D(8,7,11,17)         -119.5203         estimate D2E/DX2                !
 ! D46   D(8,7,11,18)          121.4561         estimate D2E/DX2                !
 ! D47   D(20,7,11,10)         118.6442         estimate D2E/DX2                !
 ! D48   D(20,7,11,17)          -0.1738         estimate D2E/DX2                !
 ! D49   D(20,7,11,18)        -119.1974         estimate D2E/DX2                !
 ! D50   D(7,8,9,10)           -41.4167         estimate D2E/DX2                !
 ! D51   D(7,8,9,14)          -162.9377         estimate D2E/DX2                !
 ! D52   D(7,8,9,19)            77.1534         estimate D2E/DX2                !
 ! D53   D(25,8,9,10)         -168.754          estimate D2E/DX2                !
 ! D54   D(25,8,9,14)           69.725          estimate D2E/DX2                !
 ! D55   D(25,8,9,19)          -50.1839         estimate D2E/DX2                !
 ! D56   D(7,8,25,34)          178.142          estimate D2E/DX2                !
 ! D57   D(7,8,25,35)           59.421          estimate D2E/DX2                !
 ! D58   D(7,8,25,36)          -61.2711         estimate D2E/DX2                !
 ! D59   D(9,8,25,34)          -58.1096         estimate D2E/DX2                !
 ! D60   D(9,8,25,35)         -176.8306         estimate D2E/DX2                !
 ! D61   D(9,8,25,36)           62.4773         estimate D2E/DX2                !
 ! D62   D(8,9,10,11)           39.224          estimate D2E/DX2                !
 ! D63   D(8,9,10,15)          160.5919         estimate D2E/DX2                !
 ! D64   D(8,9,10,16)          -78.6696         estimate D2E/DX2                !
 ! D65   D(14,9,10,11)         158.3203         estimate D2E/DX2                !
 ! D66   D(14,9,10,15)         -80.3118         estimate D2E/DX2                !
 ! D67   D(14,9,10,16)          40.4267         estimate D2E/DX2                !
 ! D68   D(19,9,10,11)         -79.9397         estimate D2E/DX2                !
 ! D69   D(19,9,10,15)          41.4282         estimate D2E/DX2                !
 ! D70   D(19,9,10,16)         162.1667         estimate D2E/DX2                !
 ! D71   D(9,10,11,7)          -23.3301         estimate D2E/DX2                !
 ! D72   D(9,10,11,17)          94.4468         estimate D2E/DX2                !
 ! D73   D(9,10,11,18)        -145.3111         estimate D2E/DX2                !
 ! D74   D(15,10,11,7)        -145.0289         estimate D2E/DX2                !
 ! D75   D(15,10,11,17)        -27.252          estimate D2E/DX2                !
 ! D76   D(15,10,11,18)         92.9901         estimate D2E/DX2                !
 ! D77   D(16,10,11,7)          93.8901         estimate D2E/DX2                !
 ! D78   D(16,10,11,17)       -148.333          estimate D2E/DX2                !
 ! D79   D(16,10,11,18)        -28.0909         estimate D2E/DX2                !
 ! D80   D(26,12,13,29)        106.1897         estimate D2E/DX2                !
 ! D81   D(26,12,13,30)       -102.0292         estimate D2E/DX2                !
 ! D82   D(28,12,13,29)        -78.9423         estimate D2E/DX2                !
 ! D83   D(28,12,13,30)         72.8388         estimate D2E/DX2                !
 ! D84   D(26,12,31,32)       -106.2393         estimate D2E/DX2                !
 ! D85   D(26,12,31,33)        102.0696         estimate D2E/DX2                !
 ! D86   D(27,12,31,32)         78.9152         estimate D2E/DX2                !
 ! D87   D(27,12,31,33)        -72.7759         estimate D2E/DX2                !
 ! D88   D(28,31,37,38)         70.0105         estimate D2E/DX2                !
 ! D89   D(28,31,37,39)        -80.94           estimate D2E/DX2                !
 ! D90   D(32,31,37,38)        -86.6458         estimate D2E/DX2                !
 ! D91   D(32,31,37,39)        122.4037         estimate D2E/DX2                !
 --------------------------------------------------------------------------------
 Trust Radius=3.00D-01 FncErr=1.00D-07 GrdErr=1.00D-06 EigMax=2.50D+02 EigMin=1.00D-04
 Number of steps in this run=    212 maximum allowed number of steps=    234.
 GradGradGradGradGradGradGradGradGradGradGradGradGradGradGradGradGradGrad

                          Input orientation:                          
 ---------------------------------------------------------------------
 Center     Atomic      Atomic             Coordinates (Angstroms)
 Number     Number       Type             X           Y           Z
 ---------------------------------------------------------------------
      1          6           0       -1.126336    2.399281   -0.198532
      2          6           0       -1.187324    1.002951   -0.156621
      3          6           0        0.015009    0.314300   -0.074237
      4          7           0        1.181983    0.973879   -0.028789
      5          6           0        1.258284    2.312080   -0.059304
      6          6           0        0.098598    3.061786   -0.145906
      7          6           0       -2.506400    0.260122   -0.157689
      8          7           0       -2.342116   -1.123212   -0.585566
      9          6           0       -3.351562   -1.912481    0.115134
     10          6           0       -3.321579   -1.326894    1.520230
     11          6           0       -3.150595    0.179990    1.258936
     12          8           0        3.438930   -0.350679    0.116534
     13          8           0        4.792677   -1.207647   -2.126440
     14          1           0       -3.093735   -2.977779    0.075727
     15          1           0       -4.226560   -1.550844    2.094382
     16          1           0       -2.460335   -1.725901    2.070530
     17          1           0       -4.121821    0.687506    1.246158
     18          1           0       -2.535551    0.670406    2.021984
     19          1           0       -4.354579   -1.785864   -0.340052
     20          1           0       -3.190110    0.809101   -0.834861
     21          1           0        0.050204   -0.772322   -0.051324
     22          1           0        2.256175    2.741509   -0.017442
     23          1           0        0.157354    4.147207   -0.176650
     24          1           0       -2.049314    2.975421   -0.274669
     25          6           0       -2.336982   -1.297567   -2.025912
     26          1           0        2.084568    0.416668    0.030404
     27          1           0        3.952300   -0.681956   -0.641928
     28          1           0        3.867309   -0.655896    0.936248
     29          1           0        5.594082   -0.796784   -2.461534
     30          1           0        4.803406   -2.109566   -2.457567
     31          8           0        4.543509   -1.132603    2.517797
     32          1           0        5.305579   -0.710098    2.922885
     33          1           0        4.517506   -2.023640    2.876415
     34          1           0       -2.176754   -2.354747   -2.268703
     35          1           0       -1.519001   -0.719289   -2.477075
     36          1           0       -3.287397   -0.971774   -2.492159
     37          8           0        4.466076   -3.584388    3.748745
     38          1           0        4.808234   -4.493485    3.709773
     39          1           0        3.602198   -3.699035    4.183026
 ---------------------------------------------------------------------
                    Distance matrix (angstroms):
                    1          2          3          4          5
     1  C    0.000000
     2  C    1.398290   0.000000
     3  C    2.380181   1.388032   0.000000
     4  N    2.718257   2.372931   1.341245   0.000000
     5  C    2.390272   2.775660   2.353100   1.340722   0.000000
     6  C    1.393609   2.427450   2.749691   2.355163   1.383630
     7  C    2.546026   1.513855   2.523371   3.759020   4.288713
     8  N    3.746448   2.457256   2.807835   4.138486   5.004105
     9  C    4.862233   3.641088   4.040819   5.376320   6.255240
    10  C    4.653774   3.577017   4.045820   5.289148   6.059060
    11  C    3.338726   2.556462   3.437505   4.589088   5.071664
    12  O    5.338839   4.827955   3.493111   2.620951   3.446218
    13  O    7.194545   6.672881   5.417931   4.711296   5.399395
    14  H    5.732247   4.419796   4.530404   5.823082   6.851344
    15  H    5.520175   4.563534   5.115914   6.335173   7.045854
    16  H    4.893396   3.745316   3.858727   4.996242   5.888091
    17  H    3.740352   3.267808   4.358450   5.462402   5.769662
    18  H    3.147314   2.583529   3.320589   4.256504   4.628179
    19  H    5.287440   4.224055   4.855373   6.194077   6.955300
    20  H    2.681930   2.123379   3.331091   4.448831   4.759059
    21  H    3.385998   2.166600   1.087433   2.081021   3.312560
    22  H    3.404599   3.860005   3.304148   2.068462   1.087174
    23  H    2.168775   3.419782   3.836916   3.337924   2.143247
    24  H    1.090698   2.155829   3.373895   3.808925   3.380327
    25  C    4.297868   3.179362   3.455288   4.640160   5.461047
    26  H    3.780618   3.329262   2.074730   1.062378   2.069633
    27  H    5.956775   5.430485   4.100861   3.285177   4.069573
    28  H    5.963080   5.430971   4.099094   3.286098   4.075171
    29  H    7.778176   7.385062   6.169258   5.340423   5.851059
    30  H    7.784265   7.132388   5.872319   5.340534   6.153902
    31  O    7.211088   6.674994   5.414747   4.714045   5.412947
    32  H    7.796218   7.387536   6.166219   5.343426   5.865800
    33  H    7.801954   7.134749   5.868968   5.343318   6.167612
    34  H    5.290536   4.088276   4.091860   5.232407   6.201629
    35  H    3.882193   2.908716   3.032346   4.019482   4.769500
    36  H    4.614642   3.710065   4.290247   5.461604   6.112749
    37  O    9.091775   8.261749   7.044641   6.769995   7.717481
    38  H    9.899706   9.005916   7.772292   7.551067   8.551245
    39  H    8.873925   7.992542   6.862877   6.740397   7.721710
                    6          7          8          9         10
     6  C    0.000000
     7  C    3.825634   0.000000
     8  N    4.864627   1.457285   0.000000
     9  C    6.059297   2.347112   1.460448   0.000000
    10  C    5.808109   2.449193   2.331354   1.522533   0.000000
    11  C    4.564601   1.558279   2.398783   2.393137   1.538899
    12  O    4.782427   5.982911   5.874542   6.967784   6.973366
    13  O    6.647176   7.701094   7.299773   8.476442   8.896829
    14  H    6.834944   3.299007   2.107524   1.096762   2.205430
    15  H    6.708371   3.363090   3.303955   2.194043   1.094895
    16  H    5.863674   2.985192   2.726180   2.157005   1.097168
    17  H    5.038550   2.182436   3.130697   2.938103   2.184791
    18  H    4.166196   2.218143   3.170773   3.312591   2.204270
    19  H    6.585453   2.763165   2.132930   1.108724   2.176785
    20  H    4.045349   1.107881   2.124871   2.887138   3.182171
    21  H    3.835580   2.759253   2.476234   3.591613   3.761150
    22  H    2.184999   5.372064   6.033499   7.288615   7.073025
    23  H    1.087445   4.712258   5.847382   7.008384   6.704339
    24  H    2.153501   2.755986   4.120823   5.073399   4.832208
    25  C    5.335769   2.438310   1.450870   2.447768   3.680410
    26  H    3.312372   4.597485   4.727175   5.914696   5.872479
    27  H    5.395615   6.544983   6.310115   7.445383   7.615785
    28  H    5.403277   6.531459   6.410247   7.373285   7.243713
    29  H    7.102890   8.487789   8.161437   9.375956   9.778777
    30  H    7.363551   8.021105   7.452232   8.553428   9.080244
    31  O    6.666742   7.668059   7.552667   8.289339   7.930479
    32  H    7.124411   8.453300   8.424199   9.180157   8.762176
    33  H    7.383951   7.984774   7.736310   8.340219   7.985984
    34  H    6.246785   3.376772   2.092122   2.694151   4.089391
    35  H    4.727315   2.704395   2.102018   3.391391   4.426841
    36  H    5.765368   2.752685   2.133445   2.772548   4.028218
    37  O    8.855214   8.868817   8.437720   8.781451   8.408932
    38  H    9.702013   9.542427   8.996454   9.282526   8.995291
    39  H    8.759199   8.475359   8.044203   8.251927   7.788211
                   11         12         13         14         15
    11  C    0.000000
    12  O    6.708840   0.000000
    13  O    8.745392   2.756439   0.000000
    14  H    3.372643   7.041238   8.377255   0.000000
    15  H    2.202602   8.006998   9.963923   2.719265   0.000000
    16  H    2.183475   6.364799   8.395792   2.438777   1.775039
    17  H    1.095909   7.714845   9.717731   3.982610   2.395968
    18  H    1.095915   6.353564   8.627829   4.172378   2.792616
    19  H    2.805516   7.937695   9.337977   1.784170   2.449100
    20  H    2.186625   6.796647   8.334287   3.896013   3.901799
    21  H    3.587310   3.418980   5.194869   3.842465   4.847769
    22  H    6.117490   3.313380   5.145634   7.832016   8.056671
    23  H    5.361179   5.575453   7.345908   7.835732   7.539501
    24  H    3.373307   6.429370   8.230429   6.054270   5.553366
    25  C    3.692610   6.232803   7.130935   2.795116   4.539986
    26  H    5.382587   1.559018   3.824164   6.191861   6.925420
    27  H    7.403199   0.973939   1.785038   7.445297   8.668109
    28  H    7.074872   0.973959   3.246659   7.388354   8.225140
    29  H    9.553291   3.389709   0.960909   9.309812  10.852188
    30  H    9.073070   3.403157   0.960842   8.338837  10.127818
    31  O    7.906128   2.756368   4.651522   8.227750   8.790240
    32  H    8.664171   3.389567   5.099638   9.154079   9.604944
    33  H    8.140761   3.402803   5.076428   8.166102   8.791689
    34  H    4.451684   6.421958   7.064633   2.593333   4.887175
    35  H    4.174755   5.607474   6.340246   3.754645   5.377786
    36  H    3.926320   7.241168   8.091785   3.264292   4.717384
    37  O    8.853439   4.970399   6.346130   8.426730   9.079325
    38  H    9.549394   5.652362   6.697638   8.828633   9.638264
    39  H    8.318495   5.270152   6.887207   7.888323   8.382518
                   16         17         18         19         20
    16  H    0.000000
    17  H    3.043790   0.000000
    18  H    2.397979   1.765914   0.000000
    19  H    3.066376   2.947507   3.862815   0.000000
    20  H    3.924297   2.283311   2.934152   2.886982   0.000000
    21  H    3.422628   4.606555   3.614720   4.529100   3.689778
    22  H    6.823697   6.818684   5.604406   8.018931   5.836471
    23  H    6.811425   5.683771   4.916693   7.455573   4.773019
    24  H    5.269851   3.441330   3.290005   5.290402   2.511608
    25  C    4.120622   4.222867   4.505309   2.674183   2.566024
    26  H    5.422994   6.330140   5.037487   6.815497   5.359563
    27  H    7.040535   8.404268   7.142655   8.385343   7.298938
    28  H    6.516946   8.107217   6.628312   8.396738   7.422278
    29  H    9.288514  10.504707   9.399229  10.220314   9.076726
    30  H    8.568127  10.059864   9.036311   9.405176   8.663030
    31  O    7.043144   8.945267   7.321869   9.368566   8.649820
    32  H    7.878311   9.676806   8.012536  10.252935   9.413042
    33  H    7.030531   9.200327   7.598260   9.440132   9.011400
    34  H    4.393724   5.039131   5.262156   2.964160   3.618387
    35  H    4.751851   4.755650   4.817277   3.707419   2.797400
    36  H    4.697964   4.174265   4.862048   2.536372   2.434670
    37  O    7.365158   9.912820   8.373038   9.887210   9.946325
    38  H    7.948505  10.614045   9.134855  10.377352  10.618127
    39  H    6.716413   9.355609   7.837990   9.350335   9.572771
                   21         22         23         24         25
    21  H    0.000000
    22  H    4.149032   0.000000
    23  H    4.922291   2.531083   0.000000
    24  H    4.301562   4.319504   2.500415   0.000000
    25  C    3.142218   6.437793   6.267938   4.626881   0.000000
    26  H    2.357756   2.331657   4.204039   4.871270   5.168863
    27  H    3.947573   3.871296   6.159457   7.037802   6.469116
    28  H    3.944508   3.879129   6.170260   7.046929   6.905024
    29  H    6.045188   5.443779   7.695567   8.799626   7.958789
    30  H    5.492828   5.997960   8.120073   8.808059   7.199362
    31  O    5.188446   5.164114   7.373927   8.254638   8.247040
    32  H    6.038937   5.464245   7.726885   8.826203   9.123840
    33  H    5.485822   6.016201   8.149324   8.834199   8.458369
    34  H    3.518548   7.119751   7.218043   5.692372   1.096472
    35  H    2.889547   5.681450   5.637810   4.333902   1.098657
    36  H    4.139690   7.116452   6.590285   4.693662   1.107617
    37  O    6.469016   7.686664   9.682530  10.083118   9.211830
    38  H    7.115599   8.529377  10.554455  10.894324   9.703921
    39  H    6.253962   7.806172   9.614429   9.816262   8.921425
                   26         27         28         29         30
    26  H    0.000000
    27  H    2.268794   0.000000
    28  H    2.269166   1.580678   0.000000
    29  H    4.472014   2.453487   3.813990   0.000000
    30  H    4.468102   2.461503   3.808860   1.532508   0.000000
    31  O    3.825409   3.245993   1.784879   5.100021   5.077032
    32  H    4.473361   3.813141   2.453219   5.392839   5.582110
    33  H    4.469236   3.807665   2.461245   5.581925   5.342330
    34  H    5.579023   6.558196   7.049007   7.927820   6.987018
    35  H    4.534706   5.770987   6.377078   7.113522   6.473491
    36  H    6.095006   7.478005   7.939998   8.883256   8.170487
    37  O    5.958699   5.288297   4.104233   6.900051   6.388051
    38  H    6.713100   5.847878   4.827511   7.236586   6.612047
    39  H    6.040404   5.701361   4.457864   7.519365   6.933022
                   31         32         33         34         35
    31  O    0.000000
    32  H    0.960915   0.000000
    33  H    0.960849   1.532518   0.000000
    34  H    8.340633   9.254338   8.449555   0.000000
    35  H    7.865978   8.702560   8.173164   1.775044   0.000000
    36  H    9.297775  10.160237   9.531239   1.787757   1.786393
    37  O    2.744536   3.106180   1.788726   9.047038   9.098944
    38  H    3.575809   3.896224   2.622812   9.439620   9.620579
    39  H    3.200879   3.663770   2.313433   8.765170   8.914175
                   36         37         38         39
    36  H    0.000000
    37  O   10.290335   0.000000
    38  H   10.789145   0.972135   0.000000
    39  H    9.973093   0.973668   1.519751   0.000000
 Stoichiometry    C10H23N2O4(1+)
 Framework group  C1[X(C10H23N2O4)]
 Deg. of freedom   111
 Full point group                 C1      NOp   1
 Largest Abelian subgroup         C1      NOp   1
 Largest concise Abelian subgroup C1      NOp   1
                         Standard orientation:                         
 ---------------------------------------------------------------------
 Center     Atomic      Atomic             Coordinates (Angstroms)
 Number     Number       Type             X           Y           Z
 ---------------------------------------------------------------------
      1          6           0       -2.029269   -2.012416   -1.200262
      2          6           0       -1.807852   -0.863701   -0.434337
      3          6           0       -0.500143   -0.590809   -0.057429
      4          7           0        0.503645   -1.400103   -0.426740
      5          6           0        0.310423   -2.500471   -1.167949
      6          6           0       -0.968897   -2.835512   -1.574789
      7          6           0       -2.933714    0.076372   -0.059566
      8          7           0       -2.584588    0.898501    1.091910
      9          6           0       -3.273556    2.176293    0.932289
     10          6           0       -3.099467    2.469924   -0.551483
     11          6           0       -3.277011    1.084392   -1.197229
     12          8           0        2.962892   -0.867613    0.306705
     13          8           0        4.019901   -1.770440    2.686956
     14          1           0       -2.824642    2.932880    1.587224
     15          1           0       -3.821472    3.201646   -0.928427
     16          1           0       -2.090417    2.858638   -0.737219
     17          1           0       -4.313915    0.932057   -1.517605
     18          1           0       -2.639354    0.947811   -2.078006
     19          1           0       -4.348461    2.093614    1.191157
     20          1           0       -3.824442   -0.547926    0.150801
     21          1           0       -0.250010    0.275871    0.549869
     22          1           0        1.195583   -3.083918   -1.408842
     23          1           0       -1.129744   -3.730464   -2.171215
     24          1           0       -3.044787   -2.266684   -1.506359
     25          6           0       -2.811592    0.249503    2.369522
     26          1           0        1.492697   -1.164710   -0.118497
     27          1           0        3.381972   -1.154698    1.137676
     28          1           0        3.586437   -0.291410   -0.170555
     29          1           0        4.649813   -2.492703    2.756910
     30          1           0        4.145056   -1.237291    3.476453
     31          8           0        4.622828    0.771091   -1.161908
     32          1           0        5.349258    0.454041   -1.705173
     33          1           0        4.837844    1.681836   -0.943868
     34          1           0       -2.495829    0.914547    3.182086
     35          1           0       -2.219809   -0.673559    2.438773
     36          1           0       -3.876730   -0.011466    2.525058
     37          8           0        5.253887    3.411945   -0.761743
     38          1           0        5.753638    4.022241   -0.193556
     39          1           0        4.524322    3.969543   -1.085547
 ---------------------------------------------------------------------
 Rotational constants (GHZ):           0.4260928           0.1904600           0.1664535
 Standard basis: Aug-CC-pVDZ (5D, 7F)
 There are   607 symmetry adapted cartesian basis functions of A   symmetry.
 There are   575 symmetry adapted basis functions of A   symmetry.
   575 basis functions,   941 primitive gaussians,   607 cartesian basis functions
    64 alpha electrons       64 beta electrons
       nuclear repulsion energy      1126.2012777426 Hartrees.
 NAtoms=   39 NActive=   39 NUniq=   39 SFac= 1.00D+00 NAtFMM=   60 NAOKFM=F Big=F
 Integral buffers will be    131072 words long.
 Raffenetti 2 integral format.
 Two-electron integral symmetry is turned on.
 Nuclear repulsion after empirical dispersion term =     1126.1776253733 Hartrees.
 One-electron integrals computed using PRISM.
 NBasis=   575 RedAO= T EigKep=  2.41D-06  NBF=   575
 NBsUse=   575 1.00D-06 EigRej= -1.00D+00 NBFU=   575
 ExpMin= 2.97D-02 ExpMax= 1.17D+04 ExpMxC= 4.01D+02 IAcc=3 IRadAn=         5 AccDes= 0.00D+00
 Harris functional with IExCor= 4639 and IRadAn=       5 diagonalized for initial guess.
 HarFok:  IExCor= 4639 AccDes= 0.00D+00 IRadAn=         5 IDoV= 1 UseB2=F ITyADJ=14
 ICtDFT=  3500011 ScaDFX=  1.000000  1.000000  1.000000  1.000000
 FoFCou: FMM=F IPFlag=           0 FMFlag=      100000 FMFlg1=           0
         NFxFlg=           0 DoJE=T BraDBF=F KetDBF=T FulRan=T
         wScrn=  0.000000 ICntrl=       500 IOpCl=  0 I1Cent=   200000004 NGrid=           0
         NMat0=    1 NMatS0=      1 NMatT0=    0 NMatD0=    1 NMtDS0=    0 NMtDT0=    0
 Petite list used in FoFCou.
 Requested convergence on RMS density matrix=1.00D-08 within 128 cycles.
 Requested convergence on MAX density matrix=1.00D-06.
 Requested convergence on             energy=1.00D-06.
 No special actions if energy rises.
 SCF Done:  E(RwB97XD) =  -805.020697368     A.U. after   14 cycles
            NFock= 14  Conv=0.61D-08     -V/T= 2.0063

 **********************************************************************

            Population analysis using the SCF density.

 **********************************************************************

 Orbital symmetries:
       Occupied  (A) (A) (A) (A) (A) (A) (A) (A) (A) (A) (A) (A)
                 (A) (A) (A) (A) (A) (A) (A) (A) (A) (A) (A) (A)
                 (A) (A) (A) (A) (A) (A) (A) (A) (A) (A) (A) (A)
                 (A) (A) (A) (A) (A) (A) (A) (A) (A) (A) (A) (A)
                 (A) (A) (A) (A) (A) (A) (A) (A) (A) (A) (A) (A)
                 (A) (A) (A) (A)
       Virtual   (A) (A) (A) (A) (A) (A) (A) (A) (A) (A) (A) (A)
                 (A) (A) (A) (A) (A) (A) (A) (A) (A) (A) (A) (A)
                 (A) (A) (A) (A) (A) (A) (A) (A) (A) (A) (A) (A)
                 (A) (A) (A) (A) (A) (A) (A) (A) (A) (A) (A) (A)
                 (A) (A) (A) (A) (A) (A) (A) (A) (A) (A) (A) (A)
                 (A) (A) (A) (A) (A) (A) (A) (A) (A) (A) (A) (A)
                 (A) (A) (A) (A) (A) (A) (A) (A) (A) (A) (A) (A)
                 (A) (A) (A) (A) (A) (A) (A) (A) (A) (A) (A) (A)
                 (A) (A) (A) (A) (A) (A) (A) (A) (A) (A) (A) (A)
                 (A) (A) (A) (A) (A) (A) (A) (A) (A) (A) (A) (A)
                 (A) (A) (A) (A) (A) (A) (A) (A) (A) (A) (A) (A)
                 (A) (A) (A) (A) (A) (A) (A) (A) (A) (A) (A) (A)
                 (A) (A) (A) (A) (A) (A) (A) (A) (A) (A) (A) (A)
                 (A) (A) (A) (A) (A) (A) (A) (A) (A) (A) (A) (A)
                 (A) (A) (A) (A) (A) (A) (A) (A) (A) (A) (A) (A)
                 (A) (A) (A) (A) (A) (A) (A) (A) (A) (A) (A) (A)
                 (A) (A) (A) (A) (A) (A) (A) (A) (A) (A) (A) (A)
                 (A) (A) (A) (A) (A) (A) (A) (A) (A) (A) (A) (A)
                 (A) (A) (A) (A) (A) (A) (A) (A) (A) (A) (A) (A)
                 (A) (A) (A) (A) (A) (A) (A) (A) (A) (A) (A) (A)
                 (A) (A) (A) (A) (A) (A) (A) (A) (A) (A) (A) (A)
                 (A) (A) (A) (A) (A) (A) (A) (A) (A) (A) (A) (A)
                 (A) (A) (A) (A) (A) (A) (A) (A) (A) (A) (A) (A)
                 (A) (A) (A) (A) (A) (A) (A) (A) (A) (A) (A) (A)
                 (A) (A) (A) (A) (A) (A) (A) (A) (A) (A) (A) (A)
                 (A) (A) (A) (A) (A) (A) (A) (A) (A) (A) (A) (A)
                 (A) (A) (A) (A) (A) (A) (A) (A) (A) (A) (A) (A)
                 (A) (A) (A) (A) (A) (A) (A) (A) (A) (A) (A) (A)
                 (A) (A) (A) (A) (A) (A) (A) (A) (A) (A) (A) (A)
                 (A) (A) (A) (A) (A) (A) (A) (A) (A) (A) (A) (A)
                 (A) (A) (A) (A) (A) (A) (A) (A) (A) (A) (A) (A)
                 (A) (A) (A) (A) (A) (A) (A) (A) (A) (A) (A) (A)
                 (A) (A) (A) (A) (A) (A) (A) (A) (A) (A) (A) (A)
                 (A) (A) (A) (A) (A) (A) (A) (A) (A) (A) (A) (A)
                 (A) (A) (A) (A) (A) (A) (A) (A) (A) (A) (A) (A)
                 (A) (A) (A) (A) (A) (A) (A) (A) (A) (A) (A) (A)
                 (A) (A) (A) (A) (A) (A) (A) (A) (A) (A) (A) (A)
                 (A) (A) (A) (A) (A) (A) (A) (A) (A) (A) (A) (A)
                 (A) (A) (A) (A) (A) (A) (A) (A) (A) (A) (A) (A)
                 (A) (A) (A) (A) (A) (A) (A) (A) (A) (A) (A) (A)
                 (A) (A) (A) (A) (A) (A) (A) (A) (A) (A) (A) (A)
                 (A) (A) (A) (A) (A) (A) (A) (A) (A) (A) (A) (A)
                 (A) (A) (A) (A) (A) (A) (A)
 The electronic state is 1-A.
 Alpha  occ. eigenvalues --  -19.39800 -19.39355 -19.36539 -19.36461 -14.65855
 Alpha  occ. eigenvalues --  -14.54587 -10.49588 -10.48896 -10.46371 -10.45607
 Alpha  occ. eigenvalues --  -10.45584 -10.44484 -10.41075 -10.41046 -10.40004
 Alpha  occ. eigenvalues --  -10.38850  -1.24295  -1.24076  -1.23220  -1.21343
 Alpha  occ. eigenvalues --   -1.20255  -1.14992  -1.06751  -1.03025  -0.98699
 Alpha  occ. eigenvalues --   -0.94216  -0.89087  -0.87905  -0.86733  -0.80942
 Alpha  occ. eigenvalues --   -0.78021  -0.77000  -0.74521  -0.73353  -0.73071
 Alpha  occ. eigenvalues --   -0.73000  -0.72188  -0.71734  -0.69486  -0.68282
 Alpha  occ. eigenvalues --   -0.67599  -0.66160  -0.63231  -0.63025  -0.62850
 Alpha  occ. eigenvalues --   -0.61628  -0.61127  -0.59976  -0.59791  -0.57370
 Alpha  occ. eigenvalues --   -0.56609  -0.55635  -0.55230  -0.54624  -0.53801
 Alpha  occ. eigenvalues --   -0.52633  -0.52040  -0.51942  -0.51551  -0.50774
 Alpha  occ. eigenvalues --   -0.50616  -0.49936  -0.47616  -0.40573
 Alpha virt. eigenvalues --   -0.12650  -0.09218  -0.06086  -0.04938  -0.04725
 Alpha virt. eigenvalues --   -0.03879  -0.03282  -0.02947  -0.02616  -0.02118
 Alpha virt. eigenvalues --   -0.01823  -0.01424  -0.00922  -0.00657  -0.00523
 Alpha virt. eigenvalues --   -0.00083   0.00287   0.00546   0.01169   0.01866
 Alpha virt. eigenvalues --    0.02185   0.02217   0.02387   0.03095   0.03263
 Alpha virt. eigenvalues --    0.03500   0.03880   0.04258   0.04788   0.05038
 Alpha virt. eigenvalues --    0.05191   0.05343   0.06070   0.06347   0.06552
 Alpha virt. eigenvalues --    0.06645   0.06896   0.07167   0.07393   0.07648
 Alpha virt. eigenvalues --    0.07970   0.08487   0.08591   0.08955   0.09392
 Alpha virt. eigenvalues --    0.09478   0.09995   0.10139   0.10387   0.10677
 Alpha virt. eigenvalues --    0.10809   0.11374   0.11608   0.12032   0.12190
 Alpha virt. eigenvalues --    0.12329   0.12969   0.13147   0.13260   0.13404
 Alpha virt. eigenvalues --    0.13625   0.13700   0.13938   0.14424   0.14690
 Alpha virt. eigenvalues --    0.15305   0.15442   0.15714   0.16186   0.16449
 Alpha virt. eigenvalues --    0.16517   0.16760   0.17127   0.17249   0.17339
 Alpha virt. eigenvalues --    0.17656   0.17777   0.18410   0.18661   0.18926
 Alpha virt. eigenvalues --    0.19338   0.19470   0.19992   0.20256   0.20826
 Alpha virt. eigenvalues --    0.21157   0.21304   0.21600   0.21881   0.22136
 Alpha virt. eigenvalues --    0.22449   0.22674   0.22952   0.23323   0.23533
 Alpha virt. eigenvalues --    0.23894   0.24202   0.24754   0.25082   0.25373
 Alpha virt. eigenvalues --    0.25475   0.25961   0.26107   0.26478   0.26762
 Alpha virt. eigenvalues --    0.27228   0.27981   0.28176   0.28414   0.28789
 Alpha virt. eigenvalues --    0.29216   0.29239   0.29588   0.29957   0.30244
 Alpha virt. eigenvalues --    0.30499   0.30733   0.31123   0.31790   0.32176
 Alpha virt. eigenvalues --    0.32493   0.32560   0.33615   0.33813   0.33966
 Alpha virt. eigenvalues --    0.34387   0.35117   0.35414   0.35756   0.36360
 Alpha virt. eigenvalues --    0.36628   0.36810   0.37161   0.37307   0.37864
 Alpha virt. eigenvalues --    0.38279   0.39270   0.39655   0.39802   0.40036
 Alpha virt. eigenvalues --    0.40151   0.40740   0.41619   0.42019   0.42709
 Alpha virt. eigenvalues --    0.42925   0.43269   0.43867   0.44158   0.44321
 Alpha virt. eigenvalues --    0.44410   0.44721   0.45053   0.45096   0.45500
 Alpha virt. eigenvalues --    0.45969   0.46168   0.46688   0.46868   0.47204
 Alpha virt. eigenvalues --    0.47572   0.48155   0.48444   0.48969   0.49499
 Alpha virt. eigenvalues --    0.50005   0.50391   0.50657   0.50992   0.51201
 Alpha virt. eigenvalues --    0.51358   0.51657   0.51823   0.52204   0.52373
 Alpha virt. eigenvalues --    0.52876   0.53201   0.53388   0.53881   0.54039
 Alpha virt. eigenvalues --    0.54519   0.54751   0.55416   0.56136   0.56258
 Alpha virt. eigenvalues --    0.56724   0.57337   0.57416   0.57899   0.58423
 Alpha virt. eigenvalues --    0.58617   0.58781   0.59216   0.59759   0.60015
 Alpha virt. eigenvalues --    0.60811   0.61100   0.61252   0.62752   0.62909
 Alpha virt. eigenvalues --    0.63363   0.63671   0.64201   0.64345   0.65342
 Alpha virt. eigenvalues --    0.65589   0.65714   0.66221   0.67061   0.67388
 Alpha virt. eigenvalues --    0.67732   0.68122   0.68801   0.69344   0.69689
 Alpha virt. eigenvalues --    0.70429   0.70627   0.70692   0.71403   0.71665
 Alpha virt. eigenvalues --    0.72148   0.72429   0.72792   0.73480   0.74108
 Alpha virt. eigenvalues --    0.74628   0.75108   0.75688   0.76155   0.76539
 Alpha virt. eigenvalues --    0.76834   0.77138   0.77693   0.78859   0.79341
 Alpha virt. eigenvalues --    0.79700   0.79979   0.80349   0.81063   0.81246
 Alpha virt. eigenvalues --    0.81750   0.82658   0.82856   0.83412   0.84789
 Alpha virt. eigenvalues --    0.85133   0.85738   0.86497   0.86835   0.87167
 Alpha virt. eigenvalues --    0.88235   0.88619   0.90015   0.90199   0.90869
 Alpha virt. eigenvalues --    0.91480   0.92815   0.93060   0.93472   0.94358
 Alpha virt. eigenvalues --    0.95595   0.96096   0.96998   0.97641   0.98284
 Alpha virt. eigenvalues --    0.98764   0.99336   1.00701   1.00822   1.02205
 Alpha virt. eigenvalues --    1.02425   1.02771   1.03746   1.04064   1.04546
 Alpha virt. eigenvalues --    1.04742   1.06611   1.06960   1.07494   1.08775
 Alpha virt. eigenvalues --    1.09096   1.09547   1.10671   1.11259   1.11948
 Alpha virt. eigenvalues --    1.12845   1.14139   1.15545   1.16213   1.16951
 Alpha virt. eigenvalues --    1.17190   1.18394   1.18935   1.19491   1.20104
 Alpha virt. eigenvalues --    1.21083   1.22239   1.23426   1.23576   1.24981
 Alpha virt. eigenvalues --    1.26635   1.27496   1.27998   1.28778   1.30477
 Alpha virt. eigenvalues --    1.31463   1.31650   1.32889   1.33496   1.34434
 Alpha virt. eigenvalues --    1.35308   1.35621   1.36220   1.36957   1.37977
 Alpha virt. eigenvalues --    1.38470   1.38985   1.39647   1.40895   1.41984
 Alpha virt. eigenvalues --    1.42502   1.43661   1.44157   1.45299   1.46581
 Alpha virt. eigenvalues --    1.47110   1.48311   1.49849   1.51105   1.51960
 Alpha virt. eigenvalues --    1.52205   1.53395   1.54250   1.55355   1.57668
 Alpha virt. eigenvalues --    1.58263   1.58871   1.59655   1.61136   1.62445
 Alpha virt. eigenvalues --    1.63055   1.63413   1.64630   1.64970   1.65668
 Alpha virt. eigenvalues --    1.66736   1.67525   1.68479   1.68992   1.69474
 Alpha virt. eigenvalues --    1.70563   1.71373   1.71963   1.72367   1.72803
 Alpha virt. eigenvalues --    1.73801   1.73856   1.75682   1.75945   1.76607
 Alpha virt. eigenvalues --    1.77007   1.77383   1.79051   1.79673   1.80240
 Alpha virt. eigenvalues --    1.81532   1.81955   1.82883   1.83946   1.84141
 Alpha virt. eigenvalues --    1.84603   1.87015   1.87114   1.87870   1.88440
 Alpha virt. eigenvalues --    1.88895   1.89622   1.90296   1.90930   1.91192
 Alpha virt. eigenvalues --    1.92356   1.92871   1.93968   1.94263   1.95553
 Alpha virt. eigenvalues --    1.95949   1.96339   1.97887   1.98055   1.98537
 Alpha virt. eigenvalues --    1.99127   2.00920   2.01729   2.03012   2.04321
 Alpha virt. eigenvalues --    2.06303   2.06945   2.08598   2.08971   2.10059
 Alpha virt. eigenvalues --    2.10154   2.10940   2.12133   2.12565   2.12656
 Alpha virt. eigenvalues --    2.13006   2.15018   2.15426   2.16822   2.17887
 Alpha virt. eigenvalues --    2.19085   2.19798   2.20211   2.20781   2.21099
 Alpha virt. eigenvalues --    2.23380   2.24249   2.24874   2.25187   2.25784
 Alpha virt. eigenvalues --    2.27101   2.28287   2.29952   2.30500   2.31165
 Alpha virt. eigenvalues --    2.32292   2.33144   2.34646   2.35743   2.37132
 Alpha virt. eigenvalues --    2.37372   2.38721   2.41437   2.42527   2.43937
 Alpha virt. eigenvalues --    2.44390   2.45263   2.47664   2.48389   2.49350
 Alpha virt. eigenvalues --    2.49742   2.51245   2.51550   2.53729   2.54810
 Alpha virt. eigenvalues --    2.56475   2.56746   2.57611   2.58151   2.58759
 Alpha virt. eigenvalues --    2.61298   2.62671   2.63106   2.64180   2.65288
 Alpha virt. eigenvalues --    2.66353   2.68025   2.69131   2.69515   2.71555
 Alpha virt. eigenvalues --    2.73232   2.74264   2.75555   2.77457   2.78489
 Alpha virt. eigenvalues --    2.78650   2.79992   2.80575   2.81160   2.82485
 Alpha virt. eigenvalues --    2.83775   2.85000   2.85700   2.86105   2.87969
 Alpha virt. eigenvalues --    2.90199   2.91413   2.97903   3.03108   3.04710
 Alpha virt. eigenvalues --    3.11553   3.15830   3.17936   3.21826   3.25182
 Alpha virt. eigenvalues --    3.29237   3.29377   3.33863   3.35904   3.37112
 Alpha virt. eigenvalues --    3.40783   3.42024   3.42613   3.45615   3.46854
 Alpha virt. eigenvalues --    3.49299   3.52381   3.54071   3.57429   3.65066
 Alpha virt. eigenvalues --    3.66362   3.68100   3.73983   3.80160   3.89684
 Alpha virt. eigenvalues --    3.90666   3.99025   4.05723   4.10437   4.21532
 Alpha virt. eigenvalues --    4.60042
          Condensed to atoms (all electrons):
               1          2          3          4          5          6
     1  C   21.954835  -9.939169  -1.962425   0.172011   1.622206  -4.278679
     2  C   -9.939169  20.697661  -2.916226  -0.085203  -1.978866   1.911803
     3  C   -1.962425  -2.916226  16.054266  -1.633126  -0.591847  -0.931186
     4  N    0.172011  -0.085203  -1.633126   7.873744   0.432417   0.016761
     5  C    1.622206  -1.978866  -0.591847   0.432417  10.152666  -2.845328
     6  C   -4.278679   1.911803  -0.931186   0.016761  -2.845328  12.145096
     7  C   -0.132784  -4.405428  -3.147646   0.728013  -0.215665  -0.509618
     8  N   -0.301484   0.814736   0.951981  -0.161917  -0.024196   0.000394
     9  C    0.085453  -0.232087  -0.334863   0.065307  -0.004696  -0.016136
    10  C   -0.231672   0.457739   0.072641  -0.068044  -0.024647   0.067267
    11  C   -0.473823   0.377298  -0.435424   0.062102  -0.241268   0.347851
    12  O    0.063168  -0.134608   0.053448  -0.198220   0.074681  -0.073570
    13  O   -0.000424   0.003053  -0.005037   0.000784   0.007148   0.001154
    14  H    0.009374  -0.210839  -0.062292   0.011700  -0.000687  -0.001075
    15  H    0.001269  -0.051291  -0.006193  -0.003822  -0.005450   0.008477
    16  H   -0.019596   0.148794   0.095642  -0.008954   0.011779  -0.006684
    17  H   -0.066430   0.234386   0.107160  -0.010961   0.015382  -0.014844
    18  H    0.162938  -0.540849  -0.148813   0.036130  -0.028353   0.033321
    19  H   -0.008908   0.219557   0.024511  -0.001255   0.001992   0.001905
    20  H   -0.048197   0.577684  -0.051899   0.004813  -0.040923   0.073622
    21  H   -0.111522  -0.279998  -0.888761  -0.019803  -0.143511   0.089755
    22  H    0.039107   0.147203   0.192773  -0.071466  -0.937011   0.349581
    23  H    0.733284  -0.247141   0.005160  -0.041541   0.467994  -1.174981
    24  H   -2.272592   1.104822   0.253513  -0.091697  -0.196246   0.810462
    25  C   -0.080597  -0.058197   0.160312  -0.015268  -0.010811  -0.033569
    26  H    0.056981  -0.558421   0.469874  -0.007731  -0.267084  -0.261807
    27  H    0.000406   0.004227   0.002401   0.004044  -0.009062   0.011895
    28  H    0.004959   0.000438   0.006772  -0.002944   0.002569   0.002026
    29  H   -0.000221   0.000264   0.001049   0.000109  -0.001475  -0.000137
    30  H   -0.000186   0.000562  -0.002162   0.000494   0.000239   0.000280
    31  O   -0.000124   0.001370  -0.003330  -0.001960   0.006023   0.002133
    32  H   -0.000182   0.000569   0.000810   0.000133  -0.001614   0.000001
    33  H   -0.000598   0.000510  -0.001608   0.001032   0.000855   0.000554
    34  H    0.030063  -0.010948  -0.034996   0.010596   0.007623  -0.009046
    35  H   -0.176937   0.178128  -0.092054  -0.002325  -0.046967   0.049235
    36  H    0.049921   0.021869   0.082669  -0.007716   0.005990  -0.004118
    37  O   -0.000013   0.000151   0.000639  -0.000045   0.000029   0.000057
    38  H    0.000011  -0.000030   0.000037  -0.000057  -0.000062  -0.000010
    39  H    0.000020   0.000065  -0.000193   0.000072   0.000062   0.000031
               7          8          9         10         11         12
     1  C   -0.132784  -0.301484   0.085453  -0.231672  -0.473823   0.063168
     2  C   -4.405428   0.814736  -0.232087   0.457739   0.377298  -0.134608
     3  C   -3.147646   0.951981  -0.334863   0.072641  -0.435424   0.053448
     4  N    0.728013  -0.161917   0.065307  -0.068044   0.062102  -0.198220
     5  C   -0.215665  -0.024196  -0.004696  -0.024647  -0.241268   0.074681
     6  C   -0.509618   0.000394  -0.016136   0.067267   0.347851  -0.073570
     7  C   17.944552  -2.563526   0.061913  -0.927252  -0.167001   0.000836
     8  N   -2.563526   9.401747  -0.008023   0.097879  -0.454729   0.003028
     9  C    0.061913  -0.008023   5.582208   0.207039   0.052644   0.000377
    10  C   -0.927252   0.097879   0.207039   5.669745  -0.060600  -0.000651
    11  C   -0.167001  -0.454729   0.052644  -0.060600   6.210033  -0.001786
    12  O    0.000836   0.003028   0.000377  -0.000651  -0.001786   8.051387
    13  O    0.000423   0.000050   0.000014  -0.000010   0.000041  -0.039372
    14  H    0.491104  -0.666410   0.026083  -0.063802   0.094761   0.000047
    15  H    0.054671  -0.011755   0.083392  -0.248856   0.276356   0.000004
    16  H   -0.131006   0.087321  -0.098099  -0.076288  -0.057946  -0.000370
    17  H    0.333224   0.137034  -0.214669   0.137494  -0.751396  -0.000082
    18  H   -0.083463   0.027657   0.169816   0.174980  -0.069447   0.000319
    19  H   -0.367994   0.409878  -0.344624   0.047542  -0.084185  -0.000043
    20  H   -1.596984  -0.200348  -0.053418   0.100997   0.370824   0.000215
    21  H    0.620567  -0.384168   0.013805   0.041026   0.031605  -0.006672
    22  H    0.016290   0.003095  -0.000584  -0.000203   0.006492   0.001129
    23  H   -0.001549  -0.002446  -0.000869   0.000222  -0.014980  -0.001808
    24  H   -0.476865   0.051890  -0.018446   0.022906   0.060292   0.001252
    25  C   -0.316484   0.454275  -0.220552  -0.015098  -0.004938  -0.000824
    26  H   -0.144601   0.022445   0.000876   0.008725  -0.052580   0.038352
    27  H    0.003059   0.000391   0.000383  -0.000039   0.001026   0.340271
    28  H    0.000721  -0.000310  -0.000611   0.000154  -0.000277   0.331786
    29  H   -0.000050   0.000006  -0.000010  -0.000003   0.000001   0.002019
    30  H    0.000148  -0.000094   0.000004   0.000003   0.000003   0.001790
    31  O    0.000646  -0.000053  -0.000016  -0.000016   0.000071  -0.044041
    32  H    0.000055  -0.000010   0.000002   0.000011   0.000016   0.001558
    33  H    0.000026   0.000000   0.000023  -0.000081   0.000075   0.002638
    34  H   -0.024324  -0.326598   0.076441   0.008183  -0.005524  -0.000253
    35  H    0.131584  -0.097902  -0.120875  -0.037128   0.077886   0.000339
    36  H   -0.124214   0.155624   0.043551   0.052539  -0.059636   0.000035
    37  O    0.000013   0.000008   0.000013   0.000007   0.000011   0.000090
    38  H   -0.000021   0.000011  -0.000007   0.000010  -0.000009   0.000059
    39  H    0.000097  -0.000064   0.000060  -0.000029   0.000054   0.000079
              13         14         15         16         17         18
     1  C   -0.000424   0.009374   0.001269  -0.019596  -0.066430   0.162938
     2  C    0.003053  -0.210839  -0.051291   0.148794   0.234386  -0.540849
     3  C   -0.005037  -0.062292  -0.006193   0.095642   0.107160  -0.148813
     4  N    0.000784   0.011700  -0.003822  -0.008954  -0.010961   0.036130
     5  C    0.007148  -0.000687  -0.005450   0.011779   0.015382  -0.028353
     6  C    0.001154  -0.001075   0.008477  -0.006684  -0.014844   0.033321
     7  C    0.000423   0.491104   0.054671  -0.131006   0.333224  -0.083463
     8  N    0.000050  -0.666410  -0.011755   0.087321   0.137034   0.027657
     9  C    0.000014   0.026083   0.083392  -0.098099  -0.214669   0.169816
    10  C   -0.000010  -0.063802  -0.248856  -0.076288   0.137494   0.174980
    11  C    0.000041   0.094761   0.276356  -0.057946  -0.751396  -0.069447
    12  O   -0.039372   0.000047   0.000004  -0.000370  -0.000082   0.000319
    13  O    7.684394   0.000016  -0.000001  -0.000019   0.000001   0.000019
    14  H    0.000016   2.421696   0.019315  -0.214535  -0.021197   0.015586
    15  H   -0.000001   0.019315   1.826455  -0.399498  -0.231420   0.058641
    16  H   -0.000019  -0.214535  -0.399498   2.052698   0.168430  -0.262798
    17  H    0.000001  -0.021197  -0.231420   0.168430   2.188835  -0.447141
    18  H    0.000019   0.015586   0.058641  -0.262798  -0.447141   2.257604
    19  H    0.000000  -0.392449  -0.150290   0.152826   0.065606  -0.021904
    20  H   -0.000006   0.035924   0.028070  -0.039464  -0.254084   0.098301
    21  H    0.001001   0.014246   0.010171  -0.017853  -0.009385   0.013611
    22  H    0.001594  -0.000054  -0.000119   0.000168   0.001006   0.000372
    23  H   -0.000004  -0.000063   0.000056   0.000178  -0.001286  -0.002348
    24  H   -0.000026  -0.002298   0.001813   0.002528  -0.001803  -0.008043
    25  C   -0.000019  -0.015951   0.008786  -0.012806  -0.001618   0.007427
    26  H   -0.012605  -0.004614   0.000127   0.005555   0.002023  -0.004246
    27  H   -0.011477   0.000172   0.000013  -0.000188  -0.000027   0.000138
    28  H    0.002183   0.000016   0.000040  -0.000216  -0.000029   0.000257
    29  H    0.353409  -0.000001  -0.000000   0.000001   0.000000  -0.000003
    30  H    0.350234   0.000005  -0.000000  -0.000003   0.000000   0.000002
    31  O   -0.001375   0.000007  -0.000003   0.000006   0.000001   0.000118
    32  H    0.000208   0.000004   0.000002  -0.000004  -0.000002   0.000000
    33  H   -0.000298  -0.000011  -0.000017   0.000065   0.000015  -0.000036
    34  H   -0.000046   0.019024  -0.004105   0.007202   0.000881   0.000655
    35  H    0.000334  -0.004762  -0.001025  -0.003884  -0.001699   0.001785
    36  H   -0.000000   0.017041   0.006980  -0.003133   0.000623  -0.000037
    37  O    0.000079   0.000012   0.000002  -0.000039  -0.000000   0.000012
    38  H    0.000026  -0.000005   0.000001   0.000006  -0.000000  -0.000002
    39  H   -0.000005   0.000032   0.000007  -0.000111  -0.000005   0.000031
              19         20         21         22         23         24
     1  C   -0.008908  -0.048197  -0.111522   0.039107   0.733284  -2.272592
     2  C    0.219557   0.577684  -0.279998   0.147203  -0.247141   1.104822
     3  C    0.024511  -0.051899  -0.888761   0.192773   0.005160   0.253513
     4  N   -0.001255   0.004813  -0.019803  -0.071466  -0.041541  -0.091697
     5  C    0.001992  -0.040923  -0.143511  -0.937011   0.467994  -0.196246
     6  C    0.001905   0.073622   0.089755   0.349581  -1.174981   0.810462
     7  C   -0.367994  -1.596984   0.620567   0.016290  -0.001549  -0.476865
     8  N    0.409878  -0.200348  -0.384168   0.003095  -0.002446   0.051890
     9  C   -0.344624  -0.053418   0.013805  -0.000584  -0.000869  -0.018446
    10  C    0.047542   0.100997   0.041026  -0.000203   0.000222   0.022906
    11  C   -0.084185   0.370824   0.031605   0.006492  -0.014980   0.060292
    12  O   -0.000043   0.000215  -0.006672   0.001129  -0.001808   0.001252
    13  O    0.000000  -0.000006   0.001001   0.001594  -0.000004  -0.000026
    14  H   -0.392449   0.035924   0.014246  -0.000054  -0.000063  -0.002298
    15  H   -0.150290   0.028070   0.010171  -0.000119   0.000056   0.001813
    16  H    0.152826  -0.039464  -0.017853   0.000168   0.000178   0.002528
    17  H    0.065606  -0.254084  -0.009385   0.001006  -0.001286  -0.001803
    18  H   -0.021904   0.098301   0.013611   0.000372  -0.002348  -0.008043
    19  H    1.948999  -0.054792   0.004214   0.000088   0.000005   0.000605
    20  H   -0.054792   2.497811   0.044280  -0.000247   0.000111  -0.042568
    21  H    0.004214   0.044280   3.093969   0.009716  -0.000193  -0.022234
    22  H    0.000088  -0.000247   0.009716   2.228795  -0.120371  -0.014222
    23  H    0.000005   0.000111  -0.000193  -0.120371   2.089389  -0.133389
    24  H    0.000605  -0.042568  -0.022234  -0.014222  -0.133389   2.820285
    25  C   -0.004943   0.089409  -0.074068   0.000055   0.002503   0.005505
    26  H    0.000400  -0.007616  -0.038390  -0.189131   0.006217   0.017010
    27  H   -0.000034   0.000019   0.003789   0.007845  -0.000144   0.000037
    28  H   -0.000007   0.000156   0.003157   0.003050   0.000217  -0.000273
    29  H    0.000000  -0.000003   0.000179  -0.000129   0.000011  -0.000006
    30  H   -0.000000  -0.000001  -0.000553  -0.000104   0.000000  -0.000005
    31  O   -0.000001   0.000035   0.002567   0.001465   0.000018  -0.000027
    32  H   -0.000000   0.000002   0.000267  -0.000147   0.000007  -0.000004
    33  H    0.000002  -0.000002  -0.001404   0.000280   0.000003  -0.000011
    34  H   -0.004683   0.013910  -0.003106  -0.000044   0.000062   0.001518
    35  H   -0.002177   0.021199   0.010552   0.001058   0.000437  -0.004710
    36  H    0.010636   0.003053   0.000527  -0.000015  -0.000057   0.002930
    37  O    0.000000   0.000001  -0.000421  -0.000065   0.000002  -0.000001
    38  H    0.000000  -0.000001   0.000013  -0.000010  -0.000000   0.000000
    39  H   -0.000004   0.000004  -0.000155  -0.000004   0.000000   0.000000
              25         26         27         28         29         30
     1  C   -0.080597   0.056981   0.000406   0.004959  -0.000221  -0.000186
     2  C   -0.058197  -0.558421   0.004227   0.000438   0.000264   0.000562
     3  C    0.160312   0.469874   0.002401   0.006772   0.001049  -0.002162
     4  N   -0.015268  -0.007731   0.004044  -0.002944   0.000109   0.000494
     5  C   -0.010811  -0.267084  -0.009062   0.002569  -0.001475   0.000239
     6  C   -0.033569  -0.261807   0.011895   0.002026  -0.000137   0.000280
     7  C   -0.316484  -0.144601   0.003059   0.000721  -0.000050   0.000148
     8  N    0.454275   0.022445   0.000391  -0.000310   0.000006  -0.000094
     9  C   -0.220552   0.000876   0.000383  -0.000611  -0.000010   0.000004
    10  C   -0.015098   0.008725  -0.000039   0.000154  -0.000003   0.000003
    11  C   -0.004938  -0.052580   0.001026  -0.000277   0.000001   0.000003
    12  O   -0.000824   0.038352   0.340271   0.331786   0.002019   0.001790
    13  O   -0.000019  -0.012605  -0.011477   0.002183   0.353409   0.350234
    14  H   -0.015951  -0.004614   0.000172   0.000016  -0.000001   0.000005
    15  H    0.008786   0.000127   0.000013   0.000040  -0.000000  -0.000000
    16  H   -0.012806   0.005555  -0.000188  -0.000216   0.000001  -0.000003
    17  H   -0.001618   0.002023  -0.000027  -0.000029   0.000000   0.000000
    18  H    0.007427  -0.004246   0.000138   0.000257  -0.000003   0.000002
    19  H   -0.004943   0.000400  -0.000034  -0.000007   0.000000  -0.000000
    20  H    0.089409  -0.007616   0.000019   0.000156  -0.000003  -0.000001
    21  H   -0.074068  -0.038390   0.003789   0.003157   0.000179  -0.000553
    22  H    0.000055  -0.189131   0.007845   0.003050  -0.000129  -0.000104
    23  H    0.002503   0.006217  -0.000144   0.000217   0.000011   0.000000
    24  H    0.005505   0.017010   0.000037  -0.000273  -0.000006  -0.000005
    25  C    4.571779  -0.010314  -0.000264   0.000872   0.000009   0.000000
    26  H   -0.010314   1.880464  -0.036060  -0.032937   0.002936   0.003942
    27  H   -0.000264  -0.036060   0.629068  -0.162965  -0.001950   0.000875
    28  H    0.000872  -0.032937  -0.162965   0.613487  -0.001803  -0.003459
    29  H    0.000009   0.002936  -0.001950  -0.001803   0.569461  -0.073774
    30  H    0.000000   0.003942   0.000875  -0.003459  -0.073774   0.569299
    31  O   -0.000030  -0.013063   0.004476   0.004013  -0.000052   0.000076
    32  H   -0.000009   0.002332  -0.000594  -0.004669   0.000070   0.000018
    33  H    0.000020   0.002291  -0.002289  -0.003838  -0.000054   0.000118
    34  H    0.369970   0.001831  -0.000378   0.000088  -0.000002   0.000029
    35  H    0.339634  -0.026691   0.000534   0.000514   0.000033  -0.000053
    36  H    0.060650   0.005614  -0.000022  -0.000027  -0.000001  -0.000003
    37  O    0.000004  -0.000268   0.001414  -0.005037  -0.000031   0.000000
    38  H    0.000000   0.000333  -0.000159  -0.000115   0.000002   0.000005
    39  H   -0.000011  -0.000116   0.000096  -0.000290  -0.000002  -0.000004
              31         32         33         34         35         36
     1  C   -0.000124  -0.000182  -0.000598   0.030063  -0.176937   0.049921
     2  C    0.001370   0.000569   0.000510  -0.010948   0.178128   0.021869
     3  C   -0.003330   0.000810  -0.001608  -0.034996  -0.092054   0.082669
     4  N   -0.001960   0.000133   0.001032   0.010596  -0.002325  -0.007716
     5  C    0.006023  -0.001614   0.000855   0.007623  -0.046967   0.005990
     6  C    0.002133   0.000001   0.000554  -0.009046   0.049235  -0.004118
     7  C    0.000646   0.000055   0.000026  -0.024324   0.131584  -0.124214
     8  N   -0.000053  -0.000010   0.000000  -0.326598  -0.097902   0.155624
     9  C   -0.000016   0.000002   0.000023   0.076441  -0.120875   0.043551
    10  C   -0.000016   0.000011  -0.000081   0.008183  -0.037128   0.052539
    11  C    0.000071   0.000016   0.000075  -0.005524   0.077886  -0.059636
    12  O   -0.044041   0.001558   0.002638  -0.000253   0.000339   0.000035
    13  O   -0.001375   0.000208  -0.000298  -0.000046   0.000334  -0.000000
    14  H    0.000007   0.000004  -0.000011   0.019024  -0.004762   0.017041
    15  H   -0.000003   0.000002  -0.000017  -0.004105  -0.001025   0.006980
    16  H    0.000006  -0.000004   0.000065   0.007202  -0.003884  -0.003133
    17  H    0.000001  -0.000002   0.000015   0.000881  -0.001699   0.000623
    18  H    0.000118   0.000000  -0.000036   0.000655   0.001785  -0.000037
    19  H   -0.000001  -0.000000   0.000002  -0.004683  -0.002177   0.010636
    20  H    0.000035   0.000002  -0.000002   0.013910   0.021199   0.003053
    21  H    0.002567   0.000267  -0.001404  -0.003106   0.010552   0.000527
    22  H    0.001465  -0.000147   0.000280  -0.000044   0.001058  -0.000015
    23  H    0.000018   0.000007   0.000003   0.000062   0.000437  -0.000057
    24  H   -0.000027  -0.000004  -0.000011   0.001518  -0.004710   0.002930
    25  C   -0.000030  -0.000009   0.000020   0.369970   0.339634   0.060650
    26  H   -0.013063   0.002332   0.002291   0.001831  -0.026691   0.005614
    27  H    0.004476  -0.000594  -0.002289  -0.000378   0.000534  -0.000022
    28  H    0.004013  -0.004669  -0.003838   0.000088   0.000514  -0.000027
    29  H   -0.000052   0.000070  -0.000054  -0.000002   0.000033  -0.000001
    30  H    0.000076   0.000018   0.000118   0.000029  -0.000053  -0.000003
    31  O    7.731071   0.365282   0.329071  -0.000009   0.000005  -0.000005
    32  H    0.365282   0.608405  -0.104964  -0.000002  -0.000008  -0.000000
    33  H    0.329071  -0.104964   0.568498   0.000011   0.000008  -0.000004
    34  H   -0.000009  -0.000002   0.000011   1.898505  -0.498265  -0.308096
    35  H    0.000005  -0.000008   0.000008  -0.498265   2.016933  -0.423293
    36  H   -0.000005  -0.000000  -0.000004  -0.308096  -0.423293   1.581801
    37  O   -0.037378   0.005335   0.002251   0.000002   0.000002   0.000000
    38  H    0.002998  -0.000102   0.000478  -0.000000  -0.000002   0.000000
    39  H    0.000407  -0.001041  -0.003868  -0.000005   0.000002   0.000000
              37         38         39
     1  C   -0.000013   0.000011   0.000020
     2  C    0.000151  -0.000030   0.000065
     3  C    0.000639   0.000037  -0.000193
     4  N   -0.000045  -0.000057   0.000072
     5  C    0.000029  -0.000062   0.000062
     6  C    0.000057  -0.000010   0.000031
     7  C    0.000013  -0.000021   0.000097
     8  N    0.000008   0.000011  -0.000064
     9  C    0.000013  -0.000007   0.000060
    10  C    0.000007   0.000010  -0.000029
    11  C    0.000011  -0.000009   0.000054
    12  O    0.000090   0.000059   0.000079
    13  O    0.000079   0.000026  -0.000005
    14  H    0.000012  -0.000005   0.000032
    15  H    0.000002   0.000001   0.000007
    16  H   -0.000039   0.000006  -0.000111
    17  H   -0.000000  -0.000000  -0.000005
    18  H    0.000012  -0.000002   0.000031
    19  H    0.000000   0.000000  -0.000004
    20  H    0.000001  -0.000001   0.000004
    21  H   -0.000421   0.000013  -0.000155
    22  H   -0.000065  -0.000010  -0.000004
    23  H    0.000002  -0.000000   0.000000
    24  H   -0.000001   0.000000   0.000000
    25  C    0.000004   0.000000  -0.000011
    26  H   -0.000268   0.000333  -0.000116
    27  H    0.001414  -0.000159   0.000096
    28  H   -0.005037  -0.000115  -0.000290
    29  H   -0.000031   0.000002  -0.000002
    30  H    0.000000   0.000005  -0.000004
    31  O   -0.037378   0.002998   0.000407
    32  H    0.005335  -0.000102  -0.001041
    33  H    0.002251   0.000478  -0.003868
    34  H    0.000002  -0.000000  -0.000005
    35  H    0.000002  -0.000002   0.000002
    36  H    0.000000   0.000000   0.000000
    37  O    7.676989   0.342141   0.348691
    38  H    0.342141   0.549924  -0.069022
    39  H    0.348691  -0.069022   0.584999
 Mulliken charges:
               1
     1  C    1.120556
     2  C    0.746415
     3  C    0.714424
     4  N    0.013793
     5  C    0.806116
     6  C    0.237129
     7  C    0.948535
     8  N   -0.415418
     9  C    1.199180
    10  C    0.587308
    11  C    0.966108
    12  O   -0.466608
    13  O   -0.335443
    14  H   -0.515118
    15  H   -0.270804
    16  H   -0.379706
    17  H   -0.364022
    18  H   -0.442238
    19  H   -0.450473
    20  H   -0.569888
    21  H   -1.006818
    22  H   -0.677236
    23  H   -0.562706
    24  H   -0.871902
    25  C    0.805157
    26  H    0.139949
    27  H    0.209073
    28  H    0.242333
    29  H    0.150148
    30  H    0.152273
    31  O   -0.350376
    32  H    0.128267
    33  H    0.210259
    34  H   -0.216164
    35  H   -0.289443
    36  H   -0.171674
    37  O   -0.334655
    38  H    0.173555
    39  H    0.140117
 Sum of Mulliken charges =   1.00000
 Mulliken charges with hydrogens summed into heavy atoms:
               1
     1  C    0.248654
     2  C    0.746415
     3  C   -0.292394
     4  N    0.153742
     5  C    0.128879
     6  C   -0.325578
     7  C    0.378646
     8  N   -0.415418
     9  C    0.233589
    10  C   -0.063202
    11  C    0.159848
    12  O   -0.015201
    13  O   -0.033022
    25  C    0.127875
    31  O   -0.011850
    37  O   -0.020984
 Electronic spatial extent (au):  <R**2>=           7094.2334
 Charge=              1.0000 electrons
 Dipole moment (field-independent basis, Debye):
    X=              4.4582    Y=             -1.1108    Z=              0.4133  Tot=              4.6130
 Quadrupole moment (field-independent basis, Debye-Ang):
   XX=            -24.2972   YY=            -53.8617   ZZ=            -76.4184
   XY=              9.8249   XZ=             13.9106   YZ=              2.5630
 Traceless Quadrupole moment (field-independent basis, Debye-Ang):
   XX=             27.2286   YY=             -2.3359   ZZ=            -24.8927
   XY=              9.8249   XZ=             13.9106   YZ=              2.5630
 Octapole moment (field-independent basis, Debye-Ang**2):
  XXX=            315.7303  YYY=             57.9046  ZZZ=             58.4294  XYY=            136.7593
  XXY=             63.0350  XXZ=             54.7673  XZZ=             84.9904  YZZ=            -26.1360
  YYZ=            -21.7787  XYZ=            -39.4054
 Hexadecapole moment (field-independent basis, Debye-Ang**3):
 XXXX=          -3610.2615 YYYY=          -1394.0082 ZZZZ=           -911.8497 XXXY=            337.7631
 XXXZ=            316.1190 YYYX=            456.0918 YYYZ=             -6.3456 ZZZX=            216.9690
 ZZZY=            -68.7662 XXYY=           -505.1921 XXZZ=           -716.5479 YYZZ=           -427.3384
 XXYZ=           -131.2923 YYXZ=             89.7212 ZZXY=            -85.2692
 N-N= 1.126177625373D+03 E-N=-4.117331162365D+03  KE= 7.999754325917D+02
 Calling FoFJK, ICntrl=      2127 FMM=F ISym2X=0 I1Cent= 0 IOpClX= 0 NMat=1 NMatS=1 NMatT=0.
 ***** Axes restored to original set *****
 -------------------------------------------------------------------
 Center     Atomic                   Forces (Hartrees/Bohr)
 Number     Number              X              Y              Z
 -------------------------------------------------------------------
      1        6           0.000000062    0.000035229    0.000003957
[...]
 0.00038826,0.00009767,-0.00025136,0.00037007,0.00018009,-0.00003025,0.
 00009218,-0.00019287,0.00004489,-0.00023775,-0.00001924,-0.00005249,0.
 00101935,0.00005402,-0.00025814,0.00319563,0.00121916,-0.00109060,0.00
 036696,0.00064394,-0.00025700,-0.00019071,0.00029684,-0.00032023,-0.00
 000823,0.00005412,0.00026641,0.00001265,-0.00007075,-0.00009677,-0.000
 06275,-0.00002283,-0.00004958,0.00006756,0.00042759,-0.00020659,-0.000
 02710,0.00006225,0.00002700,0.00003961,-0.00000669,-0.00005220,-0.0000
 1137,0.00001985,0.00001671,0.00000337,0.00002684,0.00003560,-0.0001499
 1,-0.00010144,-0.00002133,0.00007578,0.00003533,-0.00005058,0.00003040
 ,0.00002276,0.00024871,0.00000291,-0.00000426,-0.00000217,0.00000632,0
 .00001589,-0.00000500,0.00000364,-0.00003086,-0.00000951,-0.11032325,-
 0.12355440,0.05025246,-0.00008977,0.00011026,0.00005156,0.00002681,0.0
 0002899,0.00006585,0.00001878,-0.00000833,0.00005296,0.00001607,0.0000
 0992,0.00000614,0.00005149,-0.00000685,0.00001899,0.00000034,0.0000021
 5,-0.00003796,-0.00000301,0.00000454,0.00000587,-0.00000494,-0.0000082
 0,0.00001230,-0.02354620,-0.01344165,0.01082868,0.12006194,0.12807690,
 -0.00027399,-0.00052864,-0.00004360,-0.00014897,-0.00016097,-0.0004156
 5,-0.00016688,-0.00029398,-0.00030325,-0.00018771,-0.00035537,0.000049
 62,-0.00014425,0.00037943,-0.00007540,0.00037409,-0.00003434,0.0000557
 9,0.00081580,0.00127382,0.00125238,0.02804161,0.02263367,-0.01827047,-
 0.00141275,-0.00377198,-0.00522091,0.00167620,0.00109523,-0.00074858,-
 0.00005176,0.00040476,0.00000760,0.00015476,-0.00007731,0.00003487,0.0
 0002416,-0.00001338,-0.00003518,-0.00020621,0.00014090,0.00011541,-0.0
 0010271,-0.00024053,-0.00065824,-0.00003603,0.00001436,-0.00006787,-0.
 00002863,-0.00004591,0.00006203,-0.00005322,-0.00009086,-0.00001246,0.
 00033016,-0.00006826,-0.00002662,-0.00003148,-0.00042010,-0.00011298,0
 .00009789,0.00019952,-0.00026616,-0.00001045,0.00000606,-0.00000935,0.
 00000465,-0.00000169,-0.00000375,0.00000005,0.00003945,-0.00000823,0.0
 6613730,0.04483100,-0.07813165,-0.00023344,0.00010594,-0.00002921,-0.0
 0003628,0.00001695,0.00004721,-0.00002417,0.00001927,-0.00007479,-0.00
 000239,-0.00000059,0.00000695,-0.00000394,0.00000520,0.00000733,0.0000
 1642,-0.00003090,0.00004474,-0.00000333,0.00000241,-0.00000282,0.00000
 431,0.00002931,-0.00001385,-0.00725024,-0.00380333,0.00320365,-0.07885
 930,-0.05465306,0.09483752,-0.00003694,0.00038074,-0.00003894,-0.00024
 023,-0.00045990,0.00016069,-0.00013364,0.00021108,0.00009019,0.0001871
 3,0.00014578,-0.00002175,0.00007311,-0.00020660,-0.00001847,-0.0002257
 7,-0.00003979,0.00002748,0.00147656,0.00021643,0.00133076,0.00296269,-
 0.00174040,-0.00686916,0.00318336,-0.00071092,0.00129478,0.00012524,0.
 00005231,0.00027845,0.00008987,-0.00005796,0.00013553,-0.00013399,0.00
 001999,-0.00003982,-0.00005351,-0.00000164,0.00002421,-0.00025982,0.00
 017666,-0.00002141,-0.00000865,-0.00002007,-0.00009582,-0.00008059,0.0
 0003712,0.00016250,0.00004914,-0.00002504,-0.00006324,-0.00001003,-0.0
 0009347,0.00006907,0.00040375,0.00109814,-0.00162770,-0.00033345,-0.00
 147148,-0.00119379,0.00032016,0.00012714,0.00016980,0.00000974,-0.0000
 1177,-0.00000290,-0.00001767,-0.00000448,-0.00001823,0.00002973,-0.000
 02681,-0.00003800,-0.22603533,0.07252888,-0.07328783,0.00014847,-0.000
 05083,0.00004752,0.00004994,-0.00000162,-0.00003103,0.00003756,-0.0000
 0731,0.00007123,0.00001057,0.00000731,-0.00000768,0.00002860,-0.000003
 92,-0.00000603,-0.00003313,0.00001193,-0.00004235,0.00000811,0.0000036
 3,0.00000266,0.00000934,-0.00001908,0.00001365,-0.00279697,-0.00001695
 ,-0.00061408,-0.01955337,0.00969114,-0.00841002,0.24075120,0.00006997,
 0.00015439,0.00000137,0.00012648,-0.00034260,0.00027647,-0.00005906,-0
 .00005602,0.00000362,0.00019485,0.00013778,0.00001164,0.00005979,-0.00
 011701,0.00002644,-0.00010750,0.00000356,-0.00003406,-0.00314457,0.002
 88517,-0.00176921,-0.00245726,0.00141891,0.00129747,0.00159961,0.00029
 844,-0.00002444,-0.00020891,0.00005774,0.00008413,0.00005195,-0.000025
 26,0.00000321,0.00004722,-0.00000109,-0.00000173,0.00001502,0.00000856
 ,-0.00001313,0.00014863,-0.00013655,-0.00010799,-0.00000602,0.00002354
 ,0.00008706,-0.00008834,-0.00010645,-0.00010887,0.00003354,-0.00001059
 ,0.00002676,-0.00002291,-0.00001804,0.00004402,-0.00039247,-0.00022492
 ,0.00018130,0.00070453,0.00038602,0.00121317,-0.00004119,-0.00004929,0
 .00003673,0.00000417,0.00000033,-0.00001124,0.00000304,0.00000422,-0.0
 0000687,-0.00000710,-0.00002599,0.00000548,0.07197995,-0.07989940,0.02
 965566,-0.00004146,0.00003237,0.00001072,-0.00001167,-0.00000397,0.000
 01611,-0.00001375,-0.00000218,-0.00001826,-0.00000253,-0.00000351,0.00
 000383,-0.00001398,-0.00000508,0.00000452,0.00001230,-0.00000033,0.000
 01159,-0.00000297,-0.00000205,-0.00000086,-0.00000552,0.00000339,-0.00
 000515,0.02626745,-0.00878531,0.01106516,-0.01494606,0.00604273,-0.006
 59292,-0.07974592,0.07835942,-0.00019710,-0.00003572,0.00000804,0.0002
 8457,-0.00056296,0.00021036,-0.00006384,0.00009467,0.00004597,-0.00010
 540,-0.00018712,0.00004057,-0.00004405,-0.00002632,-0.00005436,-0.0000
 0582,-0.00005923,0.00002082,-0.00191114,0.00645901,0.00127756,-0.02881
 401,0.00977061,-0.03438968,-0.00517342,-0.00213775,0.00187889,0.000435
 96,-0.00007324,0.00028620,0.00023446,0.00019379,0.00060254,-0.00005682
 ,0.00003998,0.00005309,0.00002110,0.00001371,0.00003522,0.00042522,0.0
 0018112,-0.00010868,0.00018658,-0.00013968,-0.00010061,0.00013730,0.00
 002821,0.00028675,0.00008538,-0.00005386,-0.00006632,-0.00002445,-0.00
 002741,0.00011204,0.00199233,-0.00001190,0.00066123,0.00117350,-0.0017
 5206,0.00091755,0.00039244,0.00007903,-0.00014696,-0.00000201,-0.00001
 619,-0.00000926,-0.00001773,-0.00000830,-0.00001277,0.00002169,-0.0000
 0481,-0.00001232,-0.07336066,0.03004077,-0.07863487,0.00010975,-0.0000
 6299,-0.00001311,-0.00000123,-0.00001936,-0.00005252,0.00000468,0.0000
 0360,-0.00001112,-0.00000645,-0.00000323,-0.00000478,-0.00002206,0.000
 00005,-0.00001056,-0.00001304,0.00000395,0.00001057,0.00000409,-0.0000
 0101,-0.00000283,0.00000807,-0.00000424,-0.00000280,0.00689101,-0.0020
 6288,0.00364559,0.00883804,-0.00428597,0.00479870,0.08857386,-0.035372
 73,0.09874141,-0.00002036,-0.00004866,0.00000139,-0.00004003,0.0000733
 1,-0.00000099,0.00004682,-0.00010063,0.00000110,0.00007232,-0.00007796
 ,-0.00001535,-0.00004561,0.00003926,-0.00000029,0.00006720,-0.00000432
 ,0.00000436,0.00001078,-0.00004993,-0.00000372,-0.00002870,0.00005499,
 -0.00007010,0.00001018,-0.00002957,0.00003062,0.00007187,-0.00003997,0
 .00002973,0.00000253,0.00000341,0.00002043,0.00044157,0.00001582,0.000
 13980,0.00014795,-0.00002362,0.00006824,0.00001673,0.00001132,0.000016
 43,-0.00000384,0.00000718,-0.00000695,-0.00002127,0.00001541,-0.000016
 76,-0.00000728,0.00001405,-0.00001414,0.00000503,-0.00002172,0.0000018
 1,-0.00001167,0.00001576,-0.00002443,-0.00000707,0.00001759,-0.0000135
 1,0.00000675,-0.00002636,0.00005469,-0.00001579,0.00000567,0.00000114,
 -0.00000137,0.00000015,0.00000258,-0.00000149,-0.00000305,0.00000304,0
 .00000642,-0.00000705,0.00006053,-0.00025595,0.00007136,0.00003769,-0.
 00011556,0.00001392,0.00005120,-0.00039023,-0.00000009,-0.00040988,-0.
 00004447,0.00001582,-0.00006188,-0.00008730,-0.00001281,-0.00004436,0.
 00432965,-0.00023222,-0.00076980,-0.00016569,0.00112706,-0.00048404,-0
 .00684497,-0.00003500,0.00368564,0.00000260,-0.00000189,0.00000771,0.0
 0000981,0.00000692,-0.00000540,-0.00001790,0.00000921,-0.00001082,0.32
 471214,-0.00001493,-0.00000437,-0.00000273,-0.00006858,-0.00001533,0.0
 0001515,-0.00010022,-0.00015346,-0.00001290,0.00044434,-0.00029039,0.0
 0004393,-0.00002808,0.00020277,-0.00001019,0.00010604,-0.00000007,0.00
 001265,-0.00005435,-0.00009903,-0.00007427,0.00008204,0.00009806,0.000
 02731,-0.00004504,-0.00006776,0.00003812,0.00002393,-0.00002057,-0.000
 00376,-0.00001659,0.00001442,0.00001611,0.00114928,-0.00024932,0.00209
 796,-0.00004975,0.00023150,0.00032257,0.00000468,0.00002694,0.00001345
 ,0.00001446,0.00000771,-0.00000483,-0.00001662,-0.00001615,-0.00000482
 ,0.00001131,0.00001006,-0.00000418,0.00000025,0.00001126,0.00002401,0.
 00002221,0.00000710,0.00000047,0.00001976,0.00002643,0.00000349,-0.000
 06125,-0.00005084,-0.00002278,-0.00002112,0.00005139,-0.00003942,0.000
 00494,0.00000257,-0.00000699,0.00000393,-0.00000505,-0.00000266,-0.000
 01873,-0.00001849,-0.00003687,-0.00095575,0.00052246,-0.00014029,0.000
 29090,-0.00036895,-0.00051452,-0.00142045,0.00027186,-0.00307105,-0.00
 000885,-0.00002389,-0.00007336,-0.00004932,-0.00012066,0.00002313,-0.0
 0089075,-0.01132160,0.00884815,0.00094560,0.00003545,0.00052171,0.0001
 0145,-0.00463816,-0.00329414,0.00000256,0.00001558,0.00000945,0.000010
 93,0.00000408,-0.00001872,0.00001232,-0.00000152,0.00000565,-0.2548909
 8,0.37012514,-0.00001110,-0.00002292,-0.00000057,0.00000736,0.00007034
 ,-0.00000788,0.00008505,0.00002271,0.00000091,-0.00031336,0.00018636,-
 0.00001137,-0.00001221,-0.00010547,-0.00000075,-0.00002949,0.00001059,
 0.00000301,0.00003198,0.00000689,0.00001671,-0.00008337,0.00000198,0.0
 0001954,0.00005039,0.00000839,-0.00002891,-0.00000610,0.00001063,0.000
 00836,-0.00000240,-0.00001741,-0.00002332,-0.00049516,0.00051576,-0.00
 059373,0.00000085,0.00012144,-0.00027402,0.00000572,0.00000077,-0.0000
 0002,-0.00001569,-0.00000452,0.00000070,0.00001096,-0.00000488,-0.0000
 1485,-0.00000958,0.00000097,0.00000251,0.00001031,0.00000524,-0.000008
 62,-0.00001896,0.00000395,0.00000084,-0.00001676,-0.00000103,-0.000001
 68,0.00005775,-0.00000959,-0.00000025,0.00001609,-0.00003200,-0.000001
 32,-0.00000460,0.00000125,-0.00000631,-0.00000394,0.00000274,-0.000004
 46,0.00002606,-0.00001041,0.00000415,0.00066661,-0.00041519,0.00003574
 ,-0.00008096,-0.00009065,0.00020177,0.00037672,-0.00035907,0.00085406,
 -0.00001833,-0.00005980,0.00007292,0.00001413,-0.00004635,0.00017802,-
 0.00055788,0.00835350,0.00014553,-0.00037548,0.00056526,-0.00095381,0.
 00373623,-0.00239048,-0.00577142,0.00001207,0.00000536,0.00000431,-0.0
 0000348,-0.00001381,0.00001085,-0.00001627,0.00000856,0.00000381,-0.23
 644502,-0.04198561,0.51554828,0.00000646,0.00001668,0.00000016,0.00001
 672,-0.00002983,0.00000160,-0.00002361,0.00002519,-0.00000228,0.000019
 67,-0.00000426,0.00000518,0.00001608,0.00000086,0.00000031,-0.00001691
 ,0.00000030,-0.00000061,-0.00000634,0.00001832,0.00000178,0.00001685,-
 0.00002380,0.00001986,-0.00000893,0.00001576,-0.00000817,-0.00002036,0
 .00001008,-0.00000816,-0.00000024,0.00000136,-0.00000281,-0.00004480,-
 0.00009105,0.00014114,-0.00009614,0.00000143,0.00000953,-0.00000600,-0
 .00000540,-0.00000643,0.00000083,-0.00000099,0.00000153,0.00000786,-0.
 00000156,0.00000711,0.00000320,-0.00000515,0.00000342,-0.00000228,0.00
 000413,-0.00000075,0.00000562,-0.00000680,0.00000732,0.00000437,-0.000
 00682,0.00000474,-0.00000676,0.00001258,-0.00001140,0.00000276,0.00000
 282,-0.00000199,0.00000115,-0.00000012,-0.00000088,0.00000116,0.000001
 33,-0.00000097,-0.00000570,0.00000603,-0.00002009,-0.00001786,0.000034
 36,-0.00001281,0.00008607,0.00000006,-0.00006928,-0.00000846,0.0000604
 5,-0.00013527,0.00003311,-0.00000725,0.00002713,0.00005523,0.00001556,
 -0.00000297,-0.00051390,-0.00160731,0.00146255,0.00024333,-0.00016780,
 -0.00008919,0.00067539,0.00196706,-0.00216698,-0.00000258,-0.00000064,
 -0.00000408,-0.00000364,-0.00000108,0.00000065,0.00000846,-0.00000462,
 0.00000251,-0.23515360,0.24984591,0.07202734,0.24546805,0.00000263,0.0
 0000026,-0.00000040,0.00001380,0.00000233,-0.00000236,0.00001019,0.000
 01832,0.00000154,-0.00005897,0.00003710,-0.00000842,0.00000566,-0.0000
 2638,0.00000143,-0.00001630,0.00000014,-0.00000182,0.00000978,0.000017
 74,0.00001438,-0.00001524,-0.00001962,-0.00001176,0.00000779,0.0000158
 3,-0.00000459,0.00000018,0.00000034,0.00000282,0.00000337,-0.00000185,
 -0.00000124,-0.00010457,0.00006081,-0.00012849,-0.00002923,-0.00002125
 ,-0.00008133,0.00000027,-0.00000575,-0.00000196,-0.00000249,-0.0000003
 8,0.00000085,0.00000151,0.00000486,0.00000105,-0.00000194,-0.00000121,
 0.00000022,-0.00000107,-0.00000427,-0.00000419,-0.00000464,-0.00000101
 ,-0.00000195,-0.00000310,-0.00000447,-0.00000128,0.00001092,0.00000778
 ,0.00000736,0.00000333,-0.00000548,0.00000547,0.00000007,-0.00000077,0
 .00000201,-0.00000041,0.00000119,0.00000119,0.00000302,0.00000569,0.00
 001118,0.00012143,-0.00006777,0.00002115,0.00000470,0.00001477,0.00007
 527,0.00007219,-0.00009754,0.00015823,0.00001101,0.00000111,0.00003187
 ,0.00002107,0.00003176,0.00002580,-0.00105681,-0.00052400,0.00076319,0
 .00020241,-0.00051186,0.00013854,0.00236731,0.00035394,-0.00181510,-0.
 00000070,-0.00000381,-0.00000195,-0.00000180,-0.00000032,0.00000291,-0
 .00000283,0.00000038,-0.00000218,0.26964863,-0.30908567,-0.05645065,-0
 .26534715,0.30672423,0.00000420,0.00000713,0.00000026,0.00000616,-0.00
 001850,0.00000057,-0.00000899,0.00000958,0.00000225,0.00003912,-0.0000
 2061,-0.00000492,0.00000655,0.00000457,0.00000380,-0.00000387,-0.00000
 283,-0.00000324,-0.00000124,0.00001350,0.00000542,0.00001822,-0.000014
 29,-0.00001812,-0.00001253,0.00000461,0.00000609,0.00000222,-0.0000030
 1,0.00000076,0.00000173,0.00000316,0.00000519,0.00001260,-0.00016357,-
 0.00030679,0.00005957,-0.00015757,0.00007428,-0.00000221,-0.00000399,-
 0.00000002,0.00000358,0.00000055,-0.00000061,-0.00000264,0.00000391,0.
 00000406,0.00000158,-0.00000101,-0.00000086,-0.00000296,-0.00000425,-0
 .00000123,0.00000317,-0.00000186,-0.00000125,0.00000214,-0.00000337,-0
 .00000009,-0.00000881,0.00001104,0.00001174,-0.00000197,0.00000286,0.0
 0000878,0.00000042,-0.00000054,0.00000346,0.00000057,0.,0.00000242,-0.
 00000836,0.00000838,0.00001141,-0.00008134,0.00005820,0.00001956,-0.00
 008794,0.00016344,0.00007821,0.00011423,0.00006670,0.00043629,0.000004
 95,0.00005014,-0.00003701,-0.00002300,0.00007002,-0.00013036,0.0008571
 5,0.00163243,-0.00144602,-0.00005494,0.00018987,-0.00002313,-0.0021059
 0,-0.00279422,0.00246725,-0.00000639,-0.00000609,-0.00000265,0.0000003
 1,0.00000683,-0.00000146,0.00000401,-0.00000316,-0.00000403,0.03893778
 ,-0.01446512,-0.04909422,-0.06813296,0.04964704,0.05456895,0.00000693,
 0.00002397,-0.00000183,0.00002840,-0.00002658,0.00000101,-0.00001648,0
 .00004856,-0.00000030,-0.00007293,0.00006243,0.00000780,0.00002266,-0.
 00003366,-0.00000104,-0.00003970,0.00000525,-0.00000153,-0.00000175,0.
 00002789,0.00000216,0.00000210,-0.00002863,0.00004984,0.00000417,0.000
 01540,-0.00002617,-0.00004843,0.00002873,-0.00001741,-0.00000367,-0.00
 000466,-0.00001705,-0.00025661,0.00008941,-0.00015157,-0.00004138,0.00
 001285,-0.00004439,-0.00000840,-0.00000549,-0.00000997,-0.00000188,-0.
 00000464,0.00000351,0.00001849,-0.00001237,0.00000425,0.00000406,-0.00
 000947,0.00000959,-0.00000044,0.00001681,-0.00000267,0.00000412,-0.000
 00857,0.00001725,0.00000138,-0.00000980,0.00000902,0.00000955,0.000009
 67,-0.00002992,0.00000919,-0.00000548,-0.00000126,0.00000013,0.0000004
 3,-0.00000202,0.00000062,0.00000335,-0.00000282,-0.00000052,0.00000022
 ,-0.00003689,0.00021188,-0.00009422,-0.00001532,0.00001918,-0.00001055
 ,0.00001299,0.00021814,-0.00009457,0.00028318,0.00001294,-0.00000624,0
 .00002221,0.00002563,0.00000030,0.00002741,-0.00010334,0.00094743,-0.0
 0047225,-0.00004739,-0.00004010,0.00019425,-0.00004799,-0.00199724,0.0
 0057584,0.00000098,0.00000280,-0.00000290,-0.00000612,-0.00000642,0.00
 000551,0.00000822,-0.00000389,0.00000747,-0.08668019,0.00561453,0.1613
 8451,-0.01073425,-0.00587403,0.03046581,0.09750273,0.00000563,-0.00000
 063,0.00000127,0.00002008,-0.00000240,-0.00000233,0.00000321,0.0000142
 9,0.00000275,-0.00000147,0.00000077,-0.00001328,0.00000435,-0.00001593
 ,0.00000321,-0.00001071,-0.00000436,-0.00000427,0.00000762,0.00001975,
 0.00001869,-0.00001119,-0.00002513,-0.00001837,0.00000524,0.00001943,-
 0.00000271,0.00000106,0.00000026,-0.00000010,0.00001043,0.00000340,0.0
 0000850,0.00001831,-0.00004675,-0.00006279,0.00000197,-0.00003205,-0.0
 0001396,-0.00000005,-0.00000809,-0.00000509,-0.00000317,0.00000106,0.0
 0000073,0.00000279,0.00001115,0.00000382,-0.00000204,-0.00000272,-0.00
 000136,-0.00000340,-0.00000893,-0.00000509,-0.00000401,-0.00000190,-0.
 00000296,-0.00000167,-0.00000562,-0.00000235,0.00000511,0.00001315,0.0
 0001281,-0.00000296,-0.00000106,0.00001138,0.00000063,-0.00000202,0.00
 000509,0.00000039,0.00000089,0.00000281,0.00000045,0.00000526,0.000013
 58,-0.00001880,0.00001413,0.00003197,-0.00001351,0.00004075,0.00003491
 ,-0.00000195,-0.00000732,0.00004540,0.00000320,0.00000928,0.00000364,0
 .00000609,0.00001557,-0.00000987,0.00053720,-0.00298348,-0.00029462,-0
 .00010231,-0.00018746,0.00045452,-0.00152831,0.00493231,0.00151624,-0.
 00000135,-0.00000501,-0.00000332,-0.00000200,0.00000106,0.00000263,-0.
 00000180,0.00000017,-0.00000300,-0.01556101,-0.04511351,0.09211714,0.0
 1527137,0.00308484,-0.03428994,0.00136659,0.04026684,0.00000749,0.0000
 1741,-0.00000050,0.00000446,-0.00003827,0.00000289,-0.00003413,0.00001
 870,0.00000006,0.00007208,-0.00003553,0.00000517,0.00001142,0.00002052
 ,0.00000127,-0.00000504,-0.00000245,-0.00000299,-0.00001211,0.00001052
 ,-0.00000229,0.00003331,-0.00001474,0.00000256,-0.00001864,0.00000603,
 0.00000468,-0.00001397,0.00000463,-0.00001058,0.00000165,0.00000590,0.
 00000489,0.00005827,-0.00012089,0.00012481,-0.00000632,-0.00002886,0.0
 0005389,-0.00000533,-0.00000359,-0.00000403,0.00000864,-0.00000007,0.0
 0000247,-0.00000139,-0.00000044,0.00001064,0.00000576,-0.00000424,0.00
 000252,-0.00000665,0.00000164,0.00000265,0.00000824,-0.00000462,0.0000
 0431,0.00000657,-0.00000383,0.00000264,-0.00001729,0.00000882,-0.00001
 252,-0.00000273,0.00000682,0.00000171,0.00000086,-0.00000052,0.0000025
 9,0.00000168,-0.00000038,0.00000172,-0.00000899,0.00000543,-0.00001028
 ,-0.00012607,0.00009880,-0.00001648,0.00002536,0.00001274,-0.00003870,
 -0.00002479,0.00006419,-0.00015154,0.00000379,0.00001534,-0.00001487,0
 .00000223,0.00001534,-0.00003239,0.00019024,-0.00087554,0.00059334,-0.
 00006591,0.00021804,0.00004945,-0.00004523,0.00079003,-0.00143463,-0.0
 0000440,-0.00000205,-0.00000320,-0.00000063,0.00000309,-0.00000216,0.0
 0000812,-0.00000440,0.00000065,0.19524152,0.05176592,-0.46031451,-0.00
 304577,0.00760618,-0.00663473,-0.19224631,-0.05955568,0.46781147\\-0.0
 0000036,-0.00000091,0.,0.00000030,0.00000051,0.00000012,0.00000085,0.0
 0000006,-0.00000030,0.00000316,-0.00000478,-0.00000021,0.00000009,0.00
 000199,-0.00000004,0.00000069,-0.00000051,-0.00000030,-0.00000058,-0.0
 0000060,-0.00000030,-0.00000080,0.00000004,0.00000008,0.,-0.00000029,0
 .00000030,0.00000017,0.00000017,-0.00000034,0.00000026,0.00000019,0.00
 000019,-0.00000461,0.00000484,-0.00001586,-0.00000453,-0.00000465,0.00
 000201,0.00000020,-0.00000023,0.00000036,0.00000006,0.00000004,0.00000
 025,0.00000024,0.00000007,0.00000012,-0.00000028,-0.00000033,-0.000000
 27,-0.00000021,0.00000036,-0.00000008,0.00000008,-0.00000032,0.0000002
 7,0.00000046,-0.00000009,-0.00000030,0.00000030,0.00000010,-0.00000007
 ,0.00000012,-0.00000075,-0.00000061,-0.00000050,-0.00000002,-0.0000005
 7,-0.00000024,-0.00000011,-0.00000016,-0.00000046,-0.00000063,0.000000
 63,-0.00000757,0.00000615,0.00000517,0.00000959,-0.00000289,0.00000037
 ,0.00000581,0.00000024,0.00001113,-0.00000049,0.00000274,0.00000221,0.
 00000171,0.00000046,-0.00000092,-0.00000228,0.00000935,-0.00000753,-0.
 00000204,0.00000283,-0.00000590,-0.00000043,-0.00001649,0.00001015,0.0
 0000018,-0.00000041,0.00000026,-0.00000003,-0.00000032,0.00000007,0.00
 000003,-0.00000043,0.00000008,0.00000225,0.00000158,0.00000240,-0.0000
 0561,0.00000434,0.00000431,0.00000446,-0.00000129,-0.00000672\\\@


 HE THAT FOLLOWS NATURE IS NEVER LOST.

                             -- BACON
 Job cpu time:       1 days  0 hours 27 minutes  1.8 seconds.
 Elapsed time:       0 days  0 hours 52 minutes 27.4 seconds.
 File lengths (MBytes):  RWF=   1240 Int=      0 D2E=      0 Chk=     32 Scr=      8
 Normal termination of Gaussian 16 at Fri Jan 27 15:57:15 2023.
