 Entering Gaussian System, Link 0=g16
 Input=NicPyrNa4h4bZ.gjf
 Output=NicPyrNa4h4bZ.log
 Initial command:
 /sw/contrib/gaussian/g16/A03/g16/l1.exe "/gscratch/scrubbed/gds001/Gau-15469.inp" -scrdir="/gscratch/scrubbed/gds001/"
 Entering Link 1 = /sw/contrib/gaussian/g16/A03/g16/l1.exe PID=     15470.
  
 Copyright (c) 1988,1990,1992,1993,1995,1998,2003,2009,2016,
            Gaussian, Inc.  All Rights Reserved.
  
 This is part of the Gaussian(R) 16 program.  It is based on
 the Gaussian(R) 09 system (copyright 2009, Gaussian, Inc.),
 the Gaussian(R) 03 system (copyright 2003, Gaussian, Inc.),
 the Gaussian(R) 98 system (copyright 1998, Gaussian, Inc.),
 the Gaussian(R) 94 system (copyright 1995, Gaussian, Inc.),
 the Gaussian 92(TM) system (copyright 1992, Gaussian, Inc.),
 the Gaussian 90(TM) system (copyright 1990, Gaussian, Inc.),
 the Gaussian 88(TM) system (copyright 1988, Gaussian, Inc.),
 the Gaussian 86(TM) system (copyright 1986, Carnegie Mellon
 University), and the Gaussian 82(TM) system (copyright 1983,
 Carnegie Mellon University). Gaussian is a federally registered
 trademark of Gaussian, Inc.
  
 This software contains proprietary and confidential information,
 including trade secrets, belonging to Gaussian, Inc.
  
 This software is provided under written license and may be
 used, copied, transmitted, or stored only in accord with that
 written license.
  
 The following legend is applicable only to US Government
 contracts under FAR:
  
                    RESTRICTED RIGHTS LEGEND
  
 Use, reproduction and disclosure by the US Government is
 subject to restrictions as set forth in subparagraphs (a)
 and (c) of the Commercial Computer Software - Restricted
 Rights clause in FAR 52.227-19.
  
 Gaussian, Inc.
 340 Quinnipiac St., Bldg. 40, Wallingford CT 06492
  
  
 ---------------------------------------------------------------
 Warning -- This program may not be used in any manner that
 competes with the business of Gaussian, Inc. or will provide
 assistance to any competitor of Gaussian, Inc.  The licensee
 of this program is prohibited from giving any competitor of
 Gaussian, Inc. access to this program.  By using this program,
 the user acknowledges that Gaussian, Inc. is engaged in the
 business of creating and licensing software in the field of
 computational chemistry and represents and warrants to the
 licensee that it is not a competitor of Gaussian, Inc. and that
 it will not use this program in any manner prohibited above.
 ---------------------------------------------------------------
  

 Cite this work as:
 Gaussian 16, Revision A.03,
 M. J. Frisch, G. W. Trucks, H. B. Schlegel, G. E. Scuseria, 
 M. A. Robb, J. R. Cheeseman, G. Scalmani, V. Barone, 
 G. A. Petersson, H. Nakatsuji, X. Li, M. Caricato, A. V. Marenich, 
 J. Bloino, B. G. Janesko, R. Gomperts, B. Mennucci, H. P. Hratchian, 
 J. V. Ortiz, A. F. Izmaylov, J. L. Sonnenberg, D. Williams-Young, 
 F. Ding, F. Lipparini, F. Egidi, J. Goings, B. Peng, A. Petrone, 
 T. Henderson, D. Ranasinghe, V. G. Zakrzewski, J. Gao, N. Rega, 
 G. Zheng, W. Liang, M. Hada, M. Ehara, K. Toyota, R. Fukuda, 
 J. Hasegawa, M. Ishida, T. Nakajima, Y. Honda, O. Kitao, H. Nakai, 
 T. Vreven, K. Throssell, J. A. Montgomery, Jr., J. E. Peralta, 
 F. Ogliaro, M. J. Bearpark, J. J. Heyd, E. N. Brothers, K. N. Kudin, 
 V. N. Staroverov, T. A. Keith, R. Kobayashi, J. Normand, 
 K. Raghavachari, A. P. Rendell, J. C. Burant, S. S. Iyengar, 
 J. Tomasi, M. Cossi, J. M. Millam, M. Klene, C. Adamo, R. Cammi, 
 J. W. Ochterski, R. L. Martin, K. Morokuma, O. Farkas, 
 J. B. Foresman, and D. J. Fox, Gaussian, Inc., Wallingford CT, 2016.
 
 ******************************************
 Gaussian 16:  ES64L-G16RevA.03 25-Dec-2016
                 3-Feb-2023 
 ******************************************
 %nprocshared=28
 Will use up to   28 processors via shared memory.
 %mem=41GB
 -----------------------------
 # wB97XD/aug-cc-pVDZ opt freq
 -----------------------------
 1/18=20,19=15,26=3,38=1/1,3;
 2/9=110,12=2,17=6,18=5,40=1/2;
 3/5=16,7=10,11=2,25=1,30=1,71=1,74=-58/1,2,3;
 4//1;
 5/5=2,38=5/2;
 6/7=2,8=2,9=2,10=2,28=1/1;
 7//1,2,3,16;
 1/18=20,19=15,26=3/3(2);
 2/9=110/2;
 99//99;
 2/9=110/2;
 3/5=16,7=10,11=2,25=1,30=1,71=1,74=-58/1,2,3;
 4/5=5,16=3,69=1/1;
 5/5=2,38=5/2;
 7//1,2,3,16;
 1/18=20,19=15,26=3/3(-5);
 2/9=110/2;
 6/7=2,8=2,9=2,10=2,19=2,28=1/1;
 99/9=1/99;
 ----
 blah
 ----
 Symbolic Z-matrix:
 Charge =  1 Multiplicity = 1
 C                     1.29188   0.41639  -0.11619 
 C                     1.21743  -0.93306  -0.44047 
 C                     2.40201  -1.63413  -0.56007 
 C                     3.59205  -0.96158  -0.35155 
 C                     3.5408    0.38367  -0.01171 
 N                     2.41439   1.05341   0.10972 
 C                    -0.11215  -1.58649  -0.63395 
 C                    -1.09158  -0.90955  -1.60523 
 C                    -2.50057  -1.33085  -1.13267 
 C                    -2.28929  -2.02219   0.22729 
 N                    -0.91089  -1.62402   0.65422 
 O                    -1.40757   0.64662   1.90226 
 H                    -2.29741  -3.1151    0.14473 
 H                    -2.97879  -2.02015  -1.83376 
 H                    -3.14234  -0.4512   -1.02614 
 H                    -0.98118   0.1788   -1.559 
 H                    -0.87459  -1.21737  -2.63177 
 H                    -2.99482  -1.71844   1.00666 
 H                     0.0327   -2.63852  -0.91477 
 H                     0.38308   1.01407  -0.02253 
 H                     4.45488   0.94409   0.17376 
 H                     4.55006  -1.46826  -0.44138 
 H                     2.40343  -2.69453  -0.81717 
 C                    -0.33756  -2.46397   1.72383 
 H                    -0.98562  -0.63499   1.0392 
 H                    -1.27317   1.63058   1.79523 
 H                    -1.74639   0.70464   2.8201 
 O                     1.84905   3.76044   0.81514 
 H                     1.97514   2.80238   0.64899 
 H                     2.39176   4.1418    0.09856 
 H                    -1.00028  -2.42315   2.59357 
 H                     0.64959  -2.07508   1.99498 
 H                    -0.25122  -3.49487   1.36332 
 O                     1.01402   4.47793   3.23095 
 H                     1.81022   4.8229    3.67832 
 H                     1.37834   4.3069    2.32832 
 O                    -1.31696   3.2194    2.28316 
 H                    -1.98169   3.93396   2.26078 
 H                    -0.55274   3.71334   2.67409 
 
 Add virtual bond connecting atoms H25        and O12        Dist= 3.03D+00.
 Add virtual bond connecting atoms O37        and H26        Dist= 3.14D+00.
 Add virtual bond connecting atoms H36        and O28        Dist= 3.17D+00.
 Add virtual bond connecting atoms N6         and H29        Dist= 3.56D+00.
 Add virtual bond connecting atoms H39        and O34        Dist= 3.46D+00.

 GradGradGradGradGradGradGradGradGradGradGradGradGradGradGradGradGradGrad
 Berny optimization.
 Initialization pass.
                           ----------------------------
                           !    Initial Parameters    !
                           ! (Angstroms and Degrees)  !
 --------------------------                            --------------------------
 ! Name  Definition              Value          Derivative Info.                !
 --------------------------------------------------------------------------------
 ! R1    R(1,2)                  1.3899         estimate D2E/DX2                !
 ! R2    R(1,6)                  1.3103         estimate D2E/DX2                !
 ! R3    R(1,20)                 1.0917         estimate D2E/DX2                !
 ! R4    R(2,3)                  1.3817         estimate D2E/DX2                !
 ! R5    R(2,7)                  1.4941         estimate D2E/DX2                !
 ! R6    R(3,4)                  1.3827         estimate D2E/DX2                !
 ! R7    R(3,23)                 1.0911         estimate D2E/DX2                !
 ! R8    R(4,5)                  1.3885         estimate D2E/DX2                !
 ! R9    R(4,22)                 1.0875         estimate D2E/DX2                !
 ! R10   R(5,6)                  1.3161         estimate D2E/DX2                !
 ! R11   R(5,21)                 1.0881         estimate D2E/DX2                !
 ! R12   R(6,29)                 1.8822         estimate D2E/DX2                !
 ! R13   R(7,8)                  1.5365         estimate D2E/DX2                !
 ! R14   R(7,11)                 1.5162         estimate D2E/DX2                !
 ! R15   R(7,19)                 1.0985         estimate D2E/DX2                !
 ! R16   R(8,9)                  1.5447         estimate D2E/DX2                !
 ! R17   R(8,16)                 1.0949         estimate D2E/DX2                !
 ! R18   R(8,17)                 1.0934         estimate D2E/DX2                !
 ! R19   R(9,10)                 1.5402         estimate D2E/DX2                !
 ! R20   R(9,14)                 1.0933         estimate D2E/DX2                !
 ! R21   R(9,15)                 1.0941         estimate D2E/DX2                !
 ! R22   R(10,11)                1.4969         estimate D2E/DX2                !
 ! R23   R(10,13)                1.096          estimate D2E/DX2                !
 ! R24   R(10,18)                1.0943         estimate D2E/DX2                !
 ! R25   R(11,24)                1.4759         estimate D2E/DX2                !
 ! R26   R(11,25)                1.0639         estimate D2E/DX2                !
 ! R27   R(12,25)                1.6017         estimate D2E/DX2                !
 ! R28   R(12,26)                0.9988         estimate D2E/DX2                !
 ! R29   R(12,27)                0.9801         estimate D2E/DX2                !
 ! R30   R(24,31)                1.0942         estimate D2E/DX2                !
 ! R31   R(24,32)                1.0951         estimate D2E/DX2                !
 ! R32   R(24,33)                1.0955         estimate D2E/DX2                !
 ! R33   R(26,37)                1.6626         estimate D2E/DX2                !
 ! R34   R(28,29)                0.9805         estimate D2E/DX2                !
 ! R35   R(28,30)                0.9765         estimate D2E/DX2                !
 ! R36   R(28,36)                1.6763         estimate D2E/DX2                !
 ! R37   R(34,35)                0.9763         estimate D2E/DX2                !
 ! R38   R(34,36)                0.9883         estimate D2E/DX2                !
 ! R39   R(34,39)                1.8301         estimate D2E/DX2                !
 ! R40   R(37,38)                0.9762         estimate D2E/DX2                !
 ! R41   R(37,39)                0.9904         estimate D2E/DX2                !
 ! A1    A(2,1,6)              123.9278         estimate D2E/DX2                !
 ! A2    A(2,1,20)             120.4618         estimate D2E/DX2                !
 ! A3    A(6,1,20)             115.6062         estimate D2E/DX2                !
 ! A4    A(1,2,3)              117.8347         estimate D2E/DX2                !
 ! A5    A(1,2,7)              120.1669         estimate D2E/DX2                !
 ! A6    A(3,2,7)              121.995          estimate D2E/DX2                !
 ! A7    A(2,3,4)              118.556          estimate D2E/DX2                !
 ! A8    A(2,3,23)             120.9723         estimate D2E/DX2                !
 ! A9    A(4,3,23)             120.4712         estimate D2E/DX2                !
 ! A10   A(3,4,5)              118.4497         estimate D2E/DX2                !
 ! A11   A(3,4,22)             121.2723         estimate D2E/DX2                !
 ! A12   A(5,4,22)             120.2761         estimate D2E/DX2                !
 ! A13   A(4,5,6)              123.1771         estimate D2E/DX2                !
 ! A14   A(4,5,21)             120.6448         estimate D2E/DX2                !
 ! A15   A(6,5,21)             116.1778         estimate D2E/DX2                !
 ! A16   A(1,6,5)              118.0281         estimate D2E/DX2                !
 ! A17   A(1,6,29)             107.5314         estimate D2E/DX2                !
 ! A18   A(5,6,29)             134.3501         estimate D2E/DX2                !
 ! A19   A(2,7,8)              117.1576         estimate D2E/DX2                !
 ! A20   A(2,7,11)             111.6924         estimate D2E/DX2                !
 ! A21   A(2,7,19)             109.5501         estimate D2E/DX2                !
 ! A22   A(8,7,11)             102.2491         estimate D2E/DX2                !
 ! A23   A(8,7,19)             110.1448         estimate D2E/DX2                !
 ! A24   A(11,7,19)            105.2458         estimate D2E/DX2                !
 ! A25   A(7,8,9)              105.5391         estimate D2E/DX2                !
 ! A26   A(7,8,16)             110.3018         estimate D2E/DX2                !
 ! A27   A(7,8,17)             110.0556         estimate D2E/DX2                !
 ! A28   A(9,8,16)             110.4973         estimate D2E/DX2                !
 ! A29   A(9,8,17)             113.0435         estimate D2E/DX2                !
 ! A30   A(16,8,17)            107.4247         estimate D2E/DX2                !
 ! A31   A(8,9,10)             105.5109         estimate D2E/DX2                !
 ! A32   A(8,9,14)             112.0094         estimate D2E/DX2                !
 ! A33   A(8,9,15)             110.2158         estimate D2E/DX2                !
 ! A34   A(10,9,14)            110.0735         estimate D2E/DX2                !
 ! A35   A(10,9,15)            110.8173         estimate D2E/DX2                !
 ! A36   A(14,9,15)            108.2265         estimate D2E/DX2                !
 ! A37   A(9,10,11)            104.9967         estimate D2E/DX2                !
 ! A38   A(9,10,13)            112.3373         estimate D2E/DX2                !
 ! A39   A(9,10,18)            114.5725         estimate D2E/DX2                !
 ! A40   A(11,10,13)           107.0701         estimate D2E/DX2                !
 ! A41   A(11,10,18)           108.4649         estimate D2E/DX2                !
 ! A42   A(13,10,18)           109.005          estimate D2E/DX2                !
 ! A43   A(7,11,10)            104.44           estimate D2E/DX2                !
 ! A44   A(7,11,24)            115.1614         estimate D2E/DX2                !
 ! A45   A(7,11,25)            108.7489         estimate D2E/DX2                !
 ! A46   A(10,11,24)           114.3944         estimate D2E/DX2                !
 ! A47   A(10,11,25)           106.606          estimate D2E/DX2                !
 ! A48   A(24,11,25)           107.1032         estimate D2E/DX2                !
 ! A49   A(25,12,26)           134.0307         estimate D2E/DX2                !
 ! A50   A(25,12,27)           130.0193         estimate D2E/DX2                !
 ! A51   A(26,12,27)            95.0804         estimate D2E/DX2                !
 ! A52   A(11,24,31)           108.6348         estimate D2E/DX2                !
 ! A53   A(11,24,32)           109.1179         estimate D2E/DX2                !
 ! A54   A(11,24,33)           109.1273         estimate D2E/DX2                !
 ! A55   A(31,24,32)           109.6273         estimate D2E/DX2                !
 ! A56   A(31,24,33)           110.1454         estimate D2E/DX2                !
 ! A57   A(32,24,33)           110.158          estimate D2E/DX2                !
 ! A58   A(11,25,12)           163.1955         estimate D2E/DX2                !
 ! A59   A(12,26,37)           155.0086         estimate D2E/DX2                !
 ! A60   A(29,28,30)           100.7068         estimate D2E/DX2                !
 ! A61   A(29,28,36)           120.5056         estimate D2E/DX2                !
 ! A62   A(30,28,36)           133.7259         estimate D2E/DX2                !
 ! A63   A(35,34,36)           100.3138         estimate D2E/DX2                !
 ! A64   A(36,34,39)            88.0164         estimate D2E/DX2                !
 ! A65   A(26,37,38)           135.2909         estimate D2E/DX2                !
 ! A66   A(26,37,39)           124.8982         estimate D2E/DX2                !
 ! A67   A(38,37,39)            99.7546         estimate D2E/DX2                !
 ! A68   L(6,29,28,12,-1)      188.5807         estimate D2E/DX2                !
 ! A69   L(35,34,39,36,-1)     188.3302         estimate D2E/DX2                !
 ! A70   L(28,36,34,12,-1)     170.0287         estimate D2E/DX2                !
 ! A71   L(34,39,37,1,-1)      171.5687         estimate D2E/DX2                !
 ! A72   L(6,29,28,12,-2)      184.0496         estimate D2E/DX2                !
 ! A73   L(35,34,39,36,-2)     174.7016         estimate D2E/DX2                !
 ! A74   L(28,36,34,12,-2)     178.1681         estimate D2E/DX2                !
 ! A75   L(34,39,37,1,-2)      180.9303         estimate D2E/DX2                !
 ! D1    D(6,1,2,3)             -1.5059         estimate D2E/DX2                !
 ! D2    D(6,1,2,7)            177.838          estimate D2E/DX2                !
 ! D3    D(20,1,2,3)           179.2692         estimate D2E/DX2                !
 ! D4    D(20,1,2,7)            -1.387          estimate D2E/DX2                !
 ! D5    D(2,1,6,5)              1.8399         estimate D2E/DX2                !
 ! D6    D(2,1,6,29)          -175.1934         estimate D2E/DX2                !
 ! D7    D(20,1,6,5)          -178.9009         estimate D2E/DX2                !
 ! D8    D(20,1,6,29)            4.0658         estimate D2E/DX2                !
 ! D9    D(1,2,3,4)              0.039          estimate D2E/DX2                !
 ! D10   D(1,2,3,23)          -179.7223         estimate D2E/DX2                !
 ! D11   D(7,2,3,4)           -179.2921         estimate D2E/DX2                !
 ! D12   D(7,2,3,23)             0.9466         estimate D2E/DX2                !
 ! D13   D(1,2,7,8)             51.8206         estimate D2E/DX2                !
 ! D14   D(1,2,7,11)           -65.611          estimate D2E/DX2                !
 ! D15   D(1,2,7,19)           178.1846         estimate D2E/DX2                !
 ! D16   D(3,2,7,8)           -128.8635         estimate D2E/DX2                !
 ! D17   D(3,2,7,11)           113.7048         estimate D2E/DX2                !
 ! D18   D(3,2,7,19)            -2.4995         estimate D2E/DX2                !
 ! D19   D(2,3,4,5)              0.9472         estimate D2E/DX2                !
 ! D20   D(2,3,4,22)          -179.5505         estimate D2E/DX2                !
 ! D21   D(23,3,4,5)          -179.2902         estimate D2E/DX2                !
 ! D22   D(23,3,4,22)            0.212          estimate D2E/DX2                !
 ! D23   D(3,4,5,6)             -0.6438         estimate D2E/DX2                !
 ! D24   D(3,4,5,21)           179.1592         estimate D2E/DX2                !
 ! D25   D(22,4,5,6)           179.8488         estimate D2E/DX2                !
 ! D26   D(22,4,5,21)           -0.3482         estimate D2E/DX2                !
 ! D27   D(4,5,6,1)             -0.731          estimate D2E/DX2                !
 ! D28   D(4,5,6,29)           175.3116         estimate D2E/DX2                !
 ! D29   D(21,5,6,1)           179.4578         estimate D2E/DX2                !
 ! D30   D(21,5,6,29)           -4.4996         estimate D2E/DX2                !
 ! D31   D(1,6,28,30)         -123.0997         estimate D2E/DX2                !
 ! D32   D(1,6,28,36)           80.7278         estimate D2E/DX2                !
 ! D33   D(5,6,28,30)           57.243          estimate D2E/DX2                !
 ! D34   D(5,6,28,36)          -98.9295         estimate D2E/DX2                !
 ! D35   D(2,7,8,9)           -153.7958         estimate D2E/DX2                !
 ! D36   D(2,7,8,16)           -34.4296         estimate D2E/DX2                !
 ! D37   D(2,7,8,17)            83.9268         estimate D2E/DX2                !
 ! D38   D(11,7,8,9)           -31.352          estimate D2E/DX2                !
 ! D39   D(11,7,8,16)           88.0142         estimate D2E/DX2                !
 ! D40   D(11,7,8,17)         -153.6294         estimate D2E/DX2                !
 ! D41   D(19,7,8,9)            80.1334         estimate D2E/DX2                !
 ! D42   D(19,7,8,16)         -160.5005         estimate D2E/DX2                !
 ! D43   D(19,7,8,17)          -42.1441         estimate D2E/DX2                !
 ! D44   D(2,7,11,10)          168.1175         estimate D2E/DX2                !
 ! D45   D(2,7,11,24)          -65.5723         estimate D2E/DX2                !
 ! D46   D(2,7,11,25)           54.5985         estimate D2E/DX2                !
 ! D47   D(8,7,11,10)           42.029          estimate D2E/DX2                !
 ! D48   D(8,7,11,24)          168.3393         estimate D2E/DX2                !
 ! D49   D(8,7,11,25)          -71.49           estimate D2E/DX2                !
 ! D50   D(19,7,11,10)         -73.0866         estimate D2E/DX2                !
 ! D51   D(19,7,11,24)          53.2237         estimate D2E/DX2                !
 ! D52   D(19,7,11,25)         173.3944         estimate D2E/DX2                !
 ! D53   D(7,8,9,10)             9.7266         estimate D2E/DX2                !
 ! D54   D(7,8,9,14)          -110.0341         estimate D2E/DX2                !
 ! D55   D(7,8,9,15)           129.4116         estimate D2E/DX2                !
 ! D56   D(16,8,9,10)         -109.51           estimate D2E/DX2                !
 ! D57   D(16,8,9,14)          130.7293         estimate D2E/DX2                !
 ! D58   D(16,8,9,15)           10.175          estimate D2E/DX2                !
 ! D59   D(17,8,9,10)          130.0636         estimate D2E/DX2                !
 ! D60   D(17,8,9,14)           10.3029         estimate D2E/DX2                !
 ! D61   D(17,8,9,15)         -110.2514         estimate D2E/DX2                !
 ! D62   D(8,9,10,11)           16.0631         estimate D2E/DX2                !
 ! D63   D(8,9,10,13)          -99.9525         estimate D2E/DX2                !
 ! D64   D(8,9,10,18)          134.947          estimate D2E/DX2                !
 ! D65   D(14,9,10,11)         137.0934         estimate D2E/DX2                !
 ! D66   D(14,9,10,13)          21.0778         estimate D2E/DX2                !
 ! D67   D(14,9,10,18)        -104.0226         estimate D2E/DX2                !
 ! D68   D(15,9,10,11)        -103.2238         estimate D2E/DX2                !
 ! D69   D(15,9,10,13)         140.7606         estimate D2E/DX2                !
 ! D70   D(15,9,10,18)          15.6601         estimate D2E/DX2                !
 ! D71   D(9,10,11,7)          -36.3316         estimate D2E/DX2                !
 ! D72   D(9,10,11,24)        -163.1195         estimate D2E/DX2                !
 ! D73   D(9,10,11,25)          78.7018         estimate D2E/DX2                !
 ! D74   D(13,10,11,7)          83.2624         estimate D2E/DX2                !
 ! D75   D(13,10,11,24)        -43.5255         estimate D2E/DX2                !
 ! D76   D(13,10,11,25)       -161.7042         estimate D2E/DX2                !
 ! D77   D(18,10,11,7)        -159.2418         estimate D2E/DX2                !
 ! D78   D(18,10,11,24)         73.9703         estimate D2E/DX2                !
 ! D79   D(18,10,11,25)        -44.2085         estimate D2E/DX2                !
 ! D80   D(7,11,24,31)        -179.3667         estimate D2E/DX2                !
 ! D81   D(7,11,24,32)          61.157          estimate D2E/DX2                !
 ! D82   D(7,11,24,33)         -59.2577         estimate D2E/DX2                !
 ! D83   D(10,11,24,31)        -58.3328         estimate D2E/DX2                !
 ! D84   D(10,11,24,32)       -177.8092         estimate D2E/DX2                !
 ! D85   D(10,11,24,33)         61.7762         estimate D2E/DX2                !
 ! D86   D(25,11,24,31)         59.5631         estimate D2E/DX2                !
 ! D87   D(25,11,24,32)        -59.9133         estimate D2E/DX2                !
 ! D88   D(25,11,24,33)        179.6721         estimate D2E/DX2                !
 ! D89   D(7,11,25,12)         169.395          estimate D2E/DX2                !
 ! D90   D(10,11,25,12)         57.307          estimate D2E/DX2                !
 ! D91   D(24,11,25,12)        -65.5604         estimate D2E/DX2                !
 ! D92   D(26,12,25,11)       -166.5357         estimate D2E/DX2                !
 ! D93   D(27,12,25,11)         26.9171         estimate D2E/DX2                !
 ! D94   D(25,12,26,37)       -170.676          estimate D2E/DX2                !
 ! D95   D(27,12,26,37)         -0.9799         estimate D2E/DX2                !
 ! D96   D(12,26,37,38)        -87.6393         estimate D2E/DX2                !
 ! D97   D(12,26,37,39)         95.6782         estimate D2E/DX2                !
 ! D98   D(29,28,34,35)        103.5068         estimate D2E/DX2                !
 ! D99   D(29,28,34,39)        -70.5034         estimate D2E/DX2                !
 ! D100  D(30,28,34,35)        -47.2276         estimate D2E/DX2                !
 ! D101  D(30,28,34,39)        138.7621         estimate D2E/DX2                !
 ! D102  D(36,34,37,26)         62.0853         estimate D2E/DX2                !
 ! D103  D(36,34,37,38)       -112.9074         estimate D2E/DX2                !
 --------------------------------------------------------------------------------
 Trust Radius=3.00D-01 FncErr=1.00D-07 GrdErr=1.00D-06 EigMax=2.50D+02 EigMin=1.00D-04
 Number of steps in this run=    229 maximum allowed number of steps=    234.
 GradGradGradGradGradGradGradGradGradGradGradGradGradGradGradGradGradGrad

                          Input orientation:                          
 ---------------------------------------------------------------------
 Center     Atomic      Atomic             Coordinates (Angstroms)
 Number     Number       Type             X           Y           Z
 ---------------------------------------------------------------------
      1          6           0        1.291883    0.416390   -0.116190
      2          6           0        1.217434   -0.933058   -0.440469
      3          6           0        2.402014   -1.634125   -0.560072
      4          6           0        3.592050   -0.961583   -0.351549
      5          6           0        3.540795    0.383673   -0.011713
      6          7           0        2.414393    1.053411    0.109719
      7          6           0       -0.112147   -1.586487   -0.633948
      8          6           0       -1.091577   -0.909550   -1.605226
      9          6           0       -2.500573   -1.330852   -1.132674
     10          6           0       -2.289286   -2.022192    0.227287
     11          7           0       -0.910892   -1.624017    0.654223
     12          8           0       -1.407574    0.646622    1.902260
     13          1           0       -2.297410   -3.115095    0.144726
     14          1           0       -2.978788   -2.020152   -1.833761
     15          1           0       -3.142342   -0.451200   -1.026137
     16          1           0       -0.981179    0.178796   -1.559001
     17          1           0       -0.874593   -1.217368   -2.631766
     18          1           0       -2.994818   -1.718443    1.006658
     19          1           0        0.032696   -2.638520   -0.914765
     20          1           0        0.383083    1.014074   -0.022534
     21          1           0        4.454877    0.944092    0.173761
     22          1           0        4.550055   -1.468258   -0.441384
     23          1           0        2.403427   -2.694534   -0.817165
     24          6           0       -0.337560   -2.463970    1.723829
     25          1           0       -0.985623   -0.634989    1.039202
     26          1           0       -1.273174    1.630583    1.795226
     27          1           0       -1.746388    0.704639    2.820101
     28          8           0        1.849049    3.760435    0.815144
     29          1           0        1.975142    2.802381    0.648989
     30          1           0        2.391762    4.141798    0.098561
     31          1           0       -1.000281   -2.423151    2.593570
     32          1           0        0.649591   -2.075080    1.994982
     33          1           0       -0.251219   -3.494870    1.363316
     34          8           0        1.014016    4.477933    3.230945
     35          1           0        1.810220    4.822905    3.678325
     36          1           0        1.378339    4.306900    2.328317
     37          8           0       -1.316956    3.219401    2.283160
     38          1           0       -1.981688    3.933961    2.260780
     39          1           0       -0.552737    3.713337    2.674086
 ---------------------------------------------------------------------
                    Distance matrix (angstroms):
                    1          2          3          4          5
     1  C    0.000000
     2  C    1.389859   0.000000
     3  C    2.373612   1.381676   0.000000
     4  C    2.691649   2.376451   1.382744   0.000000
     5  C    2.251575   2.704740   2.380972   1.388463   0.000000
     6  N    1.310290   2.383585   2.769769   2.379043   1.316084
     7  C    2.500178   1.494051   2.515697   3.767138   4.196748
     8  C    3.107447   2.586260   3.717867   4.848791   5.066614
     9  C    4.297536   3.802757   4.945221   6.153582   6.379207
    10  C    4.346197   3.732184   4.772717   6.004170   6.311509
    11  N    3.099841   2.491093   3.528450   4.661210   4.928672
    12  O    3.378493   3.856739   5.077189   5.715087   5.312136
    13  H    5.042072   4.178261   4.977409   6.290441   6.808119
    14  H    5.208207   4.553165   5.542953   6.818609   7.183536
    15  H    4.609020   4.425250   5.688270   6.787311   6.811049
    16  H    2.702770   2.705778   3.966174   4.865473   4.783756
    17  H    3.700122   3.042892   3.898943   5.021525   5.378072
    18  H    4.918750   4.522618   5.620280   6.767894   6.940476
    19  H    3.399375   2.130061   2.597746   3.974711   4.717617
    20  H    1.091749   2.159198   3.373127   3.782716   3.220042
    21  H    3.219794   3.792362   3.376383   2.156854   1.088125
    22  H    3.778007   3.375323   2.157702   1.087457   2.152411
    23  H    3.377091   2.156682   1.091131   2.152381   3.379011
    24  C    3.786453   3.073416   3.661982   4.691076   5.114960
    25  H    2.761768   2.670530   3.877117   4.795408   4.757158
    26  H    3.421593   4.215889   5.450941   5.915943   5.290947
    27  H    4.235089   4.700809   5.839917   6.429197   6.006371
    28  O    3.515744   4.899427   5.594486   5.166883   3.866293
    29  H    2.597171   3.964158   4.618077   4.216977   2.956002
    30  H    3.890311   5.236771   5.813363   5.261919   3.931405
    31  H    4.545306   4.042775   4.705702   5.647956   5.940297
    32  H    3.328214   2.749197   3.129493   3.924812   4.293175
    33  H    4.457360   3.460269   3.768480   4.912130   5.595817
    34  O    5.270357   6.542132   7.324999   7.004917   5.801932
    35  H    5.838184   7.102603   7.746448   7.271527   6.026446
    36  H    4.595558   5.928678   6.684794   6.311823   5.054074
    37  O    4.518826   5.575320   6.743250   6.965677   6.074993
    38  H    5.360929   6.420202   7.627426   7.864933   6.947416
    39  H    4.696607   5.867107   6.912718   6.941801   5.920910
                    6          7          8          9         10
     6  N    0.000000
     7  C    3.729009   0.000000
     8  C    4.368762   1.536525   0.000000
     9  C    5.602244   2.453295   1.544691   0.000000
    10  C    5.621188   2.381491   2.455725   1.540158   0.000000
    11  N    4.303792   1.516175   2.376598   2.409571   1.496926
    12  O    4.241004   3.619014   3.850193   3.783633   3.271929
    13  H    6.291165   2.778192   3.062808   2.203758   1.096047
    14  H    6.504637   3.137714   2.201643   1.093319   2.173324
    15  H    5.867821   3.259566   2.179694   1.094077   2.183298
    16  H    3.883232   2.174204   1.094907   2.183884   3.121909
    17  H    4.846608   2.169988   1.093443   2.214490   3.289876
    18  H    6.143878   3.319457   3.331452   2.229629   1.094284
    19  H    4.511364   1.098459   2.174871   2.859184   2.660027
    20  H    2.035991   2.716983   2.894800   3.878990   4.052515
    21  H    2.044414   5.283364   6.112605   7.433736   7.367865
    22  H    3.350161   4.667675   5.787460   7.085769   6.894240
    23  H    3.860871   2.754895   4.002782   5.099842   4.854326
    24  C    4.748744   2.525846   3.750649   3.757950   2.498808
    25  H    3.908291   2.113703   2.660754   2.737945   2.069559
    26  H    4.095389   4.195046   4.248333   4.341567   4.102887
    27  H    4.977943   4.455385   4.755828   4.509595   3.801714
    28  O    2.853983   5.876712   6.026130   6.973838   7.135137
    29  H    1.882193   5.026417   5.316454   6.347438   6.452882
    30  H    3.088490   6.294393   6.368097   7.443170   7.741031
    31  H    5.469552   3.450458   4.464214   4.162798   2.724261
    32  H    4.056624   2.780331   4.165528   4.501071   3.429948
    33  H    5.418842   2.765923   4.025211   3.996565   2.759177
    34  O    4.840503   7.278931   7.539698   8.070656   7.885772
    35  H    5.225807   7.960622   8.318496   8.921736   8.693156
    36  H    4.071950   6.762290   6.984597   7.668680   7.610729
    37  O    4.830975   5.749577   5.676141   5.811512   5.713697
    38  H    5.678922   6.507686   6.260822   6.285143   6.301227
    39  H    4.738675   6.263014   6.322495   6.612815   6.472922
                   11         12         13         14         15
    11  N    0.000000
    12  O    2.638199   0.000000
    13  H    2.098889   4.246322   0.000000
    14  H    3.259322   4.851624   2.361692   0.000000
    15  H    3.029600   3.576331   3.030044   1.772179   0.000000
    16  H    2.855422   3.518665   3.935082   2.983506   2.313323
    17  H    3.311254   4.931118   3.651669   2.389333   2.882316
    18  H    2.115626   2.985797   1.783239   2.856443   2.399984
    19  H    2.093155   4.560939   2.603659   3.208733   3.857154
    20  H    3.015277   2.654488   4.925754   4.877422   3.947514
    21  H    5.968040   6.119193   7.878529   8.250834   7.816926
    22  H    5.571944   6.742309   7.067063   7.676378   7.781344
    23  H    3.780965   5.751724   4.816635   5.518741   5.985964
    24  C    1.475902   3.294321   2.599720   4.453033   4.413656
    25  H    1.063941   1.601699   2.944792   3.761024   2.991796
    26  H    3.467789   0.998849   5.127833   5.422779   3.973374
    27  H    3.288118   0.980098   4.695915   5.531882   4.251846
    28  O    6.052727   4.635002   8.057016   7.983727   6.785439
    29  H    5.284148   4.202470   7.316113   7.345904   6.291302
    30  H    6.667902   5.468504   8.640195   8.399185   7.279209
    31  H    2.099446   3.172901   2.856251   4.866021   4.645352
    32  H    2.106229   3.412944   3.631789   5.275171   5.113013
    33  H    2.106673   4.333541   2.411657   4.453732   4.830321
    34  O    6.897722   4.723182   8.839930   9.155263   7.726216
    35  H    7.623152   5.563267   9.610972  10.007253   8.629949
    36  H    6.574111   4.619574   8.565349   8.737221   7.370782
    37  O    5.126111   2.602400   6.757220   6.867579   5.268471
    38  H    5.883770   3.356298   7.366583   7.294583   5.601837
    39  H    5.717995   3.275851   7.487925   7.686306   6.143376
                   16         17         18         19         20
    16  H    0.000000
    17  H    1.763933   0.000000
    18  H    3.773177   4.240821   0.000000
    19  H    3.062720   2.406437   3.701925   0.000000
    20  H    2.218024   3.656388   4.464986   3.776280   0.000000
    21  H    5.756635   6.398917   7.954921   5.794453   4.077123
    22  H    5.878470   5.855555   7.686646   4.690430   4.868374
    23  H    4.501322   4.027432   5.781015   2.373400   4.297325
    24  C    4.263265   4.562196   2.851520   2.670156   3.958017
    25  H    2.722669   3.718535   2.282936   2.978103   2.391662
    26  H    3.666577   5.279011   3.847320   5.222508   2.535256
    27  H    4.476448   5.846109   3.273908   5.318935   3.565245
    28  O    5.145376   6.639122   7.315589   6.873016   3.223858
    29  H    4.527500   5.919690   6.728022   5.985134   2.486692
    30  H    5.461651   6.844299   8.011387   7.250154   3.719155
    31  H    4.900443   5.364126   2.644443   3.663583   4.535660
    32  H    4.513332   4.946272   3.792847   3.027318   3.699226
    33  H    4.750642   4.640721   3.287892   2.450224   4.759569
    34  O    6.738469   8.388962   7.708001   8.294203   4.793905
    35  H    7.535863   9.138400   8.544906   8.940298   5.499115
    36  H    6.141645   7.758586   7.561484   7.782492   4.166501
    37  O    4.911234   6.636045   5.369076   6.809076   3.615221
    38  H    5.449129   7.190192   5.877833   7.572274   4.396749
    39  H    5.531326   7.250345   6.184522   7.319062   3.928554
                   21         22         23         24         25
    21  H    0.000000
    22  H    2.491364   0.000000
    23  H    4.293015   2.500595   0.000000
    24  C    6.081534   5.437681   3.744706   0.000000
    25  H    5.730753   5.790527   4.378754   2.057637   0.000000
    26  H    5.992578   6.965288   6.248890   4.200695   2.405634
    27  H    6.746565   7.416466   6.481130   3.636852   2.354775
    28  O    3.890180   6.017768   6.681197   6.659594   5.235010
    29  H    3.134991   5.104650   5.705183   5.851353   4.553450
    30  H    3.806235   6.035106   6.897400   7.329862   5.925305
    31  H    6.852193   6.397577   4.826178   1.094219   2.369345
    32  H    5.187721   4.638721   3.371622   1.095092   2.379349
    33  H    6.577748   5.515100   3.527348   1.095527   2.970407
    34  O    5.802925   7.832418   8.352362   7.231057   5.911368
    35  H    5.858444   8.003588   8.779135   7.844205   6.676100
    36  H    5.041396   7.147270   7.743703   7.011019   5.627823
    37  O    6.552911   7.988686   7.643813   5.794201   4.063685
    38  H    7.397590   8.896591   8.522906   6.627593   4.833187
    39  H    6.244721   7.911609   7.873280   6.253671   4.665637
                   26         27         28         29         30
    26  H    0.000000
    27  H    1.460025   0.000000
    28  O    3.904499   5.126882   0.000000
    29  H    3.638479   4.792081   0.980497   0.000000
    30  H    4.755695   6.028693   0.976456   1.506845   0.000000
    31  H    4.140602   3.223517   7.036919   6.319867   7.799332
    32  H    4.179578   3.761432   6.073216   5.230527   6.729127
    33  H    5.244160   4.689736   7.573049   6.717315   8.179466
    34  O    3.924274   4.693226   2.654841   3.224552   3.438460
    35  H    4.821234   5.508732   3.054202   3.645077   3.690095
    36  H    3.804915   4.793960   1.676271   2.332357   2.454811
    37  O    1.662629   2.607057   3.531484   3.698963   4.402031
    38  H    2.454441   3.285837   4.098112   4.419824   4.883181
    39  H    2.372612   3.240121   3.037509   3.364673   3.935350
                   31         32         33         34         35
    31  H    0.000000
    32  H    1.789284   0.000000
    33  H    1.795327   1.796180   0.000000
    34  O    7.217243   6.678502   8.285798   0.000000
    35  H    7.847352   7.194644   8.876608   0.976266   0.000000
    36  H    7.142953   6.432095   8.028343   0.988293   1.508411
    37  O    5.659949   5.655252   6.860272   2.813473   3.781129
    38  H    6.441023   6.565276   7.680331   3.195523   4.144662
    39  H    6.153313   5.950844   7.332617   1.830140   2.796999
                   36         37         38         39
    36  H    0.000000
    37  O    2.906769   0.000000
    38  H    3.381335   0.976200   0.000000
    39  H    2.049616   0.990367   1.503795   0.000000
 Stoichiometry    C10H23N2O4(1+)
 Framework group  C1[X(C10H23N2O4)]
 Deg. of freedom   111
 Full point group                 C1      NOp   1
 Largest Abelian subgroup         C1      NOp   1
 Largest concise Abelian subgroup C1      NOp   1
                         Standard orientation:                         
 ---------------------------------------------------------------------
 Center     Atomic      Atomic             Coordinates (Angstroms)
 Number     Number       Type             X           Y           Z
 ---------------------------------------------------------------------
      1          6           0       -0.203879    1.053205   -0.444250
      2          6           0        1.125218    1.339189   -0.155416
      3          6           0        1.427759    2.607857    0.300631
      4          6           0        0.399401    3.520753    0.445824
      5          6           0       -0.893643    3.113831    0.145357
      6          7           0       -1.186867    1.904418   -0.282913
      7          6           0        2.173482    0.288336   -0.325829
      8          6           0        2.227991   -0.434725   -1.680496
      9          6           0        2.852956   -1.816550   -1.387160
     10          6           0        2.901789   -1.928970    0.148113
     11          7           0        1.978378   -0.860379    0.644312
     12          8           0       -0.326011   -2.144842    0.638245
     13          1           0        3.896747   -1.706793    0.550623
     14          1           0        3.860343   -1.907078   -1.802279
     15          1           0        2.233680   -2.610217   -1.815640
     16          1           0        1.219352   -0.549414   -2.090759
     17          1           0        2.807803    0.153931   -2.396680
     18          1           0        2.563532   -2.891042    0.544923
     19          1           0        3.158476    0.708671   -0.081462
     20          1           0       -0.489364    0.068160   -0.818548
     21          1           0       -1.731364    3.798756    0.259889
     22          1           0        0.588464    4.533337    0.794380
     23          1           0        2.454875    2.888948    0.538510
     24          6           0        2.154430   -0.515681    2.068558
     25          1           0        0.989659   -1.237382    0.533525
     26          1           0       -1.194095   -2.168578    0.144720
     27          1           0       -0.609345   -2.765238    1.342108
     28          8           0       -3.656846    0.649483   -0.968158
     29          1           0       -2.790755    0.998081   -0.668592
     30          1           0       -3.895520    1.312824   -1.643791
     31          1           0        2.001790   -1.418169    2.668169
     32          1           0        1.414395    0.241438    2.348461
     33          1           0        3.167584   -0.127978    2.221477
     34          8           0       -4.917111   -1.035746    0.650457
     35          1           0       -5.624971   -0.504401    1.062405
     36          1           0       -4.547524   -0.375544    0.014643
     37          8           0       -2.757891   -2.661444   -0.130890
     38          1           0       -3.177823   -3.404303   -0.605004
     39          1           0       -3.566658   -2.169346    0.159906
 ---------------------------------------------------------------------
 Rotational constants (GHZ):           0.4854159           0.3148395           0.2240455
 Standard basis: Aug-CC-pVDZ (5D, 7F)
 There are   607 symmetry adapted cartesian basis functions of A   symmetry.
 There are   575 symmetry adapted basis functions of A   symmetry.
   575 basis functions,   941 primitive gaussians,   607 cartesian basis functions
    64 alpha electrons       64 beta electrons
       nuclear repulsion energy      1216.0253093212 Hartrees.
 NAtoms=   39 NActive=   39 NUniq=   39 SFac= 1.00D+00 NAtFMM=   60 NAOKFM=F Big=F
 Integral buffers will be    131072 words long.
 Raffenetti 2 integral format.
 Two-electron integral symmetry is turned on.
 Nuclear repulsion after empirical dispersion term =     1215.9959993130 Hartrees.
 One-electron integrals computed using PRISM.
 NBasis=   575 RedAO= T EigKep=  2.19D-06  NBF=   575
 NBsUse=   575 1.00D-06 EigRej= -1.00D+00 NBFU=   575
 ExpMin= 2.97D-02 ExpMax= 1.17D+04 ExpMxC= 4.01D+02 IAcc=3 IRadAn=         5 AccDes= 0.00D+00
 Harris functional with IExCor= 4639 and IRadAn=       5 diagonalized for initial guess.
 HarFok:  IExCor= 4639 AccDes= 0.00D+00 IRadAn=         5 IDoV= 1 UseB2=F ITyADJ=14
 ICtDFT=  3500011 ScaDFX=  1.000000  1.000000  1.000000  1.000000
 FoFCou: FMM=F IPFlag=           0 FMFlag=      100000 FMFlg1=           0
         NFxFlg=           0 DoJE=T BraDBF=F KetDBF=T FulRan=T
         wScrn=  0.000000 ICntrl=       500 IOpCl=  0 I1Cent=   200000004 NGrid=           0
         NMat0=    1 NMatS0=      1 NMatT0=    0 NMatD0=    1 NMtDS0=    0 NMtDT0=    0
 Petite list used in FoFCou.
 Requested convergence on RMS density matrix=1.00D-08 within 128 cycles.
 Requested convergence on MAX density matrix=1.00D-06.
 Requested convergence on             energy=1.00D-06.
 No special actions if energy rises.
 SCF Done:  E(RwB97XD) =  -805.016881150     A.U. after   15 cycles
            NFock= 15  Conv=0.32D-08     -V/T= 2.0061

 **********************************************************************

            Population analysis using the SCF density.

 **********************************************************************

 Orbital symmetries:
       Occupied  (A) (A) (A) (A) (A) (A) (A) (A) (A) (A) (A) (A)
                 (A) (A) (A) (A) (A) (A) (A) (A) (A) (A) (A) (A)
                 (A) (A) (A) (A) (A) (A) (A) (A) (A) (A) (A) (A)
                 (A) (A) (A) (A) (A) (A) (A) (A) (A) (A) (A) (A)
                 (A) (A) (A) (A) (A) (A) (A) (A) (A) (A) (A) (A)
                 (A) (A) (A) (A)
       Virtual   (A) (A) (A) (A) (A) (A) (A) (A) (A) (A) (A) (A)
                 (A) (A) (A) (A) (A) (A) (A) (A) (A) (A) (A) (A)
                 (A) (A) (A) (A) (A) (A) (A) (A) (A) (A) (A) (A)
                 (A) (A) (A) (A) (A) (A) (A) (A) (A) (A) (A) (A)
                 (A) (A) (A) (A) (A) (A) (A) (A) (A) (A) (A) (A)
                 (A) (A) (A) (A) (A) (A) (A) (A) (A) (A) (A) (A)
                 (A) (A) (A) (A) (A) (A) (A) (A) (A) (A) (A) (A)
                 (A) (A) (A) (A) (A) (A) (A) (A) (A) (A) (A) (A)
                 (A) (A) (A) (A) (A) (A) (A) (A) (A) (A) (A) (A)
                 (A) (A) (A) (A) (A) (A) (A) (A) (A) (A) (A) (A)
                 (A) (A) (A) (A) (A) (A) (A) (A) (A) (A) (A) (A)
                 (A) (A) (A) (A) (A) (A) (A) (A) (A) (A) (A) (A)
                 (A) (A) (A) (A) (A) (A) (A) (A) (A) (A) (A) (A)
                 (A) (A) (A) (A) (A) (A) (A) (A) (A) (A) (A) (A)
                 (A) (A) (A) (A) (A) (A) (A) (A) (A) (A) (A) (A)
                 (A) (A) (A) (A) (A) (A) (A) (A) (A) (A) (A) (A)
                 (A) (A) (A) (A) (A) (A) (A) (A) (A) (A) (A) (A)
                 (A) (A) (A) (A) (A) (A) (A) (A) (A) (A) (A) (A)
                 (A) (A) (A) (A) (A) (A) (A) (A) (A) (A) (A) (A)
                 (A) (A) (A) (A) (A) (A) (A) (A) (A) (A) (A) (A)
                 (A) (A) (A) (A) (A) (A) (A) (A) (A) (A) (A) (A)
                 (A) (A) (A) (A) (A) (A) (A) (A) (A) (A) (A) (A)
                 (A) (A) (A) (A) (A) (A) (A) (A) (A) (A) (A) (A)
                 (A) (A) (A) (A) (A) (A) (A) (A) (A) (A) (A) (A)
                 (A) (A) (A) (A) (A) (A) (A) (A) (A) (A) (A) (A)
                 (A) (A) (A) (A) (A) (A) (A) (A) (A) (A) (A) (A)
                 (A) (A) (A) (A) (A) (A) (A) (A) (A) (A) (A) (A)
                 (A) (A) (A) (A) (A) (A) (A) (A) (A) (A) (A) (A)
                 (A) (A) (A) (A) (A) (A) (A) (A) (A) (A) (A) (A)
                 (A) (A) (A) (A) (A) (A) (A) (A) (A) (A) (A) (A)
                 (A) (A) (A) (A) (A) (A) (A) (A) (A) (A) (A) (A)
                 (A) (A) (A) (A) (A) (A) (A) (A) (A) (A) (A) (A)
                 (A) (A) (A) (A) (A) (A) (A) (A) (A) (A) (A) (A)
                 (A) (A) (A) (A) (A) (A) (A) (A) (A) (A) (A) (A)
                 (A) (A) (A) (A) (A) (A) (A) (A) (A) (A) (A) (A)
                 (A) (A) (A) (A) (A) (A) (A) (A) (A) (A) (A) (A)
                 (A) (A) (A) (A) (A) (A) (A) (A) (A) (A) (A) (A)
                 (A) (A) (A) (A) (A) (A) (A) (A) (A) (A) (A) (A)
                 (A) (A) (A) (A) (A) (A) (A) (A) (A) (A) (A) (A)
                 (A) (A) (A) (A) (A) (A) (A) (A) (A) (A) (A) (A)
                 (A) (A) (A) (A) (A) (A) (A) (A) (A) (A) (A) (A)
                 (A) (A) (A) (A) (A) (A) (A) (A) (A) (A) (A) (A)
                 (A) (A) (A) (A) (A) (A) (A)
 The electronic state is 1-A.
 Alpha  occ. eigenvalues --  -19.40331 -19.38025 -19.36684 -19.34352 -14.68847
 Alpha  occ. eigenvalues --  -14.58586 -10.50022 -10.48557 -10.48398 -10.46907
 Alpha  occ. eigenvalues --  -10.46339 -10.45348 -10.45280 -10.44286 -10.43956
 Alpha  occ. eigenvalues --  -10.43713  -1.25778  -1.24136  -1.21484  -1.20966
 Alpha  occ. eigenvalues --   -1.19781  -1.17842  -1.07228  -1.04836  -1.01951
 Alpha  occ. eigenvalues --   -0.97259  -0.94654  -0.89510  -0.86416  -0.85668
 Alpha  occ. eigenvalues --   -0.83565  -0.78463  -0.75344  -0.74426  -0.72835
 Alpha  occ. eigenvalues --   -0.72459  -0.71763  -0.70347  -0.70200  -0.69813
 Alpha  occ. eigenvalues --   -0.68441  -0.67378  -0.66602  -0.65594  -0.63918
 Alpha  occ. eigenvalues --   -0.63746  -0.62821  -0.62531  -0.61563  -0.61094
 Alpha  occ. eigenvalues --   -0.59400  -0.59177  -0.58126  -0.57268  -0.56924
 Alpha  occ. eigenvalues --   -0.55507  -0.54637  -0.53762  -0.51232  -0.50784
 Alpha  occ. eigenvalues --   -0.49763  -0.48018  -0.47486  -0.47257
 Alpha virt. eigenvalues --   -0.09699  -0.09086  -0.07003  -0.05819  -0.05140
 Alpha virt. eigenvalues --   -0.05016  -0.03518  -0.03303  -0.03171  -0.02943
 Alpha virt. eigenvalues --   -0.02685  -0.01776  -0.01455  -0.01185  -0.00820
 Alpha virt. eigenvalues --   -0.00575   0.00014   0.00225   0.00897   0.00948
 Alpha virt. eigenvalues --    0.01208   0.01579   0.02318   0.02493   0.02598
 Alpha virt. eigenvalues --    0.03161   0.03477   0.03714   0.04108   0.04196
 Alpha virt. eigenvalues --    0.04446   0.04853   0.05222   0.05447   0.05541
 Alpha virt. eigenvalues --    0.05716   0.06134   0.06256   0.06483   0.06663
 Alpha virt. eigenvalues --    0.06912   0.07231   0.07403   0.07650   0.08064
 Alpha virt. eigenvalues --    0.08225   0.08359   0.08436   0.09342   0.09769
 Alpha virt. eigenvalues --    0.10106   0.10221   0.10627   0.10975   0.10995
 Alpha virt. eigenvalues --    0.11117   0.11320   0.11835   0.12208   0.12594
 Alpha virt. eigenvalues --    0.12874   0.13225   0.13544   0.14061   0.14364
 Alpha virt. eigenvalues --    0.15397   0.15496   0.15602   0.15787   0.15951
 Alpha virt. eigenvalues --    0.16449   0.17005   0.17176   0.17375   0.17641
 Alpha virt. eigenvalues --    0.17692   0.18029   0.18378   0.18647   0.18845
 Alpha virt. eigenvalues --    0.19622   0.19852   0.20078   0.20182   0.20305
 Alpha virt. eigenvalues --    0.20467   0.21034   0.21465   0.21708   0.21874
 Alpha virt. eigenvalues --    0.22104   0.22317   0.22887   0.23101   0.23303
 Alpha virt. eigenvalues --    0.24090   0.24446   0.24744   0.24854   0.25515
 Alpha virt. eigenvalues --    0.25703   0.25878   0.26139   0.26395   0.26870
 Alpha virt. eigenvalues --    0.27084   0.27389   0.27943   0.28107   0.28816
 Alpha virt. eigenvalues --    0.28863   0.29465   0.29939   0.30387   0.30709
 Alpha virt. eigenvalues --    0.30967   0.31200   0.31558   0.31872   0.32228
 Alpha virt. eigenvalues --    0.32732   0.33221   0.33399   0.33759   0.34137
 Alpha virt. eigenvalues --    0.34555   0.34857   0.35808   0.35953   0.36343
 Alpha virt. eigenvalues --    0.36576   0.36999   0.37305   0.37788   0.37859
 Alpha virt. eigenvalues --    0.38503   0.39256   0.39630   0.40007   0.40397
 Alpha virt. eigenvalues --    0.40824   0.41226   0.41485   0.41883   0.42294
 Alpha virt. eigenvalues --    0.42576   0.42844   0.43147   0.43716   0.44207
 Alpha virt. eigenvalues --    0.44998   0.45267   0.45633   0.46035   0.46754
 Alpha virt. eigenvalues --    0.47046   0.47216   0.47545   0.47845   0.47980
 Alpha virt. eigenvalues --    0.48489   0.49088   0.49181   0.49591   0.49750
 Alpha virt. eigenvalues --    0.50233   0.50430   0.50954   0.51504   0.51885
 Alpha virt. eigenvalues --    0.52001   0.52552   0.52997   0.53744   0.53910
 Alpha virt. eigenvalues --    0.54368   0.54520   0.54962   0.55501   0.55535
 Alpha virt. eigenvalues --    0.56052   0.56214   0.57063   0.57532   0.57721
 Alpha virt. eigenvalues --    0.57988   0.58372   0.58677   0.58975   0.59365
 Alpha virt. eigenvalues --    0.59989   0.60170   0.60353   0.60647   0.61574
 Alpha virt. eigenvalues --    0.62356   0.62521   0.62874   0.63674   0.63889
 Alpha virt. eigenvalues --    0.64422   0.64921   0.65231   0.65638   0.66396
 Alpha virt. eigenvalues --    0.66862   0.67142   0.67654   0.68057   0.68156
 Alpha virt. eigenvalues --    0.68564   0.68993   0.69416   0.69833   0.70322
 Alpha virt. eigenvalues --    0.70538   0.71189   0.72205   0.72303   0.72946
 Alpha virt. eigenvalues --    0.73350   0.73722   0.74656   0.75025   0.75900
 Alpha virt. eigenvalues --    0.76390   0.76519   0.77350   0.77950   0.78455
 Alpha virt. eigenvalues --    0.78930   0.79177   0.79614   0.79963   0.80794
 Alpha virt. eigenvalues --    0.81236   0.81345   0.82111   0.82648   0.83036
 Alpha virt. eigenvalues --    0.83970   0.84426   0.85486   0.86493   0.87181
 Alpha virt. eigenvalues --    0.87593   0.88214   0.89162   0.89911   0.90166
 Alpha virt. eigenvalues --    0.91108   0.91530   0.91761   0.92078   0.93134
 Alpha virt. eigenvalues --    0.93780   0.94464   0.94984   0.95431   0.96388
 Alpha virt. eigenvalues --    0.96947   0.97917   0.98565   0.99487   0.99898
 Alpha virt. eigenvalues --    1.00494   1.00896   1.01710   1.02359   1.02699
 Alpha virt. eigenvalues --    1.03875   1.04491   1.04806   1.05541   1.06686
 Alpha virt. eigenvalues --    1.06767   1.07323   1.08769   1.09400   1.10306
 Alpha virt. eigenvalues --    1.11791   1.12740   1.13159   1.13607   1.14396
 Alpha virt. eigenvalues --    1.15618   1.16892   1.17570   1.17806   1.18590
 Alpha virt. eigenvalues --    1.19774   1.20669   1.22008   1.22376   1.22799
 Alpha virt. eigenvalues --    1.23655   1.24209   1.25362   1.27726   1.28511
 Alpha virt. eigenvalues --    1.28925   1.30350   1.30988   1.31470   1.32939
 Alpha virt. eigenvalues --    1.33584   1.34227   1.35112   1.36291   1.38143
 Alpha virt. eigenvalues --    1.38385   1.38547   1.39908   1.40180   1.40973
 Alpha virt. eigenvalues --    1.42031   1.42983   1.44051   1.45065   1.45707
 Alpha virt. eigenvalues --    1.45879   1.46643   1.47092   1.47652   1.48920
 Alpha virt. eigenvalues --    1.49715   1.50486   1.51401   1.52065   1.53805
 Alpha virt. eigenvalues --    1.54314   1.54778   1.56121   1.57173   1.57794
 Alpha virt. eigenvalues --    1.58013   1.59437   1.61045   1.61745   1.63212
 Alpha virt. eigenvalues --    1.63612   1.64122   1.64477   1.65608   1.66062
 Alpha virt. eigenvalues --    1.66985   1.67744   1.68435   1.68997   1.69939
 Alpha virt. eigenvalues --    1.70775   1.71441   1.71808   1.73322   1.74419
 Alpha virt. eigenvalues --    1.75790   1.75859   1.77227   1.77712   1.78484
 Alpha virt. eigenvalues --    1.79402   1.79571   1.80296   1.80954   1.81903
 Alpha virt. eigenvalues --    1.82881   1.83251   1.83679   1.84044   1.85131
 Alpha virt. eigenvalues --    1.85675   1.86735   1.86883   1.87635   1.87928
 Alpha virt. eigenvalues --    1.89004   1.90254   1.91068   1.91598   1.92763
 Alpha virt. eigenvalues --    1.93204   1.94440   1.95034   1.95743   1.96664
 Alpha virt. eigenvalues --    1.97129   1.97853   1.98227   1.99055   2.00725
 Alpha virt. eigenvalues --    2.01687   2.02132   2.02875   2.04511   2.05253
 Alpha virt. eigenvalues --    2.06430   2.07619   2.08176   2.09775   2.10279
 Alpha virt. eigenvalues --    2.10467   2.11319   2.11928   2.13301   2.14368
 Alpha virt. eigenvalues --    2.15473   2.16399   2.17193   2.18416   2.18982
 Alpha virt. eigenvalues --    2.20058   2.21556   2.22080   2.22953   2.23258
 Alpha virt. eigenvalues --    2.23644   2.25124   2.25707   2.26764   2.27353
 Alpha virt. eigenvalues --    2.29457   2.30139   2.30272   2.32859   2.33021
 Alpha virt. eigenvalues --    2.34818   2.36640   2.36999   2.38420   2.40055
 Alpha virt. eigenvalues --    2.41222   2.41446   2.42620   2.43848   2.45094
 Alpha virt. eigenvalues --    2.46207   2.47526   2.48421   2.49626   2.50536
 Alpha virt. eigenvalues --    2.52451   2.54455   2.55657   2.56084   2.56905
 Alpha virt. eigenvalues --    2.58118   2.59786   2.60184   2.61317   2.63042
 Alpha virt. eigenvalues --    2.64217   2.66737   2.67628   2.68280   2.69193
 Alpha virt. eigenvalues --    2.70200   2.71690   2.72400   2.72698   2.73498
 Alpha virt. eigenvalues --    2.74941   2.75926   2.76122   2.78619   2.80372
 Alpha virt. eigenvalues --    2.81420   2.82840   2.84960   2.86573   2.89434
 Alpha virt. eigenvalues --    2.91093   2.91870   2.92350   2.94014   2.94358
 Alpha virt. eigenvalues --    2.97462   2.98436   3.00155   3.06272   3.10804
 Alpha virt. eigenvalues --    3.14295   3.15340   3.18506   3.28103   3.32578
 Alpha virt. eigenvalues --    3.34652   3.36142   3.38492   3.38728   3.39282
 Alpha virt. eigenvalues --    3.40826   3.42438   3.43899   3.44563   3.47772
 Alpha virt. eigenvalues --    3.52481   3.53005   3.54388   3.61669   3.66432
 Alpha virt. eigenvalues --    3.75920   3.76746   3.82902   3.84757   3.86975
 Alpha virt. eigenvalues --    3.99961   4.08089   4.09319   4.11428   4.31289
 Alpha virt. eigenvalues --    4.79317
          Condensed to atoms (all electrons):
               1          2          3          4          5          6
     1  C   18.987627  -5.490177  -1.448320  -0.359036  -1.883099  -0.521092
     2  C   -5.490177  25.485554  -9.915721   1.326969  -1.554137  -0.120256
     3  C   -1.448320  -9.915721  23.265310  -4.767687   2.116821  -0.445371
     4  C   -0.359036   1.326969  -4.767687  12.175965  -3.149772   0.403395
     5  C   -1.883099  -1.554137   2.116821  -3.149772  11.371569  -0.008032
     6  N   -0.521092  -0.120256  -0.445371   0.403395  -0.008032   7.722546
     7  C   -1.574415  -9.174050  -1.116005   0.209008  -0.608216   0.648399
     8  C   -0.927422   0.826136  -0.127388  -0.054649  -0.094366  -0.016351
     9  C    0.152453   0.283054  -0.022376  -0.020356   0.002550   0.005939
    10  C   -0.222669  -0.103049  -0.003034   0.015911  -0.038909   0.036517
    11  N   -0.490734   1.099310  -0.518931  -0.007795   0.090058  -0.030072
    12  O   -0.058259  -0.100341  -0.019249  -0.000962  -0.009099   0.004425
    13  H    0.010841   0.162259   0.003243   0.003123  -0.003653  -0.001571
    14  H    0.000785  -0.010836  -0.004764  -0.004768   0.002796  -0.000189
    15  H   -0.004391  -0.136727   0.011149   0.003234  -0.004754   0.000192
    16  H   -0.358105   0.151860   0.018429  -0.070037   0.042483   0.040414
    17  H    0.311413   0.284532  -0.039668   0.011390  -0.002779  -0.023413
    18  H   -0.008735  -0.131870   0.030696  -0.001768   0.001126   0.003235
    19  H   -0.185601   1.327551  -0.023519  -0.074163   0.066872  -0.002917
    20  H   -0.795968  -0.554164  -0.306403   0.248453  -0.330098  -0.095007
    21  H    0.141108  -0.069198   0.187852   0.177506  -0.554564  -0.146155
    22  H    0.018713  -0.153658   0.648632  -1.250713   0.473579  -0.081183
    23  H    0.062958   1.347131  -2.533002   0.693034  -0.235915  -0.035119
    24  C    0.000160   0.496983  -0.256780   0.151044  -0.081700  -0.012221
    25  H   -0.214469  -0.248890  -0.127507  -0.040363   0.044929  -0.004847
    26  H   -0.014045   0.053786  -0.004482   0.001426  -0.002959  -0.005045
    27  H    0.017408  -0.002497   0.002797   0.000982  -0.000264   0.000379
    28  O   -0.031651  -0.040415   0.015219  -0.012966   0.041142  -0.035006
    29  H   -0.196443   0.012828   0.040818  -0.120013   0.167417   0.153928
    30  H    0.010008   0.006460  -0.005306   0.007643  -0.009045  -0.005985
    31  H   -0.004421  -0.039440  -0.020021   0.018704  -0.006296  -0.001882
    32  H    0.164342   0.093703  -0.020199   0.011397  -0.018350  -0.005442
    33  H   -0.032029   0.112687   0.043725  -0.016041   0.003694  -0.000654
    34  O   -0.008099   0.000963  -0.000088   0.000117   0.004661   0.002981
    35  H    0.001177   0.001106  -0.000240  -0.000185  -0.000903   0.000499
    36  H    0.006454  -0.001420  -0.001766   0.006084  -0.004778  -0.005778
    37  O    0.001031   0.003021   0.002742  -0.000937  -0.001501  -0.002119
    38  H   -0.001860   0.000292  -0.000082   0.000102  -0.000348   0.000550
    39  H    0.002052  -0.003332   0.001324  -0.001884   0.003302   0.000705
               7          8          9         10         11         12
     1  C   -1.574415  -0.927422   0.152453  -0.222669  -0.490734  -0.058259
     2  C   -9.174050   0.826136   0.283054  -0.103049   1.099310  -0.100341
     3  C   -1.116005  -0.127388  -0.022376  -0.003034  -0.518931  -0.019249
     4  C    0.209008  -0.054649  -0.020356   0.015911  -0.007795  -0.000962
     5  C   -0.608216  -0.094366   0.002550  -0.038909   0.090058  -0.009099
     6  N    0.648399  -0.016351   0.005939   0.036517  -0.030072   0.004425
     7  C   25.202426  -2.448165   0.341152  -0.652278  -2.606147   0.244549
     8  C   -2.448165   8.955193  -1.152082   0.731619  -0.864649  -0.034500
     9  C    0.341152  -1.152082   6.325305  -0.204050  -0.358421   0.067081
    10  C   -0.652278   0.731619  -0.204050   5.578580   0.036170  -0.039907
    11  N   -2.606147  -0.864649  -0.358421   0.036170  12.150888  -0.273997
    12  O    0.244549  -0.034500   0.067081  -0.039907  -0.273997   8.168761
    13  H    0.049835   0.048543  -0.009859  -0.267380   0.044516  -0.029318
    14  H   -0.294646   0.297017  -0.214320   0.211715   0.066495  -0.001260
    15  H    0.359547   0.176164  -0.379692   0.047500  -0.003536   0.002643
    16  H   -0.475180   0.116236   0.200983   0.051506   0.067664   0.015504
    17  H    0.222089  -1.127012   0.209400  -0.180313   0.198099  -0.003918
    18  H    0.410301   0.032961   0.113858  -0.212125  -0.904989   0.062993
    19  H   -3.475066   0.836825  -0.150279   0.089430  -0.277374   0.007747
    20  H    0.388775  -0.084115   0.113807  -0.023097  -0.176926   0.053262
    21  H   -0.047319   0.003054   0.000458  -0.000926   0.003636  -0.000508
    22  H    0.043203   0.004912   0.000110  -0.000559  -0.001146   0.000015
    23  H   -0.081509  -0.089826   0.005671  -0.004843   0.004078  -0.001562
    24  C   -0.578867  -0.090313  -0.004424   0.020501   0.713566  -0.051131
    25  H    0.160236  -0.015186  -0.038743  -0.269825   0.545630  -0.066521
    26  H   -0.078789   0.050984  -0.034062   0.043340   0.036678   0.295634
    27  H    0.003985  -0.010163   0.009231  -0.009793   0.011306   0.357554
    28  O    0.006691  -0.001641  -0.000261  -0.000063  -0.000997   0.000414
    29  H    0.042578  -0.005518  -0.003561  -0.003106  -0.007115  -0.001236
    30  H   -0.004077   0.000197   0.000164   0.000151   0.001246  -0.000181
    31  H    0.079553  -0.093030   0.072534   0.020569  -0.185416   0.055269
    32  H   -0.077728   0.104243  -0.039275  -0.090827  -0.051123  -0.001354
    33  H   -0.158231   0.089040  -0.020743   0.163476  -0.439883  -0.021344
    34  O    0.000337  -0.000311   0.000172   0.000026   0.000058   0.000510
    35  H   -0.000193  -0.000039   0.000000   0.000024   0.000054   0.000168
    36  H   -0.000905   0.000905   0.000245   0.000202  -0.000405   0.001089
    37  O    0.007473  -0.002611   0.002245  -0.002200  -0.010408  -0.092327
    38  H    0.001328  -0.000421   0.000533  -0.000934  -0.000847   0.004425
    39  H    0.001214  -0.000596  -0.000482   0.000031   0.001811   0.008780
              13         14         15         16         17         18
     1  C    0.010841   0.000785  -0.004391  -0.358105   0.311413  -0.008735
     2  C    0.162259  -0.010836  -0.136727   0.151860   0.284532  -0.131870
     3  C    0.003243  -0.004764   0.011149   0.018429  -0.039668   0.030696
     4  C    0.003123  -0.004768   0.003234  -0.070037   0.011390  -0.001768
     5  C   -0.003653   0.002796  -0.004754   0.042483  -0.002779   0.001126
     6  N   -0.001571  -0.000189   0.000192   0.040414  -0.023413   0.003235
     7  C    0.049835  -0.294646   0.359547  -0.475180   0.222089   0.410301
     8  C    0.048543   0.297017   0.176164   0.116236  -1.127012   0.032961
     9  C   -0.009859  -0.214320  -0.379692   0.200983   0.209400   0.113858
    10  C   -0.267380   0.211715   0.047500   0.051506  -0.180313  -0.212125
    11  N    0.044516   0.066495  -0.003536   0.067664   0.198099  -0.904989
    12  O   -0.029318  -0.001260   0.002643   0.015504  -0.003918   0.062993
    13  H    2.407768  -0.320671   0.188983  -0.074024   0.069450  -0.645621
    14  H   -0.320671   1.985157  -0.571947   0.218300  -0.295205   0.140199
    15  H    0.188983  -0.571947   2.099842  -0.404108   0.160953  -0.291364
    16  H   -0.074024   0.218300  -0.404108   2.382896  -0.662264   0.069778
    17  H    0.069450  -0.295205   0.160953  -0.662264   2.541760  -0.042740
    18  H   -0.645621   0.140199  -0.291364   0.069778  -0.042740   2.765013
    19  H   -0.142436   0.054731  -0.047667   0.215295  -0.279221   0.100544
    20  H    0.011469  -0.024462   0.031398  -0.254387   0.100499  -0.027478
    21  H    0.000021   0.000049   0.000014  -0.005658   0.001617   0.000022
    22  H   -0.000353  -0.000017  -0.000022   0.003407  -0.002705  -0.000029
    23  H    0.002049   0.001122   0.000106  -0.014051   0.013442  -0.002405
    24  C    0.027243  -0.008637   0.003365  -0.052286   0.054097  -0.134080
    25  H   -0.091609   0.000668   0.018489   0.078799  -0.022687   0.143203
    26  H    0.001112   0.000976  -0.001318   0.018340  -0.002050  -0.006117
    27  H    0.002166  -0.001421   0.000989  -0.009198   0.001410  -0.005657
    28  O    0.000014  -0.000037  -0.000004   0.001107   0.000065  -0.000059
    29  H   -0.000461   0.000370  -0.001466   0.008731  -0.002846   0.001160
    30  H    0.000029  -0.000016   0.000117  -0.000352   0.000172  -0.000067
    31  H   -0.012162  -0.002040   0.008909  -0.012237   0.000915  -0.009039
    32  H    0.006698  -0.001352  -0.003196   0.001345   0.002760   0.004131
    33  H    0.038667   0.004072  -0.006300   0.007057   0.006102   0.027550
    34  O    0.000004   0.000009   0.000067  -0.000502  -0.000010  -0.000048
    35  H    0.000003   0.000001  -0.000003   0.000088   0.000000  -0.000001
    36  H    0.000011  -0.000011   0.000061  -0.000570   0.000075   0.000014
    37  O   -0.000301   0.000213   0.000029   0.004575  -0.000301  -0.000398
    38  H    0.000001  -0.000031   0.000304  -0.000849   0.000032  -0.000115
    39  H   -0.000129   0.000081  -0.000326   0.001444  -0.000215   0.000311
              19         20         21         22         23         24
     1  C   -0.185601  -0.795968   0.141108   0.018713   0.062958   0.000160
     2  C    1.327551  -0.554164  -0.069198  -0.153658   1.347131   0.496983
     3  C   -0.023519  -0.306403   0.187852   0.648632  -2.533002  -0.256780
     4  C   -0.074163   0.248453   0.177506  -1.250713   0.693034   0.151044
     5  C    0.066872  -0.330098  -0.554564   0.473579  -0.235915  -0.081700
     6  N   -0.002917  -0.095007  -0.146155  -0.081183  -0.035119  -0.012221
     7  C   -3.475066   0.388775  -0.047319   0.043203  -0.081509  -0.578867
     8  C    0.836825  -0.084115   0.003054   0.004912  -0.089826  -0.090313
     9  C   -0.150279   0.113807   0.000458   0.000110   0.005671  -0.004424
    10  C    0.089430  -0.023097  -0.000926  -0.000559  -0.004843   0.020501
    11  N   -0.277374  -0.176926   0.003636  -0.001146   0.004078   0.713566
    12  O    0.007747   0.053262  -0.000508   0.000015  -0.001562  -0.051131
    13  H   -0.142436   0.011469   0.000021  -0.000353   0.002049   0.027243
    14  H    0.054731  -0.024462   0.000049  -0.000017   0.001122  -0.008637
    15  H   -0.047667   0.031398   0.000014  -0.000022   0.000106   0.003365
    16  H    0.215295  -0.254387  -0.005658   0.003407  -0.014051  -0.052286
    17  H   -0.279221   0.100499   0.001617  -0.002705   0.013442   0.054097
    18  H    0.100544  -0.027478   0.000022  -0.000029  -0.002405  -0.134080
    19  H    4.059281  -0.037246   0.000608   0.002036  -0.160804  -0.079410
    20  H   -0.037246   4.067741   0.059554  -0.019579  -0.009231   0.035816
    21  H    0.000608   0.059554   2.033556  -0.120731  -0.007058   0.002452
    22  H    0.002036  -0.019579  -0.120731   2.176058  -0.143233  -0.009979
    23  H   -0.160804  -0.009231  -0.007058  -0.143233   3.008569   0.056918
    24  C   -0.079410   0.035816   0.002452  -0.009979   0.056918   4.516181
    25  H    0.013416  -0.093099  -0.007052   0.006393   0.006642  -0.295941
    26  H   -0.001316  -0.057092  -0.001011   0.000190  -0.000321   0.016505
    27  H   -0.000448   0.022073   0.000367  -0.000062   0.000077  -0.000822
    28  O    0.000181   0.018039   0.006783  -0.000143   0.000247  -0.000432
    29  H    0.000660  -0.109704  -0.077438   0.009727  -0.001375  -0.007403
    30  H   -0.000211   0.005606   0.007550  -0.000544   0.000103   0.000395
    31  H    0.001030   0.017123   0.000428  -0.001156   0.003447   0.128069
    32  H    0.022751   0.003451  -0.002916  -0.001900  -0.002380   0.084206
    33  H    0.064991  -0.009183   0.000492   0.000309   0.003831   0.285817
    34  O   -0.000006   0.006379   0.000339   0.000007  -0.000007   0.000038
    35  H   -0.000017  -0.003455  -0.000409   0.000008   0.000001   0.000062
    36  H    0.000045   0.010518   0.002615  -0.000097  -0.000067   0.000398
    37  O    0.000355  -0.013536  -0.000039  -0.000018   0.000049  -0.004786
    38  H    0.000042   0.002831  -0.000031   0.000000  -0.000008  -0.000164
    39  H    0.000030  -0.006661  -0.000007   0.000008   0.000010  -0.000624
              25         26         27         28         29         30
     1  C   -0.214469  -0.014045   0.017408  -0.031651  -0.196443   0.010008
     2  C   -0.248890   0.053786  -0.002497  -0.040415   0.012828   0.006460
     3  C   -0.127507  -0.004482   0.002797   0.015219   0.040818  -0.005306
     4  C   -0.040363   0.001426   0.000982  -0.012966  -0.120013   0.007643
     5  C    0.044929  -0.002959  -0.000264   0.041142   0.167417  -0.009045
     6  N   -0.004847  -0.005045   0.000379  -0.035006   0.153928  -0.005985
     7  C    0.160236  -0.078789   0.003985   0.006691   0.042578  -0.004077
     8  C   -0.015186   0.050984  -0.010163  -0.001641  -0.005518   0.000197
     9  C   -0.038743  -0.034062   0.009231  -0.000261  -0.003561   0.000164
    10  C   -0.269825   0.043340  -0.009793  -0.000063  -0.003106   0.000151
    11  N    0.545630   0.036678   0.011306  -0.000997  -0.007115   0.001246
    12  O   -0.066521   0.295634   0.357554   0.000414  -0.001236  -0.000181
    13  H   -0.091609   0.001112   0.002166   0.000014  -0.000461   0.000029
    14  H    0.000668   0.000976  -0.001421  -0.000037   0.000370  -0.000016
    15  H    0.018489  -0.001318   0.000989  -0.000004  -0.001466   0.000117
    16  H    0.078799   0.018340  -0.009198   0.001107   0.008731  -0.000352
    17  H   -0.022687  -0.002050   0.001410   0.000065  -0.002846   0.000172
    18  H    0.143203  -0.006117  -0.005657  -0.000059   0.001160  -0.000067
    19  H    0.013416  -0.001316  -0.000448   0.000181   0.000660  -0.000211
    20  H   -0.093099  -0.057092   0.022073   0.018039  -0.109704   0.005606
    21  H   -0.007052  -0.001011   0.000367   0.006783  -0.077438   0.007550
    22  H    0.006393   0.000190  -0.000062  -0.000143   0.009727  -0.000544
    23  H    0.006642  -0.000321   0.000077   0.000247  -0.001375   0.000103
    24  C   -0.295941   0.016505  -0.000822  -0.000432  -0.007403   0.000395
    25  H    1.463940  -0.030895  -0.044527   0.000846   0.016256  -0.000687
    26  H   -0.030895   0.549644  -0.105264  -0.003308   0.005535  -0.000209
    27  H   -0.044527  -0.105264   0.567669   0.000651  -0.002896   0.000103
    28  O    0.000846  -0.003308   0.000651   7.909349   0.206217   0.365194
    29  H    0.016256   0.005535  -0.002896   0.206217   0.684877  -0.118438
    30  H   -0.000687  -0.000209   0.000103   0.365194  -0.118438   0.581880
    31  H    0.093947  -0.008106   0.000217  -0.000072  -0.000888   0.000054
    32  H   -0.045419  -0.005851   0.007601   0.000052   0.001222  -0.000138
    33  H   -0.191072   0.009632  -0.001883  -0.000026  -0.000340   0.000017
    34  O   -0.001193  -0.010528   0.003230  -0.044135  -0.004957   0.003435
    35  H   -0.000012   0.002492  -0.000694  -0.010146   0.003363   0.000089
    36  H   -0.002304  -0.003492   0.000984   0.027964  -0.026958  -0.000023
    37  O    0.026840  -0.022773   0.012479  -0.012690   0.005131   0.000454
    38  H    0.001729  -0.014641   0.001738   0.000023   0.000314  -0.000210
    39  H    0.000722   0.002872  -0.002936   0.000810  -0.002798   0.001328
              31         32         33         34         35         36
     1  C   -0.004421   0.164342  -0.032029  -0.008099   0.001177   0.006454
     2  C   -0.039440   0.093703   0.112687   0.000963   0.001106  -0.001420
     3  C   -0.020021  -0.020199   0.043725  -0.000088  -0.000240  -0.001766
     4  C    0.018704   0.011397  -0.016041   0.000117  -0.000185   0.006084
     5  C   -0.006296  -0.018350   0.003694   0.004661  -0.000903  -0.004778
     6  N   -0.001882  -0.005442  -0.000654   0.002981   0.000499  -0.005778
     7  C    0.079553  -0.077728  -0.158231   0.000337  -0.000193  -0.000905
     8  C   -0.093030   0.104243   0.089040  -0.000311  -0.000039   0.000905
     9  C    0.072534  -0.039275  -0.020743   0.000172   0.000000   0.000245
    10  C    0.020569  -0.090827   0.163476   0.000026   0.000024   0.000202
    11  N   -0.185416  -0.051123  -0.439883   0.000058   0.000054  -0.000405
    12  O    0.055269  -0.001354  -0.021344   0.000510   0.000168   0.001089
    13  H   -0.012162   0.006698   0.038667   0.000004   0.000003   0.000011
    14  H   -0.002040  -0.001352   0.004072   0.000009   0.000001  -0.000011
    15  H    0.008909  -0.003196  -0.006300   0.000067  -0.000003   0.000061
    16  H   -0.012237   0.001345   0.007057  -0.000502   0.000088  -0.000570
    17  H    0.000915   0.002760   0.006102  -0.000010   0.000000   0.000075
    18  H   -0.009039   0.004131   0.027550  -0.000048  -0.000001   0.000014
    19  H    0.001030   0.022751   0.064991  -0.000006  -0.000017   0.000045
    20  H    0.017123   0.003451  -0.009183   0.006379  -0.003455   0.010518
    21  H    0.000428  -0.002916   0.000492   0.000339  -0.000409   0.002615
    22  H   -0.001156  -0.001900   0.000309   0.000007   0.000008  -0.000097
    23  H    0.003447  -0.002380   0.003831  -0.000007   0.000001  -0.000067
    24  C    0.128069   0.084206   0.285817   0.000038   0.000062   0.000398
    25  H    0.093947  -0.045419  -0.191072  -0.001193  -0.000012  -0.002304
    26  H   -0.008106  -0.005851   0.009632  -0.010528   0.002492  -0.003492
    27  H    0.000217   0.007601  -0.001883   0.003230  -0.000694   0.000984
    28  O   -0.000072   0.000052  -0.000026  -0.044135  -0.010146   0.027964
    29  H   -0.000888   0.001222  -0.000340  -0.004957   0.003363  -0.026958
    30  H    0.000054  -0.000138   0.000017   0.003435   0.000089  -0.000023
    31  H    1.984730  -0.594680  -0.375259  -0.000084   0.000020   0.000020
    32  H   -0.594680   1.914305  -0.384563  -0.000102   0.000011   0.000072
    33  H   -0.375259  -0.384563   1.963937   0.000009   0.000002   0.000025
    34  O   -0.000084  -0.000102   0.000009   7.791330   0.339886   0.315625
    35  H    0.000020   0.000011   0.000002   0.339886   0.580651  -0.110795
    36  H    0.000020   0.000072   0.000025   0.315625  -0.110795   0.592179
    37  O   -0.000466  -0.000632  -0.000249  -0.038508   0.005565  -0.004385
    38  H    0.000048   0.000118  -0.000083   0.002959  -0.001269   0.001061
    39  H   -0.000063  -0.000414  -0.000009   0.018063   0.012864  -0.015420
              37         38         39
     1  C    0.001031  -0.001860   0.002052
     2  C    0.003021   0.000292  -0.003332
     3  C    0.002742  -0.000082   0.001324
     4  C   -0.000937   0.000102  -0.001884
     5  C   -0.001501  -0.000348   0.003302
     6  N   -0.002119   0.000550   0.000705
     7  C    0.007473   0.001328   0.001214
     8  C   -0.002611  -0.000421  -0.000596
     9  C    0.002245   0.000533  -0.000482
    10  C   -0.002200  -0.000934   0.000031
    11  N   -0.010408  -0.000847   0.001811
    12  O   -0.092327   0.004425   0.008780
    13  H   -0.000301   0.000001  -0.000129
    14  H    0.000213  -0.000031   0.000081
    15  H    0.000029   0.000304  -0.000326
    16  H    0.004575  -0.000849   0.001444
    17  H   -0.000301   0.000032  -0.000215
    18  H   -0.000398  -0.000115   0.000311
    19  H    0.000355   0.000042   0.000030
    20  H   -0.013536   0.002831  -0.006661
    21  H   -0.000039  -0.000031  -0.000007
    22  H   -0.000018   0.000000   0.000008
    23  H    0.000049  -0.000008   0.000010
    24  C   -0.004786  -0.000164  -0.000624
    25  H    0.026840   0.001729   0.000722
    26  H   -0.022773  -0.014641   0.002872
    27  H    0.012479   0.001738  -0.002936
    28  O   -0.012690   0.000023   0.000810
    29  H    0.005131   0.000314  -0.002798
    30  H    0.000454  -0.000210   0.001328
    31  H   -0.000466   0.000048  -0.000063
    32  H   -0.000632   0.000118  -0.000414
    33  H   -0.000249  -0.000083  -0.000009
    34  O   -0.038508   0.002959   0.018063
    35  H    0.005565  -0.001269   0.012864
    36  H   -0.004385   0.001061  -0.015420
    37  O    7.908217   0.355517   0.297338
    38  H    0.355517   0.570480  -0.098213
    39  H    0.297338  -0.098213   0.542821
 Mulliken charges:
               1
     1  C    0.942513
     2  C    0.773992
     3  C    1.339153
     4  C    0.488607
     5  C    0.170538
     6  N   -0.418397
     7  C    1.029105
     8  C    0.966329
     9  C    0.746044
    10  C    1.282618
    11  N   -0.860352
    12  O   -0.543847
    13  H   -0.478501
    14  H   -0.228128
    15  H   -0.257238
    16  H   -0.322431
    17  H   -0.502927
    18  H   -0.482390
    19  H   -0.926717
    20  H   -1.165902
    21  H   -0.589060
    22  H   -0.599478
    23  H   -0.886767
    24  C    1.076186
    25  H    0.230161
    26  H    0.324526
    27  H    0.173130
    28  O   -0.406959
    29  H    0.333829
    30  H    0.153092
    31  H   -0.118828
    32  H   -0.074566
    33  H   -0.167238
    34  O   -0.382626
    35  H    0.180228
    36  H    0.212527
    37  O   -0.422090
    38  H    0.175678
    39  H    0.236185
 Sum of Mulliken charges =   1.00000
 Mulliken charges with hydrogens summed into heavy atoms:
               1
     1  C   -0.223388
     2  C    0.773992
     3  C    0.452385
     4  C   -0.110870
     5  C   -0.418522
     6  N   -0.418397
     7  C    0.102388
     8  C    0.140971
     9  C    0.260679
    10  C    0.321728
    11  N   -0.630191
    12  O   -0.046190
    24  C    0.715553
    28  O    0.079962
    34  O    0.010129
    37  O   -0.010228
 Electronic spatial extent (au):  <R**2>=           5119.0140
 Charge=              1.0000 electrons
 Dipole moment (field-independent basis, Debye):
    X=              6.1000    Y=              0.0747    Z=              1.1624  Tot=              6.2102
 Quadrupole moment (field-independent basis, Debye-Ang):
   XX=            -56.8177   YY=            -63.4588   ZZ=            -85.8067
   XY=             -7.9217   XZ=              5.2304   YZ=              0.4610
 Traceless Quadrupole moment (field-independent basis, Debye-Ang):
[...]
 962,-0.00001216,-0.00000705,0.00012346,0.00008505,-0.00000178,0.000011
 65,-0.00003200,-0.00000300,-0.00000476,-0.00000762,0.00000308,-0.00000
 698,-0.00000287,-0.00003819,-0.00000906,-0.00002469,0.00001213,0.00009
 757,0.00009199,0.00009419,0.00031627,0.00024615,-0.00000110,0.00000609
 ,0.00001013,0.00000097,0.00000969,0.00000869,-0.00001783,0.00000107,-0
 .00001221,0.00001264,0.00000444,-0.00002021,-0.00000240,0.00000805,0.0
 0000873,-0.00000761,-0.00001732,-0.00000189,-0.00000380,0.00000748,0.0
 0000711,-0.00000507,0.00005180,-0.00001630,0.00000325,-0.00000619,-0.0
 0000842,-0.00000003,0.00000845,0.00000180,0.00000389,0.00000498,-0.000
 00275,0.00001140,-0.00002191,0.00001708,0.00004275,-0.00022332,-0.0001
 9975,-0.00011079,-0.00012723,-0.00026735,-0.00008074,-0.00027763,0.000
 03834,-0.00071889,0.00041480,0.00013658,-0.00011937,-0.00024160,-0.000
 05913,0.00004550,0.00024717,0.00021425,-0.00000367,-0.00001383,-0.0000
 0297,0.00000618,-0.00000902,-0.00000525,-0.00000015,0.00000538,0.00000
 798,0.04966763,-0.22860499,-0.26272922,-0.04687288,0.23539007,0.000017
 57,0.00000849,-0.00001395,-0.00003914,0.00002819,0.00002274,0.00000697
 ,0.00001834,0.00000494,-0.00000576,0.00002223,0.00000785,0.00005380,-0
 .00001218,0.00000400,-0.00001293,0.00013954,0.00001662,-0.00003563,-0.
 00002804,0.00003806,-0.00000228,-0.00000305,-0.00000598,0.00000037,-0.
 00000185,0.00000172,0.00000144,-0.00000241,0.00000842,0.00001236,-0.00
 001502,-0.00004586,0.00003684,0.00003427,-0.00025798,-0.00000230,0.000
 00130,-0.00000269,0.00000186,0.00000064,0.00000014,-0.00000387,-0.0000
 1007,0.00000744,0.00000954,-0.00000154,-0.00000707,-0.00000064,0.00000
 160,-0.00000339,0.00000297,0.00000512,-0.00000273,0.00000440,0.0000102
 6,-0.00000362,0.00000179,-0.00007087,-0.00008427,-0.00000715,-0.000013
 78,0.00000331,-0.00000082,0.00000307,0.00000647,-0.00000233,0.00000408
 ,0.00000545,0.00000594,-0.00001660,0.00000196,-0.00002443,0.00005993,0
 .00007700,-0.00004263,-0.00020763,0.00026245,-0.00001519,0.00011678,0.
 00010128,-0.00104787,0.00056832,0.00009375,0.00003262,-0.00029350,-0.0
 0011950,0.00007977,-0.00012544,0.00002043,0.00000699,0.00000804,0.0000
 0171,-0.00000454,0.00000009,0.00001242,-0.00000269,-0.00000231,-0.0000
 0188,0.05611167,-0.27039304,-0.31371043,-0.05101461,0.27176539,0.31774
 330,0.00203128,-0.00034661,-0.00018579,-0.00059047,-0.00001857,-0.0001
 0729,0.00020625,-0.00014849,-0.00002901,-0.00021270,-0.00047280,-0.000
 24386,-0.00099921,0.00063592,0.00029592,-0.00101765,-0.00348766,-0.001
 04826,0.00066086,0.00014447,-0.00021575,-0.00011549,-0.00018138,0.0001
 0443,0.00004053,-0.00005444,-0.00010985,0.00012157,-0.00003959,0.00013
 111,-0.00036873,0.00024378,0.00027784,-0.00055874,0.00177949,-0.000165
 26,-0.00002534,0.00004942,0.00000607,-0.00004316,0.00003491,0.00002576
 ,-0.00017207,-0.00005527,0.00002572,0.00019336,-0.00019955,-0.00018733
 ,0.00001875,0.00004474,0.00003848,-0.00006415,-0.00006772,-0.00001945,
 -0.00011710,-0.00001348,0.00000063,0.00013133,-0.00025730,-0.00010493,
 -0.00007232,0.00026258,0.00012236,-0.00001614,-0.00009914,-0.00005510,
 -0.00003568,-0.00004018,-0.00002415,0.00009043,-0.00005788,0.00009160,
 0.00031428,-0.00077647,-0.00066310,0.00022847,-0.00205378,0.00093294,0
 .00013018,-0.00035067,0.00014930,0.00256051,-0.00756279,-0.00309122,0.
 00417818,0.00957767,0.00253897,-0.00019149,-0.00359800,0.00062185,-0.0
 0003102,-0.00002746,0.00000424,0.00000359,0.00003112,-0.00008656,0.000
 00842,0.00003757,-0.00000765,-0.41166663,0.08658518,0.03108488,0.00183
 645,-0.00261037,-0.00371284,0.40789681,0.00005884,-0.00034509,-0.00017
 693,-0.00022756,0.00009116,0.00010053,0.00000608,0.00012786,0.00003748
 ,-0.00000260,0.00020825,0.00008737,0.00048020,-0.00009289,-0.00005068,
 -0.00027295,0.00072345,0.00033871,-0.00032245,-0.00012483,0.00005036,0
 .00005879,0.00004622,-0.00007348,-0.00001569,0.00002724,0.00005212,-0.
 00009768,0.00000965,-0.00008842,0.00018298,-0.00001686,-0.00004153,0.0
 0066282,-0.00051935,0.00021630,0.00001347,-0.00001617,0.00000916,0.000
 02828,-0.00000628,-0.00000688,0.00006743,0.00003447,-0.00002414,-0.000
 13486,0.00008613,0.00005204,-0.00000507,-0.00000271,-0.00000706,0.0000
 2201,0.00001494,0.00000501,0.00005056,0.00002171,0.00000674,-0.0005107
 4,-0.00034922,-0.00019715,-0.00002163,-0.00005029,-0.00002358,0.000006
 90,0.00004832,0.00002174,-0.00001531,0.00004335,0.00001999,-0.00002238
 ,-0.00001060,-0.00001697,-0.00013241,0.00009667,0.00010986,-0.00057663
 ,0.00095865,-0.00063931,-0.00025857,-0.00004314,0.00010471,-0.00484026
 ,-0.01223975,0.00125996,0.00463037,-0.00253550,-0.00038356,-0.00458035
 ,0.00364526,-0.00045247,0.00001230,0.00000147,-0.00000376,0.00000797,-
 0.00002671,0.00003787,-0.00000439,-0.00001003,0.00001121,0.05398667,-0
 .04824981,-0.02827268,0.02821627,-0.00580541,-0.00158238,-0.07555843,0
 .06190174,-0.00007493,-0.00008846,-0.00007292,-0.00004005,0.00001430,0
 .00001158,-0.00001721,0.00004257,0.00002776,0.00001388,0.00007364,0.00
 006148,0.00020805,-0.00005386,-0.00002621,-0.00005927,0.00043954,-0.00
 008309,-0.00015876,-0.00008038,0.00009725,0.00002416,0.00000441,-0.000
 04919,-0.00002340,0.00003020,0.00003165,-0.00000084,0.00000562,-0.0000
 1986,0.00007798,-0.00007490,-0.00012543,-0.00000964,-0.00046472,-0.000
 10948,0.00000196,-0.00001002,-0.00000439,0.00001521,-0.00000749,-0.000
 01249,0.00004604,0.00001141,0.00000068,-0.00007993,0.00002311,0.000079
 22,-0.00001022,-0.00002694,-0.00002368,0.00001929,0.00002626,0.0000013
 6,0.00002188,0.00001092,-0.00001050,-0.00021893,-0.00019669,0.00017548
 ,0.00001067,-0.00002798,-0.00000344,0.00000487,0.00001387,0.00001830,-
 0.00000468,0.00001385,0.00001336,-0.00000225,-0.00000032,-0.00001992,-
 0.00008909,0.00027361,0.00026564,0.00001051,0.00035163,-0.00010830,0.0
 0012043,0.00015945,-0.00002869,-0.00627149,0.00309958,-0.00687075,0.00
 202469,-0.00186093,-0.00036965,0.00295727,-0.00078405,-0.00068194,0.00
 001363,0.00001658,-0.00000181,-0.00000723,-0.00000387,0.00003383,-0.00
 000545,-0.00001273,-0.00000310,-0.00865615,-0.02290490,-0.03712557,0.0
 3416368,-0.00769552,-0.00319048,-0.02444142,0.02771705,0.04743301,0.00
 099558,-0.00080738,-0.00060000,-0.00073631,0.00027438,0.00026908,0.000
 21000,0.00025143,0.00010573,-0.00008689,0.00013510,0.00004127,0.000251
 49,-0.00005621,0.00000121,-0.00063975,0.00070204,0.00027511,-0.0006833
 1,-0.00028179,-0.00006574,0.00001028,-0.00034470,0.00022502,-0.0004484
 3,0.00061059,0.00035411,-0.00037633,0.00004600,-0.00050123,0.00037310,
 0.00001115,0.00015306,0.00657486,0.00610529,-0.00292582,0.00014359,-0.
 00015785,0.00010032,0.00024187,-0.00023053,-0.00016861,0.00079321,0.00
 040273,-0.00014156,-0.00130852,0.00023206,0.00030295,0.00009050,0.0000
 3719,-0.00005657,0.00004555,0.00013203,0.00001540,0.00009344,0.0000105
 0,0.00004400,-0.00014019,-0.00024176,0.00005721,-0.00003610,-0.0000031
 7,0.00000611,0.00001591,0.00003551,0.00001569,-0.00008700,0.00008536,0
 .00005680,0.00001012,0.00010555,-0.00007036,-0.00028814,-0.00021116,-0
 .00021324,-0.01509437,-0.00302599,-0.00027227,-0.00005780,-0.00036966,
 0.00025365,-0.00193505,0.00093577,0.00021630,0.00021347,-0.00085228,-0
 .00020910,0.00015286,0.00013573,-0.00001054,0.00000067,-0.00001227,-0.
 00001817,0.00004635,-0.00007091,0.00007329,-0.00002031,-0.00000306,0.0
 0002394,-0.01151577,-0.01719832,-0.00971771,-0.00435638,-0.00126968,0.
 00112087,0.00301955,-0.00252588,-0.00117993,0.62533270,-0.00050239,0.0
 0039294,0.00024504,-0.00006106,-0.00025467,-0.00006582,-0.00021915,0.0
 0021552,0.00007169,0.00021880,0.00033263,0.00014537,0.00032256,-0.0003
 4083,-0.00012330,0.00049707,0.00088875,0.00012333,-0.00082492,-0.00043
 649,0.00032757,0.00046654,0.00012690,-0.00101288,-0.00001516,0.0003028
 3,0.00002057,0.00017459,0.00018462,-0.00005556,0.00036598,-0.00113268,
 -0.00116885,0.00708022,-0.01968396,0.01703277,0.00005724,-0.00013821,-
 0.00006764,0.00009187,-0.00026652,-0.00017764,0.00069584,0.00008799,0.
 00010824,-0.00093129,-0.00115936,0.00017836,-0.00005946,-0.00062680,-0
 .00023424,0.00018396,0.00020685,0.00005442,0.00019222,-0.00010031,-0.0
 0000688,0.00001824,-0.00100097,-0.00017400,0.00004359,-0.00006823,-0.0
 0001691,0.00002909,0.00002360,0.00002203,-0.00004306,0.00002433,0.0000
 4242,-0.00030033,0.00038481,-0.00031712,-0.00083679,0.00283405,0.00262
 306,-0.00620846,0.00280254,-0.00501199,-0.00012995,-0.00350766,-0.0001
 1759,-0.00277537,0.00238153,0.00056488,-0.00019552,-0.00204744,-0.0005
 3417,0.00018796,0.00001666,0.00002023,0.00003789,0.00013096,0.00000467
 ,-0.00002341,0.00000114,0.00009156,0.00002563,-0.00009335,-0.00002713,
 -0.02101756,-0.00840395,-0.00766083,-0.00280258,-0.00001839,0.00084061
 ,0.00424767,-0.00572432,-0.00246846,-0.02458572,0.43081730,-0.00034732
 ,0.00020382,0.00037005,-0.00013027,-0.00019567,0.00017225,0.00000696,0
 .00007180,0.00001370,0.00005915,0.00008546,0.00000085,0.00006035,-0.00
 003028,-0.00011526,0.00012084,0.00011423,0.00031937,-0.00029324,0.0000
 7144,-0.00128463,0.00084305,0.00053644,0.00000342,0.00023338,0.0001239
 4,-0.00008109,-0.00059831,0.00011596,-0.00056052,0.00027649,0.00105549
 ,0.00175146,-0.00413177,0.01897566,-0.00503740,0.00013958,-0.00005502,
 0.00017486,-0.00003840,-0.00011799,0.00007477,0.00037615,0.00046939,-0
 .00032214,-0.00117071,0.00002094,-0.00025890,-0.00006059,-0.00033631,-
 0.00000184,-0.00006766,-0.00022041,0.00007621,0.00017234,-0.00031204,0
 .00038003,0.00005056,0.00001182,-0.00087548,0.00000502,-0.00000817,-0.
 00002488,0.00001287,0.00001152,0.00000055,-0.00001981,0.00002424,-0.00
 001030,0.00005640,-0.00001806,0.00018600,0.00060992,-0.00301973,-0.003
 57889,0.00170687,-0.00806281,-0.00604939,0.00063094,0.00044889,0.00101
 892,-0.00071739,0.00053982,0.00051819,-0.00010434,-0.00042256,-0.00036
 013,-0.00005190,0.00003083,-0.00009536,-0.00003635,-0.00019787,0.00002
 434,0.00008725,-0.00006714,-0.00007942,-0.00002416,0.00011108,0.000045
 84,-0.00870463,-0.00559050,0.00249969,0.00003686,0.00046627,0.00045243
 ,0.00147634,-0.00204709,-0.00067971,0.16114314,0.02438449,0.07908096,0
 .00005187,0.00009036,0.00000622,0.00003981,-0.00000051,0.00000731,-0.0
 0003078,-0.00000311,-0.00000049,0.00001608,-0.00000102,-0.00000146,-0.
 00005176,-0.00001079,0.00000091,-0.00000466,-0.00010006,-0.00003817,-0
 .00006335,-0.00005349,-0.00001524,0.00009970,0.00004044,-0.00005214,0.
 00011101,-0.00009751,-0.00013585,0.00010758,0.00003192,0.00012146,-0.0
 0003880,-0.00014063,-0.00014615,0.00017629,-0.00336544,0.00170910,-0.0
 0003112,0.00002437,-0.00003437,-0.00002281,-0.00003203,-0.00001270,0.0
 0014050,-0.00004921,0.00006736,-0.00015397,0.00020073,0.00009786,-0.00
 002860,-0.00002740,-0.00000725,0.00002721,-0.00002079,0.00000975,0.000
 03249,-0.00003394,0.00000516,-0.00020391,0.00011160,0.00000953,0.00000
 224,0.00000484,0.00000195,0.00000127,-0.00000367,-0.00000248,-0.000001
 99,-0.00000627,-0.00000309,-0.00004868,0.00001692,-0.00002023,-0.00004
 743,0.00037482,0.00032427,0.00035626,0.00412218,-0.00262003,0.00004305
 ,0.00000431,-0.00006412,0.00034510,-0.00016530,-0.00001397,-0.00002109
 ,0.00014775,0.00003087,-0.00004186,-0.00002143,-0.00001919,0.00000964,
 0.00001226,0.00001022,-0.00001336,0.00001693,-0.00000469,0.00001000,-0
 .00001089,-0.00000735,0.00128496,-0.00100102,-0.00047155,-0.00025298,-
 0.00033662,0.00003894,-0.00043284,0.00032668,0.00024448,-0.42165431,0.
 17491574,-0.09042784,0.44347436,-0.00018340,0.00019361,0.00001668,0.00
 012430,-0.00000795,-0.00004902,-0.00003600,-0.00006336,-0.00001597,-0.
 00000236,-0.00003344,-0.00000870,0.00000137,0.00001164,0.00001770,0.00
 010679,-0.00010155,-0.00004783,0.00013704,0.00006330,0.00012043,0.0000
 2624,0.00010014,-0.00023479,0.00041081,-0.00028363,-0.00029131,0.00016
 509,0.00004887,0.00028096,-0.00012482,-0.00000356,-0.00012678,-0.00074
 770,-0.00212572,0.00198769,-0.00009580,0.00009715,-0.00007687,-0.00010
 268,0.00015158,0.00009204,-0.00037453,-0.00034025,0.00012282,0.0004064
 1,-0.00020753,0.00010818,-0.00006897,-0.00004167,0.00000518,-0.0000105
 1,-0.00004872,-0.00000782,-0.00002141,0.00002395,-0.00003480,-0.000183
 57,-0.00004204,0.00010235,0.00000611,-0.00000305,-0.00000398,-0.000007
 03,-0.00000289,-0.00000373,0.00002378,-0.00001367,-0.00001287,-0.00001
 542,-0.00007914,0.00001394,0.00004422,0.00027961,0.00021547,0.00405063
 ,0.00141399,-0.00294164,-0.00006906,-0.00032191,0.00014454,0.00006433,
 -0.00010859,-0.00002190,0.00001634,0.00008559,0.00002585,-0.00001251,0
 .00001730,-0.00000686,0.00000675,0.00001398,0.00000801,-0.00002367,0.0
 0002452,-0.00001418,0.00001122,-0.00000955,-0.00000583,-0.00033943,-0.
 00319780,-0.00109255,-0.00070776,-0.00026769,-0.00012844,-0.00011877,0
 .00015235,0.00013782,0.21941991,-0.14883700,0.04609977,-0.19462454,0.1
 3641777,-0.00013342,-0.00000567,0.00006768,0.00016478,-0.00007797,-0.0
 0009510,-0.00004137,-0.00004992,-0.00002630,0.00002451,-0.00002269,-0.
 00000235,0.00000557,0.00000314,-0.00001002,0.00017846,-0.00007701,-0.0
 0005415,0.00016660,0.00012012,0.00018439,-0.00011729,-0.00012717,-0.00
 033855,-0.00002848,-0.00000599,-0.00015288,0.00002694,0.00003187,0.000
 18027,-0.00011418,0.00001307,-0.00015063,0.00089432,0.00215349,-0.0015
 1355,-0.00003232,0.00003593,-0.00004588,-0.00000761,-0.00004965,-0.000
 00715,-0.00012135,-0.00020620,0.00034703,0.00053321,-0.00013365,0.0003
 3394,0.00002093,-0.00015088,-0.00008808,-0.00002772,0.00003778,-0.0000
 2279,-0.00004011,0.00002902,-0.00003655,-0.00028338,0.00022667,0.00001
 348,0.00001130,-0.00000715,0.00000105,-0.00000428,-0.00000692,0.000001
 16,0.00002366,-0.00002070,-0.00000770,0.00000839,-0.00003353,-0.000012
 10,0.00000811,0.00025911,0.00017895,-0.00358478,-0.00172304,0.00122768
 ,-0.00023149,0.00015190,0.00004634,0.00015614,-0.00005195,-0.00006873,
 -0.00002008,0.00003791,0.00002909,0.00001376,-0.00001355,0.00002902,-0
 .00000159,0.00001583,-0.00000262,-0.00001420,0.00001260,-0.00000315,0.
 00000408,-0.00001055,-0.00000523,0.00042611,-0.00077558,-0.00039526,-0
 .00046155,-0.00025359,0.00012182,-0.00025797,0.00012654,0.00000798,-0.
 08233822,0.03301544,-0.02350983,0.09492248,-0.03909269,0.02507253,-0.0
 0004961,0.00008874,0.00009376,0.00026837,0.00002029,-0.00015756,0.0000
 8820,-0.00021796,-0.00007052,-0.00010515,-0.00031688,-0.00013340,-0.00
 046223,0.00024843,0.00011137,-0.00013485,-0.00095115,-0.00029129,0.000
 79029,0.00023028,-0.00004381,-0.00022825,-0.00009072,0.00035432,0.0000
 4351,-0.00023881,-0.00012288,0.00013477,-0.00012115,0.00023649,-0.0004
 0127,0.00039914,0.00028711,-0.00260302,0.00442559,-0.00308158,-0.00007
 864,0.00011264,-0.00000665,-0.00008397,0.00017347,0.00009410,-0.000537
 01,-0.00030398,0.00000321,0.00085669,-0.00036306,-0.00078097,0.0000285
 6,0.00027592,0.00013713,-0.00008882,-0.00010211,-0.00004524,-0.0001614
 3,0.00007552,-0.00004914,0.00066898,0.00090277,0.00030947,-0.00001331,
 0.00006612,0.00002474,-0.00002195,-0.00003984,-0.00002387,0.00005348,-
 0.00005656,-0.00004151,0.00015892,-0.00020179,0.00015943,0.00046278,-0
 .00103356,-0.00073968,0.00342833,-0.00686800,0.00632159,0.00053111,0.0
 0053877,0.00009488,0.00323538,-0.00192695,-0.00051994,-0.00025358,0.00
 206363,0.00058215,-0.00019470,-0.00013538,0.00003577,-0.00001713,-0.00
 002799,0.00000075,-0.00001776,0.00003833,-0.00006569,-0.00000503,0.000
 03870,-0.00000640,-0.00787208,0.00528705,0.00671799,0.00722435,0.00227
 197,-0.00156908,-0.00693987,0.00130722,0.00137217,-0.17915011,-0.12832
 054,-0.06117975,-0.02318513,-0.02715138,-0.00972798,0.20463117,0.00128
 409,-0.00049756,-0.00032850,-0.00043646,0.00032584,0.00011182,0.000264
 86,-0.00006803,-0.00002239,-0.00023459,-0.00025495,-0.00011111,-0.0002
 9081,0.00033667,0.00015269,-0.00071535,-0.00086959,-0.00022952,0.00036
 395,0.00006041,-0.00004896,-0.00012252,-0.00010985,-0.00000730,0.00012
 022,-0.00012165,-0.00015848,0.00000903,-0.00004379,0.00012295,-0.00021
 161,0.00042120,0.00030786,-0.00034748,0.00336336,-0.00074909,-0.000053
 53,0.00008615,0.00000998,-0.00003273,0.00010913,0.00006045,-0.00022225
 ,-0.00014471,0.00005840,0.00029162,-0.00050688,-0.00043455,0.00001214,
 0.00011309,0.00005545,-0.00005832,-0.00008853,-0.00002709,-0.00008589,
 0.00008466,-0.00001152,0.00092081,-0.00049504,-0.00015987,-0.00006686,
 0.00008008,0.00003615,-0.00001805,-0.00001862,-0.00001420,-0.00001331,
 0.00001010,-0.00000443,0.00013906,-0.00020240,0.00013330,0.00028269,-0
 .00099375,-0.00076876,-0.00127648,-0.00707647,0.00183803,0.00022480,-0
 .00017053,0.00069815,0.00350689,-0.00298015,-0.00086060,0.00046319,0.0
 0227481,0.00065506,-0.00018282,-0.00005722,-0.00000553,-0.00000338,-0.
 00002941,-0.00000177,-0.00000549,0.00000688,-0.00002434,-0.00000920,0.
 00003269,0.00000696,0.00655702,-0.00882324,-0.00037222,0.00327743,-0.0
 0097446,-0.00072813,-0.00547770,0.00793005,0.00429680,-0.17741999,-0.2
 4831480,-0.07327165,0.01966381,0.01704535,0.00662562,0.14990321,0.2405
 6116,0.00058175,-0.00014084,-0.00030721,-0.00022729,0.00013298,0.00004
 475,0.00011665,-0.00003281,0.00001419,-0.00009942,-0.00011771,-0.00003
 719,-0.00012613,0.00012317,0.00010621,-0.00030027,-0.00030441,-0.00025
 400,0.00011156,-0.00007969,0.00005347,0.00002418,-0.00024810,-0.000137
 82,0.00016464,-0.00003385,-0.00004359,0.00006928,-0.00005810,0.0000732
 9,-0.00006484,0.00004302,-0.00006037,-0.00206577,0.00183078,-0.0030167
 2,-0.00002546,0.00003428,-0.00001241,-0.00002135,0.00006980,0.00001945
 ,-0.00013510,-0.00001174,-0.00005368,-0.00017177,-0.00020019,-0.000039
 28,-0.00001842,-0.00000730,0.00000921,-0.00001335,-0.00002640,-0.00001
 442,-0.00002984,0.00003848,-0.00002754,0.00042623,-0.00038966,0.000426
 84,-0.00002429,0.00003415,0.00002405,-0.00000572,-0.00000863,-0.000005
 43,-0.00000760,0.00000479,0.00000551,0.00005177,-0.00007690,0.00003437
 ,0.00002072,-0.00002245,0.00009636,0.00460042,-0.00076325,0.00505596,0
 .00005741,0.00100824,-0.00027065,0.00152761,-0.00121335,-0.00069627,0.
 00021283,0.00092199,0.00050787,-0.00000387,-0.00004066,0.00007422,0.00
 000457,0.00001041,0.00000033,-0.00000940,0.00001086,0.00000633,-0.0000
 0304,-0.00000030,-0.00000334,0.00829545,0.00030386,-0.00702274,-0.0015
 8633,-0.00172753,-0.00156588,-0.00317164,0.00372330,0.00136202,-0.0663
 6519,-0.06067571,-0.04423870,-0.00350948,-0.00528086,-0.00129381,0.061
 72051,0.06317034,0.05118662\\-0.00000675,0.00000609,0.00000903,-0.0000
 0144,0.00000299,0.00000574,-0.00000166,0.00000036,-0.00000155,-0.00000
 125,0.00000622,0.00000262,-0.00000214,-0.00001147,-0.00000446,0.000011
 87,0.00000342,-0.00000468,-0.00000212,-0.00001416,0.00000542,-0.000004
 37,0.00000160,-0.00000452,0.00000060,-0.00000317,-0.00000318,0.0000055
 6,-0.00000093,0.00000287,0.00000608,0.00003511,-0.00003039,0.00001736,
 -0.00001542,0.00001199,-0.00000002,-0.00000093,0.00000091,-0.00000007,
 0.00000281,0.00000088,-0.00000010,0.00000170,0.00000211,0.00000569,-0.
 00000101,-0.00000092,0.00000044,-0.00000068,0.00000015,-0.00000022,-0.
 00000116,-0.00000041,0.00000367,-0.00000108,0.00000254,-0.00000098,-0.
 00000027,-0.00000335,-0.00000011,-0.00000118,0.00000200,-0.00000036,0.
 00000061,-0.00000109,0.00000054,0.00000031,0.00000011,0.00001074,-0.00
 001861,0.00000686,-0.00002364,-0.00001598,0.00001451,-0.00000890,0.000
 03364,-0.00001081,-0.00000623,-0.00000037,-0.00001087,-0.00002361,0.00
 000221,0.00000839,0.00000438,0.00000954,-0.00000069,-0.00000327,-0.000
 00966,-0.00000289,-0.00000063,0.00000244,-0.00000058,-0.00000052,0.000
 00260,-0.00000053,-0.00000063,0.00000261,-0.00000080,-0.00003051,-0.00
 000062,-0.00000385,0.00000434,-0.00000133,0.00000135,0.00003262,-0.000
 00912,-0.00000107,-0.00002787,-0.00000720,-0.00001042,0.00002532,-0.00
 001957,0.00001328,0.00001818,0.00001967,0.00000626\\\@


 The mind is not a vessel to be filled but a fire to be kindled.
                                  -- Plutarch
 Job cpu time:       1 days  8 hours 28 minutes 50.3 seconds.
 Elapsed time:       0 days  1 hours  9 minutes 39.1 seconds.
 File lengths (MBytes):  RWF=   1240 Int=      0 D2E=      0 Chk=     32 Scr=      8
 Normal termination of Gaussian 16 at Fri Feb  3 22:36:51 2023.
