 Entering Gaussian System, Link 0=g16
 Input=NicPySs4hYibb.gjf
 Output=NicPySs4hYibb.log
 Initial command:
 /sw/contrib/gaussian/g16/A03/g16/l1.exe "/gscratch/scrubbed/gds001/Gau-11588.inp" -scrdir="/gscratch/scrubbed/gds001/"
 Entering Link 1 = /sw/contrib/gaussian/g16/A03/g16/l1.exe PID=     11589.
  
 Copyright (c) 1988,1990,1992,1993,1995,1998,2003,2009,2016,
            Gaussian, Inc.  All Rights Reserved.
  
 This is part of the Gaussian(R) 16 program.  It is based on
 the Gaussian(R) 09 system (copyright 2009, Gaussian, Inc.),
 the Gaussian(R) 03 system (copyright 2003, Gaussian, Inc.),
 the Gaussian(R) 98 system (copyright 1998, Gaussian, Inc.),
 the Gaussian(R) 94 system (copyright 1995, Gaussian, Inc.),
 the Gaussian 92(TM) system (copyright 1992, Gaussian, Inc.),
 the Gaussian 90(TM) system (copyright 1990, Gaussian, Inc.),
 the Gaussian 88(TM) system (copyright 1988, Gaussian, Inc.),
 the Gaussian 86(TM) system (copyright 1986, Carnegie Mellon
 University), and the Gaussian 82(TM) system (copyright 1983,
 Carnegie Mellon University). Gaussian is a federally registered
 trademark of Gaussian, Inc.
  
 This software contains proprietary and confidential information,
 including trade secrets, belonging to Gaussian, Inc.
  
 This software is provided under written license and may be
 used, copied, transmitted, or stored only in accord with that
 written license.
  
 The following legend is applicable only to US Government
 contracts under FAR:
  
                    RESTRICTED RIGHTS LEGEND
  
 Use, reproduction and disclosure by the US Government is
 subject to restrictions as set forth in subparagraphs (a)
 and (c) of the Commercial Computer Software - Restricted
 Rights clause in FAR 52.227-19.
  
 Gaussian, Inc.
 340 Quinnipiac St., Bldg. 40, Wallingford CT 06492
  
  
 ---------------------------------------------------------------
 Warning -- This program may not be used in any manner that
 competes with the business of Gaussian, Inc. or will provide
 assistance to any competitor of Gaussian, Inc.  The licensee
 of this program is prohibited from giving any competitor of
 Gaussian, Inc. access to this program.  By using this program,
 the user acknowledges that Gaussian, Inc. is engaged in the
 business of creating and licensing software in the field of
 computational chemistry and represents and warrants to the
 licensee that it is not a competitor of Gaussian, Inc. and that
 it will not use this program in any manner prohibited above.
 ---------------------------------------------------------------
  

 Cite this work as:
 Gaussian 16, Revision A.03,
 M. J. Frisch, G. W. Trucks, H. B. Schlegel, G. E. Scuseria, 
 M. A. Robb, J. R. Cheeseman, G. Scalmani, V. Barone, 
 G. A. Petersson, H. Nakatsuji, X. Li, M. Caricato, A. V. Marenich, 
 J. Bloino, B. G. Janesko, R. Gomperts, B. Mennucci, H. P. Hratchian, 
 J. V. Ortiz, A. F. Izmaylov, J. L. Sonnenberg, D. Williams-Young, 
 F. Ding, F. Lipparini, F. Egidi, J. Goings, B. Peng, A. Petrone, 
 T. Henderson, D. Ranasinghe, V. G. Zakrzewski, J. Gao, N. Rega, 
 G. Zheng, W. Liang, M. Hada, M. Ehara, K. Toyota, R. Fukuda, 
 J. Hasegawa, M. Ishida, T. Nakajima, Y. Honda, O. Kitao, H. Nakai, 
 T. Vreven, K. Throssell, J. A. Montgomery, Jr., J. E. Peralta, 
 F. Ogliaro, M. J. Bearpark, J. J. Heyd, E. N. Brothers, K. N. Kudin, 
 V. N. Staroverov, T. A. Keith, R. Kobayashi, J. Normand, 
 K. Raghavachari, A. P. Rendell, J. C. Burant, S. S. Iyengar, 
 J. Tomasi, M. Cossi, J. M. Millam, M. Klene, C. Adamo, R. Cammi, 
 J. W. Ochterski, R. L. Martin, K. Morokuma, O. Farkas, 
 J. B. Foresman, and D. J. Fox, Gaussian, Inc., Wallingford CT, 2016.
 
 ******************************************
 Gaussian 16:  ES64L-G16RevA.03 25-Dec-2016
                27-Jan-2023 
 ******************************************
 %nprocshared=28
 Will use up to   28 processors via shared memory.
 %mem=41GB
 -----------------------------
 # wB97XD/aug-cc-pVDZ opt freq
 -----------------------------
 1/18=20,19=15,26=3,38=1/1,3;
 2/9=110,12=2,17=6,18=5,40=1/2;
 3/5=16,7=10,11=2,25=1,30=1,71=1,74=-58/1,2,3;
 4//1;
 5/5=2,38=5/2;
 6/7=2,8=2,9=2,10=2,28=1/1;
 7//1,2,3,16;
 1/18=20,19=15,26=3/3(2);
 2/9=110/2;
 99//99;
 2/9=110/2;
 3/5=16,7=10,11=2,25=1,30=1,71=1,74=-58/1,2,3;
 4/5=5,16=3,69=1/1;
 5/5=2,38=5/2;
 7//1,2,3,16;
 1/18=20,19=15,26=3/3(-5);
 2/9=110/2;
 6/7=2,8=2,9=2,10=2,19=2,28=1/1;
 99/9=1/99;
 ----
 blah
 ----
 Symbolic Z-matrix:
 Charge =  1 Multiplicity = 1
 C                    -2.71964   1.64009  -0.51979 
 C                    -2.11139   0.21699  -0.60491 
 N                    -3.21163  -0.66524  -0.24976 
 C                    -4.39196  -0.07915  -0.87978 
 C                    -4.24779   1.4163   -0.59843 
 C                    -0.92991   0.02825   0.31607 
 C                     0.37039   0.07594  -0.15898 
 N                     1.41569  -0.05131   0.67515 
 C                     1.26404  -0.23825   1.99267 
 C                    -0.00867  -0.30688   2.535 
 C                    -1.10724  -0.1725    1.69086 
 C                    -2.99162  -2.05564  -0.60136 
 H                    -1.77141   0.02786  -1.64556 
 H                    -2.43826   2.12653   0.42181 
 H                    -2.34024   2.26672  -1.33479 
 H                    -4.72006   1.67051   0.357 
 H                    -4.71837   2.02617  -1.3765 
 H                    -4.39243  -0.27288  -1.97194 
 H                    -5.30447  -0.51845  -0.45986 
 H                    -2.12429  -0.23455   2.07794 
 H                     2.1766   -0.33218   2.57625 
 H                     2.39848  -0.00873   0.27173 
 H                     0.61356   0.2133   -1.21084 
 H                    -2.1187   -2.45264  -0.06625 
 H                    -2.8269   -2.19161  -1.68917 
 H                    -3.86398  -2.6504   -0.30706 
 H                    -0.13148  -0.46472   3.60397 
 O                     3.83198   0.05285  -0.32681 
 H                     4.35094  -0.71101  -0.63711 
 H                     4.3776    0.85487  -0.41702 
 O                     5.25567   2.40147  -0.52324 
 H                     5.41089   2.88176  -1.34086 
 H                     5.95964   2.6678    0.07408 
 O                     5.17391  -2.19866  -1.1707 
 H                     5.86748  -2.64207  -0.67502 
 H                     5.31728  -2.43659  -2.09057 
 O                     5.50398  -2.91475  -3.79337 
 H                     5.71065  -2.34894  -4.55685 
 H                     4.84966  -3.53576  -4.15854 
 
 Add virtual bond connecting atoms O28        and H22        Dist= 2.94D+00.
 Add virtual bond connecting atoms O37        and H36        Dist= 3.36D+00.
 Add virtual bond connecting atoms O31        and H30        Dist= 3.37D+00.
 Add virtual bond connecting atoms O34        and H29        Dist= 3.37D+00.

 GradGradGradGradGradGradGradGradGradGradGradGradGradGradGradGradGradGrad
 Berny optimization.
 Initialization pass.
                           ----------------------------
                           !    Initial Parameters    !
                           ! (Angstroms and Degrees)  !
 --------------------------                            --------------------------
 ! Name  Definition              Value          Derivative Info.                !
 --------------------------------------------------------------------------------
 ! R1    R(1,2)                  1.55           estimate D2E/DX2                !
 ! R2    R(1,5)                  1.5465         estimate D2E/DX2                !
 ! R3    R(1,14)                 1.0965         estimate D2E/DX2                !
 ! R4    R(1,15)                 1.0958         estimate D2E/DX2                !
 ! R5    R(2,3)                  1.4543         estimate D2E/DX2                !
 ! R6    R(2,6)                  1.5099         estimate D2E/DX2                !
 ! R7    R(2,13)                 1.111          estimate D2E/DX2                !
 ! R8    R(3,4)                  1.4607         estimate D2E/DX2                !
 ! R9    R(3,12)                 1.4509         estimate D2E/DX2                !
 ! R10   R(4,5)                  1.5285         estimate D2E/DX2                !
 ! R11   R(4,18)                 1.1092         estimate D2E/DX2                !
 ! R12   R(4,19)                 1.0964         estimate D2E/DX2                !
 ! R13   R(5,16)                 1.0957         estimate D2E/DX2                !
 ! R14   R(5,17)                 1.0949         estimate D2E/DX2                !
 ! R15   R(6,7)                  1.3852         estimate D2E/DX2                !
 ! R16   R(6,11)                 1.4006         estimate D2E/DX2                !
 ! R17   R(7,8)                  1.3434         estimate D2E/DX2                !
 ! R18   R(7,23)                 1.0883         estimate D2E/DX2                !
 ! R19   R(8,9)                  1.3393         estimate D2E/DX2                !
 ! R20   R(8,22)                 1.0632         estimate D2E/DX2                !
 ! R21   R(9,10)                 1.3851         estimate D2E/DX2                !
 ! R22   R(9,21)                 1.0873         estimate D2E/DX2                !
 ! R23   R(10,11)                1.3919         estimate D2E/DX2                !
 ! R24   R(10,27)                1.0875         estimate D2E/DX2                !
 ! R25   R(11,20)                1.09           estimate D2E/DX2                !
 ! R26   R(12,24)                1.0982         estimate D2E/DX2                !
 ! R27   R(12,25)                1.1086         estimate D2E/DX2                !
 ! R28   R(12,26)                1.0961         estimate D2E/DX2                !
 ! R29   R(22,28)                1.5546         estimate D2E/DX2                !
 ! R30   R(28,29)                0.9742         estimate D2E/DX2                !
 ! R31   R(28,30)                0.9742         estimate D2E/DX2                !
 ! R32   R(29,34)                1.7819         estimate D2E/DX2                !
 ! R33   R(30,31)                1.7816         estimate D2E/DX2                !
 ! R34   R(31,32)                0.9609         estimate D2E/DX2                !
 ! R35   R(31,33)                0.9609         estimate D2E/DX2                !
 ! R36   R(34,35)                0.9609         estimate D2E/DX2                !
 ! R37   R(34,36)                0.9609         estimate D2E/DX2                !
 ! R38   R(36,37)                1.7785         estimate D2E/DX2                !
 ! R39   R(37,38)                0.9725         estimate D2E/DX2                !
 ! R40   R(37,39)                0.9732         estimate D2E/DX2                !
 ! A1    A(2,1,5)              104.6029         estimate D2E/DX2                !
 ! A2    A(2,1,14)             110.7174         estimate D2E/DX2                !
 ! A3    A(2,1,15)             110.3844         estimate D2E/DX2                !
 ! A4    A(5,1,14)             111.1879         estimate D2E/DX2                !
 ! A5    A(5,1,15)             112.7715         estimate D2E/DX2                !
 ! A6    A(14,1,15)            107.2253         estimate D2E/DX2                !
 ! A7    A(1,2,3)              104.2812         estimate D2E/DX2                !
 ! A8    A(1,2,6)              112.8514         estimate D2E/DX2                !
 ! A9    A(1,2,13)             109.1367         estimate D2E/DX2                !
 ! A10   A(3,2,6)              111.5434         estimate D2E/DX2                !
 ! A11   A(3,2,13)             110.9158         estimate D2E/DX2                !
 ! A12   A(6,2,13)             108.0962         estimate D2E/DX2                !
 ! A13   A(2,3,4)              105.2244         estimate D2E/DX2                !
 ! A14   A(2,3,12)             114.0435         estimate D2E/DX2                !
 ! A15   A(4,3,12)             113.7347         estimate D2E/DX2                !
 ! A16   A(3,4,5)              103.7069         estimate D2E/DX2                !
 ! A17   A(3,4,18)             110.7899         estimate D2E/DX2                !
 ! A18   A(3,4,19)             110.2789         estimate D2E/DX2                !
 ! A19   A(5,4,18)             110.6196         estimate D2E/DX2                !
 ! A20   A(5,4,19)             113.5803         estimate D2E/DX2                !
 ! A21   A(18,4,19)            107.8661         estimate D2E/DX2                !
 ! A22   A(1,5,4)              104.1316         estimate D2E/DX2                !
 ! A23   A(1,5,16)             110.3655         estimate D2E/DX2                !
 ! A24   A(1,5,17)             112.3484         estimate D2E/DX2                !
 ! A25   A(4,5,16)             110.2946         estimate D2E/DX2                !
 ! A26   A(4,5,17)             111.9399         estimate D2E/DX2                !
 ! A27   A(16,5,17)            107.7694         estimate D2E/DX2                !
 ! A28   A(2,6,7)              121.4031         estimate D2E/DX2                !
 ! A29   A(2,6,11)             121.1691         estimate D2E/DX2                !
 ! A30   A(7,6,11)             117.413          estimate D2E/DX2                !
 ! A31   A(6,7,8)              120.9459         estimate D2E/DX2                !
 ! A32   A(6,7,23)             123.0629         estimate D2E/DX2                !
 ! A33   A(8,7,23)             115.991          estimate D2E/DX2                !
 ! A34   A(7,8,9)              122.4075         estimate D2E/DX2                !
 ! A35   A(7,8,22)             118.6767         estimate D2E/DX2                !
 ! A36   A(9,8,22)             118.9143         estimate D2E/DX2                !
 ! A37   A(8,9,10)             119.7431         estimate D2E/DX2                !
 ! A38   A(8,9,21)             116.425          estimate D2E/DX2                !
 ! A39   A(10,9,21)            123.8314         estimate D2E/DX2                !
 ! A40   A(9,10,11)            118.8778         estimate D2E/DX2                !
 ! A41   A(9,10,27)            119.7235         estimate D2E/DX2                !
 ! A42   A(11,10,27)           121.3986         estimate D2E/DX2                !
 ! A43   A(6,11,10)            120.609          estimate D2E/DX2                !
 ! A44   A(6,11,20)            118.3501         estimate D2E/DX2                !
 ! A45   A(10,11,20)           121.0353         estimate D2E/DX2                !
 ! A46   A(3,12,24)            110.4186         estimate D2E/DX2                !
 ! A47   A(3,12,25)            112.2005         estimate D2E/DX2                !
 ! A48   A(3,12,26)            109.5264         estimate D2E/DX2                !
 ! A49   A(24,12,25)           108.4028         estimate D2E/DX2                !
 ! A50   A(24,12,26)           107.7972         estimate D2E/DX2                !
 ! A51   A(25,12,26)           108.3724         estimate D2E/DX2                !
 ! A52   A(22,28,29)           125.6451         estimate D2E/DX2                !
 ! A53   A(22,28,30)           125.7805         estimate D2E/DX2                !
 ! A54   A(29,28,30)           108.5204         estimate D2E/DX2                !
 ! A55   A(30,31,32)           124.3501         estimate D2E/DX2                !
 ! A56   A(30,31,33)           124.3756         estimate D2E/DX2                !
 ! A57   A(32,31,33)           105.7873         estimate D2E/DX2                !
 ! A58   A(29,34,35)           124.3423         estimate D2E/DX2                !
 ! A59   A(29,34,36)           124.2155         estimate D2E/DX2                !
 ! A60   A(35,34,36)           105.7753         estimate D2E/DX2                !
 ! A61   A(36,37,38)           128.1372         estimate D2E/DX2                !
 ! A62   A(36,37,39)           117.4025         estimate D2E/DX2                !
 ! A63   A(38,37,39)           102.6832         estimate D2E/DX2                !
 ! A64   L(8,22,28,23,-1)      179.6611         estimate D2E/DX2                !
 ! A65   L(28,29,34,24,-1)     175.0242         estimate D2E/DX2                !
 ! A66   L(28,30,31,15,-1)     175.7542         estimate D2E/DX2                !
 ! A67   L(34,36,37,4,-1)      177.7381         estimate D2E/DX2                !
 ! A68   L(8,22,28,23,-2)      180.078          estimate D2E/DX2                !
 ! A69   L(28,29,34,24,-2)     181.2406         estimate D2E/DX2                !
 ! A70   L(28,30,31,15,-2)     177.1992         estimate D2E/DX2                !
 ! A71   L(34,36,37,4,-2)      181.7497         estimate D2E/DX2                !
 ! D1    D(5,1,2,3)            -19.2882         estimate D2E/DX2                !
 ! D2    D(5,1,2,6)           -140.517          estimate D2E/DX2                !
 ! D3    D(5,1,2,13)            99.2833         estimate D2E/DX2                !
 ! D4    D(14,1,2,3)           100.5698         estimate D2E/DX2                !
 ! D5    D(14,1,2,6)           -20.659          estimate D2E/DX2                !
 ! D6    D(14,1,2,13)         -140.8586         estimate D2E/DX2                !
 ! D7    D(15,1,2,3)          -140.8561         estimate D2E/DX2                !
 ! D8    D(15,1,2,6)            97.915          estimate D2E/DX2                !
 ! D9    D(15,1,2,13)          -22.2846         estimate D2E/DX2                !
 ! D10   D(2,1,5,4)             -6.1898         estimate D2E/DX2                !
 ! D11   D(2,1,5,16)           112.1682         estimate D2E/DX2                !
 ! D12   D(2,1,5,17)          -127.5281         estimate D2E/DX2                !
 ! D13   D(14,1,5,4)          -125.732          estimate D2E/DX2                !
 ! D14   D(14,1,5,16)           -7.374          estimate D2E/DX2                !
 ! D15   D(14,1,5,17)          112.9297         estimate D2E/DX2                !
 ! D16   D(15,1,5,4)           113.7928         estimate D2E/DX2                !
 ! D17   D(15,1,5,16)         -127.8492         estimate D2E/DX2                !
 ! D18   D(15,1,5,17)           -7.5455         estimate D2E/DX2                !
 ! D19   D(1,2,3,4)             39.0104         estimate D2E/DX2                !
 ! D20   D(1,2,3,12)           164.3338         estimate D2E/DX2                !
 ! D21   D(6,2,3,4)            161.1047         estimate D2E/DX2                !
 ! D22   D(6,2,3,12)           -73.5719         estimate D2E/DX2                !
 ! D23   D(13,2,3,4)           -78.3395         estimate D2E/DX2                !
 ! D24   D(13,2,3,12)           46.9839         estimate D2E/DX2                !
 ! D25   D(1,2,6,7)           -101.2358         estimate D2E/DX2                !
 ! D26   D(1,2,6,11)            77.3274         estimate D2E/DX2                !
 ! D27   D(3,2,6,7)            141.753          estimate D2E/DX2                !
 ! D28   D(3,2,6,11)           -39.6837         estimate D2E/DX2                !
 ! D29   D(13,2,6,7)            19.559          estimate D2E/DX2                !
 ! D30   D(13,2,6,11)         -161.8778         estimate D2E/DX2                !
 ! D31   D(2,3,4,5)            -43.3076         estimate D2E/DX2                !
 ! D32   D(2,3,4,18)            75.3995         estimate D2E/DX2                !
 ! D33   D(2,3,4,19)          -165.2515         estimate D2E/DX2                !
 ! D34   D(12,3,4,5)          -168.8232         estimate D2E/DX2                !
 ! D35   D(12,3,4,18)          -50.1161         estimate D2E/DX2                !
 ! D36   D(12,3,4,19)           69.2328         estimate D2E/DX2                !
 ! D37   D(2,3,12,24)           61.7411         estimate D2E/DX2                !
 ! D38   D(2,3,12,25)          -59.3069         estimate D2E/DX2                !
 ! D39   D(2,3,12,26)         -179.7            estimate D2E/DX2                !
 ! D40   D(4,3,12,24)         -177.5764         estimate D2E/DX2                !
 ! D41   D(4,3,12,25)           61.3756         estimate D2E/DX2                !
 ! D42   D(4,3,12,26)          -59.0175         estimate D2E/DX2                !
 ! D43   D(3,4,5,1)             29.4697         estimate D2E/DX2                !
 ! D44   D(3,4,5,16)           -88.9369         estimate D2E/DX2                !
 ! D45   D(3,4,5,17)           151.0795         estimate D2E/DX2                !
 ! D46   D(18,4,5,1)           -89.3547         estimate D2E/DX2                !
 ! D47   D(18,4,5,16)          152.2387         estimate D2E/DX2                !
 ! D48   D(18,4,5,17)           32.2552         estimate D2E/DX2                !
 ! D49   D(19,4,5,1)           149.1863         estimate D2E/DX2                !
 ! D50   D(19,4,5,16)           30.7797         estimate D2E/DX2                !
 ! D51   D(19,4,5,17)          -89.2039         estimate D2E/DX2                !
 ! D52   D(2,6,7,8)            177.8904         estimate D2E/DX2                !
 ! D53   D(2,6,7,23)            -2.2766         estimate D2E/DX2                !
 ! D54   D(11,6,7,8)            -0.7248         estimate D2E/DX2                !
 ! D55   D(11,6,7,23)          179.1082         estimate D2E/DX2                !
 ! D56   D(2,6,11,10)         -178.1445         estimate D2E/DX2                !
 ! D57   D(2,6,11,20)            2.7075         estimate D2E/DX2                !
 ! D58   D(7,6,11,10)            0.4741         estimate D2E/DX2                !
 ! D59   D(7,6,11,20)         -178.6739         estimate D2E/DX2                !
 ! D60   D(6,7,8,9)              0.4783         estimate D2E/DX2                !
 ! D61   D(6,7,8,22)          -179.9697         estimate D2E/DX2                !
 ! D62   D(23,7,8,9)          -179.3661         estimate D2E/DX2                !
 ! D63   D(23,7,8,22)            0.1859         estimate D2E/DX2                !
 ! D64   D(7,8,9,10)             0.052          estimate D2E/DX2                !
 ! D65   D(7,8,9,21)           179.7968         estimate D2E/DX2                !
 ! D66   D(22,8,9,10)         -179.499          estimate D2E/DX2                !
 ! D67   D(22,8,9,21)            0.2458         estimate D2E/DX2                !
 ! D68   D(7,8,28,29)          -91.0683         estimate D2E/DX2                !
 ! D69   D(7,8,28,30)           91.7151         estimate D2E/DX2                !
 ! D70   D(9,8,28,29)           88.4531         estimate D2E/DX2                !
 ! D71   D(9,8,28,30)          -88.7635         estimate D2E/DX2                !
 ! D72   D(8,9,10,11)           -0.2967         estimate D2E/DX2                !
 ! D73   D(8,9,10,27)          179.6298         estimate D2E/DX2                !
 ! D74   D(21,9,10,11)         179.9785         estimate D2E/DX2                !
 ! D75   D(21,9,10,27)          -0.095          estimate D2E/DX2                !
 ! D76   D(9,10,11,6)            0.0233         estimate D2E/DX2                !
 ! D77   D(9,10,11,20)         179.1482         estimate D2E/DX2                !
 ! D78   D(27,10,11,6)        -179.9019         estimate D2E/DX2                !
 ! D79   D(27,10,11,20)         -0.777          estimate D2E/DX2                !
 ! D80   D(22,28,31,32)       -105.8757         estimate D2E/DX2                !
 ! D81   D(22,28,31,33)        101.6744         estimate D2E/DX2                !
 ! D82   D(29,28,31,32)         76.6095         estimate D2E/DX2                !
 ! D83   D(29,28,31,33)        -75.8405         estimate D2E/DX2                !
 ! D84   D(22,28,34,35)       -101.9147         estimate D2E/DX2                !
 ! D85   D(22,28,34,36)        106.0506         estimate D2E/DX2                !
 ! D86   D(30,28,34,35)         75.6501         estimate D2E/DX2                !
 ! D87   D(30,28,34,36)        -76.3846         estimate D2E/DX2                !
 ! D88   D(29,34,37,38)         38.8616         estimate D2E/DX2                !
 ! D89   D(29,34,37,39)        -96.5811         estimate D2E/DX2                !
 ! D90   D(35,34,37,38)       -117.1338         estimate D2E/DX2                !
 ! D91   D(35,34,37,39)        107.4236         estimate D2E/DX2                !
 --------------------------------------------------------------------------------
 Trust Radius=3.00D-01 FncErr=1.00D-07 GrdErr=1.00D-06 EigMax=2.50D+02 EigMin=1.00D-04
 Number of steps in this run=    212 maximum allowed number of steps=    234.
 GradGradGradGradGradGradGradGradGradGradGradGradGradGradGradGradGradGrad

                          Input orientation:                          
 ---------------------------------------------------------------------
 Center     Atomic      Atomic             Coordinates (Angstroms)
 Number     Number       Type             X           Y           Z
 ---------------------------------------------------------------------
      1          6           0       -2.719638    1.640091   -0.519793
      2          6           0       -2.111391    0.216988   -0.604913
      3          7           0       -3.211627   -0.665235   -0.249760
      4          6           0       -4.391963   -0.079147   -0.879781
      5          6           0       -4.247793    1.416297   -0.598434
      6          6           0       -0.929912    0.028253    0.316069
      7          6           0        0.370391    0.075939   -0.158984
      8          7           0        1.415688   -0.051308    0.675150
      9          6           0        1.264041   -0.238253    1.992667
     10          6           0       -0.008668   -0.306881    2.535002
     11          6           0       -1.107236   -0.172504    1.690862
     12          6           0       -2.991624   -2.055639   -0.601363
     13          1           0       -1.771407    0.027864   -1.645562
     14          1           0       -2.438263    2.126530    0.421811
     15          1           0       -2.340239    2.266722   -1.334794
     16          1           0       -4.720058    1.670506    0.356996
     17          1           0       -4.718370    2.026173   -1.376500
     18          1           0       -4.392425   -0.272882   -1.971936
     19          1           0       -5.304474   -0.518450   -0.459863
     20          1           0       -2.124290   -0.234549    2.077944
     21          1           0        2.176601   -0.332179    2.576249
     22          1           0        2.398484   -0.008728    0.271732
     23          1           0        0.613559    0.213304   -1.210837
     24          1           0       -2.118696   -2.452641   -0.066248
     25          1           0       -2.826897   -2.191605   -1.689167
     26          1           0       -3.863980   -2.650397   -0.307058
     27          1           0       -0.131483   -0.464724    3.603967
     28          8           0        3.831975    0.052847   -0.326806
     29          1           0        4.350944   -0.711010   -0.637111
     30          1           0        4.377602    0.854869   -0.417023
     31          8           0        5.255670    2.401467   -0.523239
     32          1           0        5.410889    2.881760   -1.340863
     33          1           0        5.959644    2.667796    0.074081
     34          8           0        5.173909   -2.198658   -1.170700
     35          1           0        5.867475   -2.642070   -0.675015
     36          1           0        5.317280   -2.436593   -2.090569
     37          8           0        5.503975   -2.914749   -3.793371
     38          1           0        5.710647   -2.348941   -4.556853
     39          1           0        4.849664   -3.535763   -4.158542
 ---------------------------------------------------------------------
                    Distance matrix (angstroms):
                    1          2          3          4          5
     1  C    0.000000
     2  C    1.549978   0.000000
     3  N    2.372657   1.454294   0.000000
     4  C    2.425292   2.316087   1.460691   0.000000
     5  C    1.546456   2.450020   2.351168   1.528494   0.000000
     6  C    2.549472   1.509875   2.450982   3.664340   3.710972
     7  C    3.482102   2.525468   3.659021   4.819089   4.828799
     8  N    4.624894   3.761759   4.758614   6.012270   5.987562
     9  C    5.070535   4.283481   5.024181   6.345601   6.311232
    10  C    4.524581   3.815095   4.259374   5.561104   5.545985
    11  C    3.282124   2.535866   2.904696   4.172092   4.198603
    12  C    3.706622   2.437141   1.450948   2.438234   3.692196
    13  H    2.183065   1.110994   2.122000   2.732249   3.026006
    14  H    1.096546   2.192569   2.973727   3.221195   2.195388
    15  H    1.095827   2.187809   3.245456   3.149557   2.214545
    16  H    2.184345   3.137376   2.845910   2.167614   1.095675
    17  H    2.208605   3.265706   3.283823   2.187611   1.094887
    18  H    2.926842   2.704042   2.124645   1.109205   2.181915
    19  H    3.368125   3.279891   2.108482   1.096355   2.208851
    20  H    3.258366   2.720620   2.604995   3.730232   3.794411
    21  H    6.119516   5.367332   6.093460   7.426587   7.376220
    22  H    5.435098   4.599829   5.672416   6.887751   6.852801
    23  H    3.690998   2.791507   4.040736   5.024975   5.045292
    24  H    4.161405   2.723441   2.103092   3.385713   4.448028
    25  H    4.007597   2.736581   2.133006   2.750821   4.028101
    26  H    4.445567   3.373749   2.090386   2.686653   4.095145
    27  H    5.304167   4.701004   4.937479   6.197125   6.175955
    28  O    6.743902   5.952133   7.080530   8.243565   8.198502
    29  H    7.452152   6.528705   7.572623   8.769069   8.858059
    30  H    7.141285   6.522977   7.741776   8.831297   8.645551
    31  O    8.011569   7.684543   9.009693   9.967818   9.554686
    32  H    8.265674   8.014195   9.387197  10.250633   9.797394
    33  H    8.760068   8.462216   9.763513  10.752270  10.305838
    34  O    8.801577   7.696172   8.574190   9.802187  10.107614
    35  H    9.596849   8.475932   9.301549  10.576699  10.899305
    36  H    9.147608   8.027068   8.903288  10.064440  10.419302
    37  O    9.954431   8.829941   9.673635  10.698563  11.138338
    38  H   10.162673   9.131599  10.049522  10.987973  11.358548
    39  H    9.865307   8.669931   9.407599  10.397410  10.952670
                    6          7          8          9         10
     6  C    0.000000
     7  C    1.385185   0.000000
     8  N    2.374260   1.343360   0.000000
     9  C    2.774065   2.350942   1.339327   0.000000
    10  C    2.425834   2.747326   2.356514   1.385144   0.000000
    11  C    1.400644   2.380554   2.722408   2.391310   1.391934
    12  C    3.071635   4.005305   5.007118   5.304957   4.668294
    13  H    2.134505   2.607590   3.943291   4.745679   4.549332
    14  H    2.586324   3.525732   4.433971   4.665495   4.036087
    15  H    3.118512   3.678257   4.849755   5.507970   5.199517
    16  H    4.130845   5.359249   6.380693   6.490626   5.554365
    17  H    4.605311   5.584017   6.793516   7.229672   6.551663
    18  H    4.161087   5.108120   6.386731   6.907596   6.287366
    19  H    4.476354   5.713836   6.831329   7.017037   6.087655
    20  H    2.144716   3.365068   3.812198   3.389406   2.165639
    21  H    3.858594   3.303098   2.066895   1.087270   2.185805
    22  H    3.328897   2.075053   1.063225   2.073948   3.317479
    23  H    2.178988   1.088299   2.066489   3.299919   3.832632
    24  H    2.777446   3.549348   4.336812   4.537131   3.977814
    25  H    3.542216   4.207834   5.307579   5.840142   5.416475
    26  H    4.021468   5.038326   5.966145   6.115862   5.332242
    27  H    3.419179   3.834579   3.338056   2.143610   1.087513
    28  O    4.805149   3.465727   2.617863   3.472604   4.803112
    29  H    5.416872   4.085670   3.282219   4.082671   5.406648
    30  H    5.421293   4.090361   3.284347   4.086047   5.413269
    31  O    6.678174   5.422796   4.711444   5.406571   6.663426
    32  H    7.147985   5.888641   5.350591   6.167921   7.386566
    33  H    7.381851   6.165370   5.329385   5.845920   7.108135
    34  O    6.665302   5.410282   4.705582   5.397884   6.646063
    35  H    7.370030   6.154006   5.324791   5.838362   7.091289
    36  H    7.134058   5.874993   5.344269   6.159080   7.368670
    37  O    8.181911   6.964673   6.699334   7.656299   8.788545
    38  H    8.572832   7.330732   7.148401   8.192894   9.336754
    39  H    8.131903   7.007478   6.877368   7.846505   8.878772
                   11         12         13         14         15
    11  C    0.000000
    12  C    3.514457   0.000000
    13  H    3.407785   2.630640   0.000000
    14  H    2.944092   4.340925   3.020451   0.000000
    15  H    4.077342   4.432271   2.330801   1.764915   0.000000
    16  H    4.269469   4.217830   3.924672   2.327820   2.980128
    17  H    5.223330   4.499298   3.570746   2.905664   2.390630
    18  H    4.921243   2.649328   2.658327   3.912282   3.326711
    19  H    4.728859   2.780692   3.766551   3.998554   4.160454
    20  H    1.089991   3.353703   3.749384   2.901043   4.236717
    21  H    3.404848   6.306987   5.791380   5.655424   6.515550
    22  H    3.785608   5.831415   4.589700   5.289232   5.496735
    23  H    3.395562   4.303127   2.431345   3.954692   3.599557
    24  H    3.051149   1.098163   2.961038   4.616182   4.891899
    25  H    4.296347   1.108575   2.458049   4.822194   4.498788
    26  H    4.210852   1.096065   3.652881   5.038150   5.249389
    27  H    2.167362   5.328810   5.521734   4.707648   6.060591
    28  O    5.340185   7.147209   5.756529   6.646538   6.634268
    29  H    5.958286   7.464758   6.248687   7.434129   7.357009
    30  H    5.965075   7.925309   6.324837   6.984038   6.925678
    31  O    7.212083   9.374954   7.501561   7.756630   7.640328
    32  H    7.810623   9.773791   7.734529   8.080011   7.775493
    33  H    7.786018  10.143582   8.348387   8.422513   8.428158
    34  O    7.193512   8.186607   7.308920   8.898792   8.742366
    35  H    7.768058   8.878793   8.150032   9.639910   9.586351
    36  H    7.791003   8.449896   7.518049   9.342515   9.018313
    37  O    9.016920   9.116041   8.136538  10.308318   9.717199
    38  H    9.500229   9.563548   8.372929  10.546168   9.823582
    39  H    9.000650   8.736709   7.927994  10.303158   9.661112
                   16         17         18         19         20
    16  H    0.000000
    17  H    1.769607   0.000000
    18  H    3.050906   2.397173   0.000000
    19  H    2.408387   2.767462   1.782835   0.000000
    20  H    3.650878   4.875787   4.641921   4.078558   0.000000
    21  H    7.516631   8.290155   7.990094   8.075838   4.330762
    22  H    7.314420   7.583344   7.156834   7.754393   4.875334
    23  H    5.747087   5.634129   5.086799   6.010203   4.302612
    24  H    4.893522   5.341801   3.681418   3.747694   3.085048
    25  H    4.763060   4.633042   2.492455   3.232495   4.302889
    26  H    4.454665   4.872781   2.950195   2.577512   3.814587
    27  H    6.013073   7.214510   7.020194   6.578559   2.520517
    28  O    8.730503   8.837662   8.393647   9.155260   6.429814
    29  H    9.430957   9.502175   8.855519   9.658964   7.037556
    30  H    9.166885   9.221131   8.977915   9.779082   7.048850
    31  O   10.041129  10.017503  10.116156  10.956577   8.257030
    32  H   10.343401  10.165392  10.317702  11.276373   8.841863
    33  H   10.729896  10.795177  10.954410  11.718260   8.819811
    34  O   10.732887  10.758659   9.791085  10.636019   8.226489
    35  H   11.478642  11.590716  10.609458  11.374027   8.788814
    36  H   11.117868  11.006382   9.948572  10.916049   8.809226
    37  O   11.949099  11.608201  10.403645  11.561882   9.992310
    38  H   12.210711  11.748219  10.633150  11.894070  10.482243
    39  H   11.793002  11.411493  10.042104  11.220112   9.921079
                   21         22         23         24         25
    21  H    0.000000
    22  H    2.337659   0.000000
    23  H    4.133119   2.330937   0.000000
    24  H    5.470715   5.147024   3.985293   0.000000
    25  H    6.832732   5.992886   4.224822   1.789848   0.000000
    26  H    7.083517   6.821427   5.391285   1.772883   1.787808
    27  H    2.530025   4.208617   4.919060   4.622911   6.185842
    28  O    3.363961   1.554650   3.341476   6.461876   7.157805
    29  H    3.898328   2.265236   3.892501   6.724240   7.404079
    30  H    3.900406   2.266515   3.899970   7.298257   7.924908
    31  O    5.153670   3.821587   5.177842   8.840389   9.369290
    32  H    6.011139   4.475485   5.491078   9.315317   9.680985
    33  H    5.438024   4.459227   6.021310   9.565466  10.194416
    34  O    5.148517   3.818296   5.159066   7.380136   8.017590
    35  H    5.434047   4.456985   6.003657   8.011580   8.764903
    36  H    6.005965   4.471506   5.469998   7.706612   8.157742
    37  O    7.636305   5.883375   6.353768   8.497653   8.622879
    38  H    8.212061   6.305732   6.613715   9.026344   9.007665
    39  H    7.922476   6.170542   6.378797   8.153408   8.175216
                   26         27         28         29         30
    26  H    0.000000
    27  H    5.831365   0.000000
    28  O    8.156938   5.606055   0.000000
    29  H    8.447197   6.175723   0.974215   0.000000
    30  H    8.956710   6.183974   0.974211   1.581495   0.000000
    31  O   10.427659   7.366838   2.753454   3.243302   1.781643
    32  H   10.848811   8.146667   3.394706   3.811397   2.455494
    33  H   11.177300   7.705492   3.394944   3.809205   2.455757
    34  O    9.090291   7.345145   2.753583   1.781877   3.244405
    35  H    9.738413   7.683620   3.395156   2.455666   3.809838
    36  H    9.355328   8.124348   3.393273   2.454380   3.810180
    37  O    9.999143   9.616737   4.859968   4.018448   5.184445
    38  H   10.479748  10.211745   5.214527   4.460492   5.401814
    39  H    9.567936   9.721093   5.347524   4.541853   5.787871
                   31         32         33         34         35
    31  O    0.000000
    32  H    0.960876   0.000000
    33  H    0.960886   1.532638   0.000000
    34  O    4.646186   5.088788   5.084214   0.000000
    35  H    5.082775   5.582519   5.363238   0.960912   0.000000
    36  H    5.085975   5.371750   5.581499   0.960899   1.532556
    37  O    6.246405   6.294679   6.806588   2.738637   3.151290
    38  H    6.248474   6.147575   6.831925   3.431720   3.896047
    39  H    6.973591   7.031279   7.591528   3.289405   3.737591
                   36         37         38         39
    36  H    0.000000
    37  O    1.778489   0.000000
    38  H    2.498995   0.972500   0.000000
    39  H    2.388169   0.973207   1.519371   0.000000
 Stoichiometry    C10H23N2O4(1+)
 Framework group  C1[X(C10H23N2O4)]
 Deg. of freedom   111
 Full point group                 C1      NOp   1
 Largest Abelian subgroup         C1      NOp   1
 Largest concise Abelian subgroup C1      NOp   1
                         Standard orientation:                         
 ---------------------------------------------------------------------
 Center     Atomic      Atomic             Coordinates (Angstroms)
 Number     Number       Type             X           Y           Z
 ---------------------------------------------------------------------
      1          6           0       -3.270314   -0.556939    1.550176
      2          6           0       -2.493479    0.380790    0.591207
      3          7           0       -3.523727    0.962197   -0.254681
      4          6           0       -4.655051    1.211417    0.635046
      5          6           0       -4.731804   -0.055371    1.486898
      6          6           0       -1.451898   -0.346969   -0.224388
      7          6           0       -0.109161   -0.300419    0.112699
      8          7           0        0.804766   -0.985379   -0.594538
      9          6           0        0.477533   -1.733910   -1.655866
     10          6           0       -0.845897   -1.817446   -2.056090
     11          6           0       -1.811418   -1.120433   -1.335380
     12          6           0       -3.091223    2.134649   -0.991935
     13          1           0       -1.979393    1.165538    1.186350
     14          1           0       -3.194432   -1.599555    1.219106
     15          1           0       -2.847570   -0.505494    2.559868
     16          1           0       -5.370386   -0.801698    1.001397
     17          1           0       -5.146862    0.144141    2.480226
     18          1           0       -4.466700    2.099699    1.272083
     19          1           0       -5.562884    1.402813    0.050922
     20          1           0       -2.861118   -1.150234   -1.627482
     21          1           0        1.295384   -2.244203   -2.158735
     22          1           0        1.825613   -0.924190   -0.303722
     23          1           0        0.273309    0.282241    0.948533
     24          1           0       -2.269337    1.877178   -1.673239
     25          1           0       -2.748197    2.948100   -0.321435
     26          1           0       -3.922308    2.513653   -1.597749
     27          1           0       -1.110454   -2.420497   -2.921551
     28          8           0        3.316206   -0.827593    0.127251
     29          1           0        3.962320   -0.178523   -0.204923
     30          1           0        3.771294   -1.429956    0.742995
     31          8           0        4.467708   -2.605093    1.886810
     32          1           0        4.688014   -2.406862    2.800841
     33          1           0        5.036499   -3.336991    1.633623
     34          8           0        5.025643    1.072556   -0.897188
     35          1           0        5.682947    0.908852   -1.578734
     36          1           0        5.334137    1.845609   -0.417034
     37          8           0        5.832387    3.317977    0.447202
     38          1           0        6.084922    3.409314    1.381889
     39          1           0        5.318648    4.128364    0.284493
 ---------------------------------------------------------------------
 Rotational constants (GHZ):           0.5464785           0.1558036           0.1430441
 Standard basis: Aug-CC-pVDZ (5D, 7F)
 There are   607 symmetry adapted cartesian basis functions of A   symmetry.
 There are   575 symmetry adapted basis functions of A   symmetry.
   575 basis functions,   941 primitive gaussians,   607 cartesian basis functions
    64 alpha electrons       64 beta electrons
       nuclear repulsion energy      1113.6805184027 Hartrees.
 NAtoms=   39 NActive=   39 NUniq=   39 SFac= 1.00D+00 NAtFMM=   60 NAOKFM=F Big=F
 Integral buffers will be    131072 words long.
 Raffenetti 2 integral format.
 Two-electron integral symmetry is turned on.
 Nuclear repulsion after empirical dispersion term =     1113.6569122447 Hartrees.
 One-electron integrals computed using PRISM.
 NBasis=   575 RedAO= T EigKep=  2.25D-06  NBF=   575
 NBsUse=   575 1.00D-06 EigRej= -1.00D+00 NBFU=   575
 ExpMin= 2.97D-02 ExpMax= 1.17D+04 ExpMxC= 4.01D+02 IAcc=3 IRadAn=         5 AccDes= 0.00D+00
 Harris functional with IExCor= 4639 and IRadAn=       5 diagonalized for initial guess.
 HarFok:  IExCor= 4639 AccDes= 0.00D+00 IRadAn=         5 IDoV= 1 UseB2=F ITyADJ=14
 ICtDFT=  3500011 ScaDFX=  1.000000  1.000000  1.000000  1.000000
 FoFCou: FMM=F IPFlag=           0 FMFlag=      100000 FMFlg1=           0
         NFxFlg=           0 DoJE=T BraDBF=F KetDBF=T FulRan=T
         wScrn=  0.000000 ICntrl=       500 IOpCl=  0 I1Cent=   200000004 NGrid=           0
         NMat0=    1 NMatS0=      1 NMatT0=    0 NMatD0=    1 NMtDS0=    0 NMtDT0=    0
 Petite list used in FoFCou.
 Requested convergence on RMS density matrix=1.00D-08 within 128 cycles.
 Requested convergence on MAX density matrix=1.00D-06.
 Requested convergence on             energy=1.00D-06.
 No special actions if energy rises.
 SCF Done:  E(RwB97XD) =  -805.020656218     A.U. after   14 cycles
            NFock= 14  Conv=0.68D-08     -V/T= 2.0063

 **********************************************************************

            Population analysis using the SCF density.

 **********************************************************************

 Orbital symmetries:
       Occupied  (A) (A) (A) (A) (A) (A) (A) (A) (A) (A) (A) (A)
                 (A) (A) (A) (A) (A) (A) (A) (A) (A) (A) (A) (A)
                 (A) (A) (A) (A) (A) (A) (A) (A) (A) (A) (A) (A)
                 (A) (A) (A) (A) (A) (A) (A) (A) (A) (A) (A) (A)
                 (A) (A) (A) (A) (A) (A) (A) (A) (A) (A) (A) (A)
                 (A) (A) (A) (A)
       Virtual   (A) (A) (A) (A) (A) (A) (A) (A) (A) (A) (A) (A)
                 (A) (A) (A) (A) (A) (A) (A) (A) (A) (A) (A) (A)
                 (A) (A) (A) (A) (A) (A) (A) (A) (A) (A) (A) (A)
                 (A) (A) (A) (A) (A) (A) (A) (A) (A) (A) (A) (A)
                 (A) (A) (A) (A) (A) (A) (A) (A) (A) (A) (A) (A)
                 (A) (A) (A) (A) (A) (A) (A) (A) (A) (A) (A) (A)
                 (A) (A) (A) (A) (A) (A) (A) (A) (A) (A) (A) (A)
                 (A) (A) (A) (A) (A) (A) (A) (A) (A) (A) (A) (A)
                 (A) (A) (A) (A) (A) (A) (A) (A) (A) (A) (A) (A)
                 (A) (A) (A) (A) (A) (A) (A) (A) (A) (A) (A) (A)
                 (A) (A) (A) (A) (A) (A) (A) (A) (A) (A) (A) (A)
                 (A) (A) (A) (A) (A) (A) (A) (A) (A) (A) (A) (A)
                 (A) (A) (A) (A) (A) (A) (A) (A) (A) (A) (A) (A)
                 (A) (A) (A) (A) (A) (A) (A) (A) (A) (A) (A) (A)
                 (A) (A) (A) (A) (A) (A) (A) (A) (A) (A) (A) (A)
                 (A) (A) (A) (A) (A) (A) (A) (A) (A) (A) (A) (A)
                 (A) (A) (A) (A) (A) (A) (A) (A) (A) (A) (A) (A)
                 (A) (A) (A) (A) (A) (A) (A) (A) (A) (A) (A) (A)
                 (A) (A) (A) (A) (A) (A) (A) (A) (A) (A) (A) (A)
                 (A) (A) (A) (A) (A) (A) (A) (A) (A) (A) (A) (A)
                 (A) (A) (A) (A) (A) (A) (A) (A) (A) (A) (A) (A)
                 (A) (A) (A) (A) (A) (A) (A) (A) (A) (A) (A) (A)
                 (A) (A) (A) (A) (A) (A) (A) (A) (A) (A) (A) (A)
                 (A) (A) (A) (A) (A) (A) (A) (A) (A) (A) (A) (A)
                 (A) (A) (A) (A) (A) (A) (A) (A) (A) (A) (A) (A)
                 (A) (A) (A) (A) (A) (A) (A) (A) (A) (A) (A) (A)
                 (A) (A) (A) (A) (A) (A) (A) (A) (A) (A) (A) (A)
                 (A) (A) (A) (A) (A) (A) (A) (A) (A) (A) (A) (A)
                 (A) (A) (A) (A) (A) (A) (A) (A) (A) (A) (A) (A)
                 (A) (A) (A) (A) (A) (A) (A) (A) (A) (A) (A) (A)
                 (A) (A) (A) (A) (A) (A) (A) (A) (A) (A) (A) (A)
                 (A) (A) (A) (A) (A) (A) (A) (A) (A) (A) (A) (A)
                 (A) (A) (A) (A) (A) (A) (A) (A) (A) (A) (A) (A)
                 (A) (A) (A) (A) (A) (A) (A) (A) (A) (A) (A) (A)
                 (A) (A) (A) (A) (A) (A) (A) (A) (A) (A) (A) (A)
                 (A) (A) (A) (A) (A) (A) (A) (A) (A) (A) (A) (A)
                 (A) (A) (A) (A) (A) (A) (A) (A) (A) (A) (A) (A)
                 (A) (A) (A) (A) (A) (A) (A) (A) (A) (A) (A) (A)
                 (A) (A) (A) (A) (A) (A) (A) (A) (A) (A) (A) (A)
                 (A) (A) (A) (A) (A) (A) (A) (A) (A) (A) (A) (A)
                 (A) (A) (A) (A) (A) (A) (A) (A) (A) (A) (A) (A)
                 (A) (A) (A) (A) (A) (A) (A) (A) (A) (A) (A) (A)
                 (A) (A) (A) (A) (A) (A) (A)
 The electronic state is 1-A.
 Alpha  occ. eigenvalues --  -19.40001 -19.39538 -19.36790 -19.36479 -14.66065
 Alpha  occ. eigenvalues --  -14.54466 -10.49835 -10.49514 -10.46115 -10.45737
 Alpha  occ. eigenvalues --  -10.45614 -10.44349 -10.40807 -10.40753 -10.39790
 Alpha  occ. eigenvalues --  -10.38457  -1.24543  -1.24298  -1.23403  -1.21492
 Alpha  occ. eigenvalues --   -1.20393  -1.14955  -1.06658  -1.03380  -0.98313
 Alpha  occ. eigenvalues --   -0.94081  -0.89145  -0.87768  -0.86711  -0.81427
 Alpha  occ. eigenvalues --   -0.77675  -0.76363  -0.74726  -0.73680  -0.73380
 Alpha  occ. eigenvalues --   -0.73032  -0.72210  -0.72191  -0.69655  -0.67686
 Alpha  occ. eigenvalues --   -0.67633  -0.66507  -0.63637  -0.63066  -0.62418
 Alpha  occ. eigenvalues --   -0.61638  -0.61219  -0.60060  -0.59061  -0.57527
 Alpha  occ. eigenvalues --   -0.56298  -0.55915  -0.55246  -0.54313  -0.53535
 Alpha  occ. eigenvalues --   -0.52823  -0.52165  -0.51695  -0.51637  -0.51039
 Alpha  occ. eigenvalues --   -0.50037  -0.50009  -0.47868  -0.40536
 Alpha virt. eigenvalues --   -0.12788  -0.09381  -0.06293  -0.04908  -0.04654
 Alpha virt. eigenvalues --   -0.04141  -0.03280  -0.02900  -0.02501  -0.02199
 Alpha virt. eigenvalues --   -0.01832  -0.01307  -0.01049  -0.00715  -0.00446
 Alpha virt. eigenvalues --   -0.00377   0.00319   0.00631   0.01107   0.01854
 Alpha virt. eigenvalues --    0.02071   0.02225   0.02546   0.03013   0.03232
 Alpha virt. eigenvalues --    0.03893   0.04004   0.04087   0.04198   0.04923
 Alpha virt. eigenvalues --    0.05317   0.05745   0.05921   0.06035   0.06326
 Alpha virt. eigenvalues --    0.06797   0.06815   0.06995   0.07505   0.07897
 Alpha virt. eigenvalues --    0.08117   0.08311   0.08594   0.08828   0.08897
 Alpha virt. eigenvalues --    0.09666   0.09780   0.10175   0.10588   0.11029
 Alpha virt. eigenvalues --    0.11180   0.11232   0.11742   0.12091   0.12222
 Alpha virt. eigenvalues --    0.12570   0.12613   0.12803   0.13180   0.13517
 Alpha virt. eigenvalues --    0.13637   0.13879   0.14363   0.14425   0.14858
 Alpha virt. eigenvalues --    0.14971   0.15353   0.15808   0.16083   0.16375
 Alpha virt. eigenvalues --    0.16653   0.17047   0.17155   0.17547   0.17751
 Alpha virt. eigenvalues --    0.17903   0.17980   0.18156   0.18814   0.18951
 Alpha virt. eigenvalues --    0.19333   0.19729   0.20080   0.20279   0.20647
 Alpha virt. eigenvalues --    0.20719   0.21412   0.21633   0.21723   0.21988
 Alpha virt. eigenvalues --    0.22392   0.22504   0.23202   0.23410   0.23671
 Alpha virt. eigenvalues --    0.23991   0.24246   0.24631   0.24871   0.25312
 Alpha virt. eigenvalues --    0.25619   0.25920   0.26201   0.26841   0.26885
 Alpha virt. eigenvalues --    0.27331   0.27483   0.27950   0.28101   0.28534
 Alpha virt. eigenvalues --    0.28775   0.29038   0.29408   0.30105   0.30280
 Alpha virt. eigenvalues --    0.30712   0.31176   0.31554   0.31818   0.32450
 Alpha virt. eigenvalues --    0.32792   0.33133   0.33412   0.33949   0.34097
 Alpha virt. eigenvalues --    0.34535   0.34839   0.35148   0.36101   0.36393
 Alpha virt. eigenvalues --    0.36589   0.37049   0.37606   0.38147   0.38238
 Alpha virt. eigenvalues --    0.38812   0.38987   0.39277   0.39609   0.39844
 Alpha virt. eigenvalues --    0.40682   0.41464   0.41858   0.42208   0.42622
 Alpha virt. eigenvalues --    0.42991   0.43102   0.43550   0.43942   0.43949
 Alpha virt. eigenvalues --    0.44294   0.44658   0.44751   0.45252   0.45708
 Alpha virt. eigenvalues --    0.46090   0.46290   0.46699   0.46726   0.47009
 Alpha virt. eigenvalues --    0.47453   0.47999   0.48212   0.48803   0.49054
 Alpha virt. eigenvalues --    0.50060   0.50508   0.50680   0.50911   0.51088
 Alpha virt. eigenvalues --    0.51444   0.51743   0.51880   0.52270   0.52721
 Alpha virt. eigenvalues --    0.53022   0.53115   0.53447   0.53702   0.54115
 Alpha virt. eigenvalues --    0.54717   0.54823   0.54967   0.55502   0.55864
 Alpha virt. eigenvalues --    0.56088   0.56796   0.57110   0.57606   0.58001
 Alpha virt. eigenvalues --    0.58152   0.58600   0.58790   0.59946   0.60468
 Alpha virt. eigenvalues --    0.60730   0.61065   0.62229   0.62655   0.63193
 Alpha virt. eigenvalues --    0.63880   0.63948   0.64512   0.64870   0.65253
 Alpha virt. eigenvalues --    0.65449   0.65719   0.66136   0.66385   0.67044
 Alpha virt. eigenvalues --    0.68091   0.68668   0.69044   0.69658   0.69916
 Alpha virt. eigenvalues --    0.70441   0.70796   0.71268   0.71353   0.71962
 Alpha virt. eigenvalues --    0.72401   0.72693   0.73290   0.73470   0.74047
 Alpha virt. eigenvalues --    0.74561   0.75039   0.75321   0.75534   0.76660
 Alpha virt. eigenvalues --    0.77125   0.77688   0.78028   0.78407   0.78997
 Alpha virt. eigenvalues --    0.79677   0.80020   0.80573   0.81113   0.81516
 Alpha virt. eigenvalues --    0.82178   0.83179   0.83376   0.84082   0.84885
 Alpha virt. eigenvalues --    0.85361   0.86385   0.86705   0.86955   0.87409
 Alpha virt. eigenvalues --    0.88545   0.89356   0.89681   0.90761   0.91428
 Alpha virt. eigenvalues --    0.92381   0.92654   0.93393   0.93806   0.94090
 Alpha virt. eigenvalues --    0.94462   0.95817   0.97294   0.97726   0.98556
 Alpha virt. eigenvalues --    0.98697   0.99526   0.99791   1.00535   1.01842
 Alpha virt. eigenvalues --    1.02385   1.02746   1.03474   1.04409   1.04652
 Alpha virt. eigenvalues --    1.06111   1.06569   1.07106   1.07349   1.08135
 Alpha virt. eigenvalues --    1.08856   1.09819   1.10315   1.10657   1.12265
 Alpha virt. eigenvalues --    1.12830   1.13971   1.15848   1.16842   1.17233
 Alpha virt. eigenvalues --    1.17545   1.17852   1.18372   1.19252   1.20265
 Alpha virt. eigenvalues --    1.21810   1.23095   1.23760   1.25029   1.25135
 Alpha virt. eigenvalues --    1.25774   1.27463   1.27878   1.29980   1.30457
 Alpha virt. eigenvalues --    1.31008   1.31932   1.32590   1.33138   1.34361
 Alpha virt. eigenvalues --    1.34903   1.35333   1.36237   1.36932   1.37521
 Alpha virt. eigenvalues --    1.38440   1.38925   1.39873   1.40312   1.42452
 Alpha virt. eigenvalues --    1.43618   1.43919   1.44480   1.45690   1.46795
 Alpha virt. eigenvalues --    1.48106   1.48459   1.49876   1.50300   1.51517
 Alpha virt. eigenvalues --    1.52593   1.53792   1.54310   1.55727   1.56018
 Alpha virt. eigenvalues --    1.57381   1.58313   1.59525   1.61160   1.61369
 Alpha virt. eigenvalues --    1.63051   1.63329   1.64900   1.65637   1.65941
 Alpha virt. eigenvalues --    1.66741   1.67210   1.68771   1.68799   1.69934
 Alpha virt. eigenvalues --    1.70293   1.71082   1.72440   1.72711   1.73054
 Alpha virt. eigenvalues --    1.73642   1.74211   1.74768   1.75011   1.76278
 Alpha virt. eigenvalues --    1.77401   1.77660   1.79280   1.79554   1.80345
 Alpha virt. eigenvalues --    1.81404   1.82045   1.82937   1.83396   1.84083
 Alpha virt. eigenvalues --    1.84992   1.85438   1.86795   1.87014   1.87859
 Alpha virt. eigenvalues --    1.89052   1.89268   1.89982   1.90646   1.92142
 Alpha virt. eigenvalues --    1.92923   1.93243   1.93852   1.95301   1.95895
 Alpha virt. eigenvalues --    1.96935   1.97971   1.98222   1.98691   2.00429
 Alpha virt. eigenvalues --    2.01054   2.01613   2.02375   2.03784   2.04555
 Alpha virt. eigenvalues --    2.06927   2.07418   2.08009   2.08685   2.09802
 Alpha virt. eigenvalues --    2.10495   2.12224   2.12759   2.13594   2.14630
 Alpha virt. eigenvalues --    2.14775   2.15428   2.16390   2.16820   2.17183
 Alpha virt. eigenvalues --    2.17855   2.18925   2.19522   2.20986   2.22365
 Alpha virt. eigenvalues --    2.23795   2.24267   2.24694   2.25610   2.25800
 Alpha virt. eigenvalues --    2.27811   2.28896   2.30161   2.30338   2.31111
 Alpha virt. eigenvalues --    2.31945   2.33924   2.34055   2.36197   2.37073
 Alpha virt. eigenvalues --    2.38206   2.40737   2.41985   2.42197   2.44529
 Alpha virt. eigenvalues --    2.45531   2.46370   2.47827   2.48323   2.49658
 Alpha virt. eigenvalues --    2.50829   2.51278   2.52429   2.53328   2.55355
 Alpha virt. eigenvalues --    2.56177   2.56845   2.57455   2.57830   2.59600
 Alpha virt. eigenvalues --    2.61400   2.61781   2.62669   2.64017   2.65269
 Alpha virt. eigenvalues --    2.66999   2.67893   2.68961   2.70197   2.71632
 Alpha virt. eigenvalues --    2.72134   2.73980   2.74198   2.74882   2.75509
 Alpha virt. eigenvalues --    2.78390   2.79624   2.79921   2.80953   2.83100
 Alpha virt. eigenvalues --    2.83437   2.84762   2.85712   2.87689   2.88970
 Alpha virt. eigenvalues --    2.91344   2.93982   2.96794   3.03367   3.05318
 Alpha virt. eigenvalues --    3.14217   3.15094   3.16687   3.21781   3.28265
 Alpha virt. eigenvalues --    3.29062   3.29890   3.33151   3.35357   3.37014
 Alpha virt. eigenvalues --    3.37879   3.40348   3.42219   3.43960   3.44485
 Alpha virt. eigenvalues --    3.46010   3.51448   3.51881   3.53614   3.64198
 Alpha virt. eigenvalues --    3.66307   3.67989   3.72383   3.80824   3.87987
 Alpha virt. eigenvalues --    3.90470   3.99028   4.06469   4.10082   4.28738
 Alpha virt. eigenvalues --    4.91447
          Condensed to atoms (all electrons):
               1          2          3          4          5          6
     1  C    7.195154  -0.834908  -0.436197   0.362061  -0.706101   0.358563
     2  C   -0.834908  20.205545  -2.247806  -0.207767  -0.889815  -5.448228
     3  N   -0.436197  -2.247806   8.847180   0.117429   0.147575   0.791255
     4  C    0.362061  -0.207767   0.117429   5.680308   0.083300  -0.227465
     5  C   -0.706101  -0.889815   0.147575   0.083300   6.138471   0.585641
     6  C    0.358563  -5.448228   0.791255  -0.227465   0.585641  23.973813
     7  C   -0.736544  -1.975550   0.042130  -0.247101   0.150978  -7.847739
     8  N    0.027547   0.464098  -0.056433   0.019659  -0.013227   0.348118
     9  C   -0.143376  -0.977387   0.057228  -0.060157  -0.010466  -0.523116
    10  C    0.292739   0.144165  -0.151176   0.074595   0.066018   1.450774
    11  C   -0.233111  -0.757493   0.388716  -0.099723  -0.353307  -8.455601
    12  C   -0.069367  -0.396321   0.432559  -0.207833   0.009040   0.237072
    13  H    0.382112  -2.233309  -0.130120  -0.126196   0.054249   0.469518
    14  H   -0.352819   0.039023   0.029952   0.063586   0.280204  -0.504141
    15  H   -0.715543   0.200128   0.152029  -0.150635   0.240229   0.209573
    16  H    0.122472  -0.036026   0.087186  -0.026837  -0.226706   0.046676
    17  H    0.321394  -0.018212  -0.031794   0.134136  -0.323055  -0.040342
    18  H   -0.125661  -0.278947   0.458554  -0.283277   0.072444   0.181694
    19  H    0.129859   0.556306  -0.704380  -0.101815  -0.041951  -0.225455
    20  H    0.060089   0.073414  -0.217875   0.026766   0.010102   0.140504
    21  H    0.005824   0.020552   0.003472  -0.001106  -0.000435   0.262586
    22  H   -0.031149  -0.086577   0.006607  -0.006133   0.005752  -0.818989
    23  H    0.151681   0.059745   0.057804   0.017386   0.001773   0.082712
    24  H    0.127192   0.186748  -0.169665  -0.076453  -0.068335   0.049566
    25  H   -0.023558  -0.299399   0.222281   0.015308   0.056946   0.006097
    26  H   -0.057517  -0.068240  -0.256930   0.028654   0.051001   0.130518
    27  H   -0.009399   0.014224  -0.004434   0.001007   0.005020  -0.395482
    28  O   -0.002310  -0.003694   0.000432   0.000194  -0.000220  -0.142195
    29  H    0.001451   0.003850   0.000161   0.000343  -0.000201   0.011211
    30  H   -0.000804   0.004789  -0.000235   0.000011  -0.000089   0.002078
    31  O    0.000195   0.000036  -0.000002  -0.000000   0.000007   0.003145
    32  H    0.000051   0.000075  -0.000009   0.000003  -0.000002   0.000820
    33  H    0.000031  -0.000052   0.000004  -0.000001   0.000006   0.000069
    34  O    0.000018   0.000243   0.000000   0.000002  -0.000000   0.000791
    35  H   -0.000010   0.000028  -0.000001  -0.000001  -0.000001  -0.000036
    36  H    0.000001   0.000008  -0.000021  -0.000010   0.000009   0.000759
    37  O   -0.000001   0.000001   0.000001   0.000000  -0.000000   0.000366
    38  H    0.000001  -0.000013   0.000002  -0.000001   0.000000   0.000026
    39  H   -0.000004   0.000032  -0.000001   0.000002  -0.000001  -0.000004
               7          8          9         10         11         12
     1  C   -0.736544   0.027547  -0.143376   0.292739  -0.233111  -0.069367
     2  C   -1.975550   0.464098  -0.977387   0.144165  -0.757493  -0.396321
     3  N    0.042130  -0.056433   0.057228  -0.151176   0.388716   0.432559
     4  C   -0.247101   0.019659  -0.060157   0.074595  -0.099723  -0.207833
     5  C    0.150978  -0.013227  -0.010466   0.066018  -0.353307   0.009040
     6  C   -7.847739   0.348118  -0.523116   1.450774  -8.455601   0.237072
     7  C   19.554095  -1.008161  -0.568376  -1.486498  -0.940117  -0.035348
     8  N   -1.008161   7.492008   0.001473   0.412085  -0.499456  -0.017917
     9  C   -0.568376   0.001473  10.596186  -3.232042   1.069095   0.010499
    10  C   -1.486498   0.412085  -3.232042  13.973206  -5.633914  -0.001723
    11  C   -0.940117  -0.499456   1.069095  -5.633914  21.812068  -0.061591
    12  C   -0.035348  -0.017917   0.010499  -0.001723  -0.061591   4.481710
    13  H    0.449678  -0.013744   0.043461  -0.078825  -0.036149   0.051425
    14  H    0.141879   0.018989  -0.023612  -0.012158   0.104871   0.017429
    15  H   -0.029082  -0.011522   0.003691   0.031502  -0.044795   0.016935
    16  H    0.019065  -0.001902   0.002285   0.012144   0.009757  -0.015896
    17  H    0.003592  -0.000506   0.000692  -0.005112   0.000531   0.014048
    18  H    0.017125  -0.000118  -0.000548   0.004157   0.024070  -0.016251
    19  H   -0.017226   0.001946  -0.003199   0.000678  -0.006846  -0.013839
    20  H    0.201218  -0.025581  -0.205415   1.103081  -2.386280  -0.029206
    21  H    0.002847  -0.005568  -0.956384   0.364083   0.058653   0.003063
    22  H    0.704155   0.068202  -0.375408  -0.197288   0.003274  -0.001600
    23  H   -1.041148   0.078623  -0.053965   0.052774   0.018921   0.005277
    24  H   -0.225044   0.024975  -0.013208   0.059175  -0.038625   0.262719
    25  H    0.085631  -0.009730   0.003168   0.000631   0.025419   0.141615
    26  H    0.027915  -0.003639   0.005162  -0.003448  -0.044184   0.346801
    27  H    0.067252  -0.040515   0.547641  -1.348901   0.874525  -0.007828
    28  O    0.112440  -0.220184   0.013774  -0.061783   0.053265  -0.000578
    29  H   -0.010925   0.006285  -0.000855   0.005392   0.003414  -0.000495
    30  H   -0.007335   0.007129  -0.005656   0.006694   0.008009   0.000071
    31  O   -0.002170  -0.000223   0.004469   0.001087  -0.000596  -0.000000
    32  H   -0.002604   0.000702   0.000306   0.000421  -0.000369  -0.000002
    33  H    0.001010   0.000119  -0.001270  -0.000207  -0.000259   0.000001
    34  O    0.000152  -0.003660   0.002623   0.001499   0.000029  -0.000017
    35  H    0.001168   0.000019  -0.001523  -0.000341   0.000041  -0.000001
    36  H   -0.001841   0.000972   0.001408   0.000764  -0.000831   0.000041
    37  O    0.000098   0.000266   0.000106   0.000061  -0.000019   0.000003
    38  H   -0.000006  -0.000023  -0.000085  -0.000012   0.000010  -0.000001
    39  H   -0.000006   0.000043  -0.000021   0.000011  -0.000006   0.000002
              13         14         15         16         17         18
     1  C    0.382112  -0.352819  -0.715543   0.122472   0.321394  -0.125661
     2  C   -2.233309   0.039023   0.200128  -0.036026  -0.018212  -0.278947
     3  N   -0.130120   0.029952   0.152029   0.087186  -0.031794   0.458554
     4  C   -0.126196   0.063586  -0.150635  -0.026837   0.134136  -0.283277
     5  C    0.054249   0.280204   0.240229  -0.226706  -0.323055   0.072444
     6  C    0.469518  -0.504141   0.209573   0.046676  -0.040342   0.181694
     7  C    0.449678   0.141879  -0.029082   0.019065   0.003592   0.017125
     8  N   -0.013744   0.018989  -0.011522  -0.001902  -0.000506  -0.000118
     9  C    0.043461  -0.023612   0.003691   0.002285   0.000692  -0.000548
    10  C   -0.078825  -0.012158   0.031502   0.012144  -0.005112   0.004157
    11  C   -0.036149   0.104871  -0.044795   0.009757   0.000531   0.024070
    12  C    0.051425   0.017429   0.016935  -0.015896   0.014048  -0.016251
    13  H    3.155498   0.139052  -0.293522  -0.047003   0.042404  -0.076559
    14  H    0.139052   2.218711  -0.493629  -0.348300   0.142341  -0.040420
    15  H   -0.293522  -0.493629   2.340410   0.190521  -0.304736   0.059920
    16  H   -0.047003  -0.348300   0.190521   2.074350  -0.454069   0.170589
    17  H    0.042404   0.142341  -0.304736  -0.454069   1.920241  -0.202523
    18  H   -0.076559  -0.040420   0.059920   0.170589  -0.202523   1.854178
    19  H    0.051137   0.019543  -0.025382  -0.259948   0.074321  -0.442212
    20  H    0.007569  -0.020087   0.001254   0.010516   0.003898   0.002419
    21  H    0.000499  -0.001482   0.001426   0.000199  -0.000004   0.000141
    22  H    0.002821  -0.003181   0.003994   0.001095  -0.000049   0.000120
    23  H   -0.088533   0.018927   0.002159   0.000396   0.000837   0.004128
    24  H    0.028508   0.008446  -0.003491  -0.007679  -0.000653  -0.003590
    25  H    0.048310   0.001290   0.001088  -0.001048   0.007343   0.001967
    26  H    0.001754  -0.002333   0.001016   0.007447  -0.002577  -0.000676
    27  H    0.003578  -0.002016  -0.001213   0.000389  -0.000386  -0.000116
    28  O    0.000976   0.000110  -0.000098  -0.000016  -0.000003  -0.000033
    29  H   -0.000120   0.000266  -0.000130  -0.000029   0.000004   0.000013
    30  H    0.000288   0.000168  -0.000088  -0.000025   0.000007  -0.000025
    31  O   -0.000034   0.000027   0.000013  -0.000000   0.000000   0.000001
    32  H    0.000017  -0.000002   0.000004  -0.000001   0.000000   0.000000
    33  H   -0.000029  -0.000002   0.000002   0.000001  -0.000000   0.000000
    34  O   -0.000026   0.000013  -0.000010  -0.000001   0.000001  -0.000001
    35  H   -0.000005   0.000001  -0.000002  -0.000000   0.000000  -0.000001
    36  H    0.000016  -0.000005   0.000007   0.000001  -0.000000   0.000002
    37  O    0.000075  -0.000001   0.000003   0.000000  -0.000000  -0.000000
    38  H   -0.000009  -0.000000   0.000000   0.000000   0.000000  -0.000000
    39  H    0.000005  -0.000001   0.000001   0.000000  -0.000000   0.000000
              19         20         21         22         23         24
     1  C    0.129859   0.060089   0.005824  -0.031149   0.151681   0.127192
     2  C    0.556306   0.073414   0.020552  -0.086577   0.059745   0.186748
     3  N   -0.704380  -0.217875   0.003472   0.006607   0.057804  -0.169665
     4  C   -0.101815   0.026766  -0.001106  -0.006133   0.017386  -0.076453
     5  C   -0.041951   0.010102  -0.000435   0.005752   0.001773  -0.068335
     6  C   -0.225455   0.140504   0.262586  -0.818989   0.082712   0.049566
     7  C   -0.017226   0.201218   0.002847   0.704155  -1.041148  -0.225044
     8  N    0.001946  -0.025581  -0.005568   0.068202   0.078623   0.024975
     9  C   -0.003199  -0.205415  -0.956384  -0.375408  -0.053965  -0.013208
    10  C    0.000678   1.103081   0.364083  -0.197288   0.052774   0.059175
    11  C   -0.006846  -2.386280   0.058653   0.003274   0.018921  -0.038625
    12  C   -0.013839  -0.029206   0.003063  -0.001600   0.005277   0.262719
    13  H    0.051137   0.007569   0.000499   0.002821  -0.088533   0.028508
    14  H    0.019543  -0.020087  -0.001482  -0.003181   0.018927   0.008446
    15  H   -0.025382   0.001254   0.001426   0.003994   0.002159  -0.003491
    16  H   -0.259948   0.010516   0.000199   0.001095   0.000396  -0.007679
    17  H    0.074321   0.003898  -0.000004  -0.000049   0.000837  -0.000653
    18  H   -0.442212   0.002419   0.000141   0.000120   0.004128  -0.003590
    19  H    2.505651   0.010736  -0.000124  -0.000687  -0.001104   0.007848
    20  H    0.010736   3.325121  -0.015960   0.022813  -0.022491   0.019779
    21  H   -0.000124  -0.015960   2.216364  -0.182005   0.003528  -0.000170
    22  H   -0.000687   0.022813  -0.182005   1.814429  -0.067901  -0.006217
    23  H   -0.001104  -0.022491   0.003528  -0.067901   2.553290   0.007113
    24  H    0.007848   0.019779  -0.000170  -0.006217   0.007113   2.126828
    25  H    0.005687   0.003990   0.000002   0.003475   0.002095  -0.403293
    26  H    0.013779  -0.002369   0.000386   0.000091   0.001554  -0.553950
    27  H   -0.000694  -0.128905  -0.128330   0.014130  -0.000483   0.000658
    28  O    0.000011   0.001190  -0.002095   0.076126   0.003648  -0.000138
    29  H    0.000023  -0.000126   0.003203  -0.039927   0.007578   0.000124
    30  H    0.000010  -0.000227   0.007623  -0.028605   0.001141   0.000074
    31  O    0.000000  -0.000022   0.001220  -0.008478   0.000897   0.000012
    32  H    0.000000  -0.000005  -0.000043   0.003302  -0.000324   0.000001
    33  H   -0.000000  -0.000002  -0.000111   0.003098   0.000122  -0.000001
    34  O    0.000000  -0.000006   0.001051  -0.008360   0.002086   0.000078
    35  H    0.000000  -0.000002  -0.000220   0.002827   0.000190   0.000001
    36  H   -0.000001  -0.000007   0.000440   0.001061  -0.001361   0.000002
    37  O   -0.000000  -0.000001  -0.000057   0.000307  -0.000940   0.000010
    38  H   -0.000000  -0.000000  -0.000014   0.000392  -0.000075   0.000001
    39  H   -0.000000  -0.000000  -0.000004  -0.000154  -0.000124  -0.000004
              25         26         27         28         29         30
     1  C   -0.023558  -0.057517  -0.009399  -0.002310   0.001451  -0.000804
     2  C   -0.299399  -0.068240   0.014224  -0.003694   0.003850   0.004789
     3  N    0.222281  -0.256930  -0.004434   0.000432   0.000161  -0.000235
     4  C    0.015308   0.028654   0.001007   0.000194   0.000343   0.000011
     5  C    0.056946   0.051001   0.005020  -0.000220  -0.000201  -0.000089
     6  C    0.006097   0.130518  -0.395482  -0.142195   0.011211   0.002078
     7  C    0.085631   0.027915   0.067252   0.112440  -0.010925  -0.007335
     8  N   -0.009730  -0.003639  -0.040515  -0.220184   0.006285   0.007129
     9  C    0.003168   0.005162   0.547641   0.013774  -0.000855  -0.005656
    10  C    0.000631  -0.003448  -1.348901  -0.061783   0.005392   0.006694
    11  C    0.025419  -0.044184   0.874525   0.053265   0.003414   0.008009
    12  C    0.141615   0.346801  -0.007828  -0.000578  -0.000495   0.000071
    13  H    0.048310   0.001754   0.003578   0.000976  -0.000120   0.000288
    14  H    0.001290  -0.002333  -0.002016   0.000110   0.000266   0.000168
    15  H    0.001088   0.001016  -0.001213  -0.000098  -0.000130  -0.000088
    16  H   -0.001048   0.007447   0.000389  -0.000016  -0.000029  -0.000025
    17  H    0.007343  -0.002577  -0.000386  -0.000003   0.000004   0.000007
    18  H    0.001967  -0.000676  -0.000116  -0.000033   0.000013  -0.000025
    19  H    0.005687   0.013779  -0.000694   0.000011   0.000023   0.000010
    20  H    0.003990  -0.002369  -0.128905   0.001190  -0.000126  -0.000227
    21  H    0.000002   0.000386  -0.128330  -0.002095   0.003203   0.007623
    22  H    0.003475   0.000091   0.014130   0.076126  -0.039927  -0.028605
    23  H    0.002095   0.001554  -0.000483   0.003648   0.007578   0.001141
    24  H   -0.403293  -0.553950   0.000658  -0.000138   0.000124   0.000074
    25  H    1.546412  -0.272861  -0.001418   0.000066  -0.000089  -0.000018
    26  H   -0.272861   1.891631   0.000280  -0.000050  -0.000021  -0.000017
    27  H   -0.001418   0.000280   2.129908  -0.001365   0.000318  -0.000266
    28  O    0.000066  -0.000050  -0.001365   8.050002   0.330656   0.341229
    29  H   -0.000089  -0.000021   0.000318   0.330656   0.618730  -0.165614
    30  H   -0.000018  -0.000017  -0.000266   0.341229  -0.165614   0.628847
    31  O   -0.000001   0.000000   0.000000  -0.041903   0.002471  -0.012908
    32  H   -0.000001  -0.000000   0.000004   0.001981  -0.003499   0.000952
    33  H    0.000001   0.000000   0.000006   0.002120  -0.001802  -0.001822
    34  O   -0.000007  -0.000002   0.000008  -0.044677   0.002169   0.004724
    35  H    0.000003  -0.000000   0.000004   0.001336  -0.003882  -0.001063
    36  H   -0.000011   0.000006  -0.000010   0.003598  -0.005559  -0.001381
    37  O   -0.000004   0.000000   0.000002   0.000332  -0.007492   0.001604
    38  H    0.000003  -0.000000   0.000001   0.000200  -0.001007   0.000026
    39  H   -0.000006   0.000001   0.000001  -0.000023  -0.000070   0.000096
              31         32         33         34         35         36
     1  C    0.000195   0.000051   0.000031   0.000018  -0.000010   0.000001
     2  C    0.000036   0.000075  -0.000052   0.000243   0.000028   0.000008
     3  N   -0.000002  -0.000009   0.000004   0.000000  -0.000001  -0.000021
     4  C   -0.000000   0.000003  -0.000001   0.000002  -0.000001  -0.000010
     5  C    0.000007  -0.000002   0.000006  -0.000000  -0.000001   0.000009
     6  C    0.003145   0.000820   0.000069   0.000791  -0.000036   0.000759
     7  C   -0.002170  -0.002604   0.001010   0.000152   0.001168  -0.001841
     8  N   -0.000223   0.000702   0.000119  -0.003660   0.000019   0.000972
     9  C    0.004469   0.000306  -0.001270   0.002623  -0.001523   0.001408
    10  C    0.001087   0.000421  -0.000207   0.001499  -0.000341   0.000764
    11  C   -0.000596  -0.000369  -0.000259   0.000029   0.000041  -0.000831
    12  C   -0.000000  -0.000002   0.000001  -0.000017  -0.000001   0.000041
    13  H   -0.000034   0.000017  -0.000029  -0.000026  -0.000005   0.000016
    14  H    0.000027  -0.000002  -0.000002   0.000013   0.000001  -0.000005
    15  H    0.000013   0.000004   0.000002  -0.000010  -0.000002   0.000007
    16  H   -0.000000  -0.000001   0.000001  -0.000001  -0.000000   0.000001
    17  H    0.000000   0.000000  -0.000000   0.000001   0.000000  -0.000000
    18  H    0.000001   0.000000   0.000000  -0.000001  -0.000001   0.000002
    19  H    0.000000   0.000000  -0.000000   0.000000   0.000000  -0.000001
    20  H   -0.000022  -0.000005  -0.000002  -0.000006  -0.000002  -0.000007
    21  H    0.001220  -0.000043  -0.000111   0.001051  -0.000220   0.000440
    22  H   -0.008478   0.003302   0.003098  -0.008360   0.002827   0.001061
    23  H    0.000897  -0.000324   0.000122   0.002086   0.000190  -0.001361
    24  H    0.000012   0.000001  -0.000001   0.000078   0.000001   0.000002
    25  H   -0.000001  -0.000001   0.000001  -0.000007   0.000003  -0.000011
    26  H    0.000000  -0.000000   0.000000  -0.000002  -0.000000   0.000006
    27  H    0.000000   0.000004   0.000006   0.000008   0.000004  -0.000010
    28  O   -0.041903   0.001981   0.002120  -0.044677   0.001336   0.003598
    29  H    0.002471  -0.003499  -0.001802   0.002169  -0.003882  -0.005559
    30  H   -0.012908   0.000952  -0.001822   0.004724  -0.001063  -0.001381
    31  O    7.685943   0.351456   0.352995  -0.001625   0.000164  -0.000276
    32  H    0.351456   0.568795  -0.074118   0.000011   0.000012   0.000124
    33  H    0.352995  -0.074118   0.568990  -0.000078   0.000103  -0.000083
    34  O   -0.001625   0.000011  -0.000078   7.732942   0.366115   0.329812
    35  H    0.000164   0.000012   0.000103   0.366115   0.614454  -0.109001
    36  H   -0.000276   0.000124  -0.000083   0.329812  -0.109001   0.573128
    37  O    0.000059   0.000005  -0.000032  -0.036683   0.004632   0.003870
    38  H    0.000057   0.000005   0.000004   0.001741  -0.000034  -0.001176
    39  H   -0.000008  -0.000004  -0.000001  -0.000122  -0.000838  -0.002483
              37         38         39
     1  C   -0.000001   0.000001  -0.000004
     2  C    0.000001  -0.000013   0.000032
     3  N    0.000001   0.000002  -0.000001
     4  C    0.000000  -0.000001   0.000002
     5  C   -0.000000   0.000000  -0.000001
     6  C    0.000366   0.000026  -0.000004
     7  C    0.000098  -0.000006  -0.000006
     8  N    0.000266  -0.000023   0.000043
     9  C    0.000106  -0.000085  -0.000021
    10  C    0.000061  -0.000012   0.000011
    11  C   -0.000019   0.000010  -0.000006
    12  C    0.000003  -0.000001   0.000002
    13  H    0.000075  -0.000009   0.000005
    14  H   -0.000001  -0.000000  -0.000001
    15  H    0.000003   0.000000   0.000001
    16  H    0.000000   0.000000   0.000000
    17  H   -0.000000   0.000000  -0.000000
    18  H   -0.000000  -0.000000   0.000000
    19  H   -0.000000  -0.000000  -0.000000
    20  H   -0.000001  -0.000000  -0.000000
    21  H   -0.000057  -0.000014  -0.000004
    22  H    0.000307   0.000392  -0.000154
    23  H   -0.000940  -0.000075  -0.000124
    24  H    0.000010   0.000001  -0.000004
    25  H   -0.000004   0.000003  -0.000006
    26  H    0.000000  -0.000000   0.000001
    27  H    0.000002   0.000001   0.000001
    28  O    0.000332   0.000200  -0.000023
    29  H   -0.007492  -0.001007  -0.000070
    30  H    0.001604   0.000026   0.000096
    31  O    0.000059   0.000057  -0.000008
    32  H    0.000005   0.000005  -0.000004
    33  H   -0.000032   0.000004  -0.000001
    34  O   -0.036683   0.001741  -0.000122
    35  H    0.004632  -0.000034  -0.000838
    36  H    0.003870  -0.001176  -0.002483
    37  O    7.677662   0.346008   0.346640
    38  H    0.346008   0.561958  -0.071910
    39  H    0.346640  -0.071910   0.574120
 Mulliken charges:
               1
     1  C    0.939947
     2  C    0.786734
     3  N   -0.435475
     4  C    1.197762
     5  C    0.675150
     6  C    1.284851
     7  C    0.600394
     8  N   -0.041145
     9  C    0.792802
    10  C    0.155692
    11  C    1.138604
    12  C    0.845503
    13  H   -0.808766
    14  H   -0.440639
    15  H   -0.382027
    16  H   -0.329604
    17  H   -0.281769
    18  H   -0.380563
    19  H   -0.532669
    20  H   -0.969889
    21  H   -0.663050
    22  H    0.124637
    23  H   -0.857935
    24  H   -0.339337
    25  H   -0.167383
    26  H   -0.239179
    27  H   -0.587196
    28  O   -0.472319
    29  H    0.244184
    30  H    0.210606
    31  O   -0.336004
    32  H    0.151935
    33  H    0.151190
    34  O   -0.350832
    35  H    0.125865
    36  H    0.208030
    37  O   -0.336880
    38  H    0.163934
    39  H    0.154843
 Sum of Mulliken charges =   1.00000
 Mulliken charges with hydrogens summed into heavy atoms:
               1
     1  C    0.117280
     2  C   -0.022032
     3  N   -0.435475
     4  C    0.284530
     5  C    0.063777
     6  C    1.284851
     7  C   -0.257541
     8  N    0.083492
     9  C    0.129752
    10  C   -0.431504
    11  C    0.168715
    12  C    0.099603
    28  O   -0.017530
    31  O   -0.032879
    34  O   -0.016937
    37  O   -0.018103
 Electronic spatial extent (au):  <R**2>=           7922.0191
 Charge=              1.0000 electrons
 Dipole moment (field-independent basis, Debye):
    X=              6.3192    Y=             -0.9445    Z=              1.1753  Tot=              6.4966
 Quadrupole moment (field-independent basis, Debye-Ang):
   XX=            -16.7666   YY=            -61.9677   ZZ=            -74.7116
   XY=              1.4002   XZ=             14.4883   YZ=              6.0583
 Traceless Quadrupole moment (field-independent basis, Debye-Ang):
   XX=             34.3820   YY=            -10.8191   ZZ=            -23.5629
   XY=              1.4002   XZ=             14.4883   YZ=              6.0583
 Octapole moment (field-independent basis, Debye-Ang**2):
  XXX=            359.6906  YYY=             42.6682  ZZZ=             20.0964  XYY=            167.1836
  XXY=             30.0920  XXZ=            100.1553  XZZ=             85.9704  YZZ=            -25.5532
  YYZ=             21.3364  XYZ=             -8.1167
 Hexadecapole moment (field-independent basis, Debye-Ang**3):
 XXXX=          -4803.2672 YYYY=          -1072.3664 ZZZZ=           -771.9278 XXXY=             53.1948
 XXXZ=            455.6237 YYYX=            227.7482 YYYZ=             25.9231 ZZZX=            169.3000
 ZZZY=            -12.3808 XXYY=           -613.4151 XXZZ=           -897.6796 YYZZ=           -286.6398
 XXYZ=            -32.7625 YYXZ=            264.0189 ZZXY=            -22.5751
 N-N= 1.113656912245D+03 E-N=-4.092279240417D+03  KE= 7.999789386449D+02
 Calling FoFJK, ICntrl=      2127 FMM=F ISym2X=0 I1Cent= 0 IOpClX= 0 NMat=1 NMatS=1 NMatT=0.
 ***** Axes restored to original set *****
 -------------------------------------------------------------------
 Center     Atomic                   Forces (Hartrees/Bohr)
 Number     Number              X              Y              Z
 -------------------------------------------------------------------
      1        6          -0.000008233   -0.000047506    0.000011974
      2        6           0.000060222    0.000081203    0.000180869
[...]
 .00001392,0.00000521,-0.00000780,-0.00002498,-0.00000355,-0.00000357,-
 0.00000364,0.00000044,0.00000342,0.00000119,0.00000002,-0.00000021,-0.
 00000587,0.00001091,0.00001712,0.00000018,0.00000394,-0.00004872,0.000
 00270,0.00004350,0.00003252,0.00000909,-0.00000259,-0.00002565,-0.0000
 0804,-0.00001150,-0.00000591,0.00000223,0.00000135,-0.00001083,0.00002
 233,0.00000147,-0.00000373,0.00000105,0.00000169,0.00000093,-0.0000022
 9,-0.00000385,0.00000028,-0.00000187,0.00000357,-0.00000103,-0.0000006
 1,-0.00000010,-0.00000081,-0.00000102,-0.00000011,0.00000044,0.0000008
 1,-0.00000206,-0.00000320,-0.00000069,0.00000057,0.00000033,0.00000408
 ,0.00000097,0.00002809,0.00001672,-0.00001505,0.00017164,-0.00002833,-
 0.00010715,0.00000889,0.00001038,0.00000106,0.00000517,0.00000601,0.00
 000446,0.00000096,-0.00000101,-0.00000591,-0.00000544,-0.00000160,0.00
 000005,0.00000047,0.00000766,0.00000170,0.00008092,-0.00190426,-0.0019
 2134,0.00101638,0.00197775,0.00421104,0.00057052,-0.00018021,0.0000319
 6,-0.00024819,0.00019552,-0.00001675,0.00004522,-0.00007886,0.00003576
 ,0.00004907,-0.00021308,-0.00002929,0.19212438,-0.13080443,0.12876805,
 -0.18654800,0.12659835,-0.00000586,-0.00000875,0.00000214,-0.00000602,
 0.00000843,0.00003074,0.00000297,-0.00000004,-0.00003298,0.00000252,-0
 .00000171,0.00001162,-0.00000018,0.00000349,0.00000047,0.00006364,0.00
 000084,-0.00007289,-0.00010793,-0.00000583,-0.00000900,0.00025545,0.00
 003335,-0.00006410,0.00013880,-0.00001619,0.00009935,-0.00006997,0.000
 01798,-0.00005207,0.00002836,-0.00000783,0.00005495,0.00000341,0.00000
 470,0.00002352,-0.00000199,-0.00000320,-0.00001570,0.00000108,-0.00000
 264,-0.00000159,-0.00000026,0.00000332,-0.00000224,0.00000097,-0.00000
 061,-0.00000152,-0.00000258,0.00000044,-0.00000009,-0.00000001,-0.0000
 0132,-0.00000601,0.00000045,0.00000062,-0.00000079,0.00000058,-0.00000
 004,-0.00000040,0.00002913,-0.00005047,-0.00001386,-0.00048198,-0.0000
 9789,0.00030859,-0.00003164,0.00001510,-0.00000050,-0.00000424,0.00000
 027,0.00000330,-0.00000327,0.00000341,-0.00001247,0.00000261,-0.000000
 88,-0.00000061,0.00001831,-0.00000596,-0.00000668,0.00108797,-0.002651
 57,-0.00212321,-0.00079324,0.00415431,0.00368533,0.00026521,0.00000972
 ,-0.00001612,-0.00005928,-0.00011059,-0.00014367,-0.00001858,0.0000504
 0,0.00003939,0.00000604,-0.00005955,0.00009140,-0.16756365,0.09848115,
 -0.17938869,0.20103322,-0.12260212,0.19635372,0.00000395,0.00001062,-0
 .00000133,-0.00002720,-0.00000510,0.00003549,0.00004872,-0.00002652,-0
 .00001950,-0.00003180,0.00001132,-0.00000609,-0.00000361,-0.00000461,0
 .00000276,-0.00000346,0.00001083,-0.00007864,-0.00005375,-0.00001400,0
 .00008561,-0.00005541,-0.00002384,0.00004836,0.00004007,-0.00000368,-0
 .00000836,-0.00004123,0.00000637,-0.00000848,0.00001184,-0.00000559,0.
 00004670,-0.00001558,0.00002762,0.00001705,0.00000113,0.00000008,-0.00
 002314,0.00000102,-0.00000004,-0.00000372,0.00000018,0.00000081,0.0000
 0271,0.00000285,-0.00000026,-0.00000442,0.00000368,-0.00000316,0.00000
 390,0.00000117,-0.00000144,0.00000347,0.00000440,0.00000234,-0.0000011
 7,-0.00000040,0.00000383,-0.00000167,0.00001013,0.00000724,-0.00000622
 ,0.00023018,0.00005233,0.00002702,-0.00003301,0.00006182,0.00000163,0.
 00000237,-0.00000389,0.00002054,-0.00000981,0.00000087,-0.00001973,0.0
 0000832,-0.00000309,-0.00000599,-0.00000103,0.00000331,0.00000209,-0.0
 0049454,0.00132519,-0.00016043,0.00059129,-0.00272874,0.00108887,-0.00
 012364,0.00024128,-0.00003578,-0.00009493,0.00004486,0.00004839,0.0000
 5880,-0.00003818,-0.00000605,0.00002949,-0.00002394,-0.00003606,-0.047
 14589,0.04324248,0.08161710,0.00299223,-0.00763448,-0.03486755,0.05010
 004,-0.00000777,-0.00001039,-0.00000709,0.00004155,0.00002779,0.000023
 68,-0.00003126,-0.00003431,-0.00002431,0.00000621,-0.00001206,0.000013
 27,0.00000735,0.00000515,-0.00000204,0.00000999,-0.00001423,0.00004358
 ,0.00004578,-0.00000099,0.00000545,-0.00016534,0.00001204,0.00004997,0
 .00002707,0.00000856,-0.00005739,-0.00003103,-0.00000113,-0.00000342,-
 0.00000315,0.00000308,-0.00000826,-0.00001016,0.00003333,0.00002236,-0
 .00000641,0.00000231,0.00000076,0.00000143,-0.00000562,-0.00000557,0.0
 0000083,-0.00000218,0.00000356,-0.00000321,-0.00000189,0.00000085,-0.0
 0000416,-0.00000016,-0.00000162,-0.00000002,0.00000145,-0.00000942,-0.
 00000677,-0.00000185,0.00000053,0.00000357,0.00000320,0.00000595,0.000
 01458,0.00000109,-0.00001683,0.00039449,-0.00006311,-0.00013431,0.0000
 4183,0.00000529,-0.00000039,0.00000305,0.00000985,0.00000450,0.0000004
 3,0.00000193,-0.00001662,-0.00000734,-0.00000315,-0.00000041,-0.000001
 14,0.00000263,-0.00000015,0.00118031,-0.00223828,0.00057929,-0.0018586
 8,0.00290804,-0.00271683,0.00026345,-0.00022192,-0.00038854,-0.0001034
 1,0.00021498,0.00020004,0.00002353,-0.00018745,-0.00005197,-0.00000510
 ,-0.00007358,-0.00007120,0.03665815,-0.05753581,-0.12170452,-0.0017861
 8,0.00492699,0.02374366,-0.03227916,0.05831500,-0.00004428,-0.00006636
 ,-0.00000681,0.00008914,0.00008202,0.00018580,-0.00012613,-0.00001728,
 -0.00015477,0.00006188,-0.00004745,0.00007828,0.00001803,0.00002837,-0
 .00001087,0.00008026,-0.00003461,0.00002599,0.00015804,-0.00007098,0.0
 0033348,-0.00096970,-0.00006097,0.00042576,0.00011243,0.00005360,-0.00
 035862,-0.00020019,0.00001654,-0.00002690,0.00003034,0.00000099,0.0000
 2455,0.00001060,0.00004593,0.00011297,-0.00002108,-0.00001235,-0.00003
 489,0.00000909,-0.00002496,-0.00001950,-0.00000073,0.00000997,-0.00000
 397,-0.00000749,-0.00000488,0.00000213,-0.00002427,0.00000606,-0.00000
 798,-0.00000394,-0.00000122,-0.00004563,-0.00001941,-0.00000549,-0.000
 00329,0.00001730,0.00000079,0.00001538,0.00006042,-0.00004285,-0.00009
 362,0.00204101,0.00001042,-0.00078409,0.00006015,-0.00000283,0.0000477
 1,-0.00000893,0.00002790,-0.00001494,0.00000131,0.00000964,-0.00004706
 ,-0.00001713,-0.00000591,-0.00000293,-0.00000906,-0.00000867,-0.000004
 48,-0.00335964,0.00470563,0.00110888,0.00439027,-0.00721247,-0.0013502
 4,-0.00054027,-0.00099626,0.00025909,0.00015201,0.00065776,-0.00018556
 ,0.00004493,-0.00001846,0.00018246,0.00000165,-0.00015308,-0.00000868,
 0.03996251,-0.09091053,-0.43244196,0.00687263,-0.00732710,-0.01803469,
 -0.04701553,0.09856966,0.44887298,-0.00000021,-0.00000766,0.00000064,0
 .00003643,-0.00000061,-0.00007638,-0.00006113,0.00003820,0.00005642,0.
 00003856,-0.00001463,-0.00001014,0.00000547,0.00000353,-0.00000326,-0.
 00002754,-0.00000572,0.00009116,0.00007756,0.00001391,-0.00007800,-0.0
 0001824,0.00002412,-0.00001648,-0.00004293,-0.00000540,-0.00000314,0.0
 0005213,0.00000087,0.00000608,-0.00001444,0.00000327,-0.00005615,0.000
 01793,-0.00004006,-0.00005574,-0.00000230,0.00000376,0.00003727,-0.000
 00186,0.00000204,0.00000786,-0.00000046,-0.00000476,-0.00000374,-0.000
 00426,0.00000086,0.00000848,-0.00000223,0.00000306,-0.00000609,-0.0000
 0194,0.00000383,0.00000374,-0.00000561,-0.00000344,0.00000346,-0.00000
 053,-0.00000368,-0.00000295,-0.00000965,-0.00000644,-0.00000586,-0.000
 05817,-0.00005037,-0.00005069,0.00002350,-0.00005669,-0.00001918,-0.00
 000139,0.00000393,-0.00002185,0.00001299,-0.00000496,0.00003760,-0.000
 01037,0.00000352,0.00000925,-0.00000206,-0.00000330,-0.00000097,0.0002
 0600,0.00021442,0.00015188,-0.00012713,-0.00011896,-0.00010101,-0.0001
 7549,-0.00015686,0.00001282,0.00016245,0.00000612,-0.00003240,-0.00007
 220,0.00004054,0.00000487,-0.00004641,0.00004473,0.00002232,0.00394308
 ,0.00181191,0.00298189,-0.00053095,0.00035461,0.00111340,-0.00650394,-
 0.00406569,-0.00119535,0.38548740,0.00000370,0.00000304,0.00001062,-0.
 00005452,-0.00002929,0.00000369,0.00003535,0.00004763,0.00000271,-0.00
 000377,0.00001142,-0.00000342,-0.00000830,-0.00000322,0.00000241,0.000
 01653,0.00001421,-0.00006394,-0.00007486,-0.00000298,-0.00000055,0.000
 25580,0.00002374,-0.00009566,0.00000535,-0.00001273,0.00006962,0.00001
 229,0.00000456,-0.00000755,0.00001015,-0.00000513,0.00002482,0.0000139
 8,-0.00003912,-0.00000863,0.00000794,-0.00000672,-0.00001224,-0.000001
 12,0.00000486,0.00000461,-0.00000063,0.00000691,-0.00000606,0.00000406
 ,0.00000192,-0.00000243,0.00000164,0.00000118,0.00000218,-0.00000060,-
 0.00000365,0.00000562,0.00000813,0.00000264,-0.00000238,-0.00000315,-0
 .00000409,-0.00000520,-0.00001360,-0.00001255,0.00001607,-0.00052406,-
 0.00005016,0.00024107,-0.00004424,-0.00001430,0.00001283,-0.00000694,-
 0.00001104,-0.00000588,-0.00000224,-0.00000108,0.00001309,0.00001058,0
 .00000313,-0.00000142,0.00000444,-0.00000599,-0.00000205,0.00034574,-0
 .00008185,-0.00046621,-0.00014636,0.00016655,0.00033543,0.00000238,0.0
 0007255,0.00018107,0.00003362,-0.00016270,-0.00019896,-0.00001665,0.00
 014671,0.00010039,0.00000818,0.00003995,0.00007828,0.00163419,0.003038
 79,-0.00531903,0.00031088,-0.00071548,-0.00069868,-0.00400491,-0.00688
 672,0.00137145,0.27016071,0.49384626,0.00003016,0.00004536,0.00000163,
 -0.00005210,-0.00005045,-0.00012358,0.00008758,-0.00000184,0.00010743,
 -0.00004818,0.00003101,-0.00006060,-0.00001105,-0.00001886,0.00000678,
 -0.00006190,0.00002407,-0.00002451,-0.00009360,0.00003524,-0.00018950,
 0.00055557,0.00001829,-0.00023962,-0.00006754,-0.00002926,0.00021232,0
 .00011840,-0.00001071,0.00001568,-0.00001844,0.00000077,-0.00001014,-0
 .00001237,-0.00001853,-0.00007863,0.00001117,0.00001094,0.00002281,-0.
 00000546,0.00001552,0.00001349,-0.00000007,-0.00000843,0.00000303,0.00
 000468,0.00000309,-0.00000077,0.00001708,-0.00000563,0.00000529,0.0000
 0243,0.00000229,0.00003321,0.00001199,0.00000380,0.00000301,-0.0000123
 1,0.00000107,-0.00001106,-0.00003283,0.00002638,0.00005387,-0.00116036
 ,0.00002409,0.00045462,-0.00004543,0.00001520,-0.00003290,0.00000895,-
 0.00001645,0.00001728,-0.00000322,-0.00000672,0.00002736,0.00000991,0.
 00000279,0.00000111,0.00000481,0.00000721,0.00000425,0.00136595,-0.002
 06819,-0.00052000,-0.00163838,0.00310405,0.00062399,0.00033115,0.00056
 917,-0.00013437,-0.00005849,-0.00040432,0.00008259,-0.00004271,0.00004
 685,-0.00010528,-0.00001022,0.00009806,0.00001305,0.00229423,-0.005772
 39,-0.01391033,0.00093710,-0.00065117,0.00012768,-0.00107037,0.0021726
 5,-0.00379349,-0.20148005,0.11083391,0.33086522,-0.00000042,0.00000099
 ,0.00000196,-0.00001641,-0.00000106,0.00002864,0.00002152,-0.00000804,
 -0.00002235,-0.00001161,0.00000569,0.00000658,-0.00000278,-0.00000092,
 0.00000133,0.00001408,0.00000254,-0.00003421,-0.00003039,-0.00000254,0
 .00002349,0.00003775,-0.00000367,-0.00000959,0.00001495,0.00000026,0.0
 0000868,-0.00001527,-0.00000031,-0.00000268,0.00000532,-0.00000298,0.0
 0001913,-0.00000426,0.00000910,0.00002040,0.00000189,-0.00000327,-0.00
 001396,0.00000039,-0.00000003,-0.00000294,0.00000001,0.00000317,0.0000
 0065,0.00000188,-0.00000008,-0.00000363,0.00000028,-0.00000055,0.00000
 247,0.00000073,-0.00000211,-0.00000234,0.00000249,0.00000150,-0.000001
 62,0.00000034,0.00000130,0.00000121,0.00000133,0.00000193,0.00000402,-
 0.00005270,0.00000559,0.00004545,-0.00001108,0.00000970,0.00000973,-0.
 00000017,-0.00000169,0.00000458,-0.00000328,0.00000178,-0.00001130,0.0
 0000360,-0.00000027,-0.00000279,0.00000129,0.00000113,0.00000034,-0.00
 000272,-0.00012890,-0.00014281,-0.00003183,0.00012575,0.00010174,0.000
 08313,0.00007965,0.00003445,-0.00008852,-0.00002174,-0.00001702,0.0000
 4506,0.00000363,0.00001906,0.00003185,-0.00002074,-0.00000672,-0.00002
 367,-0.00096961,-0.00168300,0.00021228,0.00012782,-0.00001132,-0.00015
 136,0.00137880,0.00210082,-0.30872754,-0.13757047,0.22497404,0.3194259
 4,0.00000232,0.00000583,-0.00000505,0.00001220,0.00000621,-0.00000879,
 -0.00000161,-0.00002241,0.00000601,-0.00000514,0.00000067,-0.00000323,
 0.00000197,-0.00000151,-0.00000027,-0.00001093,-0.00000143,0.00001445,
 0.00001113,0.00000404,-0.00001241,-0.00003428,-0.00001013,0.00001017,-
 0.00000667,0.00000370,-0.00000185,0.00000517,-0.00000313,0.00000296,-0
 .00000403,0.00000149,-0.00000715,-0.00000696,0.00001610,0.00000013,-0.
 00000181,0.00000365,0.00000457,0.00000016,-0.00000045,-0.00000159,0.00
 000058,-0.00000354,0.00000414,-0.00000093,-0.00000055,0.00000041,0.000
 00176,-0.00000099,0.00000012,0.00000079,0.00000131,0.00000062,-0.00000
 174,-0.00000091,0.00000124,0.00000015,0.00000227,0.00000072,0.00000126
 ,0.00000961,0.00000027,0.00006895,0.00003225,-0.00003354,0.00000855,0.
 00001712,-0.00000617,0.00000356,0.00000168,0.00000449,-0.00000010,-0.0
 0000010,-0.00000478,-0.00000248,-0.00000132,0.00000005,-0.00000081,0.0
 0000350,0.00000111,-0.00001142,-0.00035527,0.00010024,-0.00013263,0.00
 047436,0.00000862,0.00010800,0.00011483,-0.00012189,-0.00007610,0.0000
 2009,0.00015264,0.00002846,-0.00009592,-0.00009331,0.00000132,-0.00001
 619,-0.00005595,-0.00032818,-0.00097511,-0.00184207,0.00002178,0.00001
 042,-0.00007744,0.00107601,0.00155297,0.00330036,-0.10326521,-0.075173
 70,0.04942879,0.13552660,0.08607261,-0.00000483,-0.00000761,0.00000125
 ,0.00000626,0.00000725,0.00001910,-0.00001487,0.00000426,-0.00001830,0
 .00000965,-0.00000507,0.00001216,0.00000187,0.00000277,-0.00000062,0.0
 0001310,-0.00000361,0.00000311,0.00000692,-0.00000329,0.00002171,-0.00
 006914,-0.00000096,0.00002830,0.00001118,0.00000392,-0.00002370,-0.000
 01735,0.00000056,-0.00000216,0.00000301,0.00000078,0.00000182,0.000002
 68,0.00000002,0.00001188,-0.00000113,-0.00000252,-0.00000367,0.0000007
 5,-0.00000207,-0.00000254,0.00000039,0.00000189,-0.00000047,-0.0000006
 3,-0.00000040,-0.00000010,-0.00000313,0.00000139,-0.00000093,-0.000000
 25,-0.00000091,-0.00000622,-0.00000169,-0.00000071,-0.00000063,0.00000
 181,-0.00000064,0.00000212,0.00000457,-0.00000206,-0.00000479,0.000138
 75,-0.00000045,-0.00005401,0.00000720,-0.00000315,0.00000429,-0.000002
 50,0.00000209,-0.00000392,0.00000124,0.00000092,-0.00000310,-0.0000010
 3,-0.00000039,0.00000029,0.00000033,-0.00000125,-0.00000080,-0.0001208
 3,0.00002002,0.00007007,0.00006142,-0.00001655,-0.00009843,0.00003965,
 -0.00003920,-0.00002319,-0.00005751,0.00008651,0.00002431,0.00002933,-
 0.00005164,0.00001059,0.00001725,-0.00004079,-0.00001859,-0.00101032,-
 0.00104533,-0.00151965,0.00033534,-0.00001184,-0.00049878,0.00244124,0
 .00235726,0.00214800,0.25117524,0.08662501,-0.20853240,-0.23800178,-0.
 07721307,0.20027052,-0.00000274,0.00000046,-0.00000380,-0.00000442,0.0
 0001124,0.00005588,0.00002592,-0.00003892,-0.00004590,-0.00002240,0.00
 000422,0.00001155,-0.00000073,0.00000018,0.00000127,0.00001914,-0.0000
 0247,-0.00003574,-0.00002175,-0.00001068,0.00005197,-0.00007589,-0.000
 01948,0.00004441,0.00002856,0.00000813,-0.00002701,-0.00004084,-0.0000
 0084,-0.00000153,0.00000536,-0.00000036,0.00002872,-0.00001500,0.00003
 879,0.00004733,-0.00000109,-0.00000083,-0.00002221,0.00000167,-0.00000
 381,-0.00000649,0.00000031,0.00000173,0.00000316,0.00000132,-0.0000014
 6,-0.00000498,-0.00000017,-0.00000217,0.00000318,0.00000130,-0.0000015
 5,-0.00000615,0.00000100,0.00000155,-0.00000195,0.00000196,0.00000314,
 0.00000490,0.00000907,0.00000369,-0.00000312,0.00021457,0.00003568,-0.
 00005704,0.00000398,0.00003383,0.00000857,0.00000202,0.00000149,0.0000
 1568,-0.00000850,0.00000510,-0.00003197,0.00000360,-0.00000346,-0.0000
 0606,-0.00000029,0.00000206,0.00000099,-0.00026786,0.00011342,0.000075
 91,0.00023378,-0.00024540,-0.00009977,0.00002438,-0.00000072,-0.000014
 52,-0.00004313,0.00003414,0.00001804,0.00002294,-0.00002501,-0.0000037
 9,0.00001367,-0.00001979,-0.00000990,-0.00041951,0.00011270,0.00140631
 ,-0.00002493,-0.00010980,-0.00002456,0.00064872,0.00027358,-0.00271166
 ,-0.07361450,-0.13040926,-0.02484008,-0.01073212,-0.03298970,-0.015002
 19,0.08403265,-0.00000063,-0.00000089,-0.00000358,0.00002995,0.0000121
 1,-0.00002005,-0.00002038,-0.00001957,0.00001186,0.00000389,-0.0000058
 5,-0.00000332,0.00000373,0.00000151,-0.00000129,-0.00001208,-0.0000061
 2,0.00003896,0.00003932,0.00000503,-0.00001981,-0.00008200,-0.00000567
 ,0.00002650,-0.00000851,0.00000433,-0.00001943,0.00000588,-0.00000312,
 0.00000386,-0.00000651,0.00000284,-0.00001849,-0.00000538,0.00001297,-
 0.00000798,-0.00000367,0.00000365,0.00001263,-0.00000024,-0.00000133,-
 0.00000029,-0.00000021,-0.00000421,0.00000199,-0.00000206,-0.00000060,
 0.00000197,-0.00000032,-0.00000063,-0.00000139,0.00000031,0.00000250,-
 0.00000044,-0.00000420,-0.00000121,0.00000202,0.00000061,0.00000171,0.
 00000161,0.00000378,0.00000473,-0.00000466,0.00014660,0.00000949,-0.00
 008341,0.00001729,-0.00000620,-0.00000897,0.00000459,0.00000586,0.0000
 0064,0.00000336,0.,0.00000008,-0.00000743,-0.00000034,0.00000294,-0.00
 000146,0.00000289,0.00000120,-0.00008587,0.00008630,0.00014039,0.00003
 806,-0.00012560,-0.00008237,-0.00001980,-0.00002892,-0.00003030,0.0000
 0024,0.00004191,0.00004590,0.00000057,-0.00002744,-0.00002455,-0.00000
 129,-0.00000947,-0.00002064,-0.00054950,0.00023618,0.00146436,0.000108
 83,0.00017060,-0.00012788,0.00067542,-0.00074086,-0.00187233,-0.164923
 50,-0.41421353,-0.15745765,0.00145204,-0.01169206,-0.01066112,0.163200
 57,0.42628900,-0.00000597,-0.00000969,0.00000179,0.00000334,0.00000647
 ,0.00002294,-0.00002129,0.00001269,-0.00002451,0.00001653,-0.00000517,
 0.00001826,0.00000137,0.00000396,-0.00000152,0.00002118,-0.00000452,0.
 00000474,0.00000600,-0.00000298,0.00001863,-0.00002861,0.00000837,0.00
 001132,0.00000878,0.00000178,-0.00002081,-0.00001349,0.00000325,-0.000
 00463,0.00000544,-0.00000002,-0.00000031,0.00000955,-0.00000819,0.0000
 1969,-0.00000044,-0.00000374,-0.00000438,0.00000073,-0.00000229,-0.000
 00219,0.00000029,0.00000302,-0.00000144,-0.00000078,-0.00000049,0.0000
 0004,-0.00000381,0.00000248,-0.00000120,-0.00000036,-0.00000136,-0.000
 00853,-0.00000171,-0.00000105,-0.00000085,0.00000260,-0.00000188,0.000
 00204,-0.00000022,-0.00000908,-0.00000449,0.00003822,-0.00002687,-0.00
 001787,0.00000456,-0.00001186,0.00000765,-0.00000488,0.00000092,-0.000
 01064,0.00000239,0.00000196,-0.00000202,-0.00000099,0.00000048,0.00000
 071,0.00000095,-0.00000376,-0.00000230,-0.00003023,0.00010267,0.000004
 34,0.00004274,-0.00010262,-0.00004462,-0.00001910,-0.00004560,0.000020
 63,-0.00000031,0.00003400,-0.00001434,0.00000709,-0.00000442,0.0000120
 5,0.00000356,-0.00001098,0.00000317,0.00086851,0.00093898,-0.00233649,
 -0.00003788,-0.00041324,-0.00033354,-0.00211266,-0.00257616,0.00361151
 ,-0.05250495,-0.19303460,-0.10492854,0.01256129,0.02644646,0.00818747,
 0.04118257,0.16871306,0.09581826\\-0.00000140,0.00000102,0.00000118,0.
 00000132,-0.00000094,0.00000053,-0.00000057,-0.00000034,-0.00000023,0.
 00000073,0.00000196,0.00000084,0.00000148,-0.00000003,0.00000078,0.000
 00010,0.00000031,0.00000011,0.00000138,-0.00000159,0.00000283,-0.00000
 698,0.00000254,-0.00001339,0.00000122,-0.00000068,0.00000354,0.0000003
 9,-0.00000094,-0.00000015,0.00000022,0.,0.00000137,0.00000031,0.000000
 07,-0.00000053,-0.00000021,0.00000085,0.00000017,0.00000033,0.00000039
 ,0.00000032,0.00000039,0.00000036,0.00000042,-0.00000002,0.00000019,0.
 00000041,-0.00000004,0.00000061,0.00000064,-0.00000027,0.00000025,0.00
 000020,-0.00000026,0.00000011,0.00000017,-0.00000036,-0.00000060,-0.00
 000082,0.00000076,-0.00000057,-0.00000099,0.00000285,-0.00000373,0.000
 00719,-0.00000109,0.00000026,0.00000016,-0.00000034,0.00000016,-0.0000
 0003,-0.00000026,0.00000070,-0.00000011,-0.00000020,0.00000018,-0.0000
 0029,-0.00000001,-0.00000062,-0.00000003,0.00001028,0.00000291,-0.0000
 0444,-0.00000745,-0.00000130,0.00000136,-0.00000354,-0.00000014,0.0000
 0246,0.00000043,0.00000185,-0.00000059,0.00000039,-0.00000010,0.000000
 45,0.00000012,-0.00000157,0.00000072,0.00000377,0.00000041,0.00000405,
 -0.00000145,-0.00000192,-0.00000277,-0.00000190,-0.00000044,0.00000117
 ,0.00000045,0.00000121,-0.00000311,0.00000051,0.00000045,-0.00000268,-
 0.00000107,-0.00000127,-0.00000089\\\@


 AN AIRPLANE IS A COLLECTION OF SPARE PARTS
 FLYING IN CLOSE FORMATION.
 Job cpu time:       0 days 23 hours 26 minutes 59.6 seconds.
 Elapsed time:       0 days  0 hours 50 minutes 17.9 seconds.
 File lengths (MBytes):  RWF=   1240 Int=      0 D2E=      0 Chk=     32 Scr=      8
 Normal termination of Gaussian 16 at Fri Jan 27 21:23:05 2023.
