 Entering Gaussian System, Link 0=g16
 Input=NicPySa4hYiaa.gjf
 Output=NicPySa4hYiaa.log
 Initial command:
 /sw/contrib/gaussian/g16/A03/g16/l1.exe "/gscratch/scrubbed/gds001/Gau-26712.inp" -scrdir="/gscratch/scrubbed/gds001/"
 Entering Link 1 = /sw/contrib/gaussian/g16/A03/g16/l1.exe PID=     26713.
  
 Copyright (c) 1988,1990,1992,1993,1995,1998,2003,2009,2016,
            Gaussian, Inc.  All Rights Reserved.
  
 This is part of the Gaussian(R) 16 program.  It is based on
 the Gaussian(R) 09 system (copyright 2009, Gaussian, Inc.),
 the Gaussian(R) 03 system (copyright 2003, Gaussian, Inc.),
 the Gaussian(R) 98 system (copyright 1998, Gaussian, Inc.),
 the Gaussian(R) 94 system (copyright 1995, Gaussian, Inc.),
 the Gaussian 92(TM) system (copyright 1992, Gaussian, Inc.),
 the Gaussian 90(TM) system (copyright 1990, Gaussian, Inc.),
 the Gaussian 88(TM) system (copyright 1988, Gaussian, Inc.),
 the Gaussian 86(TM) system (copyright 1986, Carnegie Mellon
 University), and the Gaussian 82(TM) system (copyright 1983,
 Carnegie Mellon University). Gaussian is a federally registered
 trademark of Gaussian, Inc.
  
 This software contains proprietary and confidential information,
 including trade secrets, belonging to Gaussian, Inc.
  
 This software is provided under written license and may be
 used, copied, transmitted, or stored only in accord with that
 written license.
  
 The following legend is applicable only to US Government
 contracts under FAR:
  
                    RESTRICTED RIGHTS LEGEND
  
 Use, reproduction and disclosure by the US Government is
 subject to restrictions as set forth in subparagraphs (a)
 and (c) of the Commercial Computer Software - Restricted
 Rights clause in FAR 52.227-19.
  
 Gaussian, Inc.
 340 Quinnipiac St., Bldg. 40, Wallingford CT 06492
  
  
 ---------------------------------------------------------------
 Warning -- This program may not be used in any manner that
 competes with the business of Gaussian, Inc. or will provide
 assistance to any competitor of Gaussian, Inc.  The licensee
 of this program is prohibited from giving any competitor of
 Gaussian, Inc. access to this program.  By using this program,
 the user acknowledges that Gaussian, Inc. is engaged in the
 business of creating and licensing software in the field of
 computational chemistry and represents and warrants to the
 licensee that it is not a competitor of Gaussian, Inc. and that
 it will not use this program in any manner prohibited above.
 ---------------------------------------------------------------
  

 Cite this work as:
 Gaussian 16, Revision A.03,
 M. J. Frisch, G. W. Trucks, H. B. Schlegel, G. E. Scuseria, 
 M. A. Robb, J. R. Cheeseman, G. Scalmani, V. Barone, 
 G. A. Petersson, H. Nakatsuji, X. Li, M. Caricato, A. V. Marenich, 
 J. Bloino, B. G. Janesko, R. Gomperts, B. Mennucci, H. P. Hratchian, 
 J. V. Ortiz, A. F. Izmaylov, J. L. Sonnenberg, D. Williams-Young, 
 F. Ding, F. Lipparini, F. Egidi, J. Goings, B. Peng, A. Petrone, 
 T. Henderson, D. Ranasinghe, V. G. Zakrzewski, J. Gao, N. Rega, 
 G. Zheng, W. Liang, M. Hada, M. Ehara, K. Toyota, R. Fukuda, 
 J. Hasegawa, M. Ishida, T. Nakajima, Y. Honda, O. Kitao, H. Nakai, 
 T. Vreven, K. Throssell, J. A. Montgomery, Jr., J. E. Peralta, 
 F. Ogliaro, M. J. Bearpark, J. J. Heyd, E. N. Brothers, K. N. Kudin, 
 V. N. Staroverov, T. A. Keith, R. Kobayashi, J. Normand, 
 K. Raghavachari, A. P. Rendell, J. C. Burant, S. S. Iyengar, 
 J. Tomasi, M. Cossi, J. M. Millam, M. Klene, C. Adamo, R. Cammi, 
 J. W. Ochterski, R. L. Martin, K. Morokuma, O. Farkas, 
 J. B. Foresman, and D. J. Fox, Gaussian, Inc., Wallingford CT, 2016.
 
 ******************************************
 Gaussian 16:  ES64L-G16RevA.03 25-Dec-2016
                27-Jan-2023 
 ******************************************
 %nprocshared=28
 Will use up to   28 processors via shared memory.
 %mem=41GB
 -----------------------------
 # wB97XD/aug-cc-pVDZ opt freq
 -----------------------------
 1/18=20,19=15,26=3,38=1/1,3;
 2/9=110,12=2,17=6,18=5,40=1/2;
 3/5=16,7=10,11=2,25=1,30=1,71=1,74=-58/1,2,3;
 4//1;
 5/5=2,38=5/2;
 6/7=2,8=2,9=2,10=2,28=1/1;
 7//1,2,3,16;
 1/18=20,19=15,26=3/3(2);
 2/9=110/2;
 99//99;
 2/9=110/2;
 3/5=16,7=10,11=2,25=1,30=1,71=1,74=-58/1,2,3;
 4/5=5,16=3,69=1/1;
 5/5=2,38=5/2;
 7//1,2,3,16;
 1/18=20,19=15,26=3/3(-5);
 2/9=110/2;
 6/7=2,8=2,9=2,10=2,19=2,28=1/1;
 99/9=1/99;
 ----
 blah
 ----
 Symbolic Z-matrix:
 Charge =  1 Multiplicity = 1
 C                    -1.12634   2.39928  -0.19853 
 C                    -1.18732   1.00295  -0.15662 
 C                     0.01501   0.3143   -0.07424 
 N                     1.18198   0.97388  -0.02879 
 C                     1.25828   2.31208  -0.0593 
 C                     0.0986    3.06179  -0.14591 
 C                    -2.5064    0.26012  -0.15769 
 N                    -2.34212  -1.12321  -0.58557 
 C                    -3.35156  -1.91248   0.11513 
 C                    -3.32158  -1.32689   1.52023 
 C                    -3.1506    0.17999   1.25894 
 O                     3.43893  -0.35068   0.11653 
 O                     4.79268  -1.20765  -2.12644 
 H                    -3.09374  -2.97778   0.07573 
 H                    -4.22656  -1.55084   2.09438 
 H                    -2.46034  -1.7259    2.07053 
 H                    -4.12182   0.68751   1.24616 
 H                    -2.53555   0.67041   2.02198 
 H                    -4.35458  -1.78586  -0.34005 
 H                    -3.19011   0.8091   -0.83486 
 H                     0.0502   -0.77232  -0.05132 
 H                     2.25618   2.74151  -0.01744 
 H                     0.15735   4.14721  -0.17665 
 H                    -2.04931   2.97542  -0.27467 
 C                    -2.33698  -1.29757  -2.02591 
 H                     2.08457   0.41667   0.0304 
 H                     3.9523   -0.68196  -0.64193 
 H                     3.86731  -0.6559    0.93625 
 H                     5.59408  -0.79678  -2.46153 
 H                     4.80341  -2.10957  -2.45757 
 O                     4.54351  -1.1326    2.5178 
 H                     5.30558  -0.7101    2.92289 
 H                     4.51751  -2.02364   2.87642 
 H                    -2.17675  -2.35475  -2.2687 
 H                    -1.519    -0.71929  -2.47708 
 H                    -3.2874   -0.97177  -2.49216 
 O                     6.59844   0.08478   3.87115 
 H                     7.55886   0.19711   3.9708 
 H                     6.24564   0.90953   4.24989 
 
 Add virtual bond connecting atoms H26        and O12        Dist= 2.95D+00.
 Add virtual bond connecting atoms O31        and H28        Dist= 3.37D+00.
 Add virtual bond connecting atoms H27        and O13        Dist= 3.37D+00.
 Add virtual bond connecting atoms O37        and H32        Dist= 3.38D+00.

 GradGradGradGradGradGradGradGradGradGradGradGradGradGradGradGradGradGrad
 Berny optimization.
 Initialization pass.
                           ----------------------------
                           !    Initial Parameters    !
                           ! (Angstroms and Degrees)  !
 --------------------------                            --------------------------
 ! Name  Definition              Value          Derivative Info.                !
 --------------------------------------------------------------------------------
 ! R1    R(1,2)                  1.3983         estimate D2E/DX2                !
 ! R2    R(1,6)                  1.3936         estimate D2E/DX2                !
 ! R3    R(1,24)                 1.0907         estimate D2E/DX2                !
 ! R4    R(2,3)                  1.388          estimate D2E/DX2                !
 ! R5    R(2,7)                  1.5139         estimate D2E/DX2                !
 ! R6    R(3,4)                  1.3412         estimate D2E/DX2                !
 ! R7    R(3,21)                 1.0874         estimate D2E/DX2                !
 ! R8    R(4,5)                  1.3407         estimate D2E/DX2                !
 ! R9    R(4,26)                 1.0624         estimate D2E/DX2                !
 ! R10   R(5,6)                  1.3836         estimate D2E/DX2                !
 ! R11   R(5,22)                 1.0872         estimate D2E/DX2                !
 ! R12   R(6,23)                 1.0874         estimate D2E/DX2                !
 ! R13   R(7,8)                  1.4573         estimate D2E/DX2                !
 ! R14   R(7,11)                 1.5583         estimate D2E/DX2                !
 ! R15   R(7,20)                 1.1079         estimate D2E/DX2                !
 ! R16   R(8,9)                  1.4604         estimate D2E/DX2                !
 ! R17   R(8,25)                 1.4509         estimate D2E/DX2                !
 ! R18   R(9,10)                 1.5225         estimate D2E/DX2                !
 ! R19   R(9,14)                 1.0968         estimate D2E/DX2                !
 ! R20   R(9,19)                 1.1087         estimate D2E/DX2                !
 ! R21   R(10,11)                1.5389         estimate D2E/DX2                !
 ! R22   R(10,15)                1.0949         estimate D2E/DX2                !
 ! R23   R(10,16)                1.0972         estimate D2E/DX2                !
 ! R24   R(11,17)                1.0959         estimate D2E/DX2                !
 ! R25   R(11,18)                1.0959         estimate D2E/DX2                !
 ! R26   R(12,26)                1.559          estimate D2E/DX2                !
 ! R27   R(12,27)                0.9739         estimate D2E/DX2                !
 ! R28   R(12,28)                0.974          estimate D2E/DX2                !
 ! R29   R(13,27)                1.785          estimate D2E/DX2                !
 ! R30   R(13,29)                0.9609         estimate D2E/DX2                !
 ! R31   R(13,30)                0.9608         estimate D2E/DX2                !
 ! R32   R(25,34)                1.0965         estimate D2E/DX2                !
 ! R33   R(25,35)                1.0987         estimate D2E/DX2                !
 ! R34   R(25,36)                1.1076         estimate D2E/DX2                !
 ! R35   R(28,31)                1.7849         estimate D2E/DX2                !
 ! R36   R(31,32)                0.9609         estimate D2E/DX2                !
 ! R37   R(31,33)                0.9608         estimate D2E/DX2                !
 ! R38   R(32,37)                1.7896         estimate D2E/DX2                !
 ! R39   R(37,38)                0.9721         estimate D2E/DX2                !
 ! R40   R(37,39)                0.9737         estimate D2E/DX2                !
 ! A1    A(2,1,6)              120.7923         estimate D2E/DX2                !
 ! A2    A(2,1,24)             119.5164         estimate D2E/DX2                !
 ! A3    A(6,1,24)             119.6912         estimate D2E/DX2                !
 ! A4    A(1,2,3)              117.3508         estimate D2E/DX2                !
 ! A5    A(1,2,7)              121.8692         estimate D2E/DX2                !
 ! A6    A(3,2,7)              120.7544         estimate D2E/DX2                !
 ! A7    A(2,3,4)              120.7767         estimate D2E/DX2                !
 ! A8    A(2,3,21)             121.6717         estimate D2E/DX2                !
 ! A9    A(4,3,21)             117.5502         estimate D2E/DX2                !
 ! A10   A(3,4,5)              122.6555         estimate D2E/DX2                !
 ! A11   A(3,4,26)             118.892          estimate D2E/DX2                !
 ! A12   A(5,4,26)             118.4522         estimate D2E/DX2                !
 ! A13   A(4,5,6)              119.6399         estimate D2E/DX2                !
 ! A14   A(4,5,22)             116.4626         estimate D2E/DX2                !
 ! A15   A(6,5,22)             123.897          estimate D2E/DX2                !
 ! A16   A(1,6,5)              118.7822         estimate D2E/DX2                !
 ! A17   A(1,6,23)             121.3945         estimate D2E/DX2                !
 ! A18   A(5,6,23)             119.8225         estimate D2E/DX2                !
 ! A19   A(2,7,8)              111.5779         estimate D2E/DX2                !
 ! A20   A(2,7,11)             112.6315         estimate D2E/DX2                !
 ! A21   A(2,7,20)             107.1585         estimate D2E/DX2                !
 ! A22   A(8,7,11)             105.3498         estimate D2E/DX2                !
 ! A23   A(8,7,20)             111.1298         estimate D2E/DX2                !
 ! A24   A(11,7,20)            109.0277         estimate D2E/DX2                !
 ! A25   A(7,8,9)              107.1104         estimate D2E/DX2                !
 ! A26   A(7,8,25)             113.9511         estimate D2E/DX2                !
 ! A27   A(9,8,25)             114.4441         estimate D2E/DX2                !
 ! A28   A(8,9,10)             102.7859         estimate D2E/DX2                !
 ! A29   A(8,9,14)             110.1941         estimate D2E/DX2                !
 ! A30   A(8,9,19)             111.506          estimate D2E/DX2                !
 ! A31   A(10,9,14)            113.7101         estimate D2E/DX2                !
 ! A32   A(10,9,19)            110.6571         estimate D2E/DX2                !
 ! A33   A(14,9,19)            107.9894         estimate D2E/DX2                !
 ! A34   A(9,10,11)            102.8326         estimate D2E/DX2                !
 ! A35   A(9,10,15)            112.8921         estimate D2E/DX2                !
 ! A36   A(9,10,16)            109.7833         estimate D2E/DX2                !
 ! A37   A(11,10,15)           112.4055         estimate D2E/DX2                !
 ! A38   A(11,10,16)           110.7352         estimate D2E/DX2                !
 ! A39   A(15,10,16)           108.1444         estimate D2E/DX2                !
 ! A40   A(7,11,10)            104.5156         estimate D2E/DX2                !
 ! A41   A(7,11,17)            109.3874         estimate D2E/DX2                !
 ! A42   A(7,11,18)            112.207          estimate D2E/DX2                !
 ! A43   A(10,11,17)           110.9148         estimate D2E/DX2                !
 ! A44   A(10,11,18)           112.4774         estimate D2E/DX2                !
 ! A45   A(17,11,18)           107.3524         estimate D2E/DX2                !
 ! A46   A(26,12,27)           125.6129         estimate D2E/DX2                !
 ! A47   A(26,12,28)           125.6502         estimate D2E/DX2                !
 ! A48   A(27,12,28)           108.4812         estimate D2E/DX2                !
 ! A49   A(27,13,29)           123.8304         estimate D2E/DX2                !
 ! A50   A(27,13,30)           124.6316         estimate D2E/DX2                !
 ! A51   A(29,13,30)           105.7753         estimate D2E/DX2                !
 ! A52   A(8,25,34)            109.6459         estimate D2E/DX2                !
 ! A53   A(8,25,35)            110.3072         estimate D2E/DX2                !
 ! A54   A(8,25,36)            112.3033         estimate D2E/DX2                !
 ! A55   A(34,25,35)           107.9243         estimate D2E/DX2                !
 ! A56   A(34,25,36)           108.4078         estimate D2E/DX2                !
 ! A57   A(35,25,36)           108.1302         estimate D2E/DX2                !
 ! A58   A(28,31,32)           123.8183         estimate D2E/DX2                !
 ! A59   A(28,31,33)           124.6203         estimate D2E/DX2                !
 ! A60   A(32,31,33)           105.7753         estimate D2E/DX2                !
 ! A61   A(32,37,38)           145.027          estimate D2E/DX2                !
 ! A62   A(32,37,39)           108.6973         estimate D2E/DX2                !
 ! A63   A(38,37,39)           102.722          estimate D2E/DX2                !
 ! A64   L(4,26,12,34,-1)      181.9302         estimate D2E/DX2                !
 ! A65   L(12,27,13,25,-1)     176.3125         estimate D2E/DX2                !
 ! A66   L(12,28,31,10,-1)     176.3947         estimate D2E/DX2                !
 ! A67   L(31,32,37,22,-1)     181.003          estimate D2E/DX2                !
 ! A68   L(4,26,12,34,-2)      178.9498         estimate D2E/DX2                !
 ! A69   L(12,27,13,25,-2)     176.2616         estimate D2E/DX2                !
 ! A70   L(12,28,31,10,-2)     183.7565         estimate D2E/DX2                !
 ! A71   L(31,32,37,22,-2)     171.9798         estimate D2E/DX2                !
 ! D1    D(6,1,2,3)             -0.603          estimate D2E/DX2                !
 ! D2    D(6,1,2,7)            177.5699         estimate D2E/DX2                !
 ! D3    D(24,1,2,3)           179.3151         estimate D2E/DX2                !
 ! D4    D(24,1,2,7)            -2.512          estimate D2E/DX2                !
 ! D5    D(2,1,6,5)              0.3863         estimate D2E/DX2                !
 ! D6    D(2,1,6,23)          -179.9294         estimate D2E/DX2                !
 ! D7    D(24,1,6,5)          -179.5317         estimate D2E/DX2                !
 ! D8    D(24,1,6,23)            0.1527         estimate D2E/DX2                !
 ! D9    D(1,2,3,4)              0.4095         estimate D2E/DX2                !
 ! D10   D(1,2,3,21)          -179.1446         estimate D2E/DX2                !
 ! D11   D(7,2,3,4)           -177.7848         estimate D2E/DX2                !
 ! D12   D(7,2,3,21)             2.6611         estimate D2E/DX2                !
 ! D13   D(1,2,7,8)            159.5636         estimate D2E/DX2                !
 ! D14   D(1,2,7,11)           -82.1885         estimate D2E/DX2                !
 ! D15   D(1,2,7,20)            37.7058         estimate D2E/DX2                !
 ! D16   D(3,2,7,8)            -22.3249         estimate D2E/DX2                !
 ! D17   D(3,2,7,11)            95.923          estimate D2E/DX2                !
 ! D18   D(3,2,7,20)          -144.1827         estimate D2E/DX2                !
 ! D19   D(2,3,4,5)              0.0087         estimate D2E/DX2                !
 ! D20   D(2,3,4,26)          -179.7726         estimate D2E/DX2                !
 ! D21   D(21,3,4,5)           179.5807         estimate D2E/DX2                !
 ! D22   D(21,3,4,26)           -0.2006         estimate D2E/DX2                !
 ! D23   D(3,4,5,6)             -0.2428         estimate D2E/DX2                !
 ! D24   D(3,4,5,22)          -179.9717         estimate D2E/DX2                !
 ! D25   D(26,4,5,6)           179.5394         estimate D2E/DX2                !
 ! D26   D(26,4,5,22)           -0.1895         estimate D2E/DX2                !
 ! D27   D(3,4,12,27)           87.728          estimate D2E/DX2                !
 ! D28   D(3,4,12,28)          -87.035          estimate D2E/DX2                !
 ! D29   D(5,4,12,27)          -92.0377         estimate D2E/DX2                !
 ! D30   D(5,4,12,28)           93.1993         estimate D2E/DX2                !
 ! D31   D(4,5,6,1)              0.0417         estimate D2E/DX2                !
 ! D32   D(4,5,6,23)          -179.6477         estimate D2E/DX2                !
 ! D33   D(22,5,6,1)           179.7494         estimate D2E/DX2                !
 ! D34   D(22,5,6,23)            0.0599         estimate D2E/DX2                !
 ! D35   D(2,7,8,9)            148.6368         estimate D2E/DX2                !
 ! D36   D(2,7,8,25)           -83.737          estimate D2E/DX2                !
 ! D37   D(11,7,8,9)            26.1116         estimate D2E/DX2                !
 ! D38   D(11,7,8,25)          153.7378         estimate D2E/DX2                !
 ! D39   D(20,7,8,9)           -91.8281         estimate D2E/DX2                !
 ! D40   D(20,7,8,25)           35.7981         estimate D2E/DX2                !
 ! D41   D(2,7,11,10)         -122.5476         estimate D2E/DX2                !
 ! D42   D(2,7,11,17)          118.6344         estimate D2E/DX2                !
 ! D43   D(2,7,11,18)           -0.3892         estimate D2E/DX2                !
 ! D44   D(8,7,11,10)           -0.7023         estimate D2E/DX2                !
 ! D45   D(8,7,11,17)         -119.5203         estimate D2E/DX2                !
 ! D46   D(8,7,11,18)          121.4561         estimate D2E/DX2                !
 ! D47   D(20,7,11,10)         118.6442         estimate D2E/DX2                !
 ! D48   D(20,7,11,17)          -0.1738         estimate D2E/DX2                !
 ! D49   D(20,7,11,18)        -119.1974         estimate D2E/DX2                !
 ! D50   D(7,8,9,10)           -41.4167         estimate D2E/DX2                !
 ! D51   D(7,8,9,14)          -162.9377         estimate D2E/DX2                !
 ! D52   D(7,8,9,19)            77.1534         estimate D2E/DX2                !
 ! D53   D(25,8,9,10)         -168.754          estimate D2E/DX2                !
 ! D54   D(25,8,9,14)           69.725          estimate D2E/DX2                !
 ! D55   D(25,8,9,19)          -50.1839         estimate D2E/DX2                !
 ! D56   D(7,8,25,34)          178.142          estimate D2E/DX2                !
 ! D57   D(7,8,25,35)           59.421          estimate D2E/DX2                !
 ! D58   D(7,8,25,36)          -61.2711         estimate D2E/DX2                !
 ! D59   D(9,8,25,34)          -58.1096         estimate D2E/DX2                !
 ! D60   D(9,8,25,35)         -176.8306         estimate D2E/DX2                !
 ! D61   D(9,8,25,36)           62.4773         estimate D2E/DX2                !
 ! D62   D(8,9,10,11)           39.224          estimate D2E/DX2                !
 ! D63   D(8,9,10,15)          160.5919         estimate D2E/DX2                !
 ! D64   D(8,9,10,16)          -78.6696         estimate D2E/DX2                !
 ! D65   D(14,9,10,11)         158.3203         estimate D2E/DX2                !
 ! D66   D(14,9,10,15)         -80.3118         estimate D2E/DX2                !
 ! D67   D(14,9,10,16)          40.4267         estimate D2E/DX2                !
 ! D68   D(19,9,10,11)         -79.9397         estimate D2E/DX2                !
 ! D69   D(19,9,10,15)          41.4282         estimate D2E/DX2                !
 ! D70   D(19,9,10,16)         162.1667         estimate D2E/DX2                !
 ! D71   D(9,10,11,7)          -23.3301         estimate D2E/DX2                !
 ! D72   D(9,10,11,17)          94.4468         estimate D2E/DX2                !
 ! D73   D(9,10,11,18)        -145.3111         estimate D2E/DX2                !
 ! D74   D(15,10,11,7)        -145.0289         estimate D2E/DX2                !
 ! D75   D(15,10,11,17)        -27.252          estimate D2E/DX2                !
 ! D76   D(15,10,11,18)         92.9901         estimate D2E/DX2                !
 ! D77   D(16,10,11,7)          93.8901         estimate D2E/DX2                !
 ! D78   D(16,10,11,17)       -148.333          estimate D2E/DX2                !
 ! D79   D(16,10,11,18)        -28.0909         estimate D2E/DX2                !
 ! D80   D(26,12,13,29)        106.1897         estimate D2E/DX2                !
 ! D81   D(26,12,13,30)       -102.0292         estimate D2E/DX2                !
 ! D82   D(28,12,13,29)        -78.9423         estimate D2E/DX2                !
 ! D83   D(28,12,13,30)         72.8388         estimate D2E/DX2                !
 ! D84   D(26,12,31,32)       -106.2393         estimate D2E/DX2                !
 ! D85   D(26,12,31,33)        102.0696         estimate D2E/DX2                !
 ! D86   D(27,12,31,32)         78.9152         estimate D2E/DX2                !
 ! D87   D(27,12,31,33)        -72.7759         estimate D2E/DX2                !
 ! D88   D(28,31,37,38)        -80.3713         estimate D2E/DX2                !
 ! D89   D(28,31,37,39)         75.023          estimate D2E/DX2                !
 ! D90   D(33,31,37,38)         77.5853         estimate D2E/DX2                !
 ! D91   D(33,31,37,39)       -127.0204         estimate D2E/DX2                !
 --------------------------------------------------------------------------------
 Trust Radius=3.00D-01 FncErr=1.00D-07 GrdErr=1.00D-06 EigMax=2.50D+02 EigMin=1.00D-04
 Number of steps in this run=    212 maximum allowed number of steps=    234.
 GradGradGradGradGradGradGradGradGradGradGradGradGradGradGradGradGradGrad

                          Input orientation:                          
 ---------------------------------------------------------------------
 Center     Atomic      Atomic             Coordinates (Angstroms)
 Number     Number       Type             X           Y           Z
 ---------------------------------------------------------------------
      1          6           0       -1.126336    2.399281   -0.198532
      2          6           0       -1.187324    1.002951   -0.156621
      3          6           0        0.015009    0.314300   -0.074237
      4          7           0        1.181983    0.973879   -0.028789
      5          6           0        1.258284    2.312080   -0.059304
      6          6           0        0.098598    3.061786   -0.145906
      7          6           0       -2.506400    0.260122   -0.157689
      8          7           0       -2.342116   -1.123212   -0.585566
      9          6           0       -3.351562   -1.912481    0.115134
     10          6           0       -3.321579   -1.326894    1.520230
     11          6           0       -3.150595    0.179990    1.258936
     12          8           0        3.438930   -0.350679    0.116534
     13          8           0        4.792677   -1.207647   -2.126440
     14          1           0       -3.093735   -2.977779    0.075727
     15          1           0       -4.226560   -1.550844    2.094382
     16          1           0       -2.460335   -1.725901    2.070530
     17          1           0       -4.121821    0.687506    1.246158
     18          1           0       -2.535551    0.670406    2.021984
     19          1           0       -4.354579   -1.785864   -0.340052
     20          1           0       -3.190110    0.809101   -0.834861
     21          1           0        0.050204   -0.772322   -0.051324
     22          1           0        2.256175    2.741509   -0.017442
     23          1           0        0.157354    4.147207   -0.176650
     24          1           0       -2.049314    2.975421   -0.274669
     25          6           0       -2.336982   -1.297567   -2.025912
     26          1           0        2.084568    0.416668    0.030404
     27          1           0        3.952300   -0.681956   -0.641928
     28          1           0        3.867309   -0.655896    0.936248
     29          1           0        5.594082   -0.796784   -2.461534
     30          1           0        4.803406   -2.109566   -2.457567
     31          8           0        4.543509   -1.132603    2.517797
     32          1           0        5.305579   -0.710098    2.922885
     33          1           0        4.517506   -2.023640    2.876415
     34          1           0       -2.176754   -2.354747   -2.268703
     35          1           0       -1.519001   -0.719289   -2.477075
     36          1           0       -3.287397   -0.971774   -2.492159
     37          8           0        6.598439    0.084777    3.871150
     38          1           0        7.558856    0.197110    3.970798
     39          1           0        6.245637    0.909532    4.249892
 ---------------------------------------------------------------------
                    Distance matrix (angstroms):
                    1          2          3          4          5
     1  C    0.000000
     2  C    1.398290   0.000000
     3  C    2.380181   1.388032   0.000000
     4  N    2.718257   2.372931   1.341245   0.000000
     5  C    2.390272   2.775660   2.353100   1.340722   0.000000
     6  C    1.393609   2.427450   2.749691   2.355163   1.383630
     7  C    2.546026   1.513855   2.523371   3.759020   4.288713
     8  N    3.746448   2.457256   2.807835   4.138486   5.004105
     9  C    4.862233   3.641088   4.040819   5.376320   6.255240
    10  C    4.653774   3.577017   4.045820   5.289148   6.059060
    11  C    3.338726   2.556462   3.437505   4.589088   5.071664
    12  O    5.338839   4.827955   3.493111   2.620951   3.446218
    13  O    7.194545   6.672881   5.417931   4.711296   5.399395
    14  H    5.732247   4.419796   4.530404   5.823082   6.851344
    15  H    5.520175   4.563534   5.115914   6.335173   7.045854
    16  H    4.893396   3.745316   3.858727   4.996242   5.888091
    17  H    3.740352   3.267808   4.358450   5.462402   5.769662
    18  H    3.147314   2.583529   3.320589   4.256504   4.628179
    19  H    5.287440   4.224055   4.855373   6.194077   6.955300
    20  H    2.681930   2.123379   3.331091   4.448831   4.759059
    21  H    3.385998   2.166600   1.087433   2.081021   3.312560
    22  H    3.404599   3.860005   3.304148   2.068462   1.087174
    23  H    2.168775   3.419782   3.836916   3.337924   2.143247
    24  H    1.090698   2.155829   3.373895   3.808925   3.380327
    25  C    4.297868   3.179362   3.455288   4.640160   5.461047
    26  H    3.780618   3.329262   2.074730   1.062378   2.069633
    27  H    5.956775   5.430485   4.100861   3.285177   4.069573
    28  H    5.963080   5.430971   4.099094   3.286098   4.075171
    29  H    7.778176   7.385062   6.169258   5.340423   5.851059
    30  H    7.784265   7.132388   5.872319   5.340534   6.153902
    31  O    7.211088   6.674994   5.414747   4.714045   5.412947
    32  H    7.796218   7.387536   6.166219   5.343426   5.865800
    33  H    7.801954   7.134749   5.868968   5.343318   6.167612
    34  H    5.290536   4.088276   4.091860   5.232407   6.201629
    35  H    3.882193   2.908716   3.032346   4.019482   4.769500
    36  H    4.614642   3.710065   4.290247   5.461604   6.112749
    37  O    9.032795   8.813857   7.678561   6.733351   6.994755
    38  H    9.882583   9.704671   8.560705   7.567337   7.772518
    39  H    8.738067   8.641469   7.607438   6.629618   6.738694
                    6          7          8          9         10
     6  C    0.000000
     7  C    3.825634   0.000000
     8  N    4.864627   1.457285   0.000000
     9  C    6.059297   2.347112   1.460448   0.000000
    10  C    5.808109   2.449193   2.331354   1.522533   0.000000
    11  C    4.564601   1.558279   2.398783   2.393137   1.538899
    12  O    4.782427   5.982911   5.874542   6.967784   6.973366
    13  O    6.647176   7.701094   7.299773   8.476442   8.896829
    14  H    6.834944   3.299007   2.107524   1.096762   2.205430
    15  H    6.708371   3.363090   3.303955   2.194043   1.094895
    16  H    5.863674   2.985192   2.726180   2.157005   1.097168
    17  H    5.038550   2.182436   3.130697   2.938103   2.184791
    18  H    4.166196   2.218143   3.170773   3.312591   2.204270
    19  H    6.585453   2.763165   2.132930   1.108724   2.176785
    20  H    4.045349   1.107881   2.124871   2.887138   3.182171
    21  H    3.835580   2.759253   2.476234   3.591613   3.761150
    22  H    2.184999   5.372064   6.033499   7.288615   7.073025
    23  H    1.087445   4.712258   5.847382   7.008384   6.704339
    24  H    2.153501   2.755986   4.120823   5.073399   4.832208
    25  C    5.335769   2.438310   1.450870   2.447768   3.680410
    26  H    3.312372   4.597485   4.727175   5.914696   5.872479
    27  H    5.395615   6.544983   6.310115   7.445383   7.615785
    28  H    5.403277   6.531459   6.410247   7.373285   7.243713
    29  H    7.102890   8.487789   8.161437   9.375956   9.778777
    30  H    7.363551   8.021105   7.452232   8.553428   9.080244
    31  O    6.666742   7.668059   7.552667   8.289339   7.930479
    32  H    7.124411   8.453300   8.424199   9.180157   8.762176
    33  H    7.383951   7.984774   7.736310   8.340219   7.985984
    34  H    6.246785   3.376772   2.092122   2.694151   4.089391
    35  H    4.727315   2.704395   2.102018   3.391391   4.426841
    36  H    5.765368   2.752685   2.133445   2.772548   4.028218
    37  O    8.200442   9.957930  10.062558  10.821239  10.292055
    38  H    8.989387  10.879235  10.978750  11.762387  11.256631
    39  H    7.857565   9.820725  10.062962  10.824334  10.197268
                   11         12         13         14         15
    11  C    0.000000
    12  O    6.708840   0.000000
    13  O    8.745392   2.756439   0.000000
    14  H    3.372643   7.041238   8.377255   0.000000
    15  H    2.202602   8.006998   9.963923   2.719265   0.000000
    16  H    2.183475   6.364799   8.395792   2.438777   1.775039
    17  H    1.095909   7.714845   9.717731   3.982610   2.395968
    18  H    1.095915   6.353564   8.627829   4.172378   2.792616
    19  H    2.805516   7.937695   9.337977   1.784170   2.449100
    20  H    2.186625   6.796647   8.334287   3.896013   3.901799
    21  H    3.587310   3.418980   5.194869   3.842465   4.847769
    22  H    6.117490   3.313380   5.145634   7.832016   8.056671
    23  H    5.361179   5.575453   7.345908   7.835732   7.539501
    24  H    3.373307   6.429370   8.230429   6.054270   5.553366
    25  C    3.692610   6.232803   7.130935   2.795116   4.539986
    26  H    5.382587   1.559018   3.824164   6.191861   6.925420
    27  H    7.403199   0.973939   1.785038   7.445297   8.668109
    28  H    7.074872   0.973959   3.246659   7.388354   8.225140
    29  H    9.553291   3.389709   0.960909   9.309812  10.852188
    30  H    9.073070   3.403157   0.960842   8.338837  10.127818
    31  O    7.906128   2.756368   4.651522   8.227750   8.790240
    32  H    8.664171   3.389567   5.099638   9.154079   9.604944
    33  H    8.140761   3.402803   5.076428   8.166102   8.791689
    34  H    4.451684   6.421958   7.064633   2.593333   4.887175
    35  H    4.174755   5.607474   6.340246   3.754645   5.377786
    36  H    3.926320   7.241168   8.091785   3.264292   4.717384
    37  O   10.093383   4.926384   6.395484  10.850010  11.091111
    38  H   11.047481   5.668264   6.841155  11.778336  12.061191
    39  H    9.887731   5.152706   6.873947  10.943432  10.971170
                   16         17         18         19         20
    16  H    0.000000
    17  H    3.043790   0.000000
    18  H    2.397979   1.765914   0.000000
    19  H    3.066376   2.947507   3.862815   0.000000
    20  H    3.924297   2.283311   2.934152   2.886982   0.000000
    21  H    3.422628   4.606555   3.614720   4.529100   3.689778
    22  H    6.823697   6.818684   5.604406   8.018931   5.836471
    23  H    6.811425   5.683771   4.916693   7.455573   4.773019
    24  H    5.269851   3.441330   3.290005   5.290402   2.511608
    25  C    4.120622   4.222867   4.505309   2.674183   2.566024
    26  H    5.422994   6.330140   5.037487   6.815497   5.359563
    27  H    7.040535   8.404268   7.142655   8.385343   7.298938
    28  H    6.516946   8.107217   6.628312   8.396738   7.422278
    29  H    9.288514  10.504707   9.399229  10.220314   9.076726
    30  H    8.568127  10.059864   9.036311   9.405176   8.663030
    31  O    7.043144   8.945267   7.321869   9.368566   8.649820
    32  H    7.878311   9.676806   8.012536  10.252935   9.413042
    33  H    7.030531   9.200327   7.598260   9.440132   9.011400
    34  H    4.393724   5.039131   5.262156   2.964160   3.618387
    35  H    4.751851   4.755650   4.817277   3.707419   2.797400
    36  H    4.697964   4.174265   4.862048   2.536372   2.434670
    37  O    9.411810  11.053408   9.337673  11.882849  10.885167
    38  H   10.377533  12.004265  10.291693  12.823633  11.790215
    39  H    9.353559  10.796105   9.062561  11.861590  10.719054
                   21         22         23         24         25
    21  H    0.000000
    22  H    4.149032   0.000000
    23  H    4.922291   2.531083   0.000000
    24  H    4.301562   4.319504   2.500415   0.000000
    25  C    3.142218   6.437793   6.267938   4.626881   0.000000
    26  H    2.357756   2.331657   4.204039   4.871270   5.168863
    27  H    3.947573   3.871296   6.159457   7.037802   6.469116
    28  H    3.944508   3.879129   6.170260   7.046929   6.905024
    29  H    6.045188   5.443779   7.695567   8.799626   7.958789
    30  H    5.492828   5.997960   8.120073   8.808059   7.199362
    31  O    5.188446   5.164114   7.373927   8.254638   8.247040
    32  H    6.038937   5.464245   7.726885   8.826203   9.123840
    33  H    5.485822   6.016201   8.149324   8.834199   8.458369
    34  H    3.518548   7.119751   7.218043   5.692372   1.096472
    35  H    2.889547   5.681450   5.637810   4.333902   1.098657
    36  H    4.139690   7.116452   6.590285   4.693662   1.107617
    37  O    7.681132   6.405827   8.624129  10.016350  10.794811
    38  H    8.573046   7.106227   9.358784  10.865539  11.667142
    39  H    7.727385   6.122261   8.194144   9.671905  10.859021
                   26         27         28         29         30
    26  H    0.000000
    27  H    2.268794   0.000000
    28  H    2.269166   1.580678   0.000000
    29  H    4.472014   2.453487   3.813990   0.000000
    30  H    4.468102   2.461503   3.808860   1.532508   0.000000
    31  O    3.825409   3.245993   1.784879   5.100021   5.077032
    32  H    4.473361   3.813141   2.453219   5.392839   5.582110
    33  H    4.469236   3.807665   2.461245   5.581925   5.342330
    34  H    5.579023   6.558196   7.049007   7.927820   6.987018
    35  H    4.534706   5.770987   6.377078   7.113522   6.473491
    36  H    6.095006   7.478005   7.939998   8.883256   8.170487
    37  O    5.936035   5.287513   4.076924   6.472153   6.934691
    38  H    6.748537   5.920916   4.854239   6.798754   7.364587
    39  H    5.946552   5.632240   4.368895   6.955521   7.495664
                   31         32         33         34         35
    31  O    0.000000
    32  H    0.960915   0.000000
    33  H    0.960849   1.532518   0.000000
    34  H    8.340633   9.254338   8.449555   0.000000
    35  H    7.865978   8.702560   8.173164   1.775044   0.000000
    36  H    9.297775  10.160237   9.531239   1.787757   1.786393
    37  O    2.745234   1.789558   3.124932  10.984219  10.336310
    38  H    3.601620   2.645450   3.921634  11.841683  11.172392
    39  H    3.172965   2.295181   3.671018  11.139311  10.401670
                   36         37         38         39
    36  H    0.000000
    37  O   11.804141   0.000000
    38  H   12.679800   0.972086   0.000000
    39  H   11.826804   0.973723   1.519863   0.000000
 Stoichiometry    C10H23N2O4(1+)
 Framework group  C1[X(C10H23N2O4)]
 Deg. of freedom   111
 Full point group                 C1      NOp   1
 Largest Abelian subgroup         C1      NOp   1
 Largest concise Abelian subgroup C1      NOp   1
                         Standard orientation:                         
 ---------------------------------------------------------------------
 Center     Atomic      Atomic             Coordinates (Angstroms)
 Number     Number       Type             X           Y           Z
 ---------------------------------------------------------------------
      1          6           0       -1.687139   -0.716176    2.298112
      2          6           0       -1.751948   -0.265923    0.975884
      3          6           0       -0.565073    0.139851    0.381487
      4          7           0        0.592861    0.089300    1.056448
      5          6           0        0.674422   -0.347544    2.321379
      6          6           0       -0.470978   -0.763040    2.977010
      7          6           0       -3.050469   -0.255687    0.197748
      8          7           0       -2.990955    0.662722   -0.932148
      9          6           0       -3.843062    0.109176   -1.981152
     10          6           0       -3.519990   -1.377737   -1.928070
     11          6           0       -3.391403   -1.645879   -0.418177
     12          8           0        2.818567    0.870926   -0.085776
     13          8           0        3.675394    3.489643   -0.007490
     14          1           0       -3.609256    0.577147   -2.945116
     15          1           0       -4.290241   -1.997983   -2.397968
     16          1           0       -2.568203   -1.569426   -2.439083
     17          1           0       -4.339601   -2.005276   -0.002519
     18          1           0       -2.628243   -2.398511   -0.189791
     19          1           0       -4.916786    0.284022   -1.767107
     20          1           0       -3.853030    0.032677    0.904955
     21          1           0       -0.536599    0.515196   -0.638717
     22          1           0        1.663876   -0.345278    2.771849
     23          1           0       -0.409117   -1.112503    4.004913
     24          1           0       -2.600427   -1.032918    2.803287
     25          6           0       -3.282845    2.041288   -0.586638
     26          1           0        1.482903    0.410756    0.573603
     27          1           0        3.162313    1.782146   -0.094453
     28          1           0        3.402837    0.315325   -0.632157
     29          1           0        4.395103    3.804461    0.545913
     30          1           0        3.609175    4.117281   -0.731992
     31          8           0        4.384111   -0.826128   -1.591313
     32          1           0        5.217138   -1.198954   -1.290607
     33          1           0        4.423413   -0.839305   -2.551267
     34          1           0       -3.186165    2.673034   -1.477592
     35          1           0       -2.569058    2.405314    0.165053
     36          1           0       -4.305397    2.165101   -0.179363
     37          8           0        6.684642   -2.097771   -0.799608
     38          1           0        7.646151   -2.041929   -0.667952
     39          1           0        6.425068   -2.807863   -0.185991
 ---------------------------------------------------------------------
 Rotational constants (GHZ):           0.5069978           0.1614406           0.1609480
 Standard basis: Aug-CC-pVDZ (5D, 7F)
 There are   607 symmetry adapted cartesian basis functions of A   symmetry.
 There are   575 symmetry adapted basis functions of A   symmetry.
   575 basis functions,   941 primitive gaussians,   607 cartesian basis functions
    64 alpha electrons       64 beta electrons
       nuclear repulsion energy      1121.9746829240 Hartrees.
 NAtoms=   39 NActive=   39 NUniq=   39 SFac= 1.00D+00 NAtFMM=   60 NAOKFM=F Big=F
 Integral buffers will be    131072 words long.
 Raffenetti 2 integral format.
 Two-electron integral symmetry is turned on.
 Nuclear repulsion after empirical dispersion term =     1121.9510428707 Hartrees.
 One-electron integrals computed using PRISM.
 NBasis=   575 RedAO= T EigKep=  2.42D-06  NBF=   575
 NBsUse=   575 1.00D-06 EigRej= -1.00D+00 NBFU=   575
 ExpMin= 2.97D-02 ExpMax= 1.17D+04 ExpMxC= 4.01D+02 IAcc=3 IRadAn=         5 AccDes= 0.00D+00
 Harris functional with IExCor= 4639 and IRadAn=       5 diagonalized for initial guess.
 HarFok:  IExCor= 4639 AccDes= 0.00D+00 IRadAn=         5 IDoV= 1 UseB2=F ITyADJ=14
 ICtDFT=  3500011 ScaDFX=  1.000000  1.000000  1.000000  1.000000
 FoFCou: FMM=F IPFlag=           0 FMFlag=      100000 FMFlg1=           0
         NFxFlg=           0 DoJE=T BraDBF=F KetDBF=T FulRan=T
         wScrn=  0.000000 ICntrl=       500 IOpCl=  0 I1Cent=   200000004 NGrid=           0
         NMat0=    1 NMatS0=      1 NMatT0=    0 NMatD0=    1 NMtDS0=    0 NMtDT0=    0
 Petite list used in FoFCou.
 Requested convergence on RMS density matrix=1.00D-08 within 128 cycles.
 Requested convergence on MAX density matrix=1.00D-06.
 Requested convergence on             energy=1.00D-06.
 No special actions if energy rises.
 SCF Done:  E(RwB97XD) =  -805.020591710     A.U. after   14 cycles
            NFock= 14  Conv=0.62D-08     -V/T= 2.0063

 **********************************************************************

            Population analysis using the SCF density.

 **********************************************************************

 Orbital symmetries:
       Occupied  (A) (A) (A) (A) (A) (A) (A) (A) (A) (A) (A) (A)
                 (A) (A) (A) (A) (A) (A) (A) (A) (A) (A) (A) (A)
                 (A) (A) (A) (A) (A) (A) (A) (A) (A) (A) (A) (A)
                 (A) (A) (A) (A) (A) (A) (A) (A) (A) (A) (A) (A)
                 (A) (A) (A) (A) (A) (A) (A) (A) (A) (A) (A) (A)
                 (A) (A) (A) (A)
       Virtual   (A) (A) (A) (A) (A) (A) (A) (A) (A) (A) (A) (A)
                 (A) (A) (A) (A) (A) (A) (A) (A) (A) (A) (A) (A)
                 (A) (A) (A) (A) (A) (A) (A) (A) (A) (A) (A) (A)
                 (A) (A) (A) (A) (A) (A) (A) (A) (A) (A) (A) (A)
                 (A) (A) (A) (A) (A) (A) (A) (A) (A) (A) (A) (A)
                 (A) (A) (A) (A) (A) (A) (A) (A) (A) (A) (A) (A)
                 (A) (A) (A) (A) (A) (A) (A) (A) (A) (A) (A) (A)
                 (A) (A) (A) (A) (A) (A) (A) (A) (A) (A) (A) (A)
                 (A) (A) (A) (A) (A) (A) (A) (A) (A) (A) (A) (A)
                 (A) (A) (A) (A) (A) (A) (A) (A) (A) (A) (A) (A)
                 (A) (A) (A) (A) (A) (A) (A) (A) (A) (A) (A) (A)
                 (A) (A) (A) (A) (A) (A) (A) (A) (A) (A) (A) (A)
                 (A) (A) (A) (A) (A) (A) (A) (A) (A) (A) (A) (A)
                 (A) (A) (A) (A) (A) (A) (A) (A) (A) (A) (A) (A)
                 (A) (A) (A) (A) (A) (A) (A) (A) (A) (A) (A) (A)
                 (A) (A) (A) (A) (A) (A) (A) (A) (A) (A) (A) (A)
                 (A) (A) (A) (A) (A) (A) (A) (A) (A) (A) (A) (A)
                 (A) (A) (A) (A) (A) (A) (A) (A) (A) (A) (A) (A)
                 (A) (A) (A) (A) (A) (A) (A) (A) (A) (A) (A) (A)
                 (A) (A) (A) (A) (A) (A) (A) (A) (A) (A) (A) (A)
                 (A) (A) (A) (A) (A) (A) (A) (A) (A) (A) (A) (A)
                 (A) (A) (A) (A) (A) (A) (A) (A) (A) (A) (A) (A)
                 (A) (A) (A) (A) (A) (A) (A) (A) (A) (A) (A) (A)
                 (A) (A) (A) (A) (A) (A) (A) (A) (A) (A) (A) (A)
                 (A) (A) (A) (A) (A) (A) (A) (A) (A) (A) (A) (A)
                 (A) (A) (A) (A) (A) (A) (A) (A) (A) (A) (A) (A)
                 (A) (A) (A) (A) (A) (A) (A) (A) (A) (A) (A) (A)
                 (A) (A) (A) (A) (A) (A) (A) (A) (A) (A) (A) (A)
                 (A) (A) (A) (A) (A) (A) (A) (A) (A) (A) (A) (A)
                 (A) (A) (A) (A) (A) (A) (A) (A) (A) (A) (A) (A)
                 (A) (A) (A) (A) (A) (A) (A) (A) (A) (A) (A) (A)
                 (A) (A) (A) (A) (A) (A) (A) (A) (A) (A) (A) (A)
                 (A) (A) (A) (A) (A) (A) (A) (A) (A) (A) (A) (A)
                 (A) (A) (A) (A) (A) (A) (A) (A) (A) (A) (A) (A)
                 (A) (A) (A) (A) (A) (A) (A) (A) (A) (A) (A) (A)
                 (A) (A) (A) (A) (A) (A) (A) (A) (A) (A) (A) (A)
                 (A) (A) (A) (A) (A) (A) (A) (A) (A) (A) (A) (A)
                 (A) (A) (A) (A) (A) (A) (A) (A) (A) (A) (A) (A)
                 (A) (A) (A) (A) (A) (A) (A) (A) (A) (A) (A) (A)
                 (A) (A) (A) (A) (A) (A) (A) (A) (A) (A) (A) (A)
                 (A) (A) (A) (A) (A) (A) (A) (A) (A) (A) (A) (A)
                 (A) (A) (A) (A) (A) (A) (A) (A) (A) (A) (A) (A)
                 (A) (A) (A) (A) (A) (A) (A)
 The electronic state is 1-A.
 Alpha  occ. eigenvalues --  -19.39789 -19.39249 -19.36552 -19.36509 -14.65856
 Alpha  occ. eigenvalues --  -14.54459 -10.49612 -10.48869 -10.46363 -10.45627
 Alpha  occ. eigenvalues --  -10.45557 -10.44393 -10.40929 -10.40909 -10.39886
 Alpha  occ. eigenvalues --  -10.38668  -1.24293  -1.24069  -1.23128  -1.21363
 Alpha  occ. eigenvalues --   -1.20279  -1.14870  -1.06736  -1.03018  -0.98564
 Alpha  occ. eigenvalues --   -0.94128  -0.89080  -0.87830  -0.86648  -0.80914
 Alpha  occ. eigenvalues --   -0.77887  -0.76918  -0.74509  -0.73384  -0.73105
 Alpha  occ. eigenvalues --   -0.72986  -0.72181  -0.71630  -0.69402  -0.68172
 Alpha  occ. eigenvalues --   -0.67582  -0.66145  -0.63164  -0.62952  -0.62813
 Alpha  occ. eigenvalues --   -0.61506  -0.61051  -0.59885  -0.59769  -0.57352
 Alpha  occ. eigenvalues --   -0.56536  -0.55554  -0.55212  -0.54517  -0.53674
 Alpha  occ. eigenvalues --   -0.52623  -0.51951  -0.51792  -0.51533  -0.50787
 Alpha  occ. eigenvalues --   -0.50459  -0.49953  -0.47583  -0.40445
 Alpha virt. eigenvalues --   -0.12648  -0.09214  -0.06099  -0.04816  -0.04700
 Alpha virt. eigenvalues --   -0.03875  -0.03353  -0.02906  -0.02515  -0.02039
 Alpha virt. eigenvalues --   -0.01731  -0.01403  -0.00878  -0.00721  -0.00499
 Alpha virt. eigenvalues --    0.00101   0.00428   0.00708   0.01022   0.01810
 Alpha virt. eigenvalues --    0.01908   0.02342   0.02692   0.03094   0.03208
 Alpha virt. eigenvalues --    0.03768   0.04112   0.04229   0.04831   0.05057
 Alpha virt. eigenvalues --    0.05287   0.05481   0.06060   0.06158   0.06497
 Alpha virt. eigenvalues --    0.06672   0.06995   0.07147   0.07539   0.07777
 Alpha virt. eigenvalues --    0.08045   0.08620   0.08813   0.09019   0.09320
 Alpha virt. eigenvalues --    0.09509   0.09805   0.10165   0.10343   0.10796
 Alpha virt. eigenvalues --    0.10962   0.11533   0.11744   0.12037   0.12204
 Alpha virt. eigenvalues --    0.12584   0.12659   0.12797   0.13184   0.13290
 Alpha virt. eigenvalues --    0.13772   0.13871   0.14266   0.14345   0.14821
 Alpha virt. eigenvalues --    0.15086   0.15721   0.15773   0.16028   0.16406
 Alpha virt. eigenvalues --    0.16735   0.16912   0.17300   0.17373   0.17412
 Alpha virt. eigenvalues --    0.17658   0.17983   0.18014   0.18673   0.18821
 Alpha virt. eigenvalues --    0.19173   0.19782   0.20378   0.20549   0.20720
 Alpha virt. eigenvalues --    0.21021   0.21193   0.21542   0.21869   0.22372
 Alpha virt. eigenvalues --    0.22459   0.22654   0.23003   0.23234   0.23790
 Alpha virt. eigenvalues --    0.23908   0.24286   0.24752   0.25158   0.25346
 Alpha virt. eigenvalues --    0.25568   0.26031   0.26460   0.26776   0.26874
 Alpha virt. eigenvalues --    0.27348   0.27529   0.28132   0.28725   0.28832
 Alpha virt. eigenvalues --    0.29187   0.29300   0.29842   0.29994   0.30156
 Alpha virt. eigenvalues --    0.30301   0.30718   0.31399   0.31843   0.31977
 Alpha virt. eigenvalues --    0.32441   0.32690   0.33701   0.34034   0.34406
 Alpha virt. eigenvalues --    0.34726   0.34895   0.35315   0.35909   0.36221
 Alpha virt. eigenvalues --    0.36470   0.36785   0.37277   0.37587   0.37718
 Alpha virt. eigenvalues --    0.38548   0.38786   0.39556   0.39883   0.39993
 Alpha virt. eigenvalues --    0.40412   0.41047   0.41825   0.42216   0.42598
 Alpha virt. eigenvalues --    0.43086   0.43365   0.43958   0.44026   0.44147
 Alpha virt. eigenvalues --    0.44571   0.44661   0.44856   0.45085   0.45682
 Alpha virt. eigenvalues --    0.46057   0.46513   0.46670   0.46859   0.47265
 Alpha virt. eigenvalues --    0.47583   0.48341   0.48751   0.49019   0.49556
 Alpha virt. eigenvalues --    0.50044   0.50391   0.50591   0.51095   0.51250
 Alpha virt. eigenvalues --    0.51415   0.51767   0.51844   0.52163   0.52314
 Alpha virt. eigenvalues --    0.52409   0.53033   0.53501   0.53905   0.54028
 Alpha virt. eigenvalues --    0.54293   0.54802   0.55550   0.56045   0.56273
 Alpha virt. eigenvalues --    0.56617   0.57451   0.57788   0.58016   0.58270
 Alpha virt. eigenvalues --    0.58779   0.58799   0.59290   0.60012   0.60111
 Alpha virt. eigenvalues --    0.60691   0.61212   0.61465   0.62917   0.63076
 Alpha virt. eigenvalues --    0.63271   0.63689   0.64415   0.64956   0.65211
 Alpha virt. eigenvalues --    0.65789   0.66207   0.66540   0.66825   0.67619
 Alpha virt. eigenvalues --    0.67811   0.68246   0.68921   0.69198   0.69549
 Alpha virt. eigenvalues --    0.70374   0.70754   0.70854   0.71308   0.71670
 Alpha virt. eigenvalues --    0.72448   0.72587   0.73348   0.73684   0.74066
 Alpha virt. eigenvalues --    0.74648   0.75227   0.75343   0.76044   0.76474
 Alpha virt. eigenvalues --    0.77047   0.77238   0.77732   0.78837   0.79451
 Alpha virt. eigenvalues --    0.79814   0.80332   0.80646   0.81013   0.81348
 Alpha virt. eigenvalues --    0.81807   0.82668   0.82894   0.83467   0.84788
 Alpha virt. eigenvalues --    0.85415   0.85893   0.86503   0.86935   0.87233
 Alpha virt. eigenvalues --    0.88406   0.88660   0.89670   0.90216   0.90723
 Alpha virt. eigenvalues --    0.91439   0.92680   0.92968   0.93500   0.94679
 Alpha virt. eigenvalues --    0.95565   0.96237   0.97051   0.97458   0.98324
 Alpha virt. eigenvalues --    0.98963   0.99397   1.00879   1.01005   1.01995
 Alpha virt. eigenvalues --    1.02470   1.03088   1.03781   1.04305   1.04454
 Alpha virt. eigenvalues --    1.04731   1.06565   1.06849   1.07873   1.08519
 Alpha virt. eigenvalues --    1.09260   1.10196   1.10494   1.11281   1.12102
 Alpha virt. eigenvalues --    1.12860   1.14065   1.15522   1.15759   1.16550
 Alpha virt. eigenvalues --    1.17721   1.18244   1.18998   1.19682   1.20096
 Alpha virt. eigenvalues --    1.20949   1.22373   1.23313   1.23879   1.24742
 Alpha virt. eigenvalues --    1.26829   1.27843   1.28155   1.28681   1.30518
 Alpha virt. eigenvalues --    1.31285   1.31938   1.32844   1.33738   1.34171
 Alpha virt. eigenvalues --    1.35276   1.35644   1.36242   1.37051   1.37990
 Alpha virt. eigenvalues --    1.38494   1.38767   1.39951   1.41039   1.41618
 Alpha virt. eigenvalues --    1.42495   1.43716   1.44850   1.45257   1.46694
 Alpha virt. eigenvalues --    1.47268   1.48277   1.49784   1.51192   1.52054
 Alpha virt. eigenvalues --    1.52198   1.53516   1.54299   1.55319   1.57731
 Alpha virt. eigenvalues --    1.58311   1.58829   1.59655   1.61276   1.62443
 Alpha virt. eigenvalues --    1.63065   1.63408   1.64715   1.65064   1.65696
 Alpha virt. eigenvalues --    1.67130   1.67314   1.68586   1.69047   1.69571
 Alpha virt. eigenvalues --    1.70862   1.71420   1.72052   1.72558   1.72920
 Alpha virt. eigenvalues --    1.73584   1.74087   1.75774   1.76139   1.76780
 Alpha virt. eigenvalues --    1.76879   1.78032   1.79041   1.79659   1.79833
 Alpha virt. eigenvalues --    1.81524   1.81975   1.82739   1.83988   1.84330
 Alpha virt. eigenvalues --    1.84697   1.86904   1.87193   1.87895   1.88571
 Alpha virt. eigenvalues --    1.88979   1.89677   1.90351   1.90724   1.91281
 Alpha virt. eigenvalues --    1.92381   1.92803   1.94159   1.94610   1.95174
 Alpha virt. eigenvalues --    1.96019   1.96300   1.97971   1.98138   1.98557
 Alpha virt. eigenvalues --    1.99246   2.00988   2.01761   2.03118   2.04382
 Alpha virt. eigenvalues --    2.06402   2.07047   2.08666   2.09029   2.10115
 Alpha virt. eigenvalues --    2.10205   2.11027   2.12275   2.12661   2.12731
 Alpha virt. eigenvalues --    2.13105   2.15056   2.15511   2.16904   2.17925
 Alpha virt. eigenvalues --    2.18799   2.19834   2.20506   2.20699   2.21236
 Alpha virt. eigenvalues --    2.23474   2.24227   2.24841   2.25479   2.26371
 Alpha virt. eigenvalues --    2.27197   2.28428   2.30104   2.30491   2.31213
 Alpha virt. eigenvalues --    2.32406   2.33287   2.34706   2.35808   2.37129
 Alpha virt. eigenvalues --    2.37396   2.38753   2.41544   2.42610   2.43957
 Alpha virt. eigenvalues --    2.44448   2.45356   2.47757   2.48510   2.49364
 Alpha virt. eigenvalues --    2.49781   2.51287   2.51473   2.53793   2.54951
 Alpha virt. eigenvalues --    2.56447   2.57062   2.57773   2.58179   2.58921
 Alpha virt. eigenvalues --    2.61368   2.62650   2.63121   2.64296   2.65361
 Alpha virt. eigenvalues --    2.66498   2.67320   2.69116   2.69637   2.71701
 Alpha virt. eigenvalues --    2.73274   2.74279   2.75613   2.77552   2.78689
 Alpha virt. eigenvalues --    2.79653   2.80406   2.81117   2.81396   2.82619
 Alpha virt. eigenvalues --    2.83736   2.85086   2.85713   2.86121   2.88085
 Alpha virt. eigenvalues --    2.90299   2.91496   2.98050   3.03194   3.04797
 Alpha virt. eigenvalues --    3.11667   3.15820   3.17999   3.21904   3.25237
 Alpha virt. eigenvalues --    3.29023   3.29369   3.34043   3.35962   3.37175
 Alpha virt. eigenvalues --    3.40834   3.41777   3.42959   3.45726   3.46802
 Alpha virt. eigenvalues --    3.49365   3.52225   3.54190   3.57363   3.65141
 Alpha virt. eigenvalues --    3.66398   3.68117   3.74098   3.80298   3.90207
 Alpha virt. eigenvalues --    3.90669   3.99039   4.05864   4.09794   4.21469
 Alpha virt. eigenvalues --    4.60055
          Condensed to atoms (all electrons):
               1          2          3          4          5          6
     1  C   21.958289  -9.886304  -2.084632   0.196302   1.672499  -4.320348
     2  C   -9.886304  20.594030  -2.814713  -0.122396  -1.944963   1.899056
     3  C   -2.084632  -2.814713  15.984484  -1.609466  -0.661082  -0.874745
     4  N    0.196302  -0.122396  -1.609466   7.879539   0.435698   0.008092
     5  C    1.672499  -1.944963  -0.661082   0.435698  10.098666  -2.836471
     6  C   -4.320348   1.899056  -0.874745   0.008092  -2.836471  12.159985
     7  C   -0.106126  -4.448290  -3.095914   0.718474  -0.187472  -0.525496
     8  N   -0.300724   0.811905   0.939522  -0.162850  -0.022986   0.000001
     9  C    0.091796  -0.219395  -0.317540   0.063411  -0.000896  -0.016482
    10  C   -0.232128   0.449745   0.062446  -0.066666  -0.025546   0.065855
    11  C   -0.466234   0.387897  -0.404485   0.057758  -0.235927   0.347568
    12  O    0.061373  -0.133725   0.058853  -0.197005   0.068250  -0.073907
    13  O   -0.000419   0.003006  -0.005439   0.000848   0.006977   0.001221
    14  H    0.009132  -0.211064  -0.060015   0.011369  -0.000559  -0.001028
    15  H    0.000936  -0.051286  -0.005732  -0.003892  -0.005383   0.008677
    16  H   -0.018115   0.146070   0.091713  -0.008224   0.011328  -0.007305
    17  H   -0.066767   0.225208   0.102871  -0.010945   0.014468  -0.015381
    18  H    0.163588  -0.538608  -0.149083   0.036136  -0.024149   0.031011
    19  H   -0.009170   0.217664   0.021639  -0.001256   0.002100   0.001681
    20  H   -0.054233   0.582484  -0.056062   0.004507  -0.040451   0.073986
    21  H   -0.133948  -0.263055  -0.894023  -0.018215  -0.145910   0.099240
    22  H    0.048616   0.132124   0.194212  -0.066220  -0.927308   0.337052
    23  H    0.729347  -0.238565  -0.001164  -0.041900   0.465486  -1.172821
    24  H   -2.271051   1.096665   0.265777  -0.091595  -0.201329   0.813121
    25  C   -0.074532  -0.059141   0.155778  -0.015773  -0.009984  -0.034446
    26  H    0.059696  -0.568417   0.491895  -0.012220  -0.287620  -0.249141
    27  H   -0.000050   0.004880   0.001268   0.003056  -0.006391   0.008989
    28  H    0.005339   0.002950   0.003640  -0.000109   0.003112   0.004242
    29  H   -0.000186   0.000262   0.001157   0.000026  -0.001484  -0.000046
    30  H   -0.000210   0.000504  -0.002264   0.000600   0.000185   0.000278
    31  O   -0.000135   0.002359  -0.004816  -0.001285   0.006942   0.001453
    32  H   -0.000745   0.000866   0.000891   0.000549  -0.001400   0.000104
    33  H   -0.000198   0.000265  -0.002040   0.000403   0.000036   0.000534
    34  H    0.030181  -0.011278  -0.037604   0.010590   0.007504  -0.009149
    35  H   -0.176454   0.175284  -0.088210  -0.002967  -0.046147   0.048634
    36  H    0.051455   0.022722   0.082708  -0.007480   0.006345  -0.004304
    37  O    0.000013   0.000039   0.000059   0.000019   0.000234   0.000062
    38  H    0.000021  -0.000031   0.000028  -0.000031  -0.000033  -0.000033
    39  H   -0.000015   0.000068   0.000030   0.000027  -0.000005   0.000047
               7          8          9         10         11         12
     1  C   -0.106126  -0.300724   0.091796  -0.232128  -0.466234   0.061373
     2  C   -4.448290   0.811905  -0.219395   0.449745   0.387897  -0.133725
     3  C   -3.095914   0.939522  -0.317540   0.062446  -0.404485   0.058853
     4  N    0.718474  -0.162850   0.063411  -0.066666   0.057758  -0.197005
     5  C   -0.187472  -0.022986  -0.000896  -0.025546  -0.235927   0.068250
     6  C   -0.525496   0.000001  -0.016482   0.065855   0.347568  -0.073907
     7  C   17.934013  -2.562788   0.040343  -0.914719  -0.192330   0.000061
     8  N   -2.562788   9.384161   0.020902   0.080231  -0.430624   0.003179
     9  C    0.040343   0.020902   5.537425   0.235373   0.003639   0.000281
    10  C   -0.914719   0.080231   0.235373   5.647722  -0.025579  -0.000618
    11  C   -0.192330  -0.430624   0.003639  -0.025579   6.149224  -0.001867
    12  O    0.000061   0.003179   0.000281  -0.000618  -0.001867   8.053241
    13  O    0.000420   0.000054   0.000014  -0.000010   0.000039  -0.039258
    14  H    0.491849  -0.660141   0.016173  -0.057041   0.090125  -0.000004
    15  H    0.058168  -0.009498   0.073706  -0.238315   0.268187  -0.000003
    16  H   -0.128866   0.079104  -0.081683  -0.090093  -0.042303  -0.000190
    17  H    0.330768   0.133799  -0.197697   0.120343  -0.726256  -0.000080
    18  H   -0.087487   0.029865   0.167528   0.177973  -0.072963   0.000206
    19  H   -0.376485   0.403776  -0.322628   0.031241  -0.071475  -0.000039
    20  H   -1.592194  -0.198454  -0.056542   0.103048   0.369981   0.000190
    21  H    0.629859  -0.386056   0.015419   0.038712   0.038089  -0.003849
    22  H    0.014596   0.002990  -0.000574  -0.000113   0.006282  -0.000801
    23  H   -0.000014  -0.002375  -0.000887   0.000146  -0.014856  -0.001730
    24  H   -0.480478   0.051498  -0.017994   0.022729   0.060269   0.001231
    25  C   -0.317084   0.455085  -0.221549  -0.014126  -0.006884  -0.000839
    26  H   -0.142893   0.021741   0.002496   0.007100  -0.049553   0.039752
    27  H    0.002396   0.000426   0.000116   0.000089   0.000760   0.340272
    28  H    0.001655  -0.000325  -0.000145  -0.000014   0.000058   0.331608
    29  H   -0.000024   0.000003  -0.000008  -0.000004   0.000004   0.001959
    30  H    0.000119  -0.000085   0.000005   0.000003   0.000000   0.001801
    31  O    0.000709  -0.000074   0.000005  -0.000017   0.000070  -0.043713
    32  H   -0.000043   0.000023  -0.000034   0.000005  -0.000006   0.003784
    33  H    0.000093  -0.000050   0.000057  -0.000010   0.000080   0.001007
    34  H   -0.024054  -0.327156   0.079358   0.006616  -0.003630  -0.000254
    35  H    0.131818  -0.096128  -0.123766  -0.035361   0.075594   0.000281
    36  H   -0.126595   0.155724   0.044002   0.052264  -0.060251   0.000035
    37  O    0.000005  -0.000000   0.000000   0.000000   0.000000   0.000290
    38  H   -0.000003   0.000000   0.000000  -0.000000   0.000000   0.000036
    39  H    0.000018  -0.000001   0.000000   0.000001  -0.000001   0.000112
              13         14         15         16         17         18
     1  C   -0.000419   0.009132   0.000936  -0.018115  -0.066767   0.163588
     2  C    0.003006  -0.211064  -0.051286   0.146070   0.225208  -0.538608
     3  C   -0.005439  -0.060015  -0.005732   0.091713   0.102871  -0.149083
     4  N    0.000848   0.011369  -0.003892  -0.008224  -0.010945   0.036136
     5  C    0.006977  -0.000559  -0.005383   0.011328   0.014468  -0.024149
     6  C    0.001221  -0.001028   0.008677  -0.007305  -0.015381   0.031011
     7  C    0.000420   0.491849   0.058168  -0.128866   0.330768  -0.087487
     8  N    0.000054  -0.660141  -0.009498   0.079104   0.133799   0.029865
     9  C    0.000014   0.016173   0.073706  -0.081683  -0.197697   0.167528
    10  C   -0.000010  -0.057041  -0.238315  -0.090093   0.120343   0.177973
    11  C    0.000039   0.090125   0.268187  -0.042303  -0.726256  -0.072963
    12  O   -0.039258  -0.000004  -0.000003  -0.000190  -0.000080   0.000206
    13  O    7.686309   0.000016  -0.000001  -0.000020   0.000001   0.000019
    14  H    0.000016   2.417931   0.018510  -0.212240  -0.020178   0.015271
    15  H   -0.000001   0.018510   1.823020  -0.395404  -0.229852   0.057813
    16  H   -0.000020  -0.212240  -0.395404   2.043388   0.163812  -0.261787
    17  H    0.000001  -0.020178  -0.229852   0.163812   2.182079  -0.444217
    18  H    0.000019   0.015271   0.057813  -0.261787  -0.444217   2.255101
    19  H    0.000000  -0.391037  -0.149302   0.149123   0.065213  -0.020926
    20  H   -0.000007   0.035766   0.027878  -0.038700  -0.253365   0.097623
    21  H    0.001066   0.015825   0.010117  -0.018530  -0.009464   0.012350
    22  H    0.001608  -0.000065  -0.000115   0.000203   0.000972   0.000448
    23  H   -0.000003  -0.000058   0.000055   0.000167  -0.001257  -0.002390
    24  H   -0.000026  -0.002285   0.001829   0.002345  -0.002104  -0.007718
    25  C   -0.000016  -0.017374   0.008793  -0.012971  -0.001390   0.008078
    26  H   -0.011670  -0.004486   0.000221   0.004407   0.001754  -0.003731
    27  H   -0.012960   0.000146   0.000014  -0.000096  -0.000018   0.000046
    28  H    0.002420   0.000028   0.000016  -0.000259  -0.000031   0.000455
    29  H    0.352553   0.000000  -0.000000  -0.000001   0.000000  -0.000001
    30  H    0.350960   0.000003  -0.000001  -0.000001   0.000001   0.000001
    31  O   -0.001375   0.000014  -0.000003  -0.000045  -0.000000   0.000136
    32  H   -0.000236  -0.000004  -0.000001   0.000044   0.000003  -0.000064
    33  H    0.000175   0.000010   0.000001  -0.000033  -0.000002   0.000035
    34  H   -0.000048   0.019389  -0.003944   0.006516   0.000712   0.000915
    35  H    0.000327  -0.005368  -0.001127  -0.003309  -0.001430   0.001719
    36  H    0.000000   0.016935   0.006962  -0.003129   0.000567  -0.000108
    37  O    0.000107   0.000000   0.000000  -0.000002  -0.000000   0.000006
    38  H    0.000035  -0.000000   0.000000  -0.000000  -0.000000   0.000000
    39  H   -0.000023   0.000000   0.000000  -0.000002  -0.000000   0.000004
              19         20         21         22         23         24
     1  C   -0.009170  -0.054233  -0.133948   0.048616   0.729347  -2.271051
     2  C    0.217664   0.582484  -0.263055   0.132124  -0.238565   1.096665
     3  C    0.021639  -0.056062  -0.894023   0.194212  -0.001164   0.265777
     4  N   -0.001256   0.004507  -0.018215  -0.066220  -0.041900  -0.091595
     5  C    0.002100  -0.040451  -0.145910  -0.927308   0.465486  -0.201329
     6  C    0.001681   0.073986   0.099240   0.337052  -1.172821   0.813121
     7  C   -0.376485  -1.592194   0.629859   0.014596  -0.000014  -0.480478
     8  N    0.403776  -0.198454  -0.386056   0.002990  -0.002375   0.051498
     9  C   -0.322628  -0.056542   0.015419  -0.000574  -0.000887  -0.017994
    10  C    0.031241   0.103048   0.038712  -0.000113   0.000146   0.022729
    11  C   -0.071475   0.369981   0.038089   0.006282  -0.014856   0.060269
    12  O   -0.000039   0.000190  -0.003849  -0.000801  -0.001730   0.001231
    13  O    0.000000  -0.000007   0.001066   0.001608  -0.000003  -0.000026
    14  H   -0.391037   0.035766   0.015825  -0.000065  -0.000058  -0.002285
    15  H   -0.149302   0.027878   0.010117  -0.000115   0.000055   0.001829
    16  H    0.149123  -0.038700  -0.018530   0.000203   0.000167   0.002345
    17  H    0.065213  -0.253365  -0.009464   0.000972  -0.001257  -0.002104
    18  H   -0.020926   0.097623   0.012350   0.000448  -0.002390  -0.007718
    19  H    1.948711  -0.054389   0.003502   0.000097   0.000004   0.000532
    20  H   -0.054389   2.496805   0.043943  -0.000279   0.000169  -0.042407
    21  H    0.003502   0.043943   3.081619   0.010628  -0.000581  -0.021119
    22  H    0.000097  -0.000279   0.010628   2.224054  -0.118430  -0.014591
    23  H    0.000004   0.000169  -0.000581  -0.118430   2.088964  -0.132780
    24  H    0.000532  -0.042407  -0.021119  -0.014591  -0.132780   2.820685
    25  C   -0.002385   0.090501  -0.073403   0.000002   0.002539   0.004854
    26  H    0.000162  -0.007620  -0.038932  -0.183704   0.006177   0.016663
    27  H   -0.000024   0.000026   0.005055   0.006061  -0.000048   0.000020
    28  H    0.000002   0.000115  -0.001608   0.006312  -0.000053  -0.000238
    29  H    0.000000  -0.000002   0.000185  -0.000094   0.000009  -0.000005
    30  H    0.000000  -0.000003  -0.000588  -0.000080   0.000001  -0.000006
    31  O    0.000000   0.000035   0.001663   0.001603  -0.000005  -0.000029
    32  H    0.000000   0.000002   0.000196  -0.000620   0.000044  -0.000016
    33  H   -0.000001   0.000002  -0.000001   0.000081  -0.000000  -0.000003
    34  H   -0.004837   0.014246  -0.003254  -0.000049   0.000067   0.001451
    35  H   -0.001734   0.021171   0.011570   0.001012   0.000456  -0.004836
    36  H    0.010710   0.002648  -0.000120   0.000014  -0.000086   0.002998
    37  O   -0.000000   0.000000  -0.000041  -0.000179   0.000006   0.000000
    38  H    0.000000  -0.000000  -0.000004  -0.000013  -0.000002   0.000001
    39  H   -0.000000   0.000001   0.000004  -0.000077   0.000001  -0.000000
              25         26         27         28         29         30
     1  C   -0.074532   0.059696  -0.000050   0.005339  -0.000186  -0.000210
     2  C   -0.059141  -0.568417   0.004880   0.002950   0.000262   0.000504
     3  C    0.155778   0.491895   0.001268   0.003640   0.001157  -0.002264
     4  N   -0.015773  -0.012220   0.003056  -0.000109   0.000026   0.000600
     5  C   -0.009984  -0.287620  -0.006391   0.003112  -0.001484   0.000185
     6  C   -0.034446  -0.249141   0.008989   0.004242  -0.000046   0.000278
     7  C   -0.317084  -0.142893   0.002396   0.001655  -0.000024   0.000119
     8  N    0.455085   0.021741   0.000426  -0.000325   0.000003  -0.000085
     9  C   -0.221549   0.002496   0.000116  -0.000145  -0.000008   0.000005
    10  C   -0.014126   0.007100   0.000089  -0.000014  -0.000004   0.000003
    11  C   -0.006884  -0.049553   0.000760   0.000058   0.000004   0.000000
    12  O   -0.000839   0.039752   0.340272   0.331608   0.001959   0.001801
    13  O   -0.000016  -0.011670  -0.012960   0.002420   0.352553   0.350960
    14  H   -0.017374  -0.004486   0.000146   0.000028   0.000000   0.000003
    15  H    0.008793   0.000221   0.000014   0.000016  -0.000000  -0.000001
    16  H   -0.012971   0.004407  -0.000096  -0.000259  -0.000001  -0.000001
    17  H   -0.001390   0.001754  -0.000018  -0.000031   0.000000   0.000001
    18  H    0.008078  -0.003731   0.000046   0.000455  -0.000001   0.000001
    19  H   -0.002385   0.000162  -0.000024   0.000002   0.000000   0.000000
    20  H    0.090501  -0.007620   0.000026   0.000115  -0.000002  -0.000003
    21  H   -0.073403  -0.038932   0.005055  -0.001608   0.000185  -0.000588
    22  H    0.000002  -0.183704   0.006061   0.006312  -0.000094  -0.000080
    23  H    0.002539   0.006177  -0.000048  -0.000053   0.000009   0.000001
    24  H    0.004854   0.016663   0.000020  -0.000238  -0.000005  -0.000006
    25  C    4.572975  -0.011055  -0.000224   0.001077   0.000007   0.000001
    26  H   -0.011055   1.869011  -0.032141  -0.039668   0.002488   0.004395
    27  H   -0.000224  -0.032141   0.627872  -0.161966  -0.000958  -0.000387
    28  H    0.001077  -0.039668  -0.161966   0.610487  -0.002444  -0.002799
    29  H    0.000007   0.002488  -0.000958  -0.002444   0.570331  -0.073918
    30  H    0.000001   0.004395  -0.000387  -0.002799  -0.073918   0.568622
    31  O   -0.000017  -0.013207   0.004811   0.003791   0.000062  -0.000051
    32  H   -0.000015   0.002946  -0.001590  -0.005525   0.000068  -0.000013
    33  H   -0.000013   0.002732  -0.001524  -0.002523  -0.000001   0.000133
    34  H    0.371530   0.001450  -0.000313   0.000095  -0.000005   0.000031
    35  H    0.338856  -0.026773   0.000528   0.000576   0.000033  -0.000057
    36  H    0.061060   0.005803  -0.000048  -0.000009  -0.000000  -0.000003
    37  O    0.000000  -0.000051   0.000730  -0.003324   0.000015  -0.000018
    38  H   -0.000000   0.000283  -0.000159  -0.000033   0.000004   0.000001
    39  H    0.000001  -0.000144   0.000150  -0.000715  -0.000006  -0.000003
              31         32         33         34         35         36
     1  C   -0.000135  -0.000745  -0.000198   0.030181  -0.176454   0.051455
     2  C    0.002359   0.000866   0.000265  -0.011278   0.175284   0.022722
     3  C   -0.004816   0.000891  -0.002040  -0.037604  -0.088210   0.082708
     4  N   -0.001285   0.000549   0.000403   0.010590  -0.002967  -0.007480
     5  C    0.006942  -0.001400   0.000036   0.007504  -0.046147   0.006345
     6  C    0.001453   0.000104   0.000534  -0.009149   0.048634  -0.004304
     7  C    0.000709  -0.000043   0.000093  -0.024054   0.131818  -0.126595
     8  N   -0.000074   0.000023  -0.000050  -0.327156  -0.096128   0.155724
     9  C    0.000005  -0.000034   0.000057   0.079358  -0.123766   0.044002
    10  C   -0.000017   0.000005  -0.000010   0.006616  -0.035361   0.052264
    11  C    0.000070  -0.000006   0.000080  -0.003630   0.075594  -0.060251
    12  O   -0.043713   0.003784   0.001007  -0.000254   0.000281   0.000035
    13  O   -0.001375  -0.000236   0.000175  -0.000048   0.000327   0.000000
    14  H    0.000014  -0.000004   0.000010   0.019389  -0.005368   0.016935
    15  H   -0.000003  -0.000001   0.000001  -0.003944  -0.001127   0.006962
    16  H   -0.000045   0.000044  -0.000033   0.006516  -0.003309  -0.003129
    17  H   -0.000000   0.000003  -0.000002   0.000712  -0.001430   0.000567
    18  H    0.000136  -0.000064   0.000035   0.000915   0.001719  -0.000108
    19  H    0.000000   0.000000  -0.000001  -0.004837  -0.001734   0.010710
    20  H    0.000035   0.000002   0.000002   0.014246   0.021171   0.002648
    21  H    0.001663   0.000196  -0.000001  -0.003254   0.011570  -0.000120
    22  H    0.001603  -0.000620   0.000081  -0.000049   0.001012   0.000014
    23  H   -0.000005   0.000044  -0.000000   0.000067   0.000456  -0.000086
    24  H   -0.000029  -0.000016  -0.000003   0.001451  -0.004836   0.002998
    25  C   -0.000017  -0.000015  -0.000013   0.371530   0.338856   0.061060
    26  H   -0.013207   0.002946   0.002732   0.001450  -0.026773   0.005803
    27  H    0.004811  -0.001590  -0.001524  -0.000313   0.000528  -0.000048
    28  H    0.003791  -0.005525  -0.002523   0.000095   0.000576  -0.000009
    29  H    0.000062   0.000068  -0.000001  -0.000005   0.000033  -0.000000
    30  H   -0.000051  -0.000013   0.000133   0.000031  -0.000057  -0.000003
    31  O    7.724084   0.331666   0.363792  -0.000005   0.000012  -0.000004
    32  H    0.331666   0.571329  -0.105302  -0.000001  -0.000003  -0.000002
    33  H    0.363792  -0.105302   0.607386  -0.000006  -0.000007   0.000001
    34  H   -0.000005  -0.000001  -0.000006   1.896122  -0.497665  -0.308082
    35  H    0.000012  -0.000003  -0.000007  -0.497665   2.017905  -0.423687
    36  H   -0.000004  -0.000002   0.000001  -0.308082  -0.423687   1.583113
    37  O   -0.036555   0.002161   0.004547   0.000000  -0.000000   0.000000
    38  H    0.002937   0.000912  -0.000134   0.000000  -0.000000   0.000000
    39  H    0.000842  -0.003891  -0.001027   0.000000  -0.000000   0.000000
              37         38         39
     1  C    0.000013   0.000021  -0.000015
     2  C    0.000039  -0.000031   0.000068
     3  C    0.000059   0.000028   0.000030
     4  N    0.000019  -0.000031   0.000027
     5  C    0.000234  -0.000033  -0.000005
     6  C    0.000062  -0.000033   0.000047
     7  C    0.000005  -0.000003   0.000018
     8  N   -0.000000   0.000000  -0.000001
     9  C    0.000000   0.000000   0.000000
    10  C    0.000000  -0.000000   0.000001
    11  C    0.000000   0.000000  -0.000001
    12  O    0.000290   0.000036   0.000112
    13  O    0.000107   0.000035  -0.000023
    14  H    0.000000  -0.000000   0.000000
    15  H    0.000000   0.000000   0.000000
    16  H   -0.000002  -0.000000  -0.000002
    17  H   -0.000000  -0.000000  -0.000000
    18  H    0.000006   0.000000   0.000004
    19  H   -0.000000   0.000000  -0.000000
    20  H    0.000000  -0.000000   0.000001
    21  H   -0.000041  -0.000004   0.000004
    22  H   -0.000179  -0.000013  -0.000077
    23  H    0.000006  -0.000002   0.000001
    24  H    0.000000   0.000001  -0.000000
    25  C    0.000000  -0.000000   0.000001
    26  H   -0.000051   0.000283  -0.000144
    27  H    0.000730  -0.000159   0.000150
    28  H   -0.003324  -0.000033  -0.000715
    29  H    0.000015   0.000004  -0.000006
    30  H   -0.000018   0.000001  -0.000003
    31  O   -0.036555   0.002937   0.000842
    32  H    0.002161   0.000912  -0.003891
    33  H    0.004547  -0.000134  -0.001027
    34  H    0.000000   0.000000   0.000000
    35  H   -0.000000  -0.000000  -0.000000
    36  H    0.000000   0.000000   0.000000
    37  O    7.671301   0.342879   0.350740
    38  H    0.342879   0.548216  -0.069110
    39  H    0.350740  -0.069110   0.586245
 Mulliken charges:
               1
     1  C    1.124139
     2  C    0.755180
     3  C    0.710059
     4  N    0.013093
     5  C    0.813667
     6  C    0.230213
     7  C    0.953988
     8  N   -0.413675
     9  C    1.185770
    10  C    0.598719
    11  C    0.949599
    12  O   -0.469919
    13  O   -0.336667
    14  H   -0.515545
    15  H   -0.271044
    16  H   -0.374913
    17  H   -0.362138
    18  H   -0.443094
    19  H   -0.450471
    20  H   -0.570417
    21  H   -1.006340
    22  H   -0.675656
    23  H   -0.563631
    24  H   -0.872059
    25  C    0.802085
    26  H    0.141855
    27  H    0.211185
    28  H    0.243809
    29  H    0.150019
    30  H    0.152843
    31  O   -0.345647
    32  H    0.203917
    33  H    0.131507
    34  H   -0.215439
    35  H   -0.290748
    36  H   -0.172158
    37  O   -0.333044
    38  H    0.174231
    39  H    0.136728
 Sum of Mulliken charges =   1.00000
 Mulliken charges with hydrogens summed into heavy atoms:
               1
     1  C    0.252080
     2  C    0.755180
     3  C   -0.296281
     4  N    0.154948
     5  C    0.138011
     6  C   -0.333418
     7  C    0.383571
     8  N   -0.413675
     9  C    0.219754
    10  C   -0.047238
    11  C    0.144366
    12  O   -0.014925
    13  O   -0.033805
    25  C    0.123740
    31  O   -0.010224
    37  O   -0.022084
 Electronic spatial extent (au):  <R**2>=           7492.2496
 Charge=              1.0000 electrons
 Dipole moment (field-independent basis, Debye):
    X=              6.1391    Y=              0.2680    Z=              2.8161  Tot=              6.7595
 Quadrupole moment (field-independent basis, Debye-Ang):
   XX=             -3.3630   YY=            -68.2350   ZZ=            -72.9086
   XY=              2.0868   XZ=             -1.4682   YZ=             -6.9192
 Traceless Quadrupole moment (field-independent basis, Debye-Ang):
   XX=             44.8059   YY=            -20.0661   ZZ=            -24.7397
   XY=              2.0868   XZ=             -1.4682   YZ=             -6.9192
 Octapole moment (field-independent basis, Debye-Ang**2):
  XXX=            523.8906  YYY=             78.9008  ZZZ=             16.4505  XYY=            152.4411
  XXY=            -59.9563  XXZ=            -24.4962  XZZ=             35.8435  YZZ=            -10.2736
  YYZ=            -12.3150  XYZ=             -2.1539
 Hexadecapole moment (field-independent basis, Debye-Ang**3):
 XXXX=          -2391.1083 YYYY=           -861.7739 ZZZZ=          -1129.3966 XXXY=           -629.7063
 XXXZ=            -96.0710 YYYX=            224.9111 YYYZ=            -55.9247 ZZZX=           -113.7965
 ZZZY=            -47.9662 XXYY=           -499.7157 XXZZ=          -1133.7192 YYZZ=           -422.3618
 XXYZ=            -11.4582 YYXZ=              4.2750 ZZXY=             33.1687
 N-N= 1.121951042871D+03 E-N=-4.108946609731D+03  KE= 7.999747885077D+02
 Calling FoFJK, ICntrl=      2127 FMM=F ISym2X=0 I1Cent= 0 IOpClX= 0 NMat=1 NMatS=1 NMatT=0.
 ***** Axes restored to original set *****
 -------------------------------------------------------------------
 Center     Atomic                   Forces (Hartrees/Bohr)
 Number     Number              X              Y              Z
 -------------------------------------------------------------------
      1        6          -0.000053513   -0.000081767    0.000007754
[...]
 .00193786,0.00031493,0.00049430,-0.00048742,-0.00012144,0.00031712,-0.
 00036958,-0.00001255,0.00008272,0.00027067,0.00001694,-0.00007481,-0.0
 0009447,-0.00005907,-0.00002515,-0.00004807,0.00004844,0.00042193,-0.0
 0022189,-0.00003338,0.00005205,-0.00000492,0.00003852,-0.00000459,-0.0
 0005011,-0.00001396,0.00001837,0.00001845,0.00000104,0.00002729,0.0000
 3560,-0.00011993,-0.00010646,-0.00002461,0.00007484,0.00001992,-0.0000
 7539,0.00003642,0.00004546,0.00024031,0.00000283,-0.00000372,-0.000001
 84,0.00000633,0.00001500,-0.00000537,0.00000269,-0.00002804,-0.0000064
 9,-0.10888681,-0.12354523,0.05332994,-0.00009651,0.00011406,0.00004730
 ,0.00002470,0.00002980,0.00006442,0.00001784,-0.00000791,0.00005152,0.
 00001474,0.00001037,0.00000581,0.00005141,-0.00000438,0.00001874,-0.00
 000230,-0.00000475,-0.00003786,0.00000502,0.00000867,0.00000903,-0.000
 00528,0.00000207,0.00001019,-0.02352493,-0.01352474,0.01147601,0.11820
 979,0.12783715,-0.00027228,-0.00053830,-0.00003081,-0.00014453,-0.0001
 7570,-0.00042356,-0.00012867,-0.00031903,-0.00027256,-0.00019705,-0.00
 035365,0.00005642,-0.00015125,0.00038090,-0.00008470,0.00038056,-0.000
 02639,0.00005914,0.00073894,0.00134036,0.00118730,0.02747409,0.0223420
 5,-0.01915064,-0.00132553,-0.00406130,-0.00502757,0.00165776,0.0010865
 2,-0.00078086,-0.00005333,0.00039858,-0.00002342,0.00015387,-0.0000717
 3,0.00004074,0.00002694,-0.00001188,-0.00003245,-0.00020943,0.00012263
 ,0.00011898,-0.00009507,-0.00027590,-0.00064627,-0.00004021,0.00001187
 ,-0.00006361,-0.00002721,-0.00004619,0.00006268,-0.00005067,-0.0000964
 6,-0.00000730,0.00033751,-0.00005402,-0.00002426,-0.00002508,-0.000429
 50,-0.00009353,0.00007015,0.00018519,-0.00030052,-0.00001061,0.0000066
 3,-0.00001024,0.00000442,-0.00000279,-0.00000364,-0.00000054,0.0000430
 8,-0.00000780,0.06968264,0.04780946,-0.08215619,-0.00022780,0.00009663
 ,-0.00003288,-0.00003836,0.00001379,0.00004417,-0.00002378,0.00002009,
 -0.00007722,-0.00000319,-0.00000080,0.00000606,-0.00000593,0.00000528,
 0.00000683,0.00002152,-0.00001477,0.00004491,-0.00001569,-0.00000679,-
 0.00000970,0.00000397,0.00000580,-0.00000415,-0.00620211,-0.00321825,0
 .00287817,-0.08259668,-0.05736937,0.09950223,-0.00003666,0.00037548,-0
 .00005160,-0.00023998,-0.00045699,0.00017435,-0.00012510,0.00021140,0.
 00008293,0.00017693,0.00014638,-0.00002277,0.00007726,-0.00020515,-0.0
 0001761,-0.00022548,-0.00004278,0.00002996,0.00152357,0.00025786,0.001
 35590,0.00313047,-0.00203028,-0.00675220,0.00316834,-0.00058256,0.0013
 0414,0.00012519,0.00006834,0.00027940,0.00007908,-0.00005853,0.0001361
 5,-0.00013571,0.00001823,-0.00004062,-0.00005299,-0.00000281,0.0000259
 2,-0.00026458,0.00017305,-0.00002716,-0.00000852,-0.00002548,-0.000095
 40,-0.00008174,0.00004361,0.00016321,0.00005238,-0.00002439,-0.0000587
 9,-0.00000440,-0.00008993,0.00006791,0.00037806,0.00104477,-0.00167742
 ,-0.00032439,-0.00153031,-0.00115019,0.00031067,0.00013651,0.00016446,
 0.00000967,-0.00001166,-0.00000213,-0.00001739,-0.00000532,-0.00001858
 ,0.00002926,-0.00002535,-0.00003383,-0.22870393,0.06662628,-0.07683437
 ,0.00014973,-0.00005023,0.00004904,0.00005179,-0.00000002,-0.00003359,
 0.00003633,-0.00000807,0.00007183,0.00001015,0.00000735,-0.00000760,0.
 00002817,-0.00000305,-0.00000675,-0.00005018,-0.00000401,-0.00004702,0
 .00003490,0.00001951,0.00001731,0.00001400,-0.00000190,0.00000764,-0.0
 0330420,-0.00000324,-0.00080468,-0.01954057,0.00888626,-0.00871499,0.2
 4374388,0.00006351,0.00016676,-0.00000101,0.00013969,-0.00036347,0.000
 31243,-0.00006930,-0.00005189,0.00000232,0.00019272,0.00013981,0.00000
 977,0.00006254,-0.00012646,0.00002978,-0.00011688,-0.00000194,-0.00003
 686,-0.00322146,0.00302507,-0.00181279,-0.00368163,0.00175824,-0.00036
 659,0.00144506,0.00022624,0.00006868,-0.00018947,0.00006037,0.00009644
 ,0.00005891,-0.00000976,0.00003511,0.00004149,0.00000184,-0.00000057,0
 .00001425,0.00000887,-0.00001188,0.00016195,-0.00012503,-0.00010840,0.
 00000207,0.00002099,0.00008028,-0.00007999,-0.00011125,-0.00008824,0.0
 0003577,-0.00001077,0.00002337,-0.00002580,-0.00001681,0.00005161,-0.0
 0029960,-0.00020635,0.00018532,0.00073862,0.00033699,0.00121722,-0.000
 01057,-0.00004149,0.00003507,0.00000430,-0.00000070,-0.00001190,0.0000
 0183,0.00000405,-0.00000742,-0.00000520,-0.00002581,0.00000492,0.06609
 048,-0.07491584,0.02819672,-0.00003277,0.00002812,0.00000971,-0.000011
 23,-0.00000472,0.00001414,-0.00001246,-0.00000284,-0.00001720,-0.00000
 252,-0.00000334,0.00000338,-0.00001339,-0.00000549,0.00000443,0.000017
 74,0.00000600,0.00001394,-0.00001275,-0.00000767,-0.00000644,-0.000006
 99,-0.00000119,-0.00000450,0.02664400,-0.00792739,0.01155879,-0.015083
 24,0.00548928,-0.00679975,-0.07284490,0.07268470,-0.00019672,-0.000040
 40,0.00000638,0.00027495,-0.00054327,0.00023729,-0.00004890,0.00008703
 ,0.00005015,-0.00011269,-0.00018705,0.00004632,-0.00004302,-0.00002532
 ,-0.00005742,-0.00000395,-0.00006029,0.00002228,-0.00185157,0.00637842
 ,0.00109312,-0.02883440,0.00768082,-0.03484216,-0.00518252,-0.00218938
 ,0.00198361,0.00044406,-0.00004670,0.00027581,0.00020254,0.00023286,0.
 00058675,-0.00005927,0.00004261,0.00005273,0.00001905,0.00001444,0.000
 03463,0.00041644,0.00018994,-0.00010971,0.00019241,-0.00014192,-0.0000
 9704,0.00014251,0.00004960,0.00029006,0.00008199,-0.00005527,-0.000062
 85,-0.00002012,-0.00002498,0.00010387,0.00201859,0.00008181,0.00064288
 ,0.00115030,-0.00171203,0.00094794,0.00037303,0.00007238,-0.00016277,-
 0.00000179,-0.00001629,-0.00000934,-0.00001813,-0.00000909,-0.00001272
 ,0.00002216,-0.00000257,-0.00001029,-0.07689538,0.02857105,-0.08107720
 ,0.00011357,-0.00006599,-0.00001016,0.00000002,-0.00001985,-0.00005244
 ,0.00000536,0.00000402,-0.00001068,-0.00000574,-0.00000344,-0.00000464
 ,-0.00002166,-0.00000081,-0.00001028,-0.00001875,0.00000124,0.00000929
 ,0.00000928,0.00000224,0.00000079,0.00001040,-0.00000362,-0.00000444,0
 .00582011,-0.00144572,0.00325478,0.00954528,-0.00413038,0.00525184,0.0
 9247518,-0.03268278,0.10164489,-0.00000103,-0.00003047,0.00000149,0.00
 001299,0.00007027,-0.00001260,0.00012260,0.00006637,0.00001431,-0.0003
 4801,0.00020630,-0.00005216,-0.00001844,-0.00015479,0.00000288,-0.0000
 3568,-0.00000427,-0.00000682,0.00004703,0.00003484,0.00004626,-0.00008
 488,-0.00002354,-0.00005096,0.00004583,0.00001569,-0.00001199,0.000018
 55,-0.00000200,0.00001545,0.00001281,-0.00001124,-0.00000407,-0.000535
 43,0.00057927,-0.00177074,0.00022063,-0.00003424,-0.00025723,0.0000067
 8,-0.00000726,0.00000209,-0.00001091,-0.00000423,0.00000071,-0.0000026
 2,0.00001331,-0.00000965,-0.00001399,0.00000134,-0.00000359,0.00000543
 ,-0.00001509,-0.00001435,-0.00002466,0.00000549,-0.00001313,-0.0000223
 5,-0.00000631,-0.00001091,0.00005476,0.00001637,0.00003545,0.00000091,
 -0.00004812,0.00005006,-0.00000940,-0.00000192,0.00000895,-0.00000521,
 0.00000005,0.00000407,0.00002320,0.00000157,0.00005896,0.00070367,-0.0
 0041307,0.00015315,-0.00039950,0.00017440,0.00046849,0.00063803,-0.000
 83023,0.00249693,-0.00008268,-0.00004776,-0.00002632,-0.00003208,0.000
 00266,0.00003845,-0.00740236,-0.00724599,-0.00800608,-0.00529812,0.001
 15799,0.00443061,-0.00087422,0.00054629,-0.00071195,0.00000370,-0.0000
 0755,0.00000092,-0.00000021,-0.00000144,0.00001149,-0.00002388,0.00000
 874,-0.00000790,0.57543821,-0.00004383,-0.00005795,-0.00000135,-0.0000
 6944,0.00009915,-0.00000578,0.00014534,0.00000784,0.00000397,-0.000275
 78,0.00012761,-0.00000854,-0.00014376,-0.00009501,-0.00000059,0.000073
 01,0.00002528,0.00001431,0.00000318,-0.00003144,-0.00001082,-0.0000240
 5,0.00003760,-0.00000996,0.00000912,-0.00001063,0.00000743,0.00002104,
 -0.00001297,0.00001136,0.00000063,-0.00000157,0.00000376,-0.00048637,0
 .00074653,-0.00107868,0.00000653,0.00010731,-0.00021320,0.00000560,0.0
 0000843,0.00000535,-0.00000228,0.00000191,-0.00000201,-0.00000614,0.00
 000425,-0.00000791,-0.00000567,0.00000500,-0.00000539,0.00000684,-0.00
 000625,0.00000402,-0.00000493,0.00000414,-0.00000719,-0.00000697,0.000
 00916,-0.00000582,0.00003638,-0.00000901,0.00001705,-0.00002178,-0.000
 03232,-0.00004611,-0.00002246,0.00000703,-0.00001304,-0.00000106,-0.00
 000187,-0.00000207,0.00000936,-0.00000639,0.00000985,0.00055944,-0.000
 41537,0.00004218,-0.00012376,-0.00001628,0.00018115,0.00053386,-0.0008
 3533,0.00176955,-0.00001046,-0.00010437,0.00004037,0.00002701,-0.00002
 794,0.00009597,-0.00656676,0.00027337,-0.00336640,0.00088662,-0.006158
 55,-0.00188053,0.00070341,0.00068769,0.00012617,0.00000580,0.00000638,
 0.00000389,0.00000527,-0.00000501,-0.00000075,-0.00001005,0.00000415,-
 0.00000005,-0.10888278,0.13555279,0.00000028,-0.00000714,0.00000246,0.
 00001770,0.00003684,-0.00001088,0.00006985,0.00005791,0.00000082,-0.00
 031654,0.00019280,-0.00001488,0.00003263,-0.00010124,0.00000266,-0.000
 06176,-0.00000053,0.00000102,0.00003270,0.00002851,0.00002512,-0.00006
 757,-0.00002053,0.00000993,0.00003885,0.00001899,-0.00002553,-0.000006
 68,0.00000860,0.00000874,-0.00000130,-0.00001820,-0.00002409,-0.000710
 41,0.00015494,-0.00057852,-0.00010938,-0.00008090,-0.00025978,0.000001
 46,-0.00000429,-0.00000066,-0.00001122,-0.00000621,0.00000195,0.000007
 44,-0.00000088,-0.00000730,-0.00000988,-0.00000081,0.00000259,0.000008
 85,0.00000079,-0.00000933,-0.00001592,0.00000057,-0.00000068,-0.000014
 94,-0.00000705,-0.00000205,0.00004247,0.00000913,0.00000096,0.00003937
 ,-0.00003694,-0.00000224,-0.00000094,-0.00000041,-0.00000832,-0.000005
 80,0.00000138,-0.00000512,0.00002244,0.00000055,0.00000758,0.00068797,
 -0.00038410,0.00004650,0.00004798,0.00013794,0.00020713,0.00048472,-0.
 00013121,0.00080328,0.00004841,0.00002108,0.00015763,0.00004785,0.0000
 5018,0.00006715,-0.00748586,-0.00335512,0.00032715,0.00377216,-0.00221
 421,-0.00585222,-0.00069738,0.00003951,-0.00095994,0.00000566,0.000000
 36,0.00000070,-0.00000456,-0.00000931,0.00001076,-0.00001276,0.0000046
 9,0.00000131,-0.07734279,0.24550280,0.49966758,-0.00000393,0.00000196,
 -0.00000048,-0.00000709,-0.00000767,0.00000272,-0.00001397,-0.00001262
 ,-0.00000220,0.00005878,-0.00003827,0.00001087,-0.00000931,0.00002262,
 -0.00000002,0.00001550,0.00000371,0.00000312,-0.00001076,-0.00000895,-
 0.00001147,0.00001814,0.00000702,0.00001295,-0.00001021,-0.00000349,0.
 00000206,-0.00000376,0.00000015,-0.00000284,-0.00000305,0.00000248,0.0
 0000113,0.00012316,-0.00000469,0.00016828,-0.00002201,0.00001545,0.000
 07335,-0.00000139,0.00000207,-0.00000043,0.00000179,0.00000106,-0.0000
 0049,0.00000120,-0.00000268,0.00000159,0.00000282,-0.00000033,0.000000
 33,-0.00000017,0.00000311,0.00000322,0.00000562,-0.00000141,0.00000308
 ,0.00000469,0.00000167,0.00000253,-0.00000875,-0.00000320,-0.00000603,
 -0.00000500,0.00000790,-0.00001325,-0.00000019,0.00000109,-0.00000374,
 0.00000147,0.00000006,-0.00000138,-0.00000531,-0.00000050,-0.00001416,
 -0.00012050,0.00006252,-0.00002626,0.00002153,-0.00003668,-0.00009604,
 -0.00012909,-0.00000303,-0.00017973,0.00001856,0.00000130,-0.00002248,
 0.00000559,-0.00000450,-0.00001594,0.00053564,-0.00045321,-0.00001397,
 -0.00127702,0.00122140,0.00063860,-0.00033646,-0.00010460,-0.00015814,
 -0.00000061,0.00000214,-0.00000015,0.00000003,-0.00000009,-0.00000257,
 0.00000559,-0.00000203,0.00000192,-0.51184748,0.11320756,0.09035826,0.
 51651074,0.00001105,0.00001304,0.00000042,0.00002279,-0.00001836,-0.00
 000122,-0.00002206,0.00001101,-0.00000071,0.00000644,0.00000295,-0.000
 00211,0.00003689,0.00000150,0.00000383,-0.00002927,-0.00000408,-0.0000
 0423,0.00000617,0.00001761,0.00000979,-0.00000620,-0.00001801,-0.00000
 148,0.00000442,0.00000825,-0.00000609,-0.00000531,0.00000430,-0.000000
 70,0.00000066,-0.00000232,-0.00000411,-0.00001441,-0.00009770,-0.00008
 056,0.00004735,-0.00008543,0.00003340,-0.00000101,-0.00000420,-0.00000
 155,-0.00000143,-0.00000131,0.00000078,0.00000255,0.00000021,0.0000009
 8,-0.00000036,-0.00000155,0.00000164,-0.00000086,0.00000019,-0.0000034
 6,-0.00000211,-0.00000108,0.00000105,-0.00000098,-0.00000449,0.0000009
 3,-0.00000029,0.00000612,0.00000004,0.00001139,0.00000494,0.00000807,0
 .00000575,-0.00000136,0.00000246,-0.00000027,0.00000119,0.00000054,0.0
 0000057,0.00000370,0.00000359,-0.00000756,0.00002670,0.00000316,-0.000
 03767,0.00007753,0.00003459,-0.00000305,0.00002343,0.00006556,-0.00000
 595,0.00005673,-0.00001803,-0.00002494,0.00002255,-0.00004292,-0.00105
 968,-0.00161617,-0.00166936,0.00099565,0.00239721,0.00281396,-0.000465
 63,0.00010920,0.00002384,-0.00000121,-0.00000329,-0.00000113,-0.000002
 42,0.00000095,0.00000228,0.00000030,-0.00000044,-0.00000084,0.09078767
 ,-0.03199954,-0.03741430,-0.11103380,0.03484489,-0.00000332,-0.0000043
 8,-0.00000006,-0.00000749,0.00000213,0.00000164,0.00000262,-0.00000951
 ,0.00000306,0.00004296,-0.00002897,-0.00000414,-0.00001727,0.00000482,
 0.00000106,0.00001874,0.00000143,-0.00000256,-0.00000391,-0.00000448,-
 0.00000232,0.00001141,0.00000495,-0.00001328,-0.00000754,-0.00000572,0
 .00000730,0.00000583,-0.00000387,0.00000024,0.00000159,0.00000424,0.00
 000719,0.00017665,0.00007564,-0.00030921,0.00015997,0.00002633,0.00006
 411,0.00000061,0.00000088,0.00000108,0.00000225,0.00000161,-0.00000103
 ,-0.00000301,0.00000221,0.00000041,0.00000124,0.00000061,-0.00000158,-
 0.00000179,-0.00000259,0.00000101,0.00000197,0.00000070,-0.00000166,0.
 00000132,0.00000171,-0.00000084,-0.00000415,-0.00000084,0.00000773,-0.
 00001404,0.00000288,0.00001411,-0.00000244,0.00000047,0.00000429,0.000
 00078,-0.00000016,0.00000239,-0.00000554,0.00000008,0.00000869,-0.0000
 9880,0.00004819,0.00001864,-0.00017668,0.00000474,0.00006933,-0.000022
 87,-0.00014491,0.00045374,-0.00007072,-0.00002325,-0.00011412,-0.00004
 382,-0.00003123,-0.00003096,-0.00109701,-0.00153744,-0.00145121,0.0015
 7097,0.00318996,0.00248651,-0.00017702,-0.00004226,-0.00003568,-0.0000
 0184,-0.00000169,0.00000013,0.00000211,0.00000393,-0.00000189,0.000000
 83,-0.00000039,-0.00000219,0.03848424,-0.03001090,-0.04931401,-0.08264
 981,0.03795472,0.05505266,-0.00001273,-0.00000249,0.00000022,-0.000016
 12,0.00000707,0.00000034,0.00001020,-0.00000508,-0.00000602,-0.0000433
 5,0.00001630,0.00001565,-0.00001611,0.00000238,0.00000062,0.00001147,0
 .00001147,0.00000608,-0.00000777,-0.00001003,-0.00001429,0.00000846,0.
 00001059,0.00002271,-0.00000514,-0.00000253,-0.00000295,-0.00000661,0.
 00000107,-0.00000026,-0.00000794,-0.00000286,-0.00000775,-0.00014698,0
 .00008749,-0.00002669,-0.00003781,0.00000288,-0.00000810,-0.00000133,0
 .00000333,0.00000038,0.00000008,0.00000007,-0.00000043,0.00000301,-0.0
 0000564,-0.00000066,0.00000197,0.00000012,0.00000161,0.00000247,0.0000
 0595,0.00000368,0.00000427,-0.00000148,0.00000462,0.00000253,0.0000020
 1,0.00000352,0.00000221,-0.00000559,-0.00000929,0.00000845,0.00000108,
 -0.00002951,-0.00000205,0.00000378,-0.00000995,-0.00000010,0.00000055,
 -0.00000426,-0.00000159,-0.00000131,-0.00001921,0.00011097,-0.00007786
 ,-0.00003248,0.00004289,-0.00000056,-0.00002154,0.00008900,-0.00008199
 ,0.00011080,0.00001437,0.00000139,0.00001834,0.00001202,0.00000269,0.0
 0000795,-0.00301632,-0.00097515,-0.00000871,0.00541354,0.00128078,-0.0
 0094528,-0.00009948,-0.00012512,-0.00030794,0.00000108,0.00000409,0.00
 000083,-0.00000035,-0.00000281,-0.00000128,0.00000429,-0.00000151,0.00
 000340,-0.05028198,0.00046233,-0.00889137,-0.00351478,0.02078680,0.043
 92297,0.05147524,0.00001921,0.00002126,-0.00000003,0.00003341,-0.00003
 382,0.00000085,-0.00004861,0.00000405,0.00000132,0.00006633,-0.0000243
 3,-0.00000207,0.00005084,0.00001708,0.00000034,-0.00003436,-0.00000455
 ,-0.00000777,0.00000448,0.00001917,0.00000987,-0.00000102,-0.00002057,
 0.00000169,0.00000281,0.00000732,-0.00000690,-0.00000922,0.00000714,-0
 .00000401,0.00000098,-0.00000124,-0.00000330,0.00014180,-0.00015489,0.
 00015103,0.00001577,-0.00002876,0.00004351,-0.00000172,-0.00000475,-0.
 00000260,-0.00000111,-0.00000151,0.00000101,0.00000396,-0.00000144,0.0
 0000189,0.00000111,-0.00000220,0.00000264,-0.00000244,0.00000258,-0.00
 000389,-0.00000093,-0.00000145,0.00000257,0.00000040,-0.00000512,0.000
 00199,-0.00000622,0.00000522,-0.00000397,0.00000370,0.00001373,0.00002
 435,0.00000869,-0.00000306,0.00000839,0.00000097,0.00000177,0.00000175
 ,-0.00000108,0.00000254,0.00000089,-0.00013746,0.00010859,-0.00000295,
 -0.00000070,0.00001229,-0.00002310,-0.00015536,0.00012337,-0.00025513,
 -0.00000532,0.00002228,-0.00001911,-0.00000783,0.00000892,-0.00002241,
 -0.00053519,-0.00008083,0.00052237,0.00080669,-0.00047654,-0.00112054,
 -0.00005795,-0.00013022,-0.00036961,-0.00000164,-0.00000334,-0.0000016
 9,-0.00000265,0.00000139,0.00000217,0.00000167,-0.00000081,-0.00000042
 ,0.02408368,-0.09788782,-0.20247418,-0.00284347,-0.00377489,-0.0094796
 3,-0.02139223,0.10226345,-0.00000884,-0.00000571,-0.00000120,-0.000019
 45,0.00000025,0.00000325,-0.00000364,-0.00001963,-0.00000129,0.0000695
 4,-0.00004932,0.00000688,-0.00003968,0.00002440,-0.00000077,0.00003701
 ,0.00000647,0.00000182,-0.00001321,-0.00001507,-0.00001205,0.00002457,
 0.00001236,-0.00000528,-0.00001475,-0.00000764,0.00001129,0.00000459,-
 0.00000510,-0.00000247,0.00000023,0.00000736,0.00001014,0.00013558,0.0
 0001697,0.00012015,0.00002362,0.00002496,0.00005189,0.00000012,0.00000
 250,0.00000068,0.00000464,0.00000305,-0.00000077,-0.00000373,0.0000009
 3,0.00000235,0.00000403,0.00000075,-0.00000128,-0.00000357,-0.00000100
 ,0.00000473,0.00000600,0.00000009,-0.00000040,0.00000520,0.00000389,0.
 00000030,-0.00001041,-0.00000412,0.00000073,-0.00001508,0.00000784,-0.
 00001449,-0.00000410,0.00000161,0.00000087,0.00000234,-0.00000053,0.00
 000174,-0.00000744,-0.00000052,-0.00000236,-0.00014966,0.00006353,-0.0
 0001689,0.00000016,-0.00003221,-0.00004070,-0.00006034,-0.00001910,-0.
 00013537,-0.00001285,-0.00001110,-0.00002937,-0.00001278,-0.00001216,-
 0.00001296,0.00086490,0.00024647,0.00055551,-0.00073738,-0.00035878,-0
 .00135069,-0.00022057,-0.00003325,0.00005945,-0.00000148,0.00000070,0.
 00000018,0.00000243,0.00000277,-0.00000445,0.00000392,-0.00000140,-0.0
 0000040,0.04198828,-0.21116211,-0.44427747,-0.00806245,-0.00171282,-0.
 00691857,-0.03377576,0.21302469,0.45199728\\-0.00000579,-0.00000835,0.
 00000032,-0.00000943,0.00001212,0.00000066,0.00001579,0.00000112,0.000
 00055,-0.00000440,-0.00000491,-0.00000236,-0.00000632,0.00001226,-0.00
 000084,0.00001097,-0.00000294,0.00000251,-0.00000095,-0.00000618,0.000
 00108,0.00000405,0.00000575,-0.00000182,0.00000051,-0.00000026,0.00000
 116,-0.00000247,-0.00000802,0.00000147,0.00000173,0.00000581,-0.000001
 69,0.00000560,-0.00000865,0.00000285,0.00000284,0.00000175,-0.00000344
 ,-0.00000057,-0.00000086,-0.00000105,-0.00000018,-0.00000115,-0.000000
 64,-0.00000037,-0.00000050,-0.00000129,0.00000096,0.00000036,0.0000004
 9,0.00000065,-0.00000123,0.00000022,0.00000015,0.00000065,-0.00000022,
 -0.00000047,0.00000124,-0.00000004,-0.00000159,-0.00000195,-0.00000017
 ,-0.00000063,-0.00000069,0.00000140,-0.00000159,0.00000048,0.00000083,
 0.00000127,0.00000181,0.00000058,-0.00000137,0.00000102,-0.00000143,0.
 00000018,-0.00000399,0.00000254,-0.00000783,0.00000506,-0.00000020,0.0
 0000152,0.00000388,-0.00000308,-0.00000013,-0.00000018,-0.00000085,-0.
 00000065,0.00000049,0.00000042,-0.00000184,-0.00000703,0.00001202,-0.0
 0000398,-0.00000057,-0.00000765,-0.00000214,0.00000104,-0.00000550,0.0
 0000019,0.00000068,-0.00000001,-0.00000015,0.00000058,0.00000034,0.000
 00047,0.00000119,0.00000082,0.00000801,0.00000385,0.00000268,-0.000004
 17,0.00000074,0.00000324,0.00000213,-0.00000440,-0.00000388\\\@


 WHEN A MATHEMATICIAN ENGAGED IN INVESTIGATING
 PHYSICAL ACTIONS AND RESULTS HAS ARRIVED AT HIS
 CONCLUSIONS, MAY THEY NOT BE EXPRESSED IN COMMON
 LANGUAGE AS FULLY, CLEARLY, AND DEFINITELY AS IN
 MATHEMATICAL FORMULAE?
           - LETTER FROM M. FARADAY TO J.C. MAXWELL, 1857.
 Job cpu time:       1 days  0 hours 12 minutes 30.9 seconds.
 Elapsed time:       0 days  0 hours 51 minutes 55.1 seconds.
 File lengths (MBytes):  RWF=   1240 Int=      0 D2E=      0 Chk=     32 Scr=      8
 Normal termination of Gaussian 16 at Fri Jan 27 15:40:04 2023.
