 Entering Gaussian System, Link 0=g16
 Input=NicPyrNa4h7.gjf
 Output=NicPyrNa4h7.log
 Initial command:
 /sw/contrib/gaussian/g16/A03/g16/l1.exe "/gscratch/scrubbed/gds001/Gau-32090.inp" -scrdir="/gscratch/scrubbed/gds001/"
 Entering Link 1 = /sw/contrib/gaussian/g16/A03/g16/l1.exe PID=     32091.
  
 Copyright (c) 1988,1990,1992,1993,1995,1998,2003,2009,2016,
            Gaussian, Inc.  All Rights Reserved.
  
 This is part of the Gaussian(R) 16 program.  It is based on
 the Gaussian(R) 09 system (copyright 2009, Gaussian, Inc.),
 the Gaussian(R) 03 system (copyright 2003, Gaussian, Inc.),
 the Gaussian(R) 98 system (copyright 1998, Gaussian, Inc.),
 the Gaussian(R) 94 system (copyright 1995, Gaussian, Inc.),
 the Gaussian 92(TM) system (copyright 1992, Gaussian, Inc.),
 the Gaussian 90(TM) system (copyright 1990, Gaussian, Inc.),
 the Gaussian 88(TM) system (copyright 1988, Gaussian, Inc.),
 the Gaussian 86(TM) system (copyright 1986, Carnegie Mellon
 University), and the Gaussian 82(TM) system (copyright 1983,
 Carnegie Mellon University). Gaussian is a federally registered
 trademark of Gaussian, Inc.
  
 This software contains proprietary and confidential information,
 including trade secrets, belonging to Gaussian, Inc.
  
 This software is provided under written license and may be
 used, copied, transmitted, or stored only in accord with that
 written license.
  
 The following legend is applicable only to US Government
 contracts under FAR:
  
                    RESTRICTED RIGHTS LEGEND
  
 Use, reproduction and disclosure by the US Government is
 subject to restrictions as set forth in subparagraphs (a)
 and (c) of the Commercial Computer Software - Restricted
 Rights clause in FAR 52.227-19.
  
 Gaussian, Inc.
 340 Quinnipiac St., Bldg. 40, Wallingford CT 06492
  
  
 ---------------------------------------------------------------
 Warning -- This program may not be used in any manner that
 competes with the business of Gaussian, Inc. or will provide
 assistance to any competitor of Gaussian, Inc.  The licensee
 of this program is prohibited from giving any competitor of
 Gaussian, Inc. access to this program.  By using this program,
 the user acknowledges that Gaussian, Inc. is engaged in the
 business of creating and licensing software in the field of
 computational chemistry and represents and warrants to the
 licensee that it is not a competitor of Gaussian, Inc. and that
 it will not use this program in any manner prohibited above.
 ---------------------------------------------------------------
  

 Cite this work as:
 Gaussian 16, Revision A.03,
 M. J. Frisch, G. W. Trucks, H. B. Schlegel, G. E. Scuseria, 
 M. A. Robb, J. R. Cheeseman, G. Scalmani, V. Barone, 
 G. A. Petersson, H. Nakatsuji, X. Li, M. Caricato, A. V. Marenich, 
 J. Bloino, B. G. Janesko, R. Gomperts, B. Mennucci, H. P. Hratchian, 
 J. V. Ortiz, A. F. Izmaylov, J. L. Sonnenberg, D. Williams-Young, 
 F. Ding, F. Lipparini, F. Egidi, J. Goings, B. Peng, A. Petrone, 
 T. Henderson, D. Ranasinghe, V. G. Zakrzewski, J. Gao, N. Rega, 
 G. Zheng, W. Liang, M. Hada, M. Ehara, K. Toyota, R. Fukuda, 
 J. Hasegawa, M. Ishida, T. Nakajima, Y. Honda, O. Kitao, H. Nakai, 
 T. Vreven, K. Throssell, J. A. Montgomery, Jr., J. E. Peralta, 
 F. Ogliaro, M. J. Bearpark, J. J. Heyd, E. N. Brothers, K. N. Kudin, 
 V. N. Staroverov, T. A. Keith, R. Kobayashi, J. Normand, 
 K. Raghavachari, A. P. Rendell, J. C. Burant, S. S. Iyengar, 
 J. Tomasi, M. Cossi, J. M. Millam, M. Klene, C. Adamo, R. Cammi, 
 J. W. Ochterski, R. L. Martin, K. Morokuma, O. Farkas, 
 J. B. Foresman, and D. J. Fox, Gaussian, Inc., Wallingford CT, 2016.
 
 ******************************************
 Gaussian 16:  ES64L-G16RevA.03 25-Dec-2016
                 1-Aug-2020 
 ******************************************
 %nprocshared=28
 Will use up to   28 processors via shared memory.
 %mem=41GB
 %chk=NicPyrNa4h7.chk
 ------------------------------------------------
 # wB97XD/aug-cc-pVDZ Opt=(CalcFC,ReCalc=50) Freq
 ------------------------------------------------
 1/10=4,18=20,19=15,26=3,38=1,71=50/1,3;
 2/9=110,12=2,17=6,18=5,40=1/2;
 3/5=16,7=10,11=2,25=1,30=1,71=2,74=-58,140=1/1,2,3;
 4//1;
 5/5=2,38=5/2;
 8/6=4,10=90,11=11/1;
 11/6=1,8=1,9=11,15=111,16=1/1,2,10;
 10/6=1,13=1/2;
 6/7=2,8=2,9=2,10=2,28=1/1;
 7/10=1,18=20,25=1/1,2,3,16;
 1/10=4,18=20,19=15,26=3,71=50/3(2);
 2/9=110/2;
 99//99;
 2/9=110/2;
 3/5=16,7=10,11=2,25=1,30=1,71=1,74=-58/1,2,3;
 4/5=5,16=3,69=1/1;
 5/5=2,38=5/2;
 7//1,2,3,16;
 1/18=20,19=15,26=3,71=50/3(-5);
 2/9=110/2;
 6/7=2,8=2,9=2,10=2,19=2,28=1/1;
 99/9=1/99;
 ----------------------------
 p-Pyr Nicotine, N anti, 4H2O
 ----------------------------
 Symbolic Z-matrix:
 Charge =  1 Multiplicity = 1
 N                     1.98636  -0.01979   1.03914 
 C                     1.77145   0.96246  -0.08738 
 C                     2.30145   0.16491  -1.2772 
 C                     3.57544  -0.48842  -0.72385 
 C                     3.28004  -0.74166   0.76875 
 C                     0.34956   1.46228  -0.12791 
 C                    -0.68904   0.6562   -0.59472 
 N                    -1.96799   1.03581  -0.60354 
 C                    -2.27018   2.2613   -0.16284 
 C                    -1.30699   3.15335   0.29899 
 C                     0.02169   2.74193   0.3224 
 O                     0.27433  -2.01015   1.06122 
 O                    -0.75712  -2.60795  -1.41069 
 O                    -3.17175  -1.40313  -0.74853 
 H                     4.05634  -0.34169   1.42721 
 H                     4.42861   0.19173  -0.82801 
 H                     3.82487  -1.41666  -1.24571 
 H                     1.57061  -0.59608  -1.58006 
 H                     2.48947   0.81547  -2.13643 
 H                     3.11893  -1.79629   1.00925 
 H                     2.44483   1.80765   0.11055 
 H                    -0.49221  -0.34511  -0.9767 
 H                    -3.32424   2.53853  -0.18173 
 H                    -1.59633   4.14603   0.63788 
 H                     0.79771   3.41838   0.6844 
 C                     1.97289   0.62228   2.36568 
 H                     1.20165  -0.75506   1.04611 
 H                    -0.59231  -1.89098   1.50806 
 H                     0.02721  -2.38527   0.19306 
 H                    -2.94799  -0.44149  -0.82633 
 H                    -4.04294  -1.5248   -1.13364 
 H                    -1.6929   -2.34647  -1.31195 
 H                    -0.75279  -3.43035  -1.90592 
 O                    -2.25833  -1.55224   1.89646 
 H                    -2.77585  -1.5956    1.07253 
 H                    -2.74959  -2.04977   2.55435 
 H                     2.76254   1.40178   2.44089 
 H                     2.14438  -0.13723   3.15941 
 H                     0.98608   1.09481   2.55873 
 
 Add virtual bond connecting atoms H27        and O12        Dist= 2.95D+00.
 Add virtual bond connecting atoms O34        and H28        Dist= 3.30D+00.
 Add virtual bond connecting atoms O14        and H35        Dist= 3.54D+00.
 Add virtual bond connecting atoms H30        and N8         Dist= 3.38D+00.
 Add virtual bond connecting atoms O14        and H32        Dist= 3.48D+00.
 Add virtual bond connecting atoms H29        and O13        Dist= 3.40D+00.

 GradGradGradGradGradGradGradGradGradGradGradGradGradGradGradGradGradGrad
 Berny optimization.
 Initialization pass.
                           ----------------------------
                           !    Initial Parameters    !
                           ! (Angstroms and Degrees)  !
 --------------------------                            --------------------------
 ! Name  Definition              Value          Derivative Info.                !
 --------------------------------------------------------------------------------
 ! R1    R(1,2)                  1.51           calculate D2E/DX2 analytically  !
 ! R2    R(1,5)                  1.5059         calculate D2E/DX2 analytically  !
 ! R3    R(1,26)                 1.4738         calculate D2E/DX2 analytically  !
 ! R4    R(1,27)                 1.0754         calculate D2E/DX2 analytically  !
 ! R5    R(2,3)                  1.5273         calculate D2E/DX2 analytically  !
 ! R6    R(2,6)                  1.5077         calculate D2E/DX2 analytically  !
 ! R7    R(2,21)                 1.0986         calculate D2E/DX2 analytically  !
 ! R8    R(3,4)                  1.535          calculate D2E/DX2 analytically  !
 ! R9    R(3,18)                 1.0977         calculate D2E/DX2 analytically  !
 ! R10   R(3,19)                 1.094          calculate D2E/DX2 analytically  !
 ! R11   R(4,5)                  1.5425         calculate D2E/DX2 analytically  !
 ! R12   R(4,16)                 1.0961         calculate D2E/DX2 analytically  !
 ! R13   R(4,17)                 1.0937         calculate D2E/DX2 analytically  !
 ! R14   R(5,15)                 1.0937         calculate D2E/DX2 analytically  !
 ! R15   R(5,20)                 1.0936         calculate D2E/DX2 analytically  !
 ! R16   R(6,7)                  1.3951         calculate D2E/DX2 analytically  !
 ! R17   R(6,11)                 1.3956         calculate D2E/DX2 analytically  !
 ! R18   R(7,8)                  1.3341         calculate D2E/DX2 analytically  !
 ! R19   R(7,22)                 1.0896         calculate D2E/DX2 analytically  !
 ! R20   R(8,9)                  1.3369         calculate D2E/DX2 analytically  !
 ! R21   R(8,30)                 1.7867         calculate D2E/DX2 analytically  !
 ! R22   R(9,10)                 1.3917         calculate D2E/DX2 analytically  !
 ! R23   R(9,23)                 1.0901         calculate D2E/DX2 analytically  !
 ! R24   R(10,11)                1.3911         calculate D2E/DX2 analytically  !
 ! R25   R(10,24)                1.0881         calculate D2E/DX2 analytically  !
 ! R26   R(11,25)                1.0913         calculate D2E/DX2 analytically  !
 ! R27   R(12,27)                1.5606         calculate D2E/DX2 analytically  !
 ! R28   R(12,28)                0.9823         calculate D2E/DX2 analytically  !
 ! R29   R(12,29)                0.9775         calculate D2E/DX2 analytically  !
 ! R30   R(13,29)                1.7991         calculate D2E/DX2 analytically  !
 ! R31   R(13,32)                0.9766         calculate D2E/DX2 analytically  !
 ! R32   R(13,33)                0.96           calculate D2E/DX2 analytically  !
 ! R33   R(14,30)                0.9904         calculate D2E/DX2 analytically  !
 ! R34   R(14,31)                0.9603         calculate D2E/DX2 analytically  !
 ! R35   R(14,32)                1.8424         calculate D2E/DX2 analytically  !
 ! R36   R(14,35)                1.8735         calculate D2E/DX2 analytically  !
 ! R37   R(26,37)                1.1121         calculate D2E/DX2 analytically  !
 ! R38   R(26,38)                1.1119         calculate D2E/DX2 analytically  !
 ! R39   R(26,39)                1.111          calculate D2E/DX2 analytically  !
 ! R40   R(28,34)                1.7439         calculate D2E/DX2 analytically  !
 ! R41   R(34,35)                0.9739         calculate D2E/DX2 analytically  !
 ! R42   R(34,36)                0.9601         calculate D2E/DX2 analytically  !
 ! A1    A(2,1,5)              107.4656         calculate D2E/DX2 analytically  !
 ! A2    A(2,1,26)             112.7556         calculate D2E/DX2 analytically  !
 ! A3    A(2,1,27)             110.2275         calculate D2E/DX2 analytically  !
 ! A4    A(5,1,26)             112.2279         calculate D2E/DX2 analytically  !
 ! A5    A(5,1,27)             107.4742         calculate D2E/DX2 analytically  !
 ! A6    A(26,1,27)            106.5805         calculate D2E/DX2 analytically  !
 ! A7    A(1,2,3)              101.0763         calculate D2E/DX2 analytically  !
 ! A8    A(1,2,6)              111.711          calculate D2E/DX2 analytically  !
 ! A9    A(1,2,21)             106.1886         calculate D2E/DX2 analytically  !
 ! A10   A(3,2,6)              118.648          calculate D2E/DX2 analytically  !
 ! A11   A(3,2,21)             109.2318         calculate D2E/DX2 analytically  !
 ! A12   A(6,2,21)             109.1383         calculate D2E/DX2 analytically  !
 ! A13   A(2,3,4)              103.2643         calculate D2E/DX2 analytically  !
 ! A14   A(2,3,18)             110.2378         calculate D2E/DX2 analytically  !
 ! A15   A(2,3,19)             111.1595         calculate D2E/DX2 analytically  !
 ! A16   A(4,3,18)             110.9148         calculate D2E/DX2 analytically  !
 ! A17   A(4,3,19)             113.1788         calculate D2E/DX2 analytically  !
 ! A18   A(18,3,19)            108.0575         calculate D2E/DX2 analytically  !
 ! A19   A(3,4,5)              105.0563         calculate D2E/DX2 analytically  !
 ! A20   A(3,4,16)             110.3448         calculate D2E/DX2 analytically  !
 ! A21   A(3,4,17)             112.2418         calculate D2E/DX2 analytically  !
 ! A22   A(5,4,16)             110.054          calculate D2E/DX2 analytically  !
 ! A23   A(5,4,17)             111.473          calculate D2E/DX2 analytically  !
 ! A24   A(16,4,17)            107.6859         calculate D2E/DX2 analytically  !
 ! A25   A(1,5,4)              105.0444         calculate D2E/DX2 analytically  !
 ! A26   A(1,5,15)             109.0475         calculate D2E/DX2 analytically  !
 ! A27   A(1,5,20)             107.2308         calculate D2E/DX2 analytically  !
 ! A28   A(4,5,15)             112.7434         calculate D2E/DX2 analytically  !
 ! A29   A(4,5,20)             113.5362         calculate D2E/DX2 analytically  !
 ! A30   A(15,5,20)            108.9549         calculate D2E/DX2 analytically  !
 ! A31   A(2,6,7)              121.3006         calculate D2E/DX2 analytically  !
 ! A32   A(2,6,11)             121.1201         calculate D2E/DX2 analytically  !
 ! A33   A(7,6,11)             117.5704         calculate D2E/DX2 analytically  !
 ! A34   A(6,7,8)              123.4679         calculate D2E/DX2 analytically  !
 ! A35   A(6,7,22)             120.9152         calculate D2E/DX2 analytically  !
 ! A36   A(8,7,22)             115.6162         calculate D2E/DX2 analytically  !
 ! A37   A(7,8,9)              118.381          calculate D2E/DX2 analytically  !
 ! A38   A(7,8,30)             106.9393         calculate D2E/DX2 analytically  !
 ! A39   A(9,8,30)             132.456          calculate D2E/DX2 analytically  !
 ! A40   A(8,9,10)             122.7185         calculate D2E/DX2 analytically  !
 ! A41   A(8,9,23)             116.4856         calculate D2E/DX2 analytically  !
 ! A42   A(10,9,23)            120.7958         calculate D2E/DX2 analytically  !
 ! A43   A(9,10,11)            118.4935         calculate D2E/DX2 analytically  !
 ! A44   A(9,10,24)            120.2707         calculate D2E/DX2 analytically  !
 ! A45   A(11,10,24)           121.2348         calculate D2E/DX2 analytically  !
 ! A46   A(6,11,10)            119.3486         calculate D2E/DX2 analytically  !
 ! A47   A(6,11,25)            120.5537         calculate D2E/DX2 analytically  !
 ! A48   A(10,11,25)           120.0967         calculate D2E/DX2 analytically  !
 ! A49   A(27,12,28)           115.5363         calculate D2E/DX2 analytically  !
 ! A50   A(27,12,29)           116.7603         calculate D2E/DX2 analytically  !
 ! A51   A(28,12,29)           103.1511         calculate D2E/DX2 analytically  !
 ! A52   A(29,13,32)           107.1245         calculate D2E/DX2 analytically  !
 ! A53   A(29,13,33)           124.3265         calculate D2E/DX2 analytically  !
 ! A54   A(32,13,33)           106.609          calculate D2E/DX2 analytically  !
 ! A55   A(30,14,31)           107.2477         calculate D2E/DX2 analytically  !
 ! A56   A(30,14,32)           106.9652         calculate D2E/DX2 analytically  !
 ! A57   A(30,14,35)            97.3752         calculate D2E/DX2 analytically  !
 ! A58   A(31,14,32)           122.7322         calculate D2E/DX2 analytically  !
 ! A59   A(31,14,35)           124.647          calculate D2E/DX2 analytically  !
 ! A60   A(32,14,35)            94.3029         calculate D2E/DX2 analytically  !
 ! A61   A(1,26,37)            111.0837         calculate D2E/DX2 analytically  !
 ! A62   A(1,26,38)            110.0924         calculate D2E/DX2 analytically  !
 ! A63   A(1,26,39)            110.475          calculate D2E/DX2 analytically  !
 ! A64   A(37,26,38)           108.7229         calculate D2E/DX2 analytically  !
 ! A65   A(37,26,39)           108.7117         calculate D2E/DX2 analytically  !
 ! A66   A(38,26,39)           107.6665         calculate D2E/DX2 analytically  !
 ! A67   A(12,29,13)           161.7005         calculate D2E/DX2 analytically  !
 ! A68   A(8,30,14)            156.4818         calculate D2E/DX2 analytically  !
 ! A69   A(13,32,14)           159.5736         calculate D2E/DX2 analytically  !
 ! A70   A(28,34,35)           108.094          calculate D2E/DX2 analytically  !
 ! A71   A(28,34,36)           122.7389         calculate D2E/DX2 analytically  !
 ! A72   A(35,34,36)           106.5434         calculate D2E/DX2 analytically  !
 ! A73   A(14,35,34)           158.4345         calculate D2E/DX2 analytically  !
 ! A74   L(1,27,12,7,-1)       188.6299         calculate D2E/DX2 analytically  !
 ! A75   L(12,28,34,6,-1)      171.4888         calculate D2E/DX2 analytically  !
 ! A76   L(1,27,12,7,-2)       174.1677         calculate D2E/DX2 analytically  !
 ! A77   L(12,28,34,6,-2)      167.7932         calculate D2E/DX2 analytically  !
 ! D1    D(5,1,2,3)             37.1689         calculate D2E/DX2 analytically  !
 ! D2    D(5,1,2,6)            164.3097         calculate D2E/DX2 analytically  !
 ! D3    D(5,1,2,21)           -76.8058         calculate D2E/DX2 analytically  !
 ! D4    D(26,1,2,3)           161.3648         calculate D2E/DX2 analytically  !
 ! D5    D(26,1,2,6)           -71.4944         calculate D2E/DX2 analytically  !
 ! D6    D(26,1,2,21)           47.3901         calculate D2E/DX2 analytically  !
 ! D7    D(27,1,2,3)           -79.6657         calculate D2E/DX2 analytically  !
 ! D8    D(27,1,2,6)            47.4751         calculate D2E/DX2 analytically  !
 ! D9    D(27,1,2,21)          166.3596         calculate D2E/DX2 analytically  !
 ! D10   D(2,1,5,4)            -17.3337         calculate D2E/DX2 analytically  !
 ! D11   D(2,1,5,15)           103.7515         calculate D2E/DX2 analytically  !
 ! D12   D(2,1,5,20)          -138.4176         calculate D2E/DX2 analytically  !
 ! D13   D(26,1,5,4)          -141.8492         calculate D2E/DX2 analytically  !
 ! D14   D(26,1,5,15)          -20.7641         calculate D2E/DX2 analytically  !
 ! D15   D(26,1,5,20)           97.0669         calculate D2E/DX2 analytically  !
 ! D16   D(27,1,5,4)           101.2894         calculate D2E/DX2 analytically  !
 ! D17   D(27,1,5,15)         -137.6255         calculate D2E/DX2 analytically  !
 ! D18   D(27,1,5,20)          -19.7945         calculate D2E/DX2 analytically  !
 ! D19   D(2,1,12,28)          -85.4564         calculate D2E/DX2 analytically  !
 ! D20   D(2,1,12,29)           39.3792         calculate D2E/DX2 analytically  !
 ! D21   D(5,1,12,28)          159.3793         calculate D2E/DX2 analytically  !
 ! D22   D(5,1,12,29)          -75.785          calculate D2E/DX2 analytically  !
 ! D23   D(26,1,12,28)          41.0549         calculate D2E/DX2 analytically  !
 ! D24   D(26,1,12,29)         165.8906         calculate D2E/DX2 analytically  !
 ! D25   D(2,1,26,37)          -58.9671         calculate D2E/DX2 analytically  !
 ! D26   D(2,1,26,38)         -179.4543         calculate D2E/DX2 analytically  !
 ! D27   D(2,1,26,39)           61.7611         calculate D2E/DX2 analytically  !
 ! D28   D(5,1,26,37)           62.5672         calculate D2E/DX2 analytically  !
 ! D29   D(5,1,26,38)          -57.9201         calculate D2E/DX2 analytically  !
 ! D30   D(5,1,26,39)         -176.7047         calculate D2E/DX2 analytically  !
 ! D31   D(27,1,26,37)         179.9628         calculate D2E/DX2 analytically  !
 ! D32   D(27,1,26,38)          59.4755         calculate D2E/DX2 analytically  !
 ! D33   D(27,1,26,39)         -59.3091         calculate D2E/DX2 analytically  !
 ! D34   D(1,2,3,4)            -42.1619         calculate D2E/DX2 analytically  !
 ! D35   D(1,2,3,18)            76.3802         calculate D2E/DX2 analytically  !
 ! D36   D(1,2,3,19)          -163.8213         calculate D2E/DX2 analytically  !
 ! D37   D(6,2,3,4)           -164.606          calculate D2E/DX2 analytically  !
 ! D38   D(6,2,3,18)           -46.0638         calculate D2E/DX2 analytically  !
 ! D39   D(6,2,3,19)            73.7347         calculate D2E/DX2 analytically  !
 ! D40   D(21,2,3,4)            69.5029         calculate D2E/DX2 analytically  !
 ! D41   D(21,2,3,18)         -171.9549         calculate D2E/DX2 analytically  !
 ! D42   D(21,2,3,19)          -52.1564         calculate D2E/DX2 analytically  !
 ! D43   D(1,2,6,7)            -74.4767         calculate D2E/DX2 analytically  !
 ! D44   D(1,2,6,11)           104.4134         calculate D2E/DX2 analytically  !
 ! D45   D(3,2,6,7)             42.4695         calculate D2E/DX2 analytically  !
 ! D46   D(3,2,6,11)          -138.6405         calculate D2E/DX2 analytically  !
 ! D47   D(21,2,6,7)           168.4055         calculate D2E/DX2 analytically  !
 ! D48   D(21,2,6,11)          -12.7044         calculate D2E/DX2 analytically  !
 ! D49   D(2,3,4,5)             32.3342         calculate D2E/DX2 analytically  !
 ! D50   D(2,3,4,16)           -86.2511         calculate D2E/DX2 analytically  !
 ! D51   D(2,3,4,17)           153.6367         calculate D2E/DX2 analytically  !
 ! D52   D(18,3,4,5)           -85.7361         calculate D2E/DX2 analytically  !
 ! D53   D(18,3,4,16)          155.6786         calculate D2E/DX2 analytically  !
 ! D54   D(18,3,4,17)           35.5664         calculate D2E/DX2 analytically  !
 ! D55   D(19,3,4,5)           152.6227         calculate D2E/DX2 analytically  !
 ! D56   D(19,3,4,16)           34.0374         calculate D2E/DX2 analytically  !
 ! D57   D(19,3,4,17)          -86.0748         calculate D2E/DX2 analytically  !
 ! D58   D(3,4,5,1)             -9.518          calculate D2E/DX2 analytically  !
 ! D59   D(3,4,5,15)          -128.1446         calculate D2E/DX2 analytically  !
 ! D60   D(3,4,5,20)           107.331          calculate D2E/DX2 analytically  !
 ! D61   D(16,4,5,1)           109.2629         calculate D2E/DX2 analytically  !
 ! D62   D(16,4,5,15)           -9.3636         calculate D2E/DX2 analytically  !
 ! D63   D(16,4,5,20)         -133.8881         calculate D2E/DX2 analytically  !
 ! D64   D(17,4,5,1)          -131.3227         calculate D2E/DX2 analytically  !
 ! D65   D(17,4,5,15)          110.0508         calculate D2E/DX2 analytically  !
 ! D66   D(17,4,5,20)          -14.4737         calculate D2E/DX2 analytically  !
 ! D67   D(2,6,7,8)            177.435          calculate D2E/DX2 analytically  !
 ! D68   D(2,6,7,22)            -2.2511         calculate D2E/DX2 analytically  !
 ! D69   D(11,6,7,8)            -1.493          calculate D2E/DX2 analytically  !
 ! D70   D(11,6,7,22)          178.8209         calculate D2E/DX2 analytically  !
 ! D71   D(2,6,11,10)         -178.4177         calculate D2E/DX2 analytically  !
 ! D72   D(2,6,11,25)            1.9522         calculate D2E/DX2 analytically  !
 ! D73   D(7,6,11,10)            0.5124         calculate D2E/DX2 analytically  !
 ! D74   D(7,6,11,25)         -179.1177         calculate D2E/DX2 analytically  !
 ! D75   D(6,7,8,9)              1.1493         calculate D2E/DX2 analytically  !
 ! D76   D(6,7,8,30)          -163.9987         calculate D2E/DX2 analytically  !
 ! D77   D(22,7,8,9)          -179.1493         calculate D2E/DX2 analytically  !
 ! D78   D(22,7,8,30)           15.7026         calculate D2E/DX2 analytically  !
 ! D79   D(7,8,9,10)             0.1827         calculate D2E/DX2 analytically  !
 ! D80   D(7,8,9,23)          -179.8769         calculate D2E/DX2 analytically  !
 ! D81   D(30,8,9,10)          160.7717         calculate D2E/DX2 analytically  !
 ! D82   D(30,8,9,23)          -19.288          calculate D2E/DX2 analytically  !
 ! D83   D(7,8,30,14)           30.9503         calculate D2E/DX2 analytically  !
 ! D84   D(9,8,30,14)         -131.2519         calculate D2E/DX2 analytically  !
 ! D85   D(8,9,10,11)           -1.0885         calculate D2E/DX2 analytically  !
 ! D86   D(8,9,10,24)          179.2786         calculate D2E/DX2 analytically  !
 ! D87   D(23,9,10,11)         178.9736         calculate D2E/DX2 analytically  !
 ! D88   D(23,9,10,24)          -0.6592         calculate D2E/DX2 analytically  !
 ! D89   D(9,10,11,6)            0.6907         calculate D2E/DX2 analytically  !
 ! D90   D(9,10,11,25)        -179.6775         calculate D2E/DX2 analytically  !
 ! D91   D(24,10,11,6)        -179.6802         calculate D2E/DX2 analytically  !
 ! D92   D(24,10,11,25)         -0.0484         calculate D2E/DX2 analytically  !
 ! D93   D(27,12,34,35)        106.2347         calculate D2E/DX2 analytically  !
 ! D94   D(27,12,34,36)       -130.8059         calculate D2E/DX2 analytically  !
 ! D95   D(29,12,34,35)        -16.971          calculate D2E/DX2 analytically  !
 ! D96   D(29,12,34,36)        105.9884         calculate D2E/DX2 analytically  !
 ! D97   D(27,12,29,13)        -73.947          calculate D2E/DX2 analytically  !
 ! D98   D(28,12,29,13)         53.9043         calculate D2E/DX2 analytically  !
 ! D99   D(32,13,29,12)        -39.9983         calculate D2E/DX2 analytically  !
 ! D100  D(33,13,29,12)       -164.9274         calculate D2E/DX2 analytically  !
 ! D101  D(29,13,32,14)         38.236          calculate D2E/DX2 analytically  !
 ! D102  D(33,13,32,14)        173.281          calculate D2E/DX2 analytically  !
 ! D103  D(31,14,30,8)         176.8302         calculate D2E/DX2 analytically  !
 ! D104  D(32,14,30,8)         -49.8048         calculate D2E/DX2 analytically  !
 ! D105  D(35,14,30,8)          47.0056         calculate D2E/DX2 analytically  !
 ! D106  D(30,14,32,13)         44.5464         calculate D2E/DX2 analytically  !
 ! D107  D(31,14,32,13)        168.921          calculate D2E/DX2 analytically  !
 ! D108  D(35,14,32,13)        -54.5177         calculate D2E/DX2 analytically  !
 ! D109  D(30,14,35,34)        -53.6224         calculate D2E/DX2 analytically  !
 ! D110  D(31,14,35,34)       -170.5504         calculate D2E/DX2 analytically  !
 ! D111  D(32,14,35,34)         54.1235         calculate D2E/DX2 analytically  !
 ! D112  D(28,34,35,14)        -35.7682         calculate D2E/DX2 analytically  !
 ! D113  D(36,34,35,14)       -169.4433         calculate D2E/DX2 analytically  !
 --------------------------------------------------------------------------------
 Trust Radius=3.00D-01 FncErr=1.00D-07 GrdErr=1.00D-06 EigMax=2.50D+02 EigMin=1.00D-04
 Number of steps in this run=    234 maximum allowed number of steps=    234.
 GradGradGradGradGradGradGradGradGradGradGradGradGradGradGradGradGradGrad

                          Input orientation:                          
 ---------------------------------------------------------------------
 Center     Atomic      Atomic             Coordinates (Angstroms)
 Number     Number       Type             X           Y           Z
 ---------------------------------------------------------------------
      1          7           0        1.986362   -0.019790    1.039139
      2          6           0        1.771452    0.962460   -0.087378
      3          6           0        2.301450    0.164910   -1.277197
      4          6           0        3.575437   -0.488424   -0.723849
      5          6           0        3.280035   -0.741660    0.768746
      6          6           0        0.349562    1.462278   -0.127911
      7          6           0       -0.689044    0.656197   -0.594719
      8          7           0       -1.967990    1.035813   -0.603537
      9          6           0       -2.270180    2.261302   -0.162836
     10          6           0       -1.306991    3.153351    0.298988
     11          6           0        0.021691    2.741934    0.322398
     12          8           0        0.274329   -2.010149    1.061222
     13          8           0       -0.757122   -2.607947   -1.410694
     14          8           0       -3.171748   -1.403127   -0.748529
     15          1           0        4.056341   -0.341689    1.427209
     16          1           0        4.428606    0.191732   -0.828008
     17          1           0        3.824866   -1.416662   -1.245714
     18          1           0        1.570613   -0.596082   -1.580062
     19          1           0        2.489465    0.815465   -2.136430
     20          1           0        3.118928   -1.796290    1.009246
     21          1           0        2.444831    1.807649    0.110552
     22          1           0       -0.492206   -0.345112   -0.976700
     23          1           0       -3.324239    2.538527   -0.181734
     24          1           0       -1.596333    4.146027    0.637882
     25          1           0        0.797706    3.418384    0.684404
     26          6           0        1.972893    0.622279    2.365679
     27          1           0        1.201650   -0.755057    1.046111
     28          1           0       -0.592310   -1.890980    1.508057
     29          1           0        0.027208   -2.385267    0.193060
     30          1           0       -2.947992   -0.441492   -0.826330
     31          1           0       -4.042939   -1.524803   -1.133639
     32          1           0       -1.692901   -2.346472   -1.311945
     33          1           0       -0.752791   -3.430351   -1.905922
     34          8           0       -2.258326   -1.552242    1.896457
     35          1           0       -2.775852   -1.595599    1.072528
     36          1           0       -2.749592   -2.049773    2.554354
     37          1           0        2.762544    1.401775    2.440890
     38          1           0        2.144379   -0.137226    3.159409
     39          1           0        0.986077    1.094811    2.558726
 ---------------------------------------------------------------------
                    Distance matrix (angstroms):
                    1          2          3          4          5
     1  N    0.000000
     2  C    1.509981   0.000000
     3  C    2.344954   1.527303   0.000000
     4  C    2.419278   2.400942   1.534953   0.000000
     5  C    1.505921   2.431624   2.442413   1.542475   0.000000
     6  C    2.497528   1.507724   2.610343   3.816628   3.774786
     7  C    3.206906   2.530856   3.106476   4.417310   4.423418
     8  N    4.410168   3.775610   4.409128   5.750422   5.708269
     9  C    4.976573   4.245877   5.151355   6.484363   6.378912
    10  C    4.632798   3.798170   4.943277   6.176312   6.035942
    11  C    3.464213   2.529053   3.794346   4.915176   4.790768
    12  O    2.625466   3.520946   3.782632   4.049622   3.275496
    13  O    4.497437   4.570849   4.130547   4.871879   4.952941
    14  O    5.631650   5.519814   5.717878   6.808950   6.660718
    15  H    2.130500   3.035704   3.263449   2.209038   1.093710
    16  H    3.081483   2.864092   2.174232   1.096065   2.177168
    17  H    3.248369   3.349399   2.196169   1.093702   2.193289
    18  H    2.713885   2.167371   1.097706   2.182661   2.908645
    19  H    3.321897   2.176181   1.094008   2.207906   3.389644
    20  H    2.107024   3.260211   3.121281   2.218678   1.093636
    21  H    2.100476   1.098617   2.155225   2.691922   2.762202
    22  H    3.211346   2.761301   2.855685   4.078013   4.175360
    23  H    6.019801   5.334694   6.203424   7.553929   7.435017
    24  H    5.509151   4.690744   5.891480   7.076698   6.905474
    25  H    3.655103   2.752343   4.085856   4.996210   4.845104
    26  C    1.473819   2.484711   3.686147   3.653353   2.473690
    27  H    1.075379   2.135260   2.730139   2.972998   2.096854
    28  H    3.220370   4.034217   4.512003   4.931398   4.106406
    29  H    3.185846   3.785275   3.719843   4.126580   3.689680
    30  H    5.292037   4.978984   5.303550   6.524403   6.436046
    31  H    6.583198   6.410014   6.567116   7.699459   7.606466
    32  H    4.947527   4.944728   4.718378   5.617258   5.624481
    33  H    5.273355   5.382908   4.759158   5.365239   5.535937
    34  O    4.593558   5.147663   5.814830   6.483094   5.709835
    35  H    5.016271   5.344813   5.865117   6.692659   6.123338
    36  H    5.370844   6.040872   6.715551   7.293176   6.423080
    37  H    2.142011   2.750891   3.945455   3.774814   2.767341
    38  H    2.129391   3.448189   4.449655   4.153427   2.714834
    39  H    2.133554   2.763367   4.160436   4.470651   3.440770
                    6          7          8          9         10
     6  C    0.000000
     7  C    1.395127   0.000000
     8  N    2.403984   1.334125   0.000000
     9  C    2.739107   2.294096   1.336922   0.000000
    10  C    2.405439   2.723297   2.394877   1.391677   0.000000
    11  C    1.395635   2.386744   2.779754   2.391471   1.391117
    12  O    3.671164   3.283235   4.132469   5.120365   5.453742
    13  O    4.408743   3.365276   3.923607   5.249389   6.034726
    14  O    4.582067   3.229287   2.723689   3.818887   5.033498
    15  H    4.406008   5.253822   6.504922   7.023437   6.500271
    16  H    4.329321   5.143976   6.455951   7.042678   6.552738
    17  H    4.649249   5.009583   6.323307   7.200669   7.043229
    18  H    2.799385   2.764987   4.017262   4.992481   5.086225
    19  H    3.005279   3.536263   4.718815   5.351611   5.080359
    20  H    4.425017   4.805002   6.041408   6.846920   6.677737
    21  H    2.136890   3.412392   4.536369   4.744668   3.990312
    22  H    2.166951   1.089621   2.055272   3.258368   3.811889
    23  H    3.828580   3.264655   2.067723   1.090069   2.162959
    24  H    3.402272   3.810694   3.369374   2.155785   1.088105
    25  H    2.164957   3.387663   3.870983   3.386529   2.156047
    26  C    3.091730   3.981333   4.951547   5.204176   4.629814
    27  H    2.649709   2.873793   3.996895   4.755374   4.703948
    28  H    3.848097   3.304411   3.862310   4.780019   5.236210
    29  H    3.874343   3.222439   4.039699   5.195696   5.698034
    30  H    3.871174   2.522184   1.786749   2.864393   4.108786
    31  H    5.406312   4.036807   3.338140   4.291821   5.605618
    32  H    4.481090   3.246254   3.466608   4.783857   5.743874
    33  H    5.321121   4.292225   4.808278   6.142942   6.965192
    34  O    4.470624   3.680463   3.610027   4.334045   5.059600
    35  H    4.534300   3.493575   3.222757   4.081362   5.030750
    36  H    5.397574   4.635169   4.483750   5.118430   5.851519
    37  H    3.524895   4.656637   5.637412   5.731186   4.921065
    38  H    4.072622   4.769830   5.696259   6.023170   5.560743
    39  H    2.785355   3.597587   4.327806   4.401229   3.821278
                   11         12         13         14         15
    11  C    0.000000
    12  O    4.815805   0.000000
    13  O    5.677269   2.744380   0.000000
    14  O    5.341018   3.939432   2.778574   0.000000
    15  H    5.196897   4.149858   6.029846   7.622713   0.000000
    16  H    5.219949   5.067099   5.921951   7.766291   2.347152
    17  H    5.849533   4.275569   4.737192   7.014270   2.890271
    18  H    4.142567   3.264402   3.081337   4.881880   3.909890
    19  H    3.980832   4.807900   4.773549   6.236806   4.061235
    20  H    5.537158   2.853100   4.640976   6.543467   1.780253
    21  H    2.605643   4.493377   5.662524   6.526336   2.991689
    22  H    3.388451   2.740994   2.319257   2.889879   5.144713
    23  H    3.389804   5.931702   5.881040   3.985116   8.084386
    24  H    2.165412   6.448030   7.107538   5.932721   7.260534
    25  H    1.091253   5.466707   6.566855   6.407560   5.030766
    26  C    3.532014   3.393583   5.669950   6.345699   2.480064
    27  H    3.760985   1.560580   3.647723   4.771513   2.909531
    28  H    4.821481   0.982306   3.010035   3.461745   4.900693
    29  H    5.128835   0.977490   1.799107   3.476278   4.683295
    30  H    4.502532   4.050542   3.136068   0.990385   7.358606
    31  H    6.070116   4.867420   3.470815   0.960254   8.576482
    32  H    5.612734   3.100811   0.976628   1.842370   6.676519
    33  H    6.607748   3.446142   0.960009   3.361629   6.616445
    34  O    5.110390   2.705852   3.782245   2.802236   6.446755
    35  H    5.215662   3.078244   3.356562   1.873507   6.955354
    36  H    5.968425   3.372701   4.472483   3.391962   7.106949
    37  H    3.714339   4.442513   6.580321   7.297650   2.396065
    38  H    4.565523   3.377472   5.950547   6.718310   2.588034
    39  H    2.940105   3.519926   5.701356   5.870702   3.573567
                   16         17         18         19         20
    16  H    0.000000
    17  H    1.768025   0.000000
    18  H    3.058490   2.422147   0.000000
    19  H    2.421008   2.749375   1.773781   0.000000
    20  H    3.007156   2.393180   3.246890   4.136758   0.000000
    21  H    2.725334   3.760337   3.066000   2.456695   3.774975
    22  H    4.952242   4.456198   2.163852   3.403274   4.369232
    23  H    8.125991   8.239252   5.978350   6.370944   7.856429
    24  H    7.354262   7.992549   6.118531   5.956777   7.594915
    25  H    5.087446   6.022186   4.673449   4.194561   5.717204
    26  C    4.051609   4.541943   4.149109   4.535764   3.000464
    27  H    3.849932   3.545623   2.656726   3.775391   2.182082
    28  H    5.916459   5.226823   3.986411   5.486754   3.745806
    29  H    5.201520   4.174982   2.954191   4.661965   3.251428
    30  H    7.403727   6.855541   4.583645   5.732560   6.481692
    31  H    8.649103   7.869346   5.707345   7.011045   7.480508
    32  H    6.644511   5.595953   3.712987   5.307524   5.370691
    33  H    6.413132   5.044379   3.679330   5.347178   5.114545
    34  O    7.428271   6.848127   5.259392   6.664213   5.455416
    35  H    7.662298   6.998267   5.189126   6.620740   5.898535
    36  H    8.245680   7.620029   6.153924   7.593468   6.073808
    37  H    3.863374   4.760585   4.645448   4.622790   3.521965
    38  H    4.607103   4.885294   4.796075   5.391903   2.885384
    39  H    4.912894   5.370287   4.508921   4.937884   3.912596
                   21         22         23         24         25
    21  H    0.000000
    22  H    3.800353   0.000000
    23  H    5.822524   4.119194   0.000000
    24  H    4.698627   4.898602   2.498297   0.000000
    25  H    2.374193   4.311269   4.302880   2.502609   0.000000
    26  C    2.591028   4.264277   6.182308   5.304852   3.467845
    27  H    2.998038   2.670013   5.730530   5.658267   4.208517
    28  H    4.985690   2.928096   5.471687   6.181482   5.549765
    29  H    4.840687   2.408394   5.967949   6.744743   5.875155
    30  H    5.917679   2.462272   3.072064   5.001623   5.586700
    31  H    7.398946   3.744864   4.234773   6.425144   7.153476
    32  H    6.033328   2.357859   5.272747   6.779653   6.589545
    33  H    6.459690   3.232655   6.724037   8.036417   7.484584
    34  O    6.049629   3.582091   4.710567   5.873033   5.959490
    35  H    6.305793   3.313320   4.354871   5.877623   6.169358
    36  H    6.916206   4.524379   5.372978   6.587170   6.780913
    37  H    2.386661   5.032389   6.724529   5.457249   3.318515
    38  H    3.628820   4.909399   6.944687   6.220714   4.536688
    39  H    2.937628   4.093646   5.307850   4.434908   2.991247
                   26         27         28         29         30
    26  C    0.000000
    27  H    2.057457   0.000000
    28  H    3.692188   2.173018   0.000000
    29  H    4.189427   2.182795   1.535363   0.000000
    30  H    5.961178   4.563320   3.619339   3.697192   0.000000
    31  H    7.283229   5.731451   4.361133   4.366535   1.570640
    32  H    5.981342   4.058504   3.061239   2.285896   2.332386
    33  H    6.488431   4.437515   3.748422   2.471098   3.862344
    34  O    4.780369   3.651031   1.743906   2.969707   3.020426
    35  H    5.398315   4.065431   2.246061   3.042069   2.228734
    36  H    5.429303   4.423053   2.402877   3.660449   3.748994
    37  H    1.112124   3.005615   4.792438   5.184254   6.832466
    38  H    1.111874   2.395095   3.645831   4.281977   6.473866
    39  H    1.111017   2.399268   3.536971   4.315872   5.412554
                   31         32         33         34         35
    31  H    0.000000
    32  H    2.495919   0.000000
    33  H    3.879769   1.552871   0.000000
    34  O    3.516686   3.353260   4.500224   0.000000
    35  H    2.545132   2.724391   4.041071   0.973947   0.000000
    36  H    3.943302   4.019066   5.078117   0.960056   1.550088
    37  H    8.225370   6.927057   7.389303   5.850792   6.444416
    38  H    7.657580   6.292733   6.700436   4.793864   5.539910
    39  H    6.766605   5.831076   6.590436   4.239298   4.857901
                   36         37         38         39
    36  H    0.000000
    37  H    6.504591   0.000000
    38  H    5.289129   1.807463   0.000000
    39  H    4.882996   1.806640   1.794547   0.000000
 Stoichiometry    C10H23N2O4(1+)
 Framework group  C1[X(C10H23N2O4)]
 Deg. of freedom   111
 Full point group                 C1      NOp   1
 Largest Abelian subgroup         C1      NOp   1
 Largest concise Abelian subgroup C1      NOp   1
                         Standard orientation:                         
 ---------------------------------------------------------------------
 Center     Atomic      Atomic             Coordinates (Angstroms)
 Number     Number       Type             X           Y           Z
 ---------------------------------------------------------------------
      1          7           0        1.930804   -0.127483    0.715124
      2          6           0        1.667259    0.805693   -0.442360
      3          6           0        2.042409   -0.082649   -1.626743
      4          6           0        3.324444   -0.780271   -1.151569
      5          6           0        3.153429   -0.937516    0.373311
      6          6           0        0.276724    1.385724   -0.385725
      7          6           0       -0.842249    0.619084   -0.712133
      8          7           0       -2.094248    1.072506   -0.629703
      9          6           0       -2.288204    2.334984   -0.234874
     10          6           0       -1.240030    3.191514    0.088317
     11          6           0        0.061038    2.704216    0.017827
     12          8           0        0.122868   -2.009526    1.002099
     13          8           0       -1.160975   -2.673439   -1.330837
     14          8           0       -3.436302   -1.295415   -0.528088
     15          1           0        4.007145   -0.550266    0.936701
     16          1           0        4.200041   -0.157981   -1.369384
     17          1           0        3.474589   -1.747538   -1.639457
     18          1           0        1.246886   -0.813951   -1.819869
     19          1           0        2.186006    0.510022   -2.535024
     20          1           0        2.958197   -1.966838    0.687033
     21          1           0        2.400612    1.618853   -0.353331
     22          1           0       -0.735564   -0.410635   -1.052090
     23          1           0       -3.323045    2.672542   -0.176466
     24          1           0       -1.443101    4.215839    0.394088
     25          1           0        0.902319    3.351656    0.270613
     26          6           0        2.073353    0.582516    1.998760
     27          1           0        1.111417   -0.813816    0.833400
     28          1           0       -0.691593   -1.816320    1.516151
     29          1           0       -0.222475   -2.414143    0.182032
     30          1           0       -3.168935   -0.354017   -0.680225
     31          1           0       -4.344341   -1.385392   -0.827184
     32          1           0       -2.068303   -2.352429   -1.164976
     33          1           0       -1.246386   -3.519354   -1.776652
     34          8           0       -2.294383   -1.360117    2.030107
     35          1           0       -2.886625   -1.415747    1.258922
     36          1           0       -2.749645   -1.792841    2.756189
     37          1           0        2.907554    1.316932    1.959245
     38          1           0        2.275349   -0.143387    2.816395
     39          1           0        1.135304    1.121853    2.250829
 ---------------------------------------------------------------------
 Rotational constants (GHZ):           0.5276102           0.3818060           0.2962566
 Standard basis: Aug-CC-pVDZ (5D, 7F)
 There are   607 symmetry adapted cartesian basis functions of A   symmetry.
 There are   575 symmetry adapted basis functions of A   symmetry.
   575 basis functions,   941 primitive gaussians,   607 cartesian basis functions
    64 alpha electrons       64 beta electrons
       nuclear repulsion energy      1269.9910582299 Hartrees.
 NAtoms=   39 NActive=   39 NUniq=   39 SFac= 1.00D+00 NAtFMM=   60 NAOKFM=F Big=F
 Integral buffers will be    131072 words long.
 Raffenetti 2 integral format.
 Two-electron integral symmetry is turned on.
 Nuclear repulsion after empirical dispersion term =     1269.9580892561 Hartrees.
 One-electron integrals computed using PRISM.
 NBasis=   575 RedAO= T EigKep=  1.96D-06  NBF=   575
 NBsUse=   575 1.00D-06 EigRej= -1.00D+00 NBFU=   575
 ExpMin= 2.97D-02 ExpMax= 1.17D+04 ExpMxC= 4.01D+02 IAcc=3 IRadAn=         5 AccDes= 0.00D+00
 Harris functional with IExCor= 4639 and IRadAn=       5 diagonalized for initial guess.
 HarFok:  IExCor= 4639 AccDes= 0.00D+00 IRadAn=         5 IDoV= 1 UseB2=F ITyADJ=14
 ICtDFT=  3500011 ScaDFX=  1.000000  1.000000  1.000000  1.000000
 FoFCou: FMM=F IPFlag=           0 FMFlag=      100000 FMFlg1=           0
         NFxFlg=           0 DoJE=T BraDBF=F KetDBF=T FulRan=T
         wScrn=  0.000000 ICntrl=       500 IOpCl=  0 I1Cent=   200000004 NGrid=           0
         NMat0=    1 NMatS0=      1 NMatT0=    0 NMatD0=    1 NMtDS0=    0 NMtDT0=    0
 Petite list used in FoFCou.
 Requested convergence on RMS density matrix=1.00D-08 within 128 cycles.
 Requested convergence on MAX density matrix=1.00D-06.
 Requested convergence on             energy=1.00D-06.
 No special actions if energy rises.
 SCF Done:  E(RwB97XD) =  -805.043105992     A.U. after   15 cycles
            NFock= 15  Conv=0.29D-08     -V/T= 2.0063
 DoSCS=F DFT=T ScalE2(SS,OS)=  1.000000  1.000000
 Range of M.O.s used for correlation:     1   575
 NBasis=   575 NAE=    64 NBE=    64 NFC=     0 NFV=     0
 NROrb=    575 NOA=    64 NOB=    64 NVA=   511 NVB=   511

 **** Warning!!: The largest alpha MO coefficient is  0.11599028D+03

 Symmetrizing basis deriv contribution to polar:
 IMax=3 JMax=2 DiffMx= 0.00D+00
 G2DrvN: will do    40 centers at a time, making    1 passes.
 Calling FoFCou, ICntrl=  3107 FMM=F I1Cent=   0 AccDes= 0.00D+00.
 End of G2Drv F.D. properties file   721 does not exist.
 End of G2Drv F.D. properties file   722 does not exist.
 End of G2Drv F.D. properties file   788 does not exist.
          IDoAtm=111111111111111111111111111111111111111
          Differentiating once with respect to nuclear coordinates.
 CalDSu exits because no D1Ps are significant.
          There are   120 degrees of freedom in the 1st order CPHF.  IDoFFX=6 NUNeed=     0.
    114 vectors produced by pass  0 Test12= 3.27D-14 1.00D-09 XBig12= 5.11D-01 1.29D-01.
 AX will form   114 AO Fock derivatives at one time.
    114 vectors produced by pass  1 Test12= 3.27D-14 1.00D-09 XBig12= 6.10D-02 1.02D-01.
    114 vectors produced by pass  2 Test12= 3.27D-14 1.00D-09 XBig12= 1.41D-03 6.60D-03.
    114 vectors produced by pass  3 Test12= 3.27D-14 1.00D-09 XBig12= 1.73D-05 4.48D-04.
    114 vectors produced by pass  4 Test12= 3.27D-14 1.00D-09 XBig12= 1.58D-07 2.65D-05.
    114 vectors produced by pass  5 Test12= 3.27D-14 1.00D-09 XBig12= 9.04D-10 1.74D-06.
    112 vectors produced by pass  6 Test12= 3.27D-14 1.00D-09 XBig12= 5.12D-12 1.22D-07.
     44 vectors produced by pass  7 Test12= 3.27D-14 1.00D-09 XBig12= 2.99D-14 8.49D-09.
      5 vectors produced by pass  8 Test12= 3.27D-14 1.00D-09 XBig12= 1.53D-15 2.31D-09.
      2 vectors produced by pass  9 Test12= 3.27D-14 1.00D-09 XBig12= 5.35D-16 1.86D-09.
 InvSVY:  IOpt=1 It=  1 EMax= 1.55D-15
 Solved reduced A of dimension   847 with   120 vectors.
 End of Minotr F.D. properties file   721 does not exist.
 End of Minotr F.D. properties file   722 does not exist.
 End of Minotr F.D. properties file   788 does not exist.

 **********************************************************************

            Population analysis using the SCF density.

 **********************************************************************

 Orbital symmetries:
       Occupied  (A) (A) (A) (A) (A) (A) (A) (A) (A) (A) (A) (A)
                 (A) (A) (A) (A) (A) (A) (A) (A) (A) (A) (A) (A)
                 (A) (A) (A) (A) (A) (A) (A) (A) (A) (A) (A) (A)
                 (A) (A) (A) (A) (A) (A) (A) (A) (A) (A) (A) (A)
                 (A) (A) (A) (A) (A) (A) (A) (A) (A) (A) (A) (A)
                 (A) (A) (A) (A)
       Virtual   (A) (A) (A) (A) (A) (A) (A) (A) (A) (A) (A) (A)
                 (A) (A) (A) (A) (A) (A) (A) (A) (A) (A) (A) (A)
                 (A) (A) (A) (A) (A) (A) (A) (A) (A) (A) (A) (A)
                 (A) (A) (A) (A) (A) (A) (A) (A) (A) (A) (A) (A)
                 (A) (A) (A) (A) (A) (A) (A) (A) (A) (A) (A) (A)
                 (A) (A) (A) (A) (A) (A) (A) (A) (A) (A) (A) (A)
                 (A) (A) (A) (A) (A) (A) (A) (A) (A) (A) (A) (A)
                 (A) (A) (A) (A) (A) (A) (A) (A) (A) (A) (A) (A)
                 (A) (A) (A) (A) (A) (A) (A) (A) (A) (A) (A) (A)
                 (A) (A) (A) (A) (A) (A) (A) (A) (A) (A) (A) (A)
                 (A) (A) (A) (A) (A) (A) (A) (A) (A) (A) (A) (A)
                 (A) (A) (A) (A) (A) (A) (A) (A) (A) (A) (A) (A)
                 (A) (A) (A) (A) (A) (A) (A) (A) (A) (A) (A) (A)
                 (A) (A) (A) (A) (A) (A) (A) (A) (A) (A) (A) (A)
                 (A) (A) (A) (A) (A) (A) (A) (A) (A) (A) (A) (A)
                 (A) (A) (A) (A) (A) (A) (A) (A) (A) (A) (A) (A)
                 (A) (A) (A) (A) (A) (A) (A) (A) (A) (A) (A) (A)
                 (A) (A) (A) (A) (A) (A) (A) (A) (A) (A) (A) (A)
                 (A) (A) (A) (A) (A) (A) (A) (A) (A) (A) (A) (A)
                 (A) (A) (A) (A) (A) (A) (A) (A) (A) (A) (A) (A)
                 (A) (A) (A) (A) (A) (A) (A) (A) (A) (A) (A) (A)
                 (A) (A) (A) (A) (A) (A) (A) (A) (A) (A) (A) (A)
                 (A) (A) (A) (A) (A) (A) (A) (A) (A) (A) (A) (A)
                 (A) (A) (A) (A) (A) (A) (A) (A) (A) (A) (A) (A)
                 (A) (A) (A) (A) (A) (A) (A) (A) (A) (A) (A) (A)
                 (A) (A) (A) (A) (A) (A) (A) (A) (A) (A) (A) (A)
                 (A) (A) (A) (A) (A) (A) (A) (A) (A) (A) (A) (A)
                 (A) (A) (A) (A) (A) (A) (A) (A) (A) (A) (A) (A)
                 (A) (A) (A) (A) (A) (A) (A) (A) (A) (A) (A) (A)
                 (A) (A) (A) (A) (A) (A) (A) (A) (A) (A) (A) (A)
                 (A) (A) (A) (A) (A) (A) (A) (A) (A) (A) (A) (A)
                 (A) (A) (A) (A) (A) (A) (A) (A) (A) (A) (A) (A)
                 (A) (A) (A) (A) (A) (A) (A) (A) (A) (A) (A) (A)
                 (A) (A) (A) (A) (A) (A) (A) (A) (A) (A) (A) (A)
                 (A) (A) (A) (A) (A) (A) (A) (A) (A) (A) (A) (A)
                 (A) (A) (A) (A) (A) (A) (A) (A) (A) (A) (A) (A)
                 (A) (A) (A) (A) (A) (A) (A) (A) (A) (A) (A) (A)
                 (A) (A) (A) (A) (A) (A) (A) (A) (A) (A) (A) (A)
                 (A) (A) (A) (A) (A) (A) (A) (A) (A) (A) (A) (A)
                 (A) (A) (A) (A) (A) (A) (A) (A) (A) (A) (A) (A)
                 (A) (A) (A) (A) (A) (A) (A) (A) (A) (A) (A) (A)
                 (A) (A) (A) (A) (A) (A) (A) (A) (A) (A) (A) (A)
                 (A) (A) (A) (A) (A) (A) (A)
 The electronic state is 1-A.
 Alpha  occ. eigenvalues --  -19.39473 -19.38934 -19.38289 -19.37747 -14.67343
 Alpha  occ. eigenvalues --  -14.58718 -10.49167 -10.47642 -10.47428 -10.46479
 Alpha  occ. eigenvalues --  -10.46394 -10.45122 -10.45058 -10.43511 -10.43423
 Alpha  occ. eigenvalues --  -10.43197  -1.24562  -1.24079  -1.22978  -1.22715
 Alpha  occ. eigenvalues --   -1.21255  -1.18352  -1.06138  -1.03995  -1.01137
 Alpha  occ. eigenvalues --   -0.96603  -0.93250  -0.88141  -0.85846  -0.84251
 Alpha  occ. eigenvalues --   -0.82865  -0.77755  -0.75640  -0.74408  -0.74078
 Alpha  occ. eigenvalues --   -0.73544  -0.72870  -0.72737  -0.71299  -0.70081
 Alpha  occ. eigenvalues --   -0.67732  -0.66245  -0.65236  -0.64762  -0.63423
 Alpha  occ. eigenvalues --   -0.62467  -0.62308  -0.61667  -0.61059  -0.59950
 Alpha  occ. eigenvalues --   -0.59689  -0.59324  -0.58387  -0.57084  -0.56464
 Alpha  occ. eigenvalues --   -0.56298  -0.54936  -0.53161  -0.52094  -0.51649
 Alpha  occ. eigenvalues --   -0.51185  -0.49910  -0.48261  -0.46720
 Alpha virt. eigenvalues --   -0.09737  -0.08570  -0.06348  -0.05677  -0.04847
 Alpha virt. eigenvalues --   -0.04534  -0.03638  -0.03205  -0.03131  -0.02613
 Alpha virt. eigenvalues --   -0.02059  -0.01596  -0.01383  -0.00800  -0.00527
 Alpha virt. eigenvalues --   -0.00055   0.00205   0.00692   0.01132   0.01312
 Alpha virt. eigenvalues --    0.01393   0.02187   0.02535   0.02597   0.02821
 Alpha virt. eigenvalues --    0.03344   0.03750   0.04038   0.04258   0.04586
 Alpha virt. eigenvalues --    0.05083   0.05421   0.05563   0.05618   0.05883
 Alpha virt. eigenvalues --    0.06283   0.06346   0.06583   0.06861   0.07119
 Alpha virt. eigenvalues --    0.07296   0.07636   0.07713   0.07815   0.08314
 Alpha virt. eigenvalues --    0.08581   0.08725   0.09289   0.09473   0.10093
 Alpha virt. eigenvalues --    0.10173   0.10388   0.10940   0.11003   0.11375
 Alpha virt. eigenvalues --    0.11752   0.11934   0.12160   0.12879   0.13376
 Alpha virt. eigenvalues --    0.13583   0.14032   0.14315   0.14482   0.14764
 Alpha virt. eigenvalues --    0.15052   0.15408   0.15974   0.16084   0.16362
 Alpha virt. eigenvalues --    0.16580   0.16883   0.17014   0.17390   0.17647
 Alpha virt. eigenvalues --    0.18246   0.18658   0.18836   0.19183   0.19506
 Alpha virt. eigenvalues --    0.19530   0.19911   0.20095   0.20264   0.20444
 Alpha virt. eigenvalues --    0.20607   0.20953   0.21388   0.21858   0.21978
 Alpha virt. eigenvalues --    0.22155   0.22848   0.23089   0.23489   0.23858
 Alpha virt. eigenvalues --    0.24219   0.24403   0.24691   0.24812   0.25541
 Alpha virt. eigenvalues --    0.25765   0.26008   0.26291   0.26747   0.27191
 Alpha virt. eigenvalues --    0.27486   0.27806   0.28186   0.28792   0.29287
 Alpha virt. eigenvalues --    0.29495   0.29595   0.29685   0.30599   0.30914
 Alpha virt. eigenvalues --    0.31174   0.31391   0.32428   0.32608   0.32853
 Alpha virt. eigenvalues --    0.32958   0.33863   0.34084   0.34702   0.34960
 Alpha virt. eigenvalues --    0.35549   0.35954   0.36539   0.36770   0.37093
 Alpha virt. eigenvalues --    0.37533   0.38206   0.38637   0.38782   0.39083
 Alpha virt. eigenvalues --    0.40138   0.40523   0.40967   0.41283   0.41481
 Alpha virt. eigenvalues --    0.41815   0.42484   0.42730   0.43057   0.43762
 Alpha virt. eigenvalues --    0.43841   0.44454   0.44618   0.44858   0.45398
 Alpha virt. eigenvalues --    0.46071   0.46827   0.46909   0.47214   0.47352
 Alpha virt. eigenvalues --    0.48214   0.48392   0.48942   0.49190   0.49452
 Alpha virt. eigenvalues --    0.49479   0.50063   0.50501   0.50941   0.51145
 Alpha virt. eigenvalues --    0.51911   0.52126   0.52374   0.52783   0.53097
 Alpha virt. eigenvalues --    0.53720   0.54239   0.54385   0.54820   0.55282
 Alpha virt. eigenvalues --    0.55618   0.55796   0.56258   0.56386   0.56749
 Alpha virt. eigenvalues --    0.57051   0.57743   0.58385   0.58709   0.59021
 Alpha virt. eigenvalues --    0.59332   0.59561   0.59959   0.60342   0.60532
 Alpha virt. eigenvalues --    0.60955   0.61371   0.61831   0.62005   0.62874
 Alpha virt. eigenvalues --    0.63533   0.64093   0.64567   0.65247   0.65685
 Alpha virt. eigenvalues --    0.65925   0.66091   0.66671   0.67276   0.67541
 Alpha virt. eigenvalues --    0.68036   0.68365   0.68783   0.69052   0.69536
 Alpha virt. eigenvalues --    0.69811   0.69869   0.70183   0.70709   0.71878
 Alpha virt. eigenvalues --    0.72154   0.72478   0.72720   0.73032   0.73790
 Alpha virt. eigenvalues --    0.74355   0.74955   0.75169   0.75767   0.76847
 Alpha virt. eigenvalues --    0.77293   0.77800   0.78286   0.78524   0.79184
 Alpha virt. eigenvalues --    0.80159   0.80568   0.81126   0.81639   0.82027
 Alpha virt. eigenvalues --    0.82580   0.83496   0.83629   0.84300   0.84638
 Alpha virt. eigenvalues --    0.85785   0.86565   0.86898   0.87689   0.88771
 Alpha virt. eigenvalues --    0.89129   0.90045   0.90677   0.91038   0.91924
 Alpha virt. eigenvalues --    0.92608   0.92629   0.92965   0.94477   0.94750
 Alpha virt. eigenvalues --    0.95302   0.95808   0.97048   0.97578   0.98422
 Alpha virt. eigenvalues --    0.98695   0.99879   1.00966   1.01319   1.01512
 Alpha virt. eigenvalues --    1.02136   1.03290   1.03860   1.05186   1.06056
 Alpha virt. eigenvalues --    1.06993   1.07033   1.07492   1.09093   1.10024
 Alpha virt. eigenvalues --    1.10595   1.11582   1.12075   1.12806   1.13468
 Alpha virt. eigenvalues --    1.13705   1.14312   1.15803   1.16527   1.17168
 Alpha virt. eigenvalues --    1.17916   1.18371   1.19631   1.19679   1.20304
 Alpha virt. eigenvalues --    1.21411   1.22253   1.22741   1.24409   1.24761
 Alpha virt. eigenvalues --    1.25674   1.26482   1.27866   1.29277   1.30029
 Alpha virt. eigenvalues --    1.31358   1.32321   1.32742   1.34132   1.35448
 Alpha virt. eigenvalues --    1.35950   1.36874   1.37100   1.38589   1.39277
 Alpha virt. eigenvalues --    1.39958   1.41250   1.42203   1.42354   1.42654
 Alpha virt. eigenvalues --    1.44191   1.44847   1.45199   1.45552   1.46847
 Alpha virt. eigenvalues --    1.48034   1.48470   1.49093   1.50329   1.51778
 Alpha virt. eigenvalues --    1.52397   1.53578   1.53963   1.55252   1.55873
 Alpha virt. eigenvalues --    1.56309   1.56543   1.57599   1.59181   1.59688
 Alpha virt. eigenvalues --    1.59941   1.60373   1.62406   1.63112   1.63954
 Alpha virt. eigenvalues --    1.64621   1.65488   1.66200   1.66643   1.67376
 Alpha virt. eigenvalues --    1.68405   1.68821   1.69857   1.70596   1.71710
 Alpha virt. eigenvalues --    1.72679   1.74059   1.74632   1.75151   1.75601
 Alpha virt. eigenvalues --    1.76885   1.77728   1.78906   1.79403   1.79992
 Alpha virt. eigenvalues --    1.80846   1.81105   1.82013   1.82471   1.82970
 Alpha virt. eigenvalues --    1.84238   1.84966   1.85744   1.86313   1.86996
 Alpha virt. eigenvalues --    1.87883   1.88655   1.88926   1.89655   1.89981
 Alpha virt. eigenvalues --    1.90682   1.91743   1.93189   1.93758   1.94310
 Alpha virt. eigenvalues --    1.95117   1.95303   1.96177   1.96798   1.98333
 Alpha virt. eigenvalues --    1.99220   1.99781   2.00092   2.01309   2.01804
 Alpha virt. eigenvalues --    2.02749   2.04070   2.04467   2.05275   2.06450
 Alpha virt. eigenvalues --    2.07838   2.08673   2.09160   2.09486   2.11633
 Alpha virt. eigenvalues --    2.12731   2.13068   2.14766   2.15131   2.17428
 Alpha virt. eigenvalues --    2.18761   2.18900   2.19245   2.19537   2.20764
 Alpha virt. eigenvalues --    2.21691   2.22991   2.23748   2.24018   2.24672
 Alpha virt. eigenvalues --    2.26313   2.27790   2.28334   2.29112   2.29621
 Alpha virt. eigenvalues --    2.31600   2.31897   2.32804   2.34027   2.34491
 Alpha virt. eigenvalues --    2.36386   2.37853   2.39780   2.40800   2.41412
 Alpha virt. eigenvalues --    2.43474   2.44878   2.45557   2.46226   2.46726
 Alpha virt. eigenvalues --    2.49469   2.51382   2.51610   2.51922   2.53755
 Alpha virt. eigenvalues --    2.53762   2.55266   2.56066   2.56545   2.57459
 Alpha virt. eigenvalues --    2.58670   2.59028   2.59417   2.60087   2.61748
 Alpha virt. eigenvalues --    2.63565   2.64621   2.66218   2.66364   2.67082
 Alpha virt. eigenvalues --    2.68957   2.69897   2.71521   2.73359   2.73890
 Alpha virt. eigenvalues --    2.75588   2.76117   2.77922   2.78180   2.79339
 Alpha virt. eigenvalues --    2.81805   2.83296   2.83804   2.84753   2.85538
 Alpha virt. eigenvalues --    2.86814   2.89071   2.90891   2.92536   2.93775
 Alpha virt. eigenvalues --    2.95884   2.99161   3.03279   3.08841   3.12199
 Alpha virt. eigenvalues --    3.16318   3.19342   3.25061   3.28398   3.33851
 Alpha virt. eigenvalues --    3.35420   3.37477   3.39744   3.41057   3.42329
 Alpha virt. eigenvalues --    3.44615   3.46504   3.47859   3.50364   3.53814
 Alpha virt. eigenvalues --    3.57164   3.57792   3.60483   3.68712   3.71207
 Alpha virt. eigenvalues --    3.78089   3.82609   3.84369   3.89181   3.93987
 Alpha virt. eigenvalues --    3.98962   4.02420   4.03570   4.11535   4.18879
 Alpha virt. eigenvalues --    4.36763
          Condensed to atoms (all electrons):
               1          2          3          4          5          6
     1  N   10.841045  -1.617590  -1.043572   0.178174  -0.274245   0.894009
     2  C   -1.617590  25.532929  -1.734272  -0.178367  -0.323907  -8.502529
     3  C   -1.043572  -1.734272   8.077867  -0.413916   0.365440   0.673531
     4  C    0.178174  -0.178367  -0.413916   6.272130  -0.327056   0.137067
     5  C   -0.274245  -0.323907   0.365440  -0.327056   5.888128   0.018279
     6  C    0.894009  -8.502529   0.673531   0.137067   0.018279  26.265177
     7  C   -0.754355  -2.029624  -0.121019  -0.042162  -0.049685  -5.218970
     8  N    0.003230   0.532589  -0.115422   0.008699   0.005417   0.201074
     9  C    0.096154  -0.711281  -0.089899  -0.016205  -0.039755  -1.227406
    10  C    0.042095   0.081898  -0.106479  -0.028634   0.053084   0.925610
    11  C   -0.537489  -0.896757  -0.445926  -0.046459  -0.081352 -12.351475
    12  O   -0.410718   0.262633  -0.054944  -0.003505  -0.032971  -0.125113
    13  O    0.009367  -0.065780  -0.007929   0.007254   0.009291   0.020582
    14  O   -0.001416   0.005134  -0.008233  -0.000088   0.000089  -0.054909
    15  H    0.040805   0.062662   0.118494   0.048844  -0.064159  -0.043053
    16  H   -0.042009  -0.129170   0.055285  -0.147265   0.169600   0.042905
    17  H   -0.124752   0.267981   0.118695  -0.452573   0.263017  -0.088805
    18  H   -0.229235  -0.664899   0.035035  -0.016957   0.100417   0.302953
    19  H    0.389630   0.130962  -0.790205   0.157032  -0.117793   0.082294
    20  H   -0.533086  -0.011822   0.101613   0.077479  -0.311464   0.027968
    21  H   -0.233503  -4.266963   0.563237  -0.173322   0.079518   1.853066
    22  H    0.147993  -0.679286   0.179885   0.068761  -0.006605  -0.422305
    23  H    0.002094  -0.015800   0.002649   0.000226  -0.000964  -0.289727
    24  H   -0.006163   0.008199   0.009800  -0.000310  -0.000125   0.018494
    25  H   -0.020977   0.022134  -0.044462   0.004010   0.008304   1.498986
    26  C    0.900667  -0.355435  -0.176175  -0.011325  -0.078778   0.327090
    27  H    0.042679   0.239905  -0.097223   0.067314  -0.348760  -0.197718
    28  H    0.005824  -0.032461   0.023150  -0.008846   0.043593   0.009641
    29  H    0.087691  -0.016036  -0.006674   0.005110  -0.009772   0.015130
    30  H    0.012660   0.016275   0.000112  -0.002306  -0.000558   0.087378
    31  H   -0.001677   0.000389   0.000402  -0.000013   0.000137  -0.002331
    32  H    0.000984  -0.001274   0.006433   0.001633  -0.004414  -0.010182
    33  H    0.007689   0.004318  -0.000501  -0.000315   0.001325   0.007935
    34  O    0.041002  -0.043739   0.007508   0.000563   0.000733   0.098820
    35  H    0.003520  -0.011546   0.004958  -0.000584   0.001916   0.036614
    36  H   -0.000306   0.003074  -0.001077   0.000382  -0.001013  -0.014315
    37  H   -0.308866  -0.062477   0.053130  -0.099643   0.235096   0.007805
    38  H   -0.163761  -0.009336  -0.077127   0.037701   0.000098   0.070318
    39  H    0.052781   0.033463   0.107637   0.013055  -0.130047   0.082089
               7          8          9         10         11         12
     1  N   -0.754355   0.003230   0.096154   0.042095  -0.537489  -0.410718
     2  C   -2.029624   0.532589  -0.711281   0.081898  -0.896757   0.262633
     3  C   -0.121019  -0.115422  -0.089899  -0.106479  -0.445926  -0.054944
     4  C   -0.042162   0.008699  -0.016205  -0.028634  -0.046459  -0.003505
     5  C   -0.049685   0.005417  -0.039755   0.053084  -0.081352  -0.032971
     6  C   -5.218970   0.201074  -1.227406   0.925610 -12.351475  -0.125113
     7  C   18.323355  -0.830485  -1.703841  -0.137434  -1.077641  -0.123366
     8  N   -0.830485   7.803087   0.365673   0.199849  -0.525649   0.010919
     9  C   -1.703841   0.365673  10.978921  -2.948422   1.412367   0.009236
    10  C   -0.137434   0.199849  -2.948422  11.911423  -4.126723  -0.012100
    11  C   -1.077641  -0.525649   1.412367  -4.126723  25.725536   0.064270
    12  O   -0.123366   0.010919   0.009236  -0.012100   0.064270   8.722330
    13  O   -0.006169  -0.007839  -0.005823   0.003695  -0.001521  -0.128282
    14  O   -0.154009  -0.014018   0.050769  -0.004661   0.024557   0.003178
    15  H   -0.016835   0.000585  -0.003545   0.003781   0.005858  -0.016677
    16  H    0.019176  -0.000201   0.003072  -0.008471  -0.008095  -0.002373
    17  H   -0.020896   0.001616  -0.002461   0.002627   0.014159   0.010870
    18  H   -0.060384  -0.005448   0.015061  -0.056490   0.022598   0.010436
    19  H    0.154862  -0.012429   0.011489  -0.009021  -0.048151  -0.002353
    20  H    0.040260  -0.000976  -0.000733   0.000969   0.007720   0.055574
    21  H    0.174976  -0.022901   0.002716   0.014709  -0.093947   0.013659
    22  H   -1.473875   0.027717  -0.143427   0.182754  -0.162609  -0.047413
    23  H    0.407480  -0.254294  -0.631606   0.134585   0.316203  -0.000589
    24  H   -0.016384  -0.066356   0.446444  -1.266919   0.578577  -0.000003
    25  H    0.006963  -0.014997  -0.255987   0.718019  -2.810102   0.000294
    26  C   -0.027229  -0.000542  -0.022653   0.089094  -0.238948  -0.101095
    27  H   -0.254913   0.007576   0.024655  -0.065235   0.034567   0.208207
    28  H    0.049013  -0.007194  -0.018408   0.016863  -0.029046   0.243321
    29  H   -0.013194   0.010838   0.010378  -0.001405   0.008592   0.176629
    30  H   -0.185543   0.155533   0.141962  -0.112784   0.000557  -0.005084
    31  H    0.035975  -0.018586  -0.015428   0.014102  -0.006067   0.002670
    32  H    0.006030  -0.022719   0.002346  -0.011130   0.003605   0.010879
    33  H    0.017228   0.002959  -0.000617   0.001130  -0.002514  -0.000288
    34  O   -0.125509   0.025747   0.006217   0.002714  -0.033768  -0.130138
    35  H   -0.035329   0.010253  -0.008507   0.006310  -0.015867  -0.001332
    36  H    0.025833  -0.003816   0.000276  -0.001183   0.002820   0.007784
    37  H    0.040202  -0.003231   0.011357  -0.010833   0.090656  -0.021946
    38  H    0.053235  -0.001997  -0.000776   0.012984  -0.042224   0.020484
    39  H   -0.095056   0.009311  -0.013062  -0.026430  -0.017639   0.005996
              13         14         15         16         17         18
     1  N    0.009367  -0.001416   0.040805  -0.042009  -0.124752  -0.229235
     2  C   -0.065780   0.005134   0.062662  -0.129170   0.267981  -0.664899
     3  C   -0.007929  -0.008233   0.118494   0.055285   0.118695   0.035035
     4  C    0.007254  -0.000088   0.048844  -0.147265  -0.452573  -0.016957
     5  C    0.009291   0.000089  -0.064159   0.169600   0.263017   0.100417
     6  C    0.020582  -0.054909  -0.043053   0.042905  -0.088805   0.302953
     7  C   -0.006169  -0.154009  -0.016835   0.019176  -0.020896  -0.060384
     8  N   -0.007839  -0.014018   0.000585  -0.000201   0.001616  -0.005448
     9  C   -0.005823   0.050769  -0.003545   0.003072  -0.002461   0.015061
    10  C    0.003695  -0.004661   0.003781  -0.008471   0.002627  -0.056490
    11  C   -0.001521   0.024557   0.005858  -0.008095   0.014159   0.022598
    12  O   -0.128282   0.003178  -0.016677  -0.002373   0.010870   0.010436
    13  O    7.927791  -0.046023  -0.000353   0.000971  -0.000794   0.028007
    14  O   -0.046023   8.195626  -0.000013  -0.000042   0.000218  -0.012086
    15  H   -0.000353  -0.000013   2.047905  -0.338061   0.137852  -0.025888
    16  H    0.000971  -0.000042  -0.338061   2.110322  -0.549460   0.184902
    17  H   -0.000794   0.000218   0.137852  -0.549460   2.071937  -0.198887
    18  H    0.028007  -0.012086  -0.025888   0.184902  -0.198887   2.594678
    19  H   -0.000587   0.000152   0.011522  -0.219473   0.055389  -0.587871
    20  H    0.004856   0.000090  -0.597420   0.174250  -0.239388   0.062180
    21  H   -0.000624   0.000071  -0.012461   0.035109   0.004716   0.189918
    22  H    0.003870   0.135426  -0.012866   0.006042  -0.008690  -0.223853
    23  H    0.000139   0.008992  -0.000082   0.000051   0.000018  -0.003854
    24  H    0.000109  -0.000196  -0.000144   0.000089  -0.000035   0.004145
    25  H   -0.000193   0.000230  -0.001360   0.001036  -0.000539  -0.003425
    26  C    0.001242   0.000091   0.090447  -0.011616   0.000266  -0.067735
    27  H   -0.027759  -0.003887  -0.102121  -0.036806   0.039395   0.045019
    28  H    0.016462  -0.001500   0.001180   0.000234  -0.000965   0.011256
    29  H    0.029369   0.002682  -0.000190   0.000526  -0.001644  -0.001623
    30  H   -0.002251   0.293374   0.000053   0.000138  -0.000498   0.012081
    31  H    0.002603   0.282453   0.000025  -0.000028   0.000048  -0.000417
    32  H    0.357596  -0.009309   0.000058  -0.000209   0.000725   0.003332
    33  H    0.295979  -0.000310  -0.000003   0.000078  -0.000485   0.000046
    34  O   -0.001964  -0.036803  -0.000762   0.000224  -0.000236   0.002514
    35  H    0.001518   0.023478  -0.000132   0.000067  -0.000172   0.001170
    36  H    0.000231  -0.002286  -0.000021   0.000009   0.000016  -0.000480
    37  H    0.000061  -0.000002   0.036826   0.014573  -0.010081   0.003094
    38  H    0.000413   0.000249  -0.031404   0.004223  -0.000668  -0.012254
    39  H    0.000239  -0.000355   0.016976  -0.006926   0.004617   0.003867
              19         20         21         22         23         24
     1  N    0.389630  -0.533086  -0.233503   0.147993   0.002094  -0.006163
     2  C    0.130962  -0.011822  -4.266963  -0.679286  -0.015800   0.008199
     3  C   -0.790205   0.101613   0.563237   0.179885   0.002649   0.009800
     4  C    0.157032   0.077479  -0.173322   0.068761   0.000226  -0.000310
     5  C   -0.117793  -0.311464   0.079518  -0.006605  -0.000964  -0.000125
     6  C    0.082294   0.027968   1.853066  -0.422305  -0.289727   0.018494
     7  C    0.154862   0.040260   0.174976  -1.473875   0.407480  -0.016384
     8  N   -0.012429  -0.000976  -0.022901   0.027717  -0.254294  -0.066356
     9  C    0.011489  -0.000733   0.002716  -0.143427  -0.631606   0.446444
    10  C   -0.009021   0.000969   0.014709   0.182754   0.134585  -1.266919
    11  C   -0.048151   0.007720  -0.093947  -0.162609   0.316203   0.578577
    12  O   -0.002353   0.055574   0.013659  -0.047413  -0.000589  -0.000003
    13  O   -0.000587   0.004856  -0.000624   0.003870   0.000139   0.000109
    14  O    0.000152   0.000090   0.000071   0.135426   0.008992  -0.000196
    15  H    0.011522  -0.597420  -0.012461  -0.012866  -0.000082  -0.000144
    16  H   -0.219473   0.174250   0.035109   0.006042   0.000051   0.000089
    17  H    0.055389  -0.239388   0.004716  -0.008690   0.000018  -0.000035
    18  H   -0.587871   0.062180   0.189918  -0.223853  -0.003854   0.004145
    19  H    2.343910  -0.027669  -0.200930   0.008101   0.000989  -0.001738
    20  H   -0.027669   2.516211   0.029973   0.029554   0.000043   0.000051
    21  H   -0.200930   0.029973   4.111228   0.007128   0.001188  -0.002626
    22  H    0.008101   0.029554   0.007128   4.894078   0.057088  -0.031125
    23  H    0.000989   0.000043   0.001188   0.057088   2.081638  -0.121584
    24  H   -0.001738   0.000051  -0.002626  -0.031125  -0.121584   2.185531
    25  H    0.005553   0.000488  -0.122638  -0.018456  -0.003973  -0.133556
    26  C    0.062774  -0.141072  -0.058609   0.006668   0.001782  -0.009670
    27  H    0.033092   0.158188   0.028119  -0.095540  -0.002710   0.006124
    28  H   -0.003530  -0.000454   0.000613  -0.003486  -0.000492  -0.000333
    29  H    0.004072   0.000648   0.001598  -0.028490   0.000101   0.000097
    30  H   -0.000178  -0.000645  -0.003123  -0.148258  -0.075180   0.013026
    31  H    0.000022  -0.000021   0.000245   0.004585   0.006046  -0.000714
    32  H    0.000482  -0.001672   0.000260  -0.007463   0.000308   0.000389
    33  H    0.000412   0.000290  -0.000239  -0.020760  -0.000200  -0.000012
    34  O    0.000018   0.001228  -0.001528   0.008432  -0.001936   0.000175
    35  H    0.000008   0.000265  -0.000234  -0.007107  -0.001166  -0.000427
    36  H    0.000021  -0.000151   0.000018   0.006910   0.000052   0.000104
    37  H    0.004697   0.020505   0.007127   0.004229   0.000151   0.000457
    38  H    0.000284  -0.014068   0.007893   0.014977   0.000524  -0.001247
    39  H    0.002039  -0.015466   0.019286  -0.011757  -0.002421  -0.000335
              25         26         27         28         29         30
     1  N   -0.020977   0.900667   0.042679   0.005824   0.087691   0.012660
     2  C    0.022134  -0.355435   0.239905  -0.032461  -0.016036   0.016275
     3  C   -0.044462  -0.176175  -0.097223   0.023150  -0.006674   0.000112
     4  C    0.004010  -0.011325   0.067314  -0.008846   0.005110  -0.002306
     5  C    0.008304  -0.078778  -0.348760   0.043593  -0.009772  -0.000558
     6  C    1.498986   0.327090  -0.197718   0.009641   0.015130   0.087378
     7  C    0.006963  -0.027229  -0.254913   0.049013  -0.013194  -0.185543
     8  N   -0.014997  -0.000542   0.007576  -0.007194   0.010838   0.155533
     9  C   -0.255987  -0.022653   0.024655  -0.018408   0.010378   0.141962
    10  C    0.718019   0.089094  -0.065235   0.016863  -0.001405  -0.112784
    11  C   -2.810102  -0.238948   0.034567  -0.029046   0.008592   0.000557
    12  O    0.000294  -0.101095   0.208207   0.243321   0.176629  -0.005084
    13  O   -0.000193   0.001242  -0.027759   0.016462   0.029369  -0.002251
    14  O    0.000230   0.000091  -0.003887  -0.001500   0.002682   0.293374
    15  H   -0.001360   0.090447  -0.102121   0.001180  -0.000190   0.000053
    16  H    0.001036  -0.011616  -0.036806   0.000234   0.000526   0.000138
    17  H   -0.000539   0.000266   0.039395  -0.000965  -0.001644  -0.000498
    18  H   -0.003425  -0.067735   0.045019   0.011256  -0.001623   0.012081
    19  H    0.005553   0.062774   0.033092  -0.003530   0.004072  -0.000178
    20  H    0.000488  -0.141072   0.158188  -0.000454   0.000648  -0.000645
    21  H   -0.122638  -0.058609   0.028119   0.000613   0.001598  -0.003123
    22  H   -0.018456   0.006668  -0.095540  -0.003486  -0.028490  -0.148258
    23  H   -0.003973   0.001782  -0.002710  -0.000492   0.000101  -0.075180
    24  H   -0.133556  -0.009670   0.006124  -0.000333   0.000097   0.013026
    25  H    3.083825   0.039535  -0.000057   0.000120  -0.000522  -0.003253
    26  C    0.039535   4.556730  -0.418822   0.000582   0.015619   0.000021
    27  H   -0.000057  -0.418822   1.850114  -0.049871  -0.038009  -0.006185
    28  H    0.000120   0.000582  -0.049871   0.461871  -0.072852  -0.000805
    29  H   -0.000522   0.015619  -0.038009  -0.072852   0.557564   0.003689
    30  H   -0.003253   0.000021  -0.006185  -0.000805   0.003689   0.608363
    31  H    0.000118  -0.000152   0.002172   0.000213  -0.000502  -0.148258
    32  H   -0.000265  -0.001830   0.016819  -0.002810  -0.003307  -0.003066
    33  H   -0.000030   0.001336  -0.004725   0.001419   0.000330   0.001628
    34  O   -0.000816   0.003123  -0.009193   0.014285   0.006614   0.003231
    35  H    0.000031   0.000997  -0.000466  -0.010870   0.004473  -0.002184
    36  H   -0.000055  -0.000908   0.005715  -0.006177   0.000225  -0.001417
    37  H    0.008134   0.213412  -0.175979   0.003378   0.002176   0.000429
    38  H    0.003168   0.247258   0.016515  -0.002812  -0.000141  -0.000488
    39  H   -0.027838   0.165874   0.010588  -0.003593  -0.001621   0.001530
              31         32         33         34         35         36
     1  N   -0.001677   0.000984   0.007689   0.041002   0.003520  -0.000306
     2  C    0.000389  -0.001274   0.004318  -0.043739  -0.011546   0.003074
     3  C    0.000402   0.006433  -0.000501   0.007508   0.004958  -0.001077
     4  C   -0.000013   0.001633  -0.000315   0.000563  -0.000584   0.000382
     5  C    0.000137  -0.004414   0.001325   0.000733   0.001916  -0.001013
     6  C   -0.002331  -0.010182   0.007935   0.098820   0.036614  -0.014315
     7  C    0.035975   0.006030   0.017228  -0.125509  -0.035329   0.025833
     8  N   -0.018586  -0.022719   0.002959   0.025747   0.010253  -0.003816
     9  C   -0.015428   0.002346  -0.000617   0.006217  -0.008507   0.000276
    10  C    0.014102  -0.011130   0.001130   0.002714   0.006310  -0.001183
    11  C   -0.006067   0.003605  -0.002514  -0.033768  -0.015867   0.002820
    12  O    0.002670   0.010879  -0.000288  -0.130138  -0.001332   0.007784
    13  O    0.002603   0.357596   0.295979  -0.001964   0.001518   0.000231
    14  O    0.282453  -0.009309  -0.000310  -0.036803   0.023478  -0.002286
    15  H    0.000025   0.000058  -0.000003  -0.000762  -0.000132  -0.000021
    16  H   -0.000028  -0.000209   0.000078   0.000224   0.000067   0.000009
    17  H    0.000048   0.000725  -0.000485  -0.000236  -0.000172   0.000016
    18  H   -0.000417   0.003332   0.000046   0.002514   0.001170  -0.000480
    19  H    0.000022   0.000482   0.000412   0.000018   0.000008   0.000021
    20  H   -0.000021  -0.001672   0.000290   0.001228   0.000265  -0.000151
    21  H    0.000245   0.000260  -0.000239  -0.001528  -0.000234   0.000018
    22  H    0.004585  -0.007463  -0.020760   0.008432  -0.007107   0.006910
    23  H    0.006046   0.000308  -0.000200  -0.001936  -0.001166   0.000052
    24  H   -0.000714   0.000389  -0.000012   0.000175  -0.000427   0.000104
    25  H    0.000118  -0.000265  -0.000030  -0.000816   0.000031  -0.000055
    26  C   -0.000152  -0.001830   0.001336   0.003123   0.000997  -0.000908
    27  H    0.002172   0.016819  -0.004725  -0.009193  -0.000466   0.005715
    28  H    0.000213  -0.002810   0.001419   0.014285  -0.010870  -0.006177
    29  H   -0.000502  -0.003307   0.000330   0.006614   0.004473   0.000225
    30  H   -0.148258  -0.003066   0.001628   0.003231  -0.002184  -0.001417
    31  H    0.561189   0.006357   0.000396   0.001694   0.003799   0.000695
    32  H    0.006357   0.554003  -0.125372   0.001861   0.007751  -0.000709
    33  H    0.000396  -0.125372   0.609837   0.000900  -0.000140  -0.000185
    34  O    0.001694   0.001861   0.000900   7.793523   0.332489   0.330071
    35  H    0.003799   0.007751  -0.000140   0.332489   0.583243  -0.111956
    36  H    0.000695  -0.000709  -0.000185   0.330071  -0.111956   0.603897
    37  H   -0.000036  -0.000259   0.000025   0.000442  -0.000032  -0.000063
    38  H    0.000009  -0.000784   0.000200   0.001787   0.000999  -0.000413
    39  H   -0.000189   0.000699  -0.000031  -0.002800  -0.000868   0.000354
              37         38         39
     1  N   -0.308866  -0.163761   0.052781
     2  C   -0.062477  -0.009336   0.033463
[...]
 0.00011270,-0.00085127,-0.00001965,0.00019498,0.00028046,0.00038661,-0
 .00083367,0.00018749,-0.00067109,-0.00016215,0.00021583,0.00005638,0.0
 0018481,-0.00003636,0.00011745,0.00004729,-0.00087800,-0.00084717,0.00
 003084,0.00018209,-0.00079273,0.00072028,-0.00191655,-0.00673399,-0.00
 296985,-0.00001061,-0.00001005,0.00000027,0.00001130,-0.00001833,0.000
 00911,0.00003041,-0.00002307,-0.00000256,-0.00000342,0.00004287,0.0000
 0352,-0.00001152,-0.00000194,0.00001582,0.00005257,-0.00000621,0.00001
 507,0.00004488,-0.00002924,0.00002860,-0.00018631,0.00011033,0.0001013
 7,0.00000430,-0.00002070,-0.00001507,0.00002573,0.00001991,0.00001409,
 0.00002326,0.00003120,-0.00001179,-0.00002647,-0.00003602,-0.00000144,
 0.00040788,0.00076519,-0.00002751,0.00192957,0.00022372,0.00087085,0.0
 0047983,0.00029823,-0.00043756,0.00092730,-0.00110729,0.00542676,0.000
 67785,0.00038992,-0.00127029,-0.00073683,0.00118836,-0.00082914,0.0000
 6422,0.00001222,-0.00017290,-0.02130379,-0.02080952,0.00420634,0.00638
 209,0.02931369,0.00027155,0.00046454,-0.00009037,0.00026853,-0.0004333
 1,0.00040371,0.00003881,0.00010481,-0.00006476,0.00000546,-0.00001698,
 0.00006008,-0.00013390,0.00006398,-0.00000033,-0.00008267,-0.00021625,
 -0.00019707,0.00058269,0.00024665,-0.00000597,-0.00106655,-0.00228535,
 -0.00048242,-0.00068969,0.00053993,0.00015443,-0.00017000,-0.00035331,
 -0.00020271,-0.00011722,-0.00017263,-0.00008145,0.00339648,0.00009056,
 -0.00455942,-0.00281190,0.00118323,-0.00007907,0.00310672,-0.00126089,
 0.00291379,0.00001741,0.00000081,-0.00001404,-0.00001720,0.00001897,-0
 .00003782,-0.00001235,0.00001000,0.00001411,0.00001840,-0.00002533,0.0
 0000205,0.00000953,-0.00000342,-0.00004159,-0.00006798,0.00002184,-0.0
 0001856,-0.00007085,0.00003374,-0.00006852,0.00052735,0.00027100,0.000
 11776,0.00010452,0.00001043,0.00010121,-0.00007937,-0.00009037,0.00000
 023,-0.00002857,-0.00006434,0.00001931,-0.00007658,0.00016866,0.000160
 63,-0.00068045,-0.00094512,0.00012748,-0.00601043,0.00066106,0.0056021
 0,0.00142961,0.00012087,0.00195179,0.00280086,0.00732037,-0.00079921,-
 0.00207773,-0.00204743,0.00269127,0.00375458,-0.00219143,-0.00225000,-
 0.00003639,-0.00029865,-0.00007253,-0.18377993,0.02734156,-0.31936157,
 0.20118721,-0.02625440,0.33561480,-0.00002693,-0.00000173,-0.00002471,
 0.00004127,-0.00004943,0.00002668,-0.00000112,0.00000901,-0.00002061,-
 0.00000084,0.00001038,0.00000715,-0.00000034,-0.00002448,-0.00000611,0
 .00001836,0.00000823,0.00001611,-0.00004563,0.00004181,0.00003210,-0.0
 0004170,0.00014141,-0.00004467,0.00007528,-0.00006072,-0.00002466,0.00
 000051,0.00000675,0.00001422,0.00000081,0.00001235,-0.00000801,-0.0025
 9237,0.00160584,0.00042682,0.00006621,0.00007036,-0.00006202,-0.001434
 17,-0.00019105,-0.00161923,-0.00000879,-0.00000053,0.00000349,-0.00000
 071,-0.00000052,-0.00000414,-0.00000036,-0.00000250,-0.00000507,-0.000
 00020,-0.00000165,-0.00000421,0.00000140,-0.00000041,-0.00000600,-0.00
 000218,0.00001130,0.00001241,-0.00000662,-0.00000538,0.00000394,-0.000
 00366,-0.00001931,-0.00007787,-0.00000625,0.00001379,-0.00001783,0.000
 00585,0.00000658,0.00000413,-0.00000116,-0.00000627,0.00000014,0.00004
 073,-0.00001438,0.00010902,0.00011888,0.00009256,0.00002618,0.00193980
 ,-0.00398863,0.00171653,-0.00010451,-0.00013169,-0.00007899,-0.0000315
 4,-0.00022638,0.00026683,0.00013906,0.00016586,-0.00061213,-0.00005506
 ,-0.00001540,0.00009623,0.00001573,-0.00001133,0.00004921,-0.16789397,
 -0.15416366,0.18640976,0.01311477,0.01438766,-0.01936873,0.15675586,0.
 00007655,-0.00000128,-0.00002627,-0.00000790,-0.00000546,0.00001320,0.
 00000443,-0.00000059,0.00000504,0.00000837,0.00000218,-0.00000018,-0.0
 0005975,0.00002832,-0.00000926,0.00001936,0.00001517,0.00001146,0.0000
 4535,0.00003838,-0.00000491,0.00001546,0.00000226,0.00004677,-0.000062
 37,0.00002760,0.00001061,0.00002432,-0.00003035,-0.00003188,-0.0000077
 6,0.00000785,-0.00000469,0.00281191,-0.00078283,-0.00064626,0.00004140
 ,-0.00027858,-0.00005265,-0.00016802,-0.00014630,-0.00094289,-0.000000
 47,0.00000082,-0.00000100,0.00000266,0.00000248,-0.00000333,-0.0000009
 1,-0.00000292,-0.00000173,-0.00000143,-0.00000048,0.00000597,0.0000018
 2,0.00000079,-0.00000003,-0.00000082,0.00000429,-0.00000025,-0.0000018
 1,0.00000027,0.00000166,0.00002706,-0.00003967,-0.00003938,0.00001404,
 -0.00002743,0.00003209,-0.00000317,-0.00001094,0.00001008,-0.00000145,
 -0.00000227,0.00000551,-0.00002555,0.00004481,0.00001533,0.00002062,-0
 .00002388,-0.00000084,-0.00282948,0.00134193,-0.00048969,-0.00011827,0
 .00027832,0.00012268,-0.00012214,-0.00006487,0.00006708,-0.00006351,0.
 00024799,0.00007142,-0.00012978,0.00021301,0.00013984,0.00002100,0.000
 08076,-0.00008425,-0.13854696,-0.15414371,0.20494046,-0.00329225,-0.00
 170912,-0.00177320,0.14235929,0.15495052,-0.00016313,-0.00017855,-0.00
 008540,0.00005684,-0.00002176,-0.00000584,0.00001158,0.00002679,-0.000
 00644,0.00000177,0.00000792,0.00000938,0.00004987,-0.00002780,-0.00002
 293,-0.00001509,-0.00006511,-0.00003268,0.00013149,0.00006053,0.000025
 61,-0.00012130,-0.00022516,0.00005340,-0.00008224,0.00011291,0.0000052
 9,0.00001393,-0.00002582,-0.00002686,-0.00002409,0.00003539,-0.0000005
 4,-0.00153239,-0.00014066,0.00085990,-0.00019020,-0.00012108,0.0002650
 9,-0.00143540,-0.00093284,-0.00022929,-0.00002042,-0.00001170,0.000006
 72,-0.00001055,-0.00000655,-0.00000289,0.00001636,-0.00000338,-0.00001
 315,-0.00000534,0.00000330,-0.00002215,-0.00000689,-0.00000832,-0.0000
 0695,0.00001368,0.00001539,0.00001826,-0.00001346,-0.00001918,0.000003
 54,0.00000377,-0.00000863,-0.00002418,0.00000996,0.00000345,0.00000991
 ,-0.00000818,-0.00001397,0.00000760,-0.00001182,-0.00001048,0.00000447
 ,0.00000029,0.00000495,0.00013043,0.00041119,0.00044974,0.00006629,0.0
 0250345,-0.00017242,-0.00134523,0.00005721,0.00010853,-0.00011092,0.00
 025270,0.00037137,0.00016971,-0.00003685,0.00024834,-0.00061308,0.0001
 3797,0.00010034,-0.00018226,0.00005806,-0.00000552,-0.00010442,0.14279
 411,0.18069075,-0.27051174,0.02443958,0.02118203,-0.02149330,-0.167237
 70,-0.20144324,0.29312826,0.00325265,0.00603586,0.00179394,0.00000493,
 -0.00005403,0.00008639,0.00017285,0.00017002,-0.00007921,-0.00000857,-
 0.00001648,0.00003558,0.00196325,0.00128373,0.00059927,-0.00007797,0.0
 0007778,-0.00003277,-0.00012093,-0.00002883,-0.00005208,0.00022629,0.0
 0002498,0.00001409,0.00001710,0.00004127,0.00002377,-0.00007619,0.0000
 6150,0.00006690,-0.00007600,-0.00031924,-0.00003633,0.00009082,-0.0000
 2689,-0.00022295,-0.00001610,0.00001339,-0.00005356,-0.00000544,0.0000
 6867,-0.00006853,-0.00001047,-0.00029168,-0.00000314,-0.00000375,-0.00
 002945,-0.00002265,-0.00002290,-0.00000758,-0.00002220,-0.00008872,0.0
 0007247,0.00004921,-0.00000804,-0.00002090,-0.00004422,-0.00012182,0.0
 0000223,0.00003451,0.00006212,0.00011272,-0.00049845,0.00000831,0.0000
 1642,0.00001657,0.00001270,0.00001051,0.00000149,-0.00000956,0.0000029
 7,-0.00001034,0.00007765,0.00018504,-0.00010976,-0.16290380,-0.1356935
 4,-0.02739502,0.00030648,0.00090020,0.00131977,0.00002669,0.00020743,0
 .00010301,0.00002302,-0.00001201,0.00009266,-0.00003686,-0.00009218,0.
 00001678,0.00000446,0.00000049,0.00000224,0.00000525,-0.00001204,0.000
 01719,-0.00000193,0.00000240,0.00000464,-0.00010814,-0.00007585,-0.000
 10409,0.00003009,-0.00004192,0.00010646,0.00001191,0.00000767,-0.00001
 497,0.16725508,-0.00738462,-0.01139251,-0.00466317,0.00068729,0.000810
 39,0.00124956,0.00014139,0.00022707,0.00016885,0.00028203,0.00029634,0
 .00010092,-0.00157601,-0.00011769,0.00041749,-0.00008335,-0.00008852,-
 0.00008005,0.00011381,-0.00002100,0.00000129,-0.00009357,0.00005342,-0
 .00000252,-0.00001102,-0.00003345,-0.00001168,0.00002401,-0.00000234,-
 0.00002138,-0.00003572,0.00005143,-0.00006456,-0.00049990,-0.00056490,
 0.00003449,-0.00003773,-0.00000830,-0.00009722,-0.00002413,0.00000535,
 -0.00001108,0.00094832,-0.00009678,-0.00034210,0.00001581,0.00000571,-
 0.00007985,0.00003757,0.00000777,0.00016377,-0.00002807,0.00002149,0.0
 0011539,0.00002905,-0.00003661,-0.00003923,0.00001581,0.00002168,0.000
 02128,-0.00008313,0.00053917,-0.00043427,0.00001083,-0.00000223,0.0000
 1626,-0.00000670,-0.00000259,0.00000335,0.00000604,0.00000127,0.000004
 17,-0.00000882,-0.00003701,0.00006803,-0.13145931,-0.20617487,-0.03184
 451,0.00186383,0.00151989,-0.00153604,0.00022764,-0.00012328,-0.000037
 45,0.00002643,0.00007664,0.00016777,0.00000615,0.00000142,0.00000118,0
 .00000642,0.00000272,0.00000207,0.00002338,-0.00000963,0.00000851,-0.0
 0001314,0.00000679,0.00000561,-0.00010268,0.00007525,0.00002547,0.0000
 1507,-0.00001527,0.00001190,0.00001589,-0.00000195,-0.00000330,0.14421
 443,0.21975543,-0.02266504,-0.03157236,-0.01451572,-0.00123394,-0.0027
 1035,0.00195541,0.00030402,0.00026084,0.00008053,0.00006959,0.00025328
 ,0.00023702,-0.00257833,0.00059197,0.00077378,0.00016081,0.00029822,-0
 .00005975,-0.00000666,-0.00016895,-0.00003835,0.00008589,0.00005463,0.
 00003928,-0.00001970,0.00003337,-0.00001148,-0.00001379,0.00004939,0.0
 0002884,-0.00007951,-0.00010519,0.00001646,-0.00113629,-0.00108595,0.0
 0069058,-0.00004417,0.00001954,-0.00003212,0.00000550,0.00004728,0.000
 03693,0.00081877,0.00017683,0.00030379,-0.00000343,0.00000679,-0.00003
 789,-0.00003512,0.00005122,0.00009630,-0.00000206,0.00011911,0.0001603
 0,0.00006440,0.00001954,-0.00002738,0.00026924,0.00003972,-0.00000687,
 0.00048486,0.00087201,-0.00038814,0.00004343,0.00001036,0.00002278,0.0
 0000938,0.00000760,0.00000222,0.00000088,-0.00000017,0.00000404,-0.000
 01380,0.00009292,-0.00002776,-0.02045879,-0.02433748,-0.05349698,0.003
 53342,0.00120267,-0.00528583,0.00006980,-0.00033840,-0.00032555,0.0000
 3716,0.00002767,0.00008578,-0.00002169,-0.00005147,-0.00000995,-0.0000
 0609,-0.00000392,-0.00000246,0.00003226,-0.00002775,-0.00001127,-0.000
 00222,0.00000028,-0.00000146,-0.00003506,0.00007386,0.00015291,0.00001
 194,0.00000216,-0.00004908,-0.00003646,-0.00001031,-0.00001812,0.02721
 318,0.03891256,0.06390307,-0.00056795,-0.00462573,0.00547246,-0.000520
 92,0.00082634,0.00079248,0.00033459,-0.00003893,0.00037387,-0.00005099
 ,-0.00006921,-0.00003141,0.00067156,-0.00077656,0.00061380,0.00008847,
 -0.00002829,-0.00017396,0.00030629,0.00016307,0.00006397,-0.00014173,-
 0.00002672,0.00002902,0.00001071,-0.00004614,-0.00001684,0.00010617,-0
 .00002033,-0.00002386,-0.00006333,-0.00021056,-0.00010142,-0.00005562,
 0.00002322,0.00062801,0.00004062,-0.00002423,0.00012755,0.00000126,-0.
 00011595,0.00010009,-0.00006083,-0.00025674,-0.00004495,0.00000142,-0.
 00001402,-0.00001770,-0.00000032,0.00000455,-0.00005448,-0.00005375,0.
 00006271,0.00008433,-0.00000564,0.00001174,0.00007693,0.00016635,0.000
 29291,0.00019807,0.00010325,0.00030744,-0.00019227,-0.00000971,0.00002
 353,-0.00002232,-0.00000221,0.00000082,0.00000094,-0.00000744,-0.00000
 127,0.00000226,-0.00003436,0.00000798,0.00002246,-0.05759986,0.0381559
 1,-0.03437532,0.00012409,0.00040344,-0.00077273,-0.00020739,-0.0001166
 2,-0.00033782,-0.00002515,0.00000640,-0.00022283,0.00006881,0.00015034
 ,-0.00000962,-0.00000268,-0.00000123,-0.00000560,-0.00001212,0.0000301
 9,-0.00002086,0.00001616,-0.00000788,-0.00000876,0.00020087,-0.0000451
 3,0.00028438,-0.00003233,0.00008666,-0.00017442,-0.00009012,-0.0000328
 1,-0.00005064,0.00428010,-0.01464061,0.01420911,0.05544484,-0.00274371
 ,0.01211509,-0.01417817,0.00060057,-0.00172372,-0.00179907,0.00025840,
 0.00071996,-0.00085055,-0.00021896,0.00009910,0.00013904,-0.00033247,0
 .00110901,-0.00044020,0.00016450,0.00001058,0.00004421,-0.00014902,-0.
 00005874,0.00001381,0.00009343,-0.00000004,-0.00000056,-0.00002476,0.0
 0003904,0.00001348,-0.00007343,0.00006567,0.00001389,-0.00006492,-0.00
 007666,0.00002959,0.00007690,-0.00004088,0.00022811,0.00001249,0.00001
 033,0.00005497,0.00002220,0.00003209,0.00000088,0.00000903,-0.00031042
 ,0.00015800,0.00000452,-0.00000560,0.00001094,0.00001528,-0.00001812,-
 0.00001019,-0.00005196,0.00003202,0.00002554,0.00003729,-0.00015883,-0
 .00028272,-0.00009910,0.00001488,0.00011594,0.00024698,0.00030315,-0.0
 0019207,0.00000930,0.00001283,-0.00001069,0.00000685,0.00000537,0.0000
 0153,-0.00000958,0.00000107,0.00000197,0.00000870,0.00010081,-0.000060
 31,0.03786952,-0.20991607,0.14026818,-0.00012994,0.00078013,0.00028235
 ,-0.00007673,0.00006780,0.00003057,0.00004335,0.00000899,-0.00009853,-
 0.00002488,-0.00004385,-0.00000468,-0.00000625,-0.00000237,-0.00000204
 ,-0.00000793,-0.00000409,-0.00000637,0.00000749,-0.00000167,-0.0000050
 8,0.00004936,-0.00002335,-0.00004689,-0.00000725,-0.00000767,0.0000023
 7,-0.00000576,0.00001358,0.00001766,0.00633153,-0.01415464,0.01426112,
 -0.04107633,0.21651007,-0.00578325,0.02451940,-0.02861346,0.00142882,-
 0.00517407,-0.00239257,-0.00007759,0.00149153,-0.00116718,-0.00031783,
 -0.00001458,-0.00009944,-0.00112457,0.00133741,0.00099360,0.00057591,-
 0.00018757,0.00020126,-0.00016367,0.00001961,0.00007572,-0.00000373,-0
 .00006417,0.00000354,-0.00002181,0.00007737,-0.00001195,-0.00010579,0.
 00003878,0.00003914,-0.00009627,-0.00011722,0.00009100,-0.00004054,-0.
 00027947,0.00055737,0.00004350,-0.00002270,0.00012603,0.00001283,-0.00
 004242,0.00003980,0.00025229,-0.00006643,-0.00000027,0.00002338,-0.000
 02901,0.00010110,0.00006355,-0.00003045,0.00002668,0.00002789,-0.00004
 266,-0.00004606,0.00017756,-0.00038229,-0.00043540,0.00041898,-0.00053
 977,-0.00015055,0.00010041,-0.00000511,0.00010751,0.00002139,0.0000448
 0,-0.00003266,0.00000343,0.00000603,-0.00000226,-0.00001655,0.00000570
 ,-0.00000517,0.00004180,0.00004139,-0.00005296,-0.03056371,0.12822481,
 -0.16119207,0.00025321,0.00147672,-0.00010344,-0.00025572,-0.00007393,
 -0.00008389,-0.00000882,-0.00004614,-0.00020212,0.00002018,0.00005340,
 -0.00000982,-0.00000326,-0.00000322,-0.00000148,-0.00001770,0.00001807
 ,-0.00001152,0.00000869,-0.00000073,-0.00000621,0.00014045,-0.00001103
 ,0.00001854,-0.00001977,0.00003083,-0.00006231,-0.00000786,-0.00000004
 ,0.00002483,0.00134598,-0.00487395,0.00518658,0.03331880,-0.14229339,0
 .18361926,-0.00148191,0.00050272,0.00091501,-0.00035357,0.00046416,-0.
 00033716,-0.00012684,0.00007456,0.00004298,0.00008084,0.00022561,-0.00
 020250,0.00095621,-0.00030460,0.00023274,0.00005683,-0.00011390,-0.000
 87262,0.00047979,0.00009745,-0.00009167,-0.00029213,0.00009863,0.00009
 159,-0.00012625,-0.00015522,-0.00001004,0.00022854,-0.00001972,-0.0000
 2989,-0.00006407,0.00019502,-0.00044910,0.00005055,0.00019089,0.000015
 88,0.00000931,-0.00001964,0.00000637,-0.00001195,-0.00004916,0.0000443
 9,0.00040070,0.00009160,-0.00001095,0.00000573,0.00000083,0.00001186,0
 .00000478,-0.00001682,0.00011729,0.00001349,-0.00000714,0.00000556,0.0
 0001662,-0.00003059,0.00000919,-0.00006023,0.00005960,-0.00004976,-0.0
 0009712,-0.00000958,0.00001316,0.00000560,0.00001498,0.00002786,-0.000
 00773,-0.00000896,-0.00000382,0.00000585,0.00000032,0.00000788,-0.0000
 8372,-0.00014018,0.00014746,-0.30366471,0.08191221,0.02296893,0.000085
 37,-0.00021022,0.00028559,0.00013705,0.00004414,0.00004653,-0.00001003
 ,0.00003682,-0.00002562,0.00003212,0.00006856,-0.00002178,-0.00000052,
 -0.00000091,-0.00000309,0.00000323,0.00001314,-0.00000777,-0.00000525,
 -0.00000218,-0.00000077,-0.00000739,0.00013304,0.00004484,-0.00002530,
 -0.00000490,-0.00007328,0.00000179,-0.00002470,0.00001685,-0.01413455,
 0.00737730,0.00096851,-0.00242111,-0.00076469,0.00034938,0.32039997,0.
 01290690,-0.00662478,-0.00260112,-0.00023960,0.00014468,0.00059714,0.0
 0006063,-0.00010782,0.00010049,0.00086044,0.00016552,0.00009741,-0.001
 28961,0.00013746,-0.00237549,-0.00014237,0.00010140,0.00053985,0.00025
 437,0.00009931,0.00013478,-0.00032258,-0.00006029,0.00001476,0.0000277
 7,-0.00003015,-0.00004935,0.00016899,-0.00009954,-0.00006610,-0.000004
 62,-0.00004289,0.00025056,-0.00027494,0.00012219,0.00056647,0.00002162
 ,-0.00003056,0.00013994,-0.00000160,-0.00015794,0.00016644,0.00030208,
 0.00006796,0.00006950,-0.00000498,-0.00005586,-0.00028434,0.00002790,-
 0.00002806,0.00000619,-0.00000316,0.00001943,-0.00001461,-0.00002787,0
 .00002550,-0.00000837,-0.00018519,0.00026827,0.00018281,-0.00011742,0.
 00002132,-0.00014198,-0.00002819,-0.00002449,-0.00007311,-0.00000784,-
 0.00000824,0.00000205,0.00000419,-0.00001690,0.00000568,-0.00009437,-0
 .00009814,0.00005861,0.07800702,-0.07477509,-0.00804472,0.00118290,0.0
 0025244,-0.00011263,-0.00004621,-0.00044598,-0.00033560,-0.00007821,0.
 00002858,-0.00021697,0.00009710,0.00021661,-0.00003075,-0.00000266,-0.
 00000077,-0.00000686,-0.00000035,0.00002612,-0.00003959,0.00001692,-0.
 00000318,-0.00000995,0.00024799,0.00014910,0.00030809,-0.00005565,0.00
 009748,-0.00025489,-0.00003789,-0.00002871,0.00000610,-0.02312106,0.00
 940435,0.00292739,0.02161804,-0.00550482,-0.00308550,-0.08971849,0.076
 79650,0.03640861,-0.01359380,-0.00777831,0.00099390,-0.00047649,0.0014
 0473,0.00010918,-0.00031619,0.00021217,0.00162692,-0.00065455,-0.00015
 807,-0.00248492,-0.00046205,-0.00522244,0.00005391,0.00011274,-0.00096
 139,-0.00023777,-0.00023787,-0.00016695,0.00005621,0.00014310,0.000070
 72,-0.00007050,-0.00011575,-0.00004693,0.00014308,0.00013037,0.0000194
 4,-0.00038099,0.00059306,-0.00019615,-0.00029990,-0.00009455,-0.000042
 01,-0.00006316,0.00008556,0.00000766,0.00005928,0.00019715,-0.00004104
 ,0.00000616,0.00021478,-0.00010332,-0.00000829,-0.00011087,-0.00045881
 ,0.00004644,0.00001472,-0.00021468,-0.00004195,0.00001822,-0.00003551,
 -0.00003508,0.00004918,0.00001687,0.00015987,-0.00029680,-0.00008652,-
 0.00001385,0.00016177,-0.00019692,0.00003022,-0.00002440,-0.00000889,0
 .00001374,-0.00000545,0.00000318,0.00000676,-0.00001523,0.00002334,0.0
 0000140,-0.00001142,0.00002368,0.01122865,-0.00437479,-0.05030236,0.00
 084185,0.00071575,0.00091237,-0.00000390,-0.00013253,0.00008449,0.0000
 3386,-0.00003147,0.00004937,-0.00013723,-0.00023967,-0.00001222,-0.000
 01541,-0.00000942,0.00000150,0.00002495,-0.00006730,-0.00001438,0.0000
 1910,-0.00000349,-0.00000566,-0.00002428,0.00007007,-0.00024441,0.0000
 0122,-0.00008695,0.00009736,0.00004605,0.00006707,0.00006968,-0.004173
 36,0.00264243,0.00056956,-0.01974071,0.00456737,0.00347082,-0.02418004
 ,0.01157770,0.05926004\\0.00000414,-0.00000172,-0.00000696,0.00000118,
 0.00000033,-0.00000156,-0.00000404,0.00000154,0.00000294,0.00000067,-0
 .00000253,-0.00000246,-0.00000133,0.00000553,0.00000357,0.00000020,0.0
 0000142,-0.00000199,-0.00000080,0.00000105,0.00000012,0.00000247,-0.00
 000072,0.00000064,-0.00000084,-0.00000076,-0.00000045,-0.00000019,0.00
 000017,-0.00000040,-0.00000008,0.00000033,-0.00000044,0.00000427,0.000
 00015,0.00000153,0.00000043,-0.00000068,0.00000076,0.00000027,0.,0.000
 00146,0.00000002,0.00000015,-0.00000007,-0.00000024,-0.00000264,-0.000
 00025,0.00000057,0.00000038,-0.00000173,0.00000072,-0.00000028,-0.0000
 0072,-0.00000281,-0.00000067,-0.00000127,0.00000225,0.00000115,0.00000
 098,-0.00000008,-0.00000011,-0.00000054,-0.00000061,-0.00000064,0.0000
 0130,-0.00000031,-0.00000036,-0.00000002,-0.00000023,-0.00000003,-0.00
 000085,-0.00000018,0.00000009,-0.00000115,-0.00000059,-0.00000083,-0.0
 0000004,-0.00000274,-0.00000147,0.00000024,-0.00000205,0.00000093,0.00
 000097,-0.00000137,-0.00000089,0.00000021,-0.00000053,-0.00000105,0.00
 000038,-0.00000015,-0.00000031,0.00000138,-0.00000072,-0.00000047,0.00
 000132,-0.00000034,-0.00000068,0.00000118,0.00000036,0.00000030,0.0000
 0042,0.00000087,-0.00000003,0.00000173,0.00000050,0.00000052,0.0000010
 3,0.00000044,0.00000094,-0.00000077,0.00000059,0.00000081,0.00000016,0
 .00000025,0.00000105,-0.00000064\\\@


 WHERE THERE IS MUCH DESIRE TO LEARN, THERE OF NECESSITY WILL BE
 MUCH ARGUING, MUCH WRITING, MANY OPINIONS; FOR OPINION IN GOOD MEN
 IS BUT KNOWLEDGE IN THE MAKING. -- JOHN MILTON.
 Job cpu time:       1 days 11 hours 12 minutes  1.1 seconds.
 Elapsed time:       0 days  1 hours 15 minutes 30.6 seconds.
 File lengths (MBytes):  RWF=   1236 Int=      0 D2E=      0 Chk=     32 Scr=      8
 Normal termination of Gaussian 16 at Sat Aug  1 11:45:52 2020.
