 Entering Gaussian System, Link 0=g16
 Input=NicPySa4hYbab.gjf
 Output=NicPySa4hYbab.log
 Initial command:
 /sw/contrib/gaussian/g16/A03/g16/l1.exe "/gscratch/scrubbed/gds001/Gau-1836.inp" -scrdir="/gscratch/scrubbed/gds001/"
 Entering Link 1 = /sw/contrib/gaussian/g16/A03/g16/l1.exe PID=      1837.
  
 Copyright (c) 1988,1990,1992,1993,1995,1998,2003,2009,2016,
            Gaussian, Inc.  All Rights Reserved.
  
 This is part of the Gaussian(R) 16 program.  It is based on
 the Gaussian(R) 09 system (copyright 2009, Gaussian, Inc.),
 the Gaussian(R) 03 system (copyright 2003, Gaussian, Inc.),
 the Gaussian(R) 98 system (copyright 1998, Gaussian, Inc.),
 the Gaussian(R) 94 system (copyright 1995, Gaussian, Inc.),
 the Gaussian 92(TM) system (copyright 1992, Gaussian, Inc.),
 the Gaussian 90(TM) system (copyright 1990, Gaussian, Inc.),
 the Gaussian 88(TM) system (copyright 1988, Gaussian, Inc.),
 the Gaussian 86(TM) system (copyright 1986, Carnegie Mellon
 University), and the Gaussian 82(TM) system (copyright 1983,
 Carnegie Mellon University). Gaussian is a federally registered
 trademark of Gaussian, Inc.
  
 This software contains proprietary and confidential information,
 including trade secrets, belonging to Gaussian, Inc.
  
 This software is provided under written license and may be
 used, copied, transmitted, or stored only in accord with that
 written license.
  
 The following legend is applicable only to US Government
 contracts under FAR:
  
                    RESTRICTED RIGHTS LEGEND
  
 Use, reproduction and disclosure by the US Government is
 subject to restrictions as set forth in subparagraphs (a)
 and (c) of the Commercial Computer Software - Restricted
 Rights clause in FAR 52.227-19.
  
 Gaussian, Inc.
 340 Quinnipiac St., Bldg. 40, Wallingford CT 06492
  
  
 ---------------------------------------------------------------
 Warning -- This program may not be used in any manner that
 competes with the business of Gaussian, Inc. or will provide
 assistance to any competitor of Gaussian, Inc.  The licensee
 of this program is prohibited from giving any competitor of
 Gaussian, Inc. access to this program.  By using this program,
 the user acknowledges that Gaussian, Inc. is engaged in the
 business of creating and licensing software in the field of
 computational chemistry and represents and warrants to the
 licensee that it is not a competitor of Gaussian, Inc. and that
 it will not use this program in any manner prohibited above.
 ---------------------------------------------------------------
  

 Cite this work as:
 Gaussian 16, Revision A.03,
 M. J. Frisch, G. W. Trucks, H. B. Schlegel, G. E. Scuseria, 
 M. A. Robb, J. R. Cheeseman, G. Scalmani, V. Barone, 
 G. A. Petersson, H. Nakatsuji, X. Li, M. Caricato, A. V. Marenich, 
 J. Bloino, B. G. Janesko, R. Gomperts, B. Mennucci, H. P. Hratchian, 
 J. V. Ortiz, A. F. Izmaylov, J. L. Sonnenberg, D. Williams-Young, 
 F. Ding, F. Lipparini, F. Egidi, J. Goings, B. Peng, A. Petrone, 
 T. Henderson, D. Ranasinghe, V. G. Zakrzewski, J. Gao, N. Rega, 
 G. Zheng, W. Liang, M. Hada, M. Ehara, K. Toyota, R. Fukuda, 
 J. Hasegawa, M. Ishida, T. Nakajima, Y. Honda, O. Kitao, H. Nakai, 
 T. Vreven, K. Throssell, J. A. Montgomery, Jr., J. E. Peralta, 
 F. Ogliaro, M. J. Bearpark, J. J. Heyd, E. N. Brothers, K. N. Kudin, 
 V. N. Staroverov, T. A. Keith, R. Kobayashi, J. Normand, 
 K. Raghavachari, A. P. Rendell, J. C. Burant, S. S. Iyengar, 
 J. Tomasi, M. Cossi, J. M. Millam, M. Klene, C. Adamo, R. Cammi, 
 J. W. Ochterski, R. L. Martin, K. Morokuma, O. Farkas, 
 J. B. Foresman, and D. J. Fox, Gaussian, Inc., Wallingford CT, 2016.
 
 ******************************************
 Gaussian 16:  ES64L-G16RevA.03 25-Dec-2016
                27-Jan-2023 
 ******************************************
 %nprocshared=28
 Will use up to   28 processors via shared memory.
 %mem=41GB
 -----------------------------
 # wB97XD/aug-cc-pVDZ opt freq
 -----------------------------
 1/18=20,19=15,26=3,38=1/1,3;
 2/9=110,12=2,17=6,18=5,40=1/2;
 3/5=16,7=10,11=2,25=1,30=1,71=1,74=-58/1,2,3;
 4//1;
 5/5=2,38=5/2;
 6/7=2,8=2,9=2,10=2,28=1/1;
 7//1,2,3,16;
 1/18=20,19=15,26=3/3(2);
 2/9=110/2;
 99//99;
 2/9=110/2;
 3/5=16,7=10,11=2,25=1,30=1,71=1,74=-58/1,2,3;
 4/5=5,16=3,69=1/1;
 5/5=2,38=5/2;
 7//1,2,3,16;
 1/18=20,19=15,26=3/3(-5);
 2/9=110/2;
 6/7=2,8=2,9=2,10=2,19=2,28=1/1;
 99/9=1/99;
 ----
 blah
 ----
 Symbolic Z-matrix:
 Charge =  1 Multiplicity = 1
 C                    -1.26092   2.23638  -0.69947 
 C                    -1.40077   0.89896  -0.315 
 C                    -0.29302   0.27691   0.24289 
 N                     0.85772   0.94715   0.40859 
 C                     1.00806   2.23144   0.0528 
 C                    -0.05555   2.91081  -0.51386 
 C                    -2.71401   0.15819  -0.45922 
 N                    -2.51841  -1.28568  -0.42257 
 C                    -3.69071  -1.87014   0.22369 
 C                    -3.97106  -0.89369   1.35731 
 C                    -3.70861   0.47093   0.69872 
 O                     2.96322  -0.28879   1.44233 
 O                     4.77295  -1.46773  -0.08955 
 H                    -3.46657  -2.88842   0.56392 
 H                    -4.98899  -0.97774   1.75161 
 H                    -3.26901  -1.06991   2.18209 
 H                    -4.63376   0.88312   0.27993 
 H                    -3.30989   1.21005   1.40282 
 H                    -4.55445  -1.92278  -0.46919 
 H                    -3.16401   0.47776  -1.41934 
 H                    -0.31999  -0.76481   0.55388 
 H                     1.98506   2.67354   0.23144 
 H                     0.06306   3.95078  -0.80858 
 H                    -2.1064    2.75651  -1.15148 
 C                    -2.18348  -1.8697   -1.70767 
 H                     1.68087   0.44403   0.83265 
 H                     3.65888  -0.74021   0.90592 
 H                     3.20106  -0.39124   2.36565 
 H                     5.68353  -1.13771  -0.20991 
 H                     4.81138  -2.41792  -0.21745 
 O                     7.3215   -0.49205  -0.43924 
 H                     8.05914  -0.61508   0.16402 
 H                     7.71122  -0.3212   -1.30071 
 H                    -1.25948  -1.42299  -2.09996 
 H                    -2.98382  -1.72153  -2.45869 
 H                    -2.01399  -2.94661  -1.59025 
 O                     8.86341  -0.04983  -2.65763 
 H                     9.17618  -0.62939  -3.37357 
 H                     9.03227   0.83947  -3.01529 
 
 Add virtual bond connecting atoms H26        and O12        Dist= 3.02D+00.
 Add virtual bond connecting atoms H27        and O13        Dist= 3.14D+00.
 Add virtual bond connecting atoms O31        and H29        Dist= 3.36D+00.
 Add virtual bond connecting atoms O37        and H33        Dist= 3.40D+00.

 GradGradGradGradGradGradGradGradGradGradGradGradGradGradGradGradGradGrad
 Berny optimization.
 Initialization pass.
                           ----------------------------
                           !    Initial Parameters    !
                           ! (Angstroms and Degrees)  !
 --------------------------                            --------------------------
 ! Name  Definition              Value          Derivative Info.                !
 --------------------------------------------------------------------------------
 ! R1    R(1,2)                  1.3986         estimate D2E/DX2                !
 ! R2    R(1,6)                  1.3936         estimate D2E/DX2                !
 ! R3    R(1,24)                 1.0907         estimate D2E/DX2                !
 ! R4    R(2,3)                  1.3876         estimate D2E/DX2                !
 ! R5    R(2,7)                  1.5146         estimate D2E/DX2                !
 ! R6    R(3,4)                  1.342          estimate D2E/DX2                !
 ! R7    R(3,21)                 1.0875         estimate D2E/DX2                !
 ! R8    R(4,5)                  1.3411         estimate D2E/DX2                !
 ! R9    R(4,26)                 1.0538         estimate D2E/DX2                !
 ! R10   R(5,6)                  1.3834         estimate D2E/DX2                !
 ! R11   R(5,22)                 1.0871         estimate D2E/DX2                !
 ! R12   R(6,23)                 1.0874         estimate D2E/DX2                !
 ! R13   R(7,8)                  1.4575         estimate D2E/DX2                !
 ! R14   R(7,11)                 1.5582         estimate D2E/DX2                !
 ! R15   R(7,20)                 1.1075         estimate D2E/DX2                !
 ! R16   R(8,9)                  1.4607         estimate D2E/DX2                !
 ! R17   R(8,25)                 1.4508         estimate D2E/DX2                !
 ! R18   R(9,10)                 1.5222         estimate D2E/DX2                !
 ! R19   R(9,14)                 1.0968         estimate D2E/DX2                !
 ! R20   R(9,19)                 1.1086         estimate D2E/DX2                !
 ! R21   R(10,11)                1.5378         estimate D2E/DX2                !
 ! R22   R(10,15)                1.0949         estimate D2E/DX2                !
 ! R23   R(10,16)                1.0973         estimate D2E/DX2                !
 ! R24   R(11,17)                1.096          estimate D2E/DX2                !
 ! R25   R(11,18)                1.0959         estimate D2E/DX2                !
 ! R26   R(12,26)                1.5979         estimate D2E/DX2                !
 ! R27   R(12,27)                0.9877         estimate D2E/DX2                !
 ! R28   R(12,28)                0.9589         estimate D2E/DX2                !
 ! R29   R(13,27)                1.6617         estimate D2E/DX2                !
 ! R30   R(13,29)                0.976          estimate D2E/DX2                !
 ! R31   R(13,30)                0.9595         estimate D2E/DX2                !
 ! R32   R(25,34)                1.0987         estimate D2E/DX2                !
 ! R33   R(25,35)                1.1075         estimate D2E/DX2                !
 ! R34   R(25,36)                1.0965         estimate D2E/DX2                !
 ! R35   R(29,31)                1.7755         estimate D2E/DX2                !
 ! R36   R(31,32)                0.9608         estimate D2E/DX2                !
 ! R37   R(31,33)                0.9608         estimate D2E/DX2                !
 ! R38   R(33,37)                1.8007         estimate D2E/DX2                !
 ! R39   R(37,38)                0.9728         estimate D2E/DX2                !
 ! R40   R(37,39)                0.9733         estimate D2E/DX2                !
 ! A1    A(2,1,6)              120.8399         estimate D2E/DX2                !
 ! A2    A(2,1,24)             119.4993         estimate D2E/DX2                !
 ! A3    A(6,1,24)             119.6607         estimate D2E/DX2                !
 ! A4    A(1,2,3)              117.3481         estimate D2E/DX2                !
 ! A5    A(1,2,7)              121.8844         estimate D2E/DX2                !
 ! A6    A(3,2,7)              120.745          estimate D2E/DX2                !
 ! A7    A(2,3,4)              120.6852         estimate D2E/DX2                !
 ! A8    A(2,3,21)             121.643          estimate D2E/DX2                !
 ! A9    A(4,3,21)             117.6705         estimate D2E/DX2                !
 ! A10   A(3,4,5)              122.7968         estimate D2E/DX2                !
 ! A11   A(3,4,26)             118.7535         estimate D2E/DX2                !
 ! A12   A(5,4,26)             118.4493         estimate D2E/DX2                !
 ! A13   A(4,5,6)              119.5206         estimate D2E/DX2                !
 ! A14   A(4,5,22)             116.5252         estimate D2E/DX2                !
 ! A15   A(6,5,22)             123.9536         estimate D2E/DX2                !
 ! A16   A(1,6,5)              118.8073         estimate D2E/DX2                !
 ! A17   A(1,6,23)             121.4034         estimate D2E/DX2                !
 ! A18   A(5,6,23)             119.7886         estimate D2E/DX2                !
 ! A19   A(2,7,8)              111.4534         estimate D2E/DX2                !
 ! A20   A(2,7,11)             112.6139         estimate D2E/DX2                !
 ! A21   A(2,7,20)             107.0813         estimate D2E/DX2                !
 ! A22   A(8,7,11)             105.415          estimate D2E/DX2                !
 ! A23   A(8,7,20)             111.2348         estimate D2E/DX2                !
 ! A24   A(11,7,20)            109.0858         estimate D2E/DX2                !
 ! A25   A(7,8,9)              107.4458         estimate D2E/DX2                !
 ! A26   A(7,8,25)             114.0477         estimate D2E/DX2                !
 ! A27   A(9,8,25)             114.5904         estimate D2E/DX2                !
 ! A28   A(8,9,10)             102.7464         estimate D2E/DX2                !
 ! A29   A(8,9,14)             110.1651         estimate D2E/DX2                !
 ! A30   A(8,9,19)             111.5797         estimate D2E/DX2                !
 ! A31   A(10,9,14)            113.7147         estimate D2E/DX2                !
 ! A32   A(10,9,19)            110.6361         estimate D2E/DX2                !
 ! A33   A(14,9,19)            108.0015         estimate D2E/DX2                !
 ! A34   A(9,10,11)            102.6418         estimate D2E/DX2                !
 ! A35   A(9,10,15)            112.9659         estimate D2E/DX2                !
 ! A36   A(9,10,16)            109.8098         estimate D2E/DX2                !
 ! A37   A(11,10,15)           112.3975         estimate D2E/DX2                !
 ! A38   A(11,10,16)           110.8065         estimate D2E/DX2                !
 ! A39   A(15,10,16)           108.1681         estimate D2E/DX2                !
 ! A40   A(7,11,10)            104.424          estimate D2E/DX2                !
 ! A41   A(7,11,17)            109.2896         estimate D2E/DX2                !
 ! A42   A(7,11,18)            112.3695         estimate D2E/DX2                !
 ! A43   A(10,11,17)           110.6911         estimate D2E/DX2                !
 ! A44   A(10,11,18)           112.6698         estimate D2E/DX2                !
 ! A45   A(17,11,18)           107.3953         estimate D2E/DX2                !
 ! A46   A(26,12,27)           124.5873         estimate D2E/DX2                !
 ! A47   A(26,12,28)           127.9833         estimate D2E/DX2                !
 ! A48   A(27,12,28)           107.4223         estimate D2E/DX2                !
 ! A49   A(27,13,29)           123.4579         estimate D2E/DX2                !
 ! A50   A(27,13,30)           122.7009         estimate D2E/DX2                !
 ! A51   A(29,13,30)           106.3222         estimate D2E/DX2                !
 ! A52   A(8,25,34)            110.2887         estimate D2E/DX2                !
 ! A53   A(8,25,35)            112.3336         estimate D2E/DX2                !
 ! A54   A(8,25,36)            109.646          estimate D2E/DX2                !
 ! A55   A(34,25,35)           108.1332         estimate D2E/DX2                !
 ! A56   A(34,25,36)           107.9115         estimate D2E/DX2                !
 ! A57   A(35,25,36)           108.4043         estimate D2E/DX2                !
 ! A58   A(29,31,32)           125.4919         estimate D2E/DX2                !
 ! A59   A(29,31,33)           123.6865         estimate D2E/DX2                !
 ! A60   A(32,31,33)           105.9212         estimate D2E/DX2                !
 ! A61   A(31,33,37)           164.1466         estimate D2E/DX2                !
 ! A62   A(33,37,38)           132.11           estimate D2E/DX2                !
 ! A63   A(33,37,39)           121.7104         estimate D2E/DX2                !
 ! A64   A(38,37,39)           102.5997         estimate D2E/DX2                !
 ! A65   L(4,26,12,36,-1)      181.0431         estimate D2E/DX2                !
 ! A66   L(12,27,13,25,-1)     177.0068         estimate D2E/DX2                !
 ! A67   L(13,29,31,22,-1)     178.4338         estimate D2E/DX2                !
 ! A68   L(4,26,12,36,-2)      178.098          estimate D2E/DX2                !
 ! A69   L(12,27,13,25,-2)     177.3562         estimate D2E/DX2                !
 ! A70   L(13,29,31,22,-2)     180.4296         estimate D2E/DX2                !
 ! D1    D(6,1,2,3)             -0.5526         estimate D2E/DX2                !
 ! D2    D(6,1,2,7)            177.7341         estimate D2E/DX2                !
 ! D3    D(24,1,2,3)           179.3607         estimate D2E/DX2                !
 ! D4    D(24,1,2,7)            -2.3525         estimate D2E/DX2                !
 ! D5    D(2,1,6,5)              0.3457         estimate D2E/DX2                !
 ! D6    D(2,1,6,23)          -179.9472         estimate D2E/DX2                !
 ! D7    D(24,1,6,5)          -179.5676         estimate D2E/DX2                !
 ! D8    D(24,1,6,23)            0.1396         estimate D2E/DX2                !
 ! D9    D(1,2,3,4)              0.4103         estimate D2E/DX2                !
 ! D10   D(1,2,3,21)          -179.1574         estimate D2E/DX2                !
 ! D11   D(7,2,3,4)           -177.8971         estimate D2E/DX2                !
 ! D12   D(7,2,3,21)             2.5352         estimate D2E/DX2                !
 ! D13   D(1,2,7,8)            161.0847         estimate D2E/DX2                !
 ! D14   D(1,2,7,11)           -80.6814         estimate D2E/DX2                !
 ! D15   D(1,2,7,20)            39.2235         estimate D2E/DX2                !
 ! D16   D(3,2,7,8)            -20.6859         estimate D2E/DX2                !
 ! D17   D(3,2,7,11)            97.548          estimate D2E/DX2                !
 ! D18   D(3,2,7,20)          -142.5471         estimate D2E/DX2                !
 ! D19   D(2,3,4,5)             -0.0567         estimate D2E/DX2                !
 ! D20   D(2,3,4,26)          -179.8107         estimate D2E/DX2                !
 ! D21   D(21,3,4,5)           179.5277         estimate D2E/DX2                !
 ! D22   D(21,3,4,26)           -0.2263         estimate D2E/DX2                !
 ! D23   D(3,4,5,6)             -0.167          estimate D2E/DX2                !
 ! D24   D(3,4,5,22)          -179.8889         estimate D2E/DX2                !
 ! D25   D(26,4,5,6)           179.5878         estimate D2E/DX2                !
 ! D26   D(26,4,5,22)           -0.1341         estimate D2E/DX2                !
 ! D27   D(3,4,12,27)           92.4231         estimate D2E/DX2                !
 ! D28   D(3,4,12,28)          -87.4203         estimate D2E/DX2                !
 ! D29   D(5,4,12,27)          -86.5895         estimate D2E/DX2                !
 ! D30   D(5,4,12,28)           93.5672         estimate D2E/DX2                !
 ! D31   D(4,5,6,1)              0.0199         estimate D2E/DX2                !
 ! D32   D(4,5,6,23)          -179.6921         estimate D2E/DX2                !
 ! D33   D(22,5,6,1)           179.7199         estimate D2E/DX2                !
 ! D34   D(22,5,6,23)            0.008          estimate D2E/DX2                !
 ! D35   D(2,7,8,9)            146.4259         estimate D2E/DX2                !
 ! D36   D(2,7,8,25)           -85.4125         estimate D2E/DX2                !
 ! D37   D(11,7,8,9)            23.9521         estimate D2E/DX2                !
 ! D38   D(11,7,8,25)          152.1137         estimate D2E/DX2                !
 ! D39   D(20,7,8,9)           -94.1493         estimate D2E/DX2                !
 ! D40   D(20,7,8,25)           34.0123         estimate D2E/DX2                !
 ! D41   D(2,7,11,10)         -119.8813         estimate D2E/DX2                !
 ! D42   D(2,7,11,17)          121.6585         estimate D2E/DX2                !
 ! D43   D(2,7,11,18)            2.5439         estimate D2E/DX2                !
 ! D44   D(8,7,11,10)            1.8437         estimate D2E/DX2                !
 ! D45   D(8,7,11,17)         -116.6164         estimate D2E/DX2                !
 ! D46   D(8,7,11,18)          124.269          estimate D2E/DX2                !
 ! D47   D(20,7,11,10)         121.3792         estimate D2E/DX2                !
 ! D48   D(20,7,11,17)           2.9191         estimate D2E/DX2                !
 ! D49   D(20,7,11,18)        -116.1955         estimate D2E/DX2                !
 ! D50   D(7,8,9,10)           -40.4958         estimate D2E/DX2                !
 ! D51   D(7,8,9,14)          -161.9854         estimate D2E/DX2                !
 ! D52   D(7,8,9,19)            78.0619         estimate D2E/DX2                !
 ! D53   D(25,8,9,10)         -168.3435         estimate D2E/DX2                !
 ! D54   D(25,8,9,14)           70.167          estimate D2E/DX2                !
 ! D55   D(25,8,9,19)          -49.7858         estimate D2E/DX2                !
 ! D56   D(7,8,25,34)           59.0766         estimate D2E/DX2                !
 ! D57   D(7,8,25,35)          -61.6268         estimate D2E/DX2                !
 ! D58   D(7,8,25,36)          177.7707         estimate D2E/DX2                !
 ! D59   D(9,8,25,34)         -176.5037         estimate D2E/DX2                !
 ! D60   D(9,8,25,35)           62.7928         estimate D2E/DX2                !
 ! D61   D(9,8,25,36)          -57.8096         estimate D2E/DX2                !
 ! D62   D(8,9,10,11)           39.9285         estimate D2E/DX2                !
 ! D63   D(8,9,10,15)          161.2045         estimate D2E/DX2                !
 ! D64   D(8,9,10,16)          -77.9585         estimate D2E/DX2                !
 ! D65   D(14,9,10,11)         158.9672         estimate D2E/DX2                !
 ! D66   D(14,9,10,15)         -79.7568         estimate D2E/DX2                !
 ! D67   D(14,9,10,16)          41.0803         estimate D2E/DX2                !
 ! D68   D(19,9,10,11)         -79.2895         estimate D2E/DX2                !
 ! D69   D(19,9,10,15)          41.9866         estimate D2E/DX2                !
 ! D70   D(19,9,10,16)         162.8236         estimate D2E/DX2                !
 ! D71   D(9,10,11,7)          -25.3145         estimate D2E/DX2                !
 ! D72   D(9,10,11,17)          92.1859         estimate D2E/DX2                !
 ! D73   D(9,10,11,18)        -147.5431         estimate D2E/DX2                !
 ! D74   D(15,10,11,7)        -146.9787         estimate D2E/DX2                !
 ! D75   D(15,10,11,17)        -29.4782         estimate D2E/DX2                !
 ! D76   D(15,10,11,18)         90.7928         estimate D2E/DX2                !
 ! D77   D(16,10,11,7)          91.8649         estimate D2E/DX2                !
 ! D78   D(16,10,11,17)       -150.6347         estimate D2E/DX2                !
 ! D79   D(16,10,11,18)        -30.3636         estimate D2E/DX2                !
 ! D80   D(26,12,13,29)        110.8113         estimate D2E/DX2                !
 ! D81   D(26,12,13,30)       -101.8152         estimate D2E/DX2                !
 ! D82   D(28,12,13,29)        -70.0356         estimate D2E/DX2                !
 ! D83   D(28,12,13,30)         77.3379         estimate D2E/DX2                !
 ! D84   D(27,13,31,32)         79.6043         estimate D2E/DX2                !
 ! D85   D(27,13,31,33)       -128.0463         estimate D2E/DX2                !
 ! D86   D(30,13,31,32)        -71.3086         estimate D2E/DX2                !
 ! D87   D(30,13,31,33)         81.0408         estimate D2E/DX2                !
 ! D88   D(29,31,33,37)       -156.7748         estimate D2E/DX2                !
 ! D89   D(32,31,33,37)         -0.4651         estimate D2E/DX2                !
 ! D90   D(31,33,37,38)        101.1801         estimate D2E/DX2                !
 ! D91   D(31,33,37,39)       -104.1151         estimate D2E/DX2                !
 ! D92   D(33,37,38,39)        158.1322         estimate D2E/DX2                !
 --------------------------------------------------------------------------------
 Trust Radius=3.00D-01 FncErr=1.00D-07 GrdErr=1.00D-06 EigMax=2.50D+02 EigMin=1.00D-04
 Number of steps in this run=    212 maximum allowed number of steps=    234.
 GradGradGradGradGradGradGradGradGradGradGradGradGradGradGradGradGradGrad

                          Input orientation:                          
 ---------------------------------------------------------------------
 Center     Atomic      Atomic             Coordinates (Angstroms)
 Number     Number       Type             X           Y           Z
 ---------------------------------------------------------------------
      1          6           0       -1.260918    2.236382   -0.699465
      2          6           0       -1.400772    0.898962   -0.314999
      3          6           0       -0.293021    0.276907    0.242892
      4          7           0        0.857715    0.947147    0.408586
      5          6           0        1.008065    2.231439    0.052799
      6          6           0       -0.055547    2.910807   -0.513855
      7          6           0       -2.714008    0.158191   -0.459220
      8          7           0       -2.518408   -1.285678   -0.422572
      9          6           0       -3.690711   -1.870138    0.223692
     10          6           0       -3.971055   -0.893692    1.357313
     11          6           0       -3.708613    0.470931    0.698716
     12          8           0        2.963221   -0.288786    1.442330
     13          8           0        4.772949   -1.467731   -0.089550
     14          1           0       -3.466565   -2.888417    0.563917
     15          1           0       -4.988988   -0.977743    1.751612
     16          1           0       -3.269009   -1.069912    2.182086
     17          1           0       -4.633763    0.883124    0.279925
     18          1           0       -3.309888    1.210054    1.402815
     19          1           0       -4.554451   -1.922775   -0.469187
     20          1           0       -3.164008    0.477760   -1.419337
     21          1           0       -0.319991   -0.764813    0.553883
     22          1           0        1.985055    2.673544    0.231439
     23          1           0        0.063061    3.950783   -0.808576
     24          1           0       -2.106400    2.756511   -1.151480
     25          6           0       -2.183481   -1.869696   -1.707668
     26          1           0        1.680867    0.444028    0.832646
     27          1           0        3.658882   -0.740205    0.905916
     28          1           0        3.201059   -0.391242    2.365648
     29          1           0        5.683529   -1.137712   -0.209906
     30          1           0        4.811383   -2.417915   -0.217454
     31          8           0        7.321503   -0.492046   -0.439239
     32          1           0        8.059139   -0.615077    0.164019
     33          1           0        7.711216   -0.321200   -1.300711
     34          1           0       -1.259476   -1.422992   -2.099961
     35          1           0       -2.983824   -1.721530   -2.458691
     36          1           0       -2.013993   -2.946610   -1.590254
     37          8           0        8.863407   -0.049833   -2.657633
     38          1           0        9.176182   -0.629391   -3.373566
     39          1           0        9.032269    0.839474   -3.015290
 ---------------------------------------------------------------------
                    Distance matrix (angstroms):
                    1          2          3          4          5
     1  C    0.000000
     2  C    1.398594   0.000000
     3  C    2.380001   1.387554   0.000000
     4  N    2.716341   2.372058   1.341965   0.000000
     5  C    2.390441   2.777277   2.355665   1.341117   0.000000
     6  C    1.393635   2.428311   2.750725   2.353913   1.383441
     7  C    2.547168   1.514639   2.523536   3.759354   4.291194
     8  N    3.750048   2.456285   2.799440   4.132135   5.003209
     9  C    4.860002   3.633445   4.019262   5.353453   6.239442
    10  C    4.623045   3.551984   4.017483   5.254121   6.021614
    11  C    3.326100   2.556748   3.451332   4.600251   5.075790
    12  O    5.367225   4.852153   3.515931   2.651285   3.479219
    13  O    7.106335   6.615655   5.368271   4.626968   5.280007
    14  H    5.720540   4.402753   4.493742   5.782307   6.818833
    15  H    5.498807   4.546229   5.089449   6.300227   7.010668
    16  H    4.823624   3.688117   3.798802   4.923787   5.807421
    17  H    3.763854   3.287311   4.383025   5.493358   5.805150
    18  H    3.109857   2.586965   3.364175   4.292613   4.637940
    19  H    5.310271   4.234580   4.848241   6.188576   6.962151
    20  H    2.689371   2.122728   3.323539   4.442509   4.759072
    21  H    3.385764   2.165916   1.087485   2.083005   3.315470
    22  H    3.405001   3.861549   3.306604   2.069474   1.087142
    23  H    2.168870   3.420532   3.837935   3.336883   2.142695
    24  H    1.090730   2.155945   3.373582   3.807044   3.380219
    25  C    4.327525   3.196502   3.462142   4.654246   5.486758
    26  H    3.770145   3.319722   2.066875   1.053819   2.062926
    27  H    5.970071   5.456886   4.134205   3.307723   4.072506
    28  H    6.017355   5.479721   4.142597   3.333562   4.127584
    29  H    7.736247   7.372002   6.158354   5.293170   5.768896
    30  H    7.666006   7.042873   5.790417   5.229442   6.012883
    31  O    9.009439   8.833370   7.683591   6.676125   6.893401
    32  H    9.784676   9.592272   8.400026   7.372982   7.604779
    33  H    9.348899   9.246013   8.173632   7.176411   7.299328
    34  H    3.918215   2.932154   3.051664   4.048810   4.809468
    35  H    4.661368   3.737439   4.304965   5.486396   6.153757
    36  H    5.312630   4.097650   4.088182   5.234827   6.216482
    37  O   10.562346  10.570786   9.610410   8.630572   8.617253
    38  H   11.148835  11.115874  10.176736   9.272920   9.308193
    39  H   10.642561  10.776987   9.894103   8.863287   8.702792
                    6          7          8          9         10
     6  C    0.000000
     7  C    3.827178   0.000000
     8  N    4.866673   1.457518   0.000000
     9  C    6.051101   2.352538   1.460666   0.000000
    10  C    5.771194   2.446716   2.330628   1.522214   0.000000
    11  C    4.557216   1.558160   2.399906   2.388843   1.537798
    12  O    4.814251   6.003883   5.875365   6.946982   6.961129
    13  O    6.531922   7.670385   7.301228   8.479009   8.881472
    14  H    6.813783   3.300753   2.107352   1.096762   2.205202
    15  H    6.677724   3.369519   3.305399   2.194637   1.094862
    16  H    5.782781   2.965259   2.719228   2.157198   1.097348
    17  H    5.069679   2.181129   3.109973   2.910835   2.181060
    18  H    4.142091   2.220059   3.191733   3.320081   2.205665
    19  H    6.603457   2.778084   2.133902   1.108557   2.176112
    20  H    4.049956   1.107452   2.126042   2.913689   3.200311
    21  H    3.836688   2.758556   2.461260   3.562657   3.740639
    22  H    2.185363   5.374496   6.031944   7.270449   7.033350
    23  H    1.087418   4.713588   5.850941   7.002821   6.665891
    24  H    2.153223   2.756751   4.127996   5.080061   4.805722
    25  C    5.367169   2.439756   1.450767   2.449876   3.679961
    26  H    3.303513   4.589722   4.711833   5.880480   5.831723
    27  H    5.398391   6.579091   6.342029   7.467175   7.644819
    28  H    5.458988   6.577976   6.425456   7.366926   7.260056
    29  H    7.029928   8.500597   8.206028   9.412801   9.784003
    30  H    7.222890   7.957781   7.419560   8.531135   9.051760
    31  O    8.124398  10.056574   9.871878  11.117890  11.441625
    32  H    8.873528  10.818829  10.615003  11.816840  12.092442
    33  H    8.449119  10.470111  10.312447  11.607194  11.994511
    34  H    4.769381   2.703301   2.101761   3.392670   4.425558
    35  H    5.815130   2.757542   2.133626   2.777940   4.027633
    36  H    6.269249   3.377728   2.092035   2.694545   4.090564
    37  O    9.638927  11.786129  11.664842  13.008514  13.474246
    38  H   10.292510  12.267449  12.079011  13.417774  13.975010
    39  H    9.650699  12.040460  12.027327  13.405492  13.827869
                   11         12         13         14         15
    11  C    0.000000
    12  O    6.755997   0.000000
    13  O    8.735941   2.647958   0.000000
    14  H    3.370753   6.990840   8.386594   0.000000
    15  H    2.201501   7.987988   9.946124   2.716444   0.000000
    16  H    2.183537   6.324404   8.366103   2.442224   1.775424
    17  H    1.095989   7.774235   9.703054   3.958222   2.398932
    18  H    1.095920   6.449805   8.644648   4.186378   2.779837
    19  H    2.794507   7.927119   9.346207   1.784170   2.452316
    20  H    2.186959   6.805855   8.279405   3.918671   3.937507
    21  H    3.609820   3.434446   5.181326   3.796146   4.824876
    22  H    6.122721   3.346411   5.002554   7.795262   8.017487
    23  H    5.348535   5.608159   7.215285   7.817714   7.507871
    24  H    3.348759   6.457766   8.142319   6.054572   5.539125
    25  C    3.687173   6.237813   7.153447   2.800749   4.542364
    26  H    5.391211   1.597862   3.750499   6.137871   6.881344
    27  H    7.469255   0.987655   1.661744   7.450085   8.692369
    28  H    7.159998   0.958947   3.107678   7.344340   8.233948
    29  H    9.572129   3.294030   0.975989   9.348154  10.852454
    30  H    9.042960   3.271663   0.959524   8.328045  10.099435
    31  O   11.130396   4.751446   2.751249  11.096456  12.513350
    32  H   11.829848   5.263927   3.404462  11.754567  13.149357
    33  H   11.620571   5.483501   3.378588  11.619390  13.078337
    34  H    4.173465   5.627203   6.358766   3.756988   5.379788
    35  H    3.911703   7.255209   8.114479   3.275794   4.722346
    36  H    4.448675   6.405720   7.106460   2.598808   4.888262
    37  O   13.022748   7.188810   5.033620  13.056192  14.566788
    38  H   13.557733   7.868275   5.556621  13.433020  15.067874
    39  H   13.276285   7.614243   5.659060  13.525116  14.920499
                   16         17         18         19         20
    16  H    0.000000
    17  H    3.048790   0.000000
    18  H    2.409809   1.766468   0.000000
    19  H    3.067407   2.905259   3.855898   0.000000
    20  H    3.921296   2.282979   2.919260   2.932351   0.000000
    21  H    3.382431   4.625946   3.682427   4.507571   3.677773
    22  H    6.739709   6.856873   5.616969   8.023850   5.836041
    23  H    6.727119   5.714501   4.876334   7.478990   4.780051
    24  H    5.206326   3.456308   3.219369   5.324866   2.526458
    25  C    4.116821   4.187174   4.519818   2.675472   2.560296
    26  H    5.349231   6.353964   5.081292   6.795272   5.342788
    27  H    7.052162   8.473194   7.253563   8.411196   7.310408
    28  H    6.508154   8.207234   6.773745   8.398203   7.456229
    29  H    9.266831  10.524744   9.433686  10.271309   9.074766
    30  H    8.536254  10.017736   9.041154   9.382291   8.569499
    31  O   10.925393  12.055566  10.923222  11.961863  10.575777
    32  H   11.515486  12.781541  11.581040  12.696995  11.386849
    33  H   11.543647  12.503892  11.450700  12.397704  10.905178
    34  H    4.743292   4.729465   4.838033   3.710265   2.775491
    35  H    4.694970   4.123898   4.859190   2.542734   2.439180
    36  H    4.396318   5.002762   5.283527   2.959553   3.616360
    37  O   13.101869  13.844611  12.894327  13.723561  12.102498
    38  H   13.636059  14.364897  13.494418  14.093918  12.542929
    39  H   13.489993  14.057766  13.114337  14.096511  12.305571
                   21         22         23         24         25
    21  H    0.000000
    22  H    4.152048   0.000000
    23  H    4.923400   2.531211   0.000000
    24  H    4.301075   4.319647   2.500086   0.000000
    25  C    3.131769   6.463579   6.303435   4.660159   0.000000
    26  H    2.354238   2.329103   4.196217   4.860836   5.171044
    27  H    3.994492   3.861386   6.154249   7.049708   6.499214
    28  H    3.977416   3.927649   6.227031   7.102652   6.911657
    29  H    6.063388   5.329087   7.605317   8.759825   8.041700
    30  H    5.445981   5.840598   7.965946   8.689235   7.172824
    31  O    7.710585   6.240869   8.518223   9.997288   9.687701
    32  H    8.389531   6.907537   9.259065  10.790567  10.487542
    33  H    8.254490   6.641152   8.774184  10.289808  10.023397
    34  H    2.891145   5.722239   5.682802   4.368654   1.098737
    35  H    4.133632   7.158438   6.646918   4.746738   1.107492
    36  H    3.496742   7.134219   7.245633   5.720721   1.096474
    37  O    9.754990   7.941993   9.842258  11.422816  11.236017
    38  H   10.277183   8.695847  10.516945  11.987437  11.547966
    39  H   10.137924   7.972973   9.746616  11.455076  11.612172
                   26         27         28         29         30
    26  H    0.000000
    27  H    2.306582   0.000000
    28  H    2.314898   1.569138   0.000000
    29  H    4.428331   2.345691   3.654224   0.000000
    30  H    4.369618   2.324850   3.656906   1.549069   0.000000
    31  O    5.857534   3.909708   4.985540   1.775510   3.171571
    32  H    6.500086   4.464116   5.338372   2.460994   3.734122
    33  H    6.442196   4.633161   5.812797   2.442962   3.738809
    34  H    4.553193   5.804459   6.395510   7.201320   6.433431
    35  H    6.105889   7.510601   7.955922   8.973343   8.140844
    36  H    5.569458   6.578799   7.026794   8.026787   6.982110
    37  O    8.000927   6.345280   7.577077   4.157700   5.289724
    38  H    8.661651   6.983326   8.288389   4.739806   5.675503
    39  H    8.306991   6.836997   8.029456   4.795154   6.021159
                   31         32         33         34         35
    31  O    0.000000
    32  H    0.960814   0.000000
    33  H    0.960832   1.533900   0.000000
    34  H    8.789645   9.623664   9.073371   0.000000
    35  H   10.573059  11.403941  10.848305   1.786390   0.000000
    36  H    9.721173  10.487207  10.077515   1.774967   1.787617
    37  O    2.737570   2.987987   1.800672  10.230803  11.966246
    38  H    3.474043   3.709784   2.556919  10.542999  12.243182
    39  H    3.366854   3.629147   2.456039  10.577173  12.298579
                   36         37         38         39
    36  H    0.000000
    37  O   11.307009   0.000000
    38  H   11.565886   0.972767   0.000000
    39  H   11.763718   0.973294   1.518762   0.000000
 Stoichiometry    C10H23N2O4(1+)
 Framework group  C1[X(C10H23N2O4)]
 Deg. of freedom   111
 Full point group                 C1      NOp   1
 Largest Abelian subgroup         C1      NOp   1
 Largest concise Abelian subgroup C1      NOp   1
                         Standard orientation:                         
 ---------------------------------------------------------------------
 Center     Atomic      Atomic             Coordinates (Angstroms)
 Number     Number       Type             X           Y           Z
 ---------------------------------------------------------------------
      1          6           0        1.887179    2.233920    0.707622
      2          6           0        2.067994    0.897545    0.336847
      3          6           0        1.029040    0.278602   -0.343440
      4          7           0       -0.095371    0.950766   -0.634586
      5          6           0       -0.283455    2.234116   -0.293656
      6          6           0        0.710707    2.910398    0.390590
      7          6           0        3.356225    0.154719    0.624595
      8          7           0        3.164703   -1.288788    0.561597
      9          6           0        4.401417   -1.872646    0.048572
     10          6           0        4.807612   -0.892985   -1.043401
     11          6           0        4.474347    0.469881   -0.413835
     12          8           0       -2.073140   -0.279336   -1.901311
     13          8           0       -4.043836   -1.460877   -0.585257
     14          1           0        4.215843   -2.889576   -0.317902
     15          1           0        5.863180   -0.977040   -1.321672
     16          1           0        4.202047   -1.065752   -1.942075
     17          1           0        5.347219    0.879624    0.107123
     18          1           0        4.157497    1.211701   -1.155690
     19          1           0        5.182213   -1.928517    0.833515
     20          1           0        3.696314    0.470717    1.630047
     21          1           0        1.089717   -0.762168   -0.652860
     22          1           0       -1.233958    2.677975   -0.578982
     23          1           0        0.560784    3.949587    0.673589
     24          1           0        2.677261    2.751591    1.253039
     25          6           0        2.687668   -1.876433    1.799270
     26          1           0       -0.866374    0.449989   -1.149670
     27          1           0       -2.824811   -0.731588   -1.447526
     28          1           0       -2.206325   -0.378598   -2.845763
     29          1           0       -4.961879   -1.130125   -0.566402
     30          1           0       -4.097153   -2.411411   -0.465552
     31          8           0       -6.614666   -0.483181   -0.519564
     32          1           0       -7.280322   -0.603412   -1.201920
     33          1           0       -7.098121   -0.314567    0.293480
     34          1           0        1.725976   -1.429835    2.087234
     35          1           0        3.399136   -1.731607    2.635557
     36          1           0        2.531443   -2.952764    1.660129
     37          8           0       -8.394588   -0.046059    1.513929
     38          1           0       -8.785960   -0.627482    2.188504
     39          1           0       -8.601617    0.842325    1.853359
 ---------------------------------------------------------------------
 Rotational constants (GHZ):           0.7126766           0.1227203           0.1159320
 Standard basis: Aug-CC-pVDZ (5D, 7F)
 There are   607 symmetry adapted cartesian basis functions of A   symmetry.
 There are   575 symmetry adapted basis functions of A   symmetry.
   575 basis functions,   941 primitive gaussians,   607 cartesian basis functions
    64 alpha electrons       64 beta electrons
       nuclear repulsion energy      1096.6789385697 Hartrees.
 NAtoms=   39 NActive=   39 NUniq=   39 SFac= 1.00D+00 NAtFMM=   60 NAOKFM=F Big=F
 Integral buffers will be    131072 words long.
 Raffenetti 2 integral format.
 Two-electron integral symmetry is turned on.
 Nuclear repulsion after empirical dispersion term =     1096.6553899116 Hartrees.
 One-electron integrals computed using PRISM.
 NBasis=   575 RedAO= T EigKep=  2.46D-06  NBF=   575
 NBsUse=   575 1.00D-06 EigRej= -1.00D+00 NBFU=   575
 ExpMin= 2.97D-02 ExpMax= 1.17D+04 ExpMxC= 4.01D+02 IAcc=3 IRadAn=         5 AccDes= 0.00D+00
 Harris functional with IExCor= 4639 and IRadAn=       5 diagonalized for initial guess.
 HarFok:  IExCor= 4639 AccDes= 0.00D+00 IRadAn=         5 IDoV= 1 UseB2=F ITyADJ=14
 ICtDFT=  3500011 ScaDFX=  1.000000  1.000000  1.000000  1.000000
 FoFCou: FMM=F IPFlag=           0 FMFlag=      100000 FMFlg1=           0
         NFxFlg=           0 DoJE=T BraDBF=F KetDBF=T FulRan=T
         wScrn=  0.000000 ICntrl=       500 IOpCl=  0 I1Cent=   200000004 NGrid=           0
         NMat0=    1 NMatS0=      1 NMatT0=    0 NMatD0=    1 NMtDS0=    0 NMtDT0=    0
 Petite list used in FoFCou.
 Requested convergence on RMS density matrix=1.00D-08 within 128 cycles.
 Requested convergence on MAX density matrix=1.00D-06.
 Requested convergence on             energy=1.00D-06.
 No special actions if energy rises.
 SCF Done:  E(RwB97XD) =  -805.021394175     A.U. after   14 cycles
            NFock= 14  Conv=0.66D-08     -V/T= 2.0063

 **********************************************************************

            Population analysis using the SCF density.

 **********************************************************************

 Orbital symmetries:
       Occupied  (A) (A) (A) (A) (A) (A) (A) (A) (A) (A) (A) (A)
                 (A) (A) (A) (A) (A) (A) (A) (A) (A) (A) (A) (A)
                 (A) (A) (A) (A) (A) (A) (A) (A) (A) (A) (A) (A)
                 (A) (A) (A) (A) (A) (A) (A) (A) (A) (A) (A) (A)
                 (A) (A) (A) (A) (A) (A) (A) (A) (A) (A) (A) (A)
                 (A) (A) (A) (A)
       Virtual   (A) (A) (A) (A) (A) (A) (A) (A) (A) (A) (A) (A)
                 (A) (A) (A) (A) (A) (A) (A) (A) (A) (A) (A) (A)
                 (A) (A) (A) (A) (A) (A) (A) (A) (A) (A) (A) (A)
                 (A) (A) (A) (A) (A) (A) (A) (A) (A) (A) (A) (A)
                 (A) (A) (A) (A) (A) (A) (A) (A) (A) (A) (A) (A)
                 (A) (A) (A) (A) (A) (A) (A) (A) (A) (A) (A) (A)
                 (A) (A) (A) (A) (A) (A) (A) (A) (A) (A) (A) (A)
                 (A) (A) (A) (A) (A) (A) (A) (A) (A) (A) (A) (A)
                 (A) (A) (A) (A) (A) (A) (A) (A) (A) (A) (A) (A)
                 (A) (A) (A) (A) (A) (A) (A) (A) (A) (A) (A) (A)
                 (A) (A) (A) (A) (A) (A) (A) (A) (A) (A) (A) (A)
                 (A) (A) (A) (A) (A) (A) (A) (A) (A) (A) (A) (A)
                 (A) (A) (A) (A) (A) (A) (A) (A) (A) (A) (A) (A)
                 (A) (A) (A) (A) (A) (A) (A) (A) (A) (A) (A) (A)
                 (A) (A) (A) (A) (A) (A) (A) (A) (A) (A) (A) (A)
                 (A) (A) (A) (A) (A) (A) (A) (A) (A) (A) (A) (A)
                 (A) (A) (A) (A) (A) (A) (A) (A) (A) (A) (A) (A)
                 (A) (A) (A) (A) (A) (A) (A) (A) (A) (A) (A) (A)
                 (A) (A) (A) (A) (A) (A) (A) (A) (A) (A) (A) (A)
                 (A) (A) (A) (A) (A) (A) (A) (A) (A) (A) (A) (A)
                 (A) (A) (A) (A) (A) (A) (A) (A) (A) (A) (A) (A)
                 (A) (A) (A) (A) (A) (A) (A) (A) (A) (A) (A) (A)
                 (A) (A) (A) (A) (A) (A) (A) (A) (A) (A) (A) (A)
                 (A) (A) (A) (A) (A) (A) (A) (A) (A) (A) (A) (A)
                 (A) (A) (A) (A) (A) (A) (A) (A) (A) (A) (A) (A)
                 (A) (A) (A) (A) (A) (A) (A) (A) (A) (A) (A) (A)
                 (A) (A) (A) (A) (A) (A) (A) (A) (A) (A) (A) (A)
                 (A) (A) (A) (A) (A) (A) (A) (A) (A) (A) (A) (A)
                 (A) (A) (A) (A) (A) (A) (A) (A) (A) (A) (A) (A)
                 (A) (A) (A) (A) (A) (A) (A) (A) (A) (A) (A) (A)
                 (A) (A) (A) (A) (A) (A) (A) (A) (A) (A) (A) (A)
                 (A) (A) (A) (A) (A) (A) (A) (A) (A) (A) (A) (A)
                 (A) (A) (A) (A) (A) (A) (A) (A) (A) (A) (A) (A)
                 (A) (A) (A) (A) (A) (A) (A) (A) (A) (A) (A) (A)
                 (A) (A) (A) (A) (A) (A) (A) (A) (A) (A) (A) (A)
                 (A) (A) (A) (A) (A) (A) (A) (A) (A) (A) (A) (A)
                 (A) (A) (A) (A) (A) (A) (A) (A) (A) (A) (A) (A)
                 (A) (A) (A) (A) (A) (A) (A) (A) (A) (A) (A) (A)
                 (A) (A) (A) (A) (A) (A) (A) (A) (A) (A) (A) (A)
                 (A) (A) (A) (A) (A) (A) (A) (A) (A) (A) (A) (A)
                 (A) (A) (A) (A) (A) (A) (A) (A) (A) (A) (A) (A)
                 (A) (A) (A) (A) (A) (A) (A) (A) (A) (A) (A) (A)
                 (A) (A) (A) (A) (A) (A) (A)
 The electronic state is 1-A.
 Alpha  occ. eigenvalues --  -19.38769 -19.38332 -19.36686 -19.35775 -14.66567
 Alpha  occ. eigenvalues --  -14.54618 -10.50054 -10.49291 -10.46734 -10.45984
 Alpha  occ. eigenvalues --  -10.45897 -10.44635 -10.41083 -10.41057 -10.40081
 Alpha  occ. eigenvalues --  -10.38832  -1.24847  -1.22836  -1.22594  -1.21010
 Alpha  occ. eigenvalues --   -1.19834  -1.15041  -1.07134  -1.03424  -0.98772
 Alpha  occ. eigenvalues --   -0.94416  -0.89561  -0.88138  -0.86890  -0.81402
 Alpha  occ. eigenvalues --   -0.78098  -0.77170  -0.74118  -0.73336  -0.72646
 Alpha  occ. eigenvalues --   -0.72254  -0.72086  -0.71477  -0.69668  -0.68419
 Alpha  occ. eigenvalues --   -0.67948  -0.66591  -0.63463  -0.63105  -0.62532
 Alpha  occ. eigenvalues --   -0.61646  -0.61358  -0.60077  -0.59116  -0.57367
 Alpha  occ. eigenvalues --   -0.56442  -0.55741  -0.54775  -0.54636  -0.53878
 Alpha  occ. eigenvalues --   -0.52198  -0.51956  -0.51876  -0.51456  -0.50690
 Alpha  occ. eigenvalues --   -0.50225  -0.49291  -0.47929  -0.40575
 Alpha virt. eigenvalues --   -0.13094  -0.09537  -0.05860  -0.04727  -0.04298
 Alpha virt. eigenvalues --   -0.03836  -0.03363  -0.02807  -0.02384  -0.02084
 Alpha virt. eigenvalues --   -0.01859  -0.01126  -0.00981  -0.00781  -0.00256
 Alpha virt. eigenvalues --    0.00026   0.00393   0.00451   0.01197   0.01447
 Alpha virt. eigenvalues --    0.01863   0.02404   0.02772   0.03048   0.03313
 Alpha virt. eigenvalues --    0.03811   0.03858   0.04310   0.04652   0.04795
 Alpha virt. eigenvalues --    0.04935   0.05463   0.05826   0.05906   0.05971
 Alpha virt. eigenvalues --    0.06720   0.06911   0.07345   0.07505   0.07934
 Alpha virt. eigenvalues --    0.08314   0.08525   0.08636   0.08737   0.09194
 Alpha virt. eigenvalues --    0.09352   0.09699   0.10131   0.10363   0.10766
 Alpha virt. eigenvalues --    0.10968   0.11056   0.11631   0.11836   0.11969
 Alpha virt. eigenvalues --    0.12423   0.12455   0.12928   0.13096   0.13296
 Alpha virt. eigenvalues --    0.13503   0.13735   0.14076   0.14238   0.14815
 Alpha virt. eigenvalues --    0.15026   0.15295   0.15769   0.15963   0.16013
 Alpha virt. eigenvalues --    0.16289   0.16756   0.17084   0.17220   0.17408
 Alpha virt. eigenvalues --    0.17869   0.17977   0.18370   0.18785   0.18905
 Alpha virt. eigenvalues --    0.19494   0.19835   0.20080   0.20253   0.20678
 Alpha virt. eigenvalues --    0.20907   0.21448   0.21572   0.21655   0.21895
 Alpha virt. eigenvalues --    0.22340   0.22445   0.22745   0.23047   0.23550
 Alpha virt. eigenvalues --    0.23790   0.24073   0.24158   0.24520   0.25077
 Alpha virt. eigenvalues --    0.25131   0.25810   0.25932   0.26396   0.26842
 Alpha virt. eigenvalues --    0.27066   0.27467   0.27771   0.27890   0.28574
 Alpha virt. eigenvalues --    0.28987   0.29326   0.29602   0.29769   0.29963
 Alpha virt. eigenvalues --    0.30267   0.30874   0.31175   0.31426   0.31994
 Alpha virt. eigenvalues --    0.32280   0.33065   0.33304   0.33886   0.33988
 Alpha virt. eigenvalues --    0.34446   0.34946   0.35522   0.35762   0.36070
 Alpha virt. eigenvalues --    0.36221   0.36482   0.36654   0.37179   0.37848
 Alpha virt. eigenvalues --    0.38098   0.38388   0.39370   0.39661   0.39788
 Alpha virt. eigenvalues --    0.40198   0.40466   0.41665   0.42129   0.42668
 Alpha virt. eigenvalues --    0.42873   0.43016   0.43559   0.43729   0.44249
 Alpha virt. eigenvalues --    0.44534   0.44804   0.45022   0.45361   0.45895
 Alpha virt. eigenvalues --    0.46093   0.46220   0.46574   0.46799   0.47396
 Alpha virt. eigenvalues --    0.47454   0.47605   0.48803   0.49089   0.49439
 Alpha virt. eigenvalues --    0.49619   0.50138   0.50327   0.50666   0.51050
 Alpha virt. eigenvalues --    0.51258   0.51305   0.51838   0.52072   0.52320
 Alpha virt. eigenvalues --    0.52505   0.52627   0.53044   0.53865   0.54005
 Alpha virt. eigenvalues --    0.54396   0.54539   0.55014   0.55544   0.56279
 Alpha virt. eigenvalues --    0.56789   0.57155   0.57397   0.57598   0.58265
 Alpha virt. eigenvalues --    0.58632   0.58720   0.59157   0.59589   0.59866
 Alpha virt. eigenvalues --    0.60251   0.60919   0.61393   0.62656   0.62846
 Alpha virt. eigenvalues --    0.63174   0.63390   0.64167   0.64447   0.65099
 Alpha virt. eigenvalues --    0.65264   0.65447   0.65921   0.66304   0.66941
 Alpha virt. eigenvalues --    0.67489   0.67718   0.68149   0.68800   0.69128
 Alpha virt. eigenvalues --    0.69828   0.70361   0.70699   0.71219   0.71576
 Alpha virt. eigenvalues --    0.71862   0.72238   0.72523   0.73890   0.74082
 Alpha virt. eigenvalues --    0.74412   0.75086   0.75519   0.76271   0.76399
 Alpha virt. eigenvalues --    0.76518   0.77522   0.77726   0.78741   0.79001
 Alpha virt. eigenvalues --    0.79456   0.79748   0.80005   0.80700   0.80868
 Alpha virt. eigenvalues --    0.81344   0.81629   0.82471   0.82594   0.83069
 Alpha virt. eigenvalues --    0.85053   0.85608   0.86208   0.86340   0.87065
 Alpha virt. eigenvalues --    0.87504   0.88454   0.88698   0.89665   0.90285
 Alpha virt. eigenvalues --    0.91411   0.93037   0.93241   0.94156   0.95534
 Alpha virt. eigenvalues --    0.95945   0.96287   0.96765   0.97408   0.97686
 Alpha virt. eigenvalues --    0.98725   0.99132   0.99533   1.00677   1.01167
 Alpha virt. eigenvalues --    1.01962   1.02320   1.03098   1.03867   1.04292
 Alpha virt. eigenvalues --    1.04698   1.05706   1.06258   1.07574   1.08246
 Alpha virt. eigenvalues --    1.09336   1.10348   1.10547   1.11475   1.12343
 Alpha virt. eigenvalues --    1.13632   1.14105   1.15175   1.16170   1.16923
 Alpha virt. eigenvalues --    1.18169   1.18986   1.19225   1.19888   1.20617
 Alpha virt. eigenvalues --    1.21188   1.23423   1.23612   1.24710   1.24980
 Alpha virt. eigenvalues --    1.25626   1.27265   1.27684   1.28929   1.29307
 Alpha virt. eigenvalues --    1.30787   1.31479   1.32111   1.33534   1.33761
 Alpha virt. eigenvalues --    1.35020   1.35552   1.35710   1.36984   1.37597
 Alpha virt. eigenvalues --    1.38323   1.39332   1.40619   1.41050   1.41709
 Alpha virt. eigenvalues --    1.42232   1.43127   1.44563   1.45057   1.46167
 Alpha virt. eigenvalues --    1.46322   1.47905   1.48970   1.50445   1.51098
 Alpha virt. eigenvalues --    1.51563   1.53209   1.53778   1.54881   1.56626
 Alpha virt. eigenvalues --    1.57982   1.58486   1.59300   1.60930   1.61842
 Alpha virt. eigenvalues --    1.62088   1.63558   1.63985   1.64228   1.64477
 Alpha virt. eigenvalues --    1.65759   1.67068   1.68249   1.68831   1.69568
 Alpha virt. eigenvalues --    1.71032   1.71603   1.71917   1.72170   1.72839
 Alpha virt. eigenvalues --    1.73701   1.74213   1.75120   1.75410   1.76356
 Alpha virt. eigenvalues --    1.77304   1.78168   1.79006   1.80197   1.80733
 Alpha virt. eigenvalues --    1.81765   1.83093   1.83448   1.83891   1.84060
 Alpha virt. eigenvalues --    1.84539   1.85759   1.86905   1.87066   1.87919
 Alpha virt. eigenvalues --    1.88331   1.89113   1.89476   1.90538   1.90904
 Alpha virt. eigenvalues --    1.92125   1.93217   1.93693   1.95007   1.95145
 Alpha virt. eigenvalues --    1.95434   1.96673   1.97739   1.97978   1.98387
 Alpha virt. eigenvalues --    1.99249   2.00868   2.02668   2.03898   2.05489
 Alpha virt. eigenvalues --    2.05764   2.06476   2.07217   2.08518   2.09325
 Alpha virt. eigenvalues --    2.09910   2.10225   2.11506   2.12226   2.12633
 Alpha virt. eigenvalues --    2.13014   2.14816   2.16462   2.17135   2.17342
 Alpha virt. eigenvalues --    2.19316   2.19995   2.20592   2.21448   2.22496
 Alpha virt. eigenvalues --    2.23276   2.24010   2.24725   2.25144   2.26888
 Alpha virt. eigenvalues --    2.27601   2.28231   2.28691   2.30456   2.30862
 Alpha virt. eigenvalues --    2.32338   2.34101   2.35660   2.35938   2.36860
 Alpha virt. eigenvalues --    2.38220   2.40761   2.41418   2.42404   2.43692
 Alpha virt. eigenvalues --    2.44191   2.44899   2.47616   2.48852   2.49130
 Alpha virt. eigenvalues --    2.50167   2.50840   2.53875   2.54529   2.55290
 Alpha virt. eigenvalues --    2.56876   2.57197   2.57700   2.58159   2.58728
 Alpha virt. eigenvalues --    2.61240   2.63276   2.64248   2.65168   2.66470
 Alpha virt. eigenvalues --    2.66546   2.67911   2.68865   2.69663   2.71070
 Alpha virt. eigenvalues --    2.71950   2.73684   2.74182   2.75010   2.76281
 Alpha virt. eigenvalues --    2.77878   2.78867   2.80949   2.81505   2.82617
 Alpha virt. eigenvalues --    2.84271   2.84866   2.85230   2.86194   2.87797
 Alpha virt. eigenvalues --    2.89961   2.91050   2.97592   3.02845   3.04386
 Alpha virt. eigenvalues --    3.11330   3.15359   3.16676   3.21788   3.25532
 Alpha virt. eigenvalues --    3.29668   3.32801   3.33530   3.35475   3.35988
 Alpha virt. eigenvalues --    3.39735   3.41978   3.42913   3.45616   3.47892
 Alpha virt. eigenvalues --    3.49096   3.52011   3.53514   3.56477   3.62445
 Alpha virt. eigenvalues --    3.66594   3.76428   3.77425   3.81433   3.83521
 Alpha virt. eigenvalues --    3.89435   4.02662   4.06334   4.07797   4.19383
 Alpha virt. eigenvalues --    4.55023
          Condensed to atoms (all electrons):
               1          2          3          4          5          6
     1  C   21.786740  -9.928924  -1.930145   0.175085   1.664105  -4.121731
     2  C   -9.928924  20.336365  -2.727815  -0.037882  -1.883520   1.838119
     3  C   -1.930145  -2.727815  15.683359  -1.563713  -0.595477  -1.010724
     4  N    0.175085  -0.037882  -1.563713   7.781451   0.394295   0.040773
     5  C    1.664105  -1.883520  -0.595477   0.394295   9.791712  -2.671771
     6  C   -4.121731   1.838119  -1.010724   0.040773  -2.671771  11.827569
     7  C   -0.188671  -4.481850  -3.024406   0.707000  -0.195788  -0.429365
     8  N   -0.326961   0.861867   0.902862  -0.144684  -0.017091   0.014278
     9  C    0.092359  -0.203256  -0.306725   0.055463  -0.002960  -0.010412
    10  C   -0.258562   0.451242   0.128089  -0.069477  -0.024406   0.056642
    11  C   -0.442568   0.421316  -0.416093   0.057251  -0.220815   0.355515
    12  O    0.055616  -0.114081   0.069082  -0.178408   0.056314  -0.060712
    13  O   -0.000856   0.003244  -0.007428   0.001601   0.007972   0.001228
    14  H    0.011881  -0.203475  -0.055930   0.010684  -0.001122  -0.000572
    15  H    0.000045  -0.061191  -0.007372  -0.003812  -0.005513   0.008473
    16  H   -0.014571   0.151652   0.084801  -0.005697   0.014067  -0.010632
    17  H   -0.064861   0.247423   0.103855  -0.010053   0.014440  -0.020797
    18  H    0.149295  -0.535146  -0.105541   0.029409  -0.022528   0.037972
    19  H   -0.008943   0.209492   0.018100  -0.001107   0.002455   0.001652
    20  H   -0.062712   0.534338  -0.061607   0.006906  -0.040230   0.069875
    21  H   -0.109927  -0.266304  -0.964185   0.013561  -0.074125   0.062317
    22  H    0.017635   0.125535   0.194942  -0.053292  -0.857670   0.309468
    23  H    0.694349  -0.250448   0.016246  -0.032348   0.465221  -1.141412
    24  H   -2.249650   1.119630   0.255135  -0.093929  -0.203805   0.769334
    25  C   -0.089177  -0.040175   0.173012  -0.015334  -0.018599  -0.024216
    26  H    0.105454  -0.490484   0.467046  -0.073423  -0.271413  -0.215921
    27  H    0.009341  -0.008559   0.009243   0.002501  -0.005120  -0.004930
    28  H   -0.005282   0.008814  -0.001536   0.000603  -0.010835   0.011417
    29  H   -0.001482   0.001209   0.001005   0.000998  -0.001513   0.000325
    30  H   -0.000201   0.000468  -0.002463   0.000604   0.000532   0.000693
    31  O    0.000013   0.000074   0.000084   0.000145   0.000466   0.000162
    32  H    0.000005   0.000012  -0.000048   0.000047   0.000023  -0.000044
    33  H    0.000109  -0.000059   0.000143  -0.000167  -0.000095   0.000055
    34  H   -0.175439   0.201671  -0.085692  -0.004045  -0.044298   0.049683
    35  H    0.044202   0.012702   0.080591  -0.006585   0.005759  -0.006519
    36  H    0.031349  -0.019190  -0.033415   0.009122   0.005926  -0.008059
    37  O   -0.000001   0.000001  -0.000018  -0.000001   0.000012   0.000004
    38  H    0.000001  -0.000003   0.000002  -0.000000  -0.000001  -0.000003
    39  H   -0.000006   0.000005  -0.000006   0.000004   0.000001   0.000005
               7          8          9         10         11         12
     1  C   -0.188671  -0.326961   0.092359  -0.258562  -0.442568   0.055616
     2  C   -4.481850   0.861867  -0.203256   0.451242   0.421316  -0.114081
     3  C   -3.024406   0.902862  -0.306725   0.128089  -0.416093   0.069082
     4  N    0.707000  -0.144684   0.055463  -0.069477   0.057251  -0.178408
     5  C   -0.195788  -0.017091  -0.002960  -0.024406  -0.220815   0.056314
     6  C   -0.429365   0.014278  -0.010412   0.056642   0.355515  -0.060712
     7  C   18.004284  -2.644010   0.056962  -0.971257  -0.243112   0.000810
     8  N   -2.644010   9.390617   0.034076   0.079115  -0.397635   0.002572
     9  C    0.056962   0.034076   5.474139   0.244131  -0.029020   0.000311
    10  C   -0.971257   0.079115   0.244131   5.633589   0.042714  -0.000565
    11  C   -0.243112  -0.397635  -0.029020   0.042714   6.056159  -0.001177
    12  O    0.000810   0.002572   0.000311  -0.000565  -0.001177   7.989038
    13  O    0.000328   0.000083  -0.000007  -0.000018   0.000035  -0.046208
    14  H    0.495766  -0.651114   0.022857  -0.058728   0.072030   0.000022
    15  H    0.071093  -0.004421   0.075504  -0.217248   0.251680   0.000001
    16  H   -0.148602   0.073616  -0.061549  -0.104024  -0.033740  -0.000291
    17  H    0.276541   0.141777  -0.191749   0.101418  -0.674263  -0.000061
    18  H   -0.085338   0.019154   0.154534   0.166224  -0.102551   0.000356
    19  H   -0.408236   0.389844  -0.299328   0.006907  -0.039543  -0.000036
    20  H   -1.507945  -0.197478  -0.045671   0.103442   0.363903   0.000113
    21  H    0.684003  -0.400510   0.028034   0.031031   0.038502  -0.002423
    22  H    0.004892   0.003426  -0.000765   0.000372   0.005626  -0.002299
    23  H   -0.008292  -0.002400  -0.000809   0.000090  -0.014744  -0.001283
    24  H   -0.473710   0.056196  -0.018497   0.025896   0.061671   0.001061
    25  C   -0.329374   0.461583  -0.237432  -0.006135  -0.019922  -0.000446
    26  H   -0.093945   0.019279   0.003649   0.006300  -0.036621   0.021912
    27  H    0.000013   0.000598   0.000406   0.000157  -0.000235   0.317306
    28  H    0.001145  -0.000137  -0.000253  -0.000040   0.000846   0.364696
    29  H   -0.000201   0.000037  -0.000040  -0.000010   0.000017   0.003397
    30  H    0.000300  -0.000151   0.000021   0.000001   0.000012   0.000766
    31  O    0.000000   0.000001   0.000000   0.000000   0.000000   0.000366
    32  H   -0.000006   0.000000   0.000000   0.000000  -0.000000   0.000086
    33  H    0.000031  -0.000004   0.000000  -0.000000   0.000000   0.000065
    34  H    0.095791  -0.076566  -0.131244  -0.026550   0.061251   0.000305
    35  H   -0.110041   0.159015   0.057248   0.045025  -0.048555   0.000058
    36  H   -0.016491  -0.336229   0.075933   0.005715  -0.004066  -0.000142
    37  O   -0.000000   0.000000   0.000000   0.000000   0.000000   0.000002
    38  H   -0.000001   0.000000  -0.000000   0.000000  -0.000000  -0.000002
    39  H    0.000000  -0.000000  -0.000000  -0.000000   0.000000  -0.000003
              13         14         15         16         17         18
     1  C   -0.000856   0.011881   0.000045  -0.014571  -0.064861   0.149295
     2  C    0.003244  -0.203475  -0.061191   0.151652   0.247423  -0.535146
     3  C   -0.007428  -0.055930  -0.007372   0.084801   0.103855  -0.105541
     4  N    0.001601   0.010684  -0.003812  -0.005697  -0.010053   0.029409
     5  C    0.007972  -0.001122  -0.005513   0.014067   0.014440  -0.022528
     6  C    0.001228  -0.000572   0.008473  -0.010632  -0.020797   0.037972
     7  C    0.000328   0.495766   0.071093  -0.148602   0.276541  -0.085338
     8  N    0.000083  -0.651114  -0.004421   0.073616   0.141777   0.019154
     9  C   -0.000007   0.022857   0.075504  -0.061549  -0.191749   0.154534
    10  C   -0.000018  -0.058728  -0.217248  -0.104024   0.101418   0.166224
    11  C    0.000035   0.072030   0.251680  -0.033740  -0.674263  -0.102551
    12  O   -0.046208   0.000022   0.000001  -0.000291  -0.000061   0.000356
    13  O    7.794353   0.000012  -0.000001  -0.000035   0.000002   0.000018
    14  H    0.000012   2.399550   0.013676  -0.205690  -0.019209   0.013397
    15  H   -0.000001   0.013676   1.811559  -0.396408  -0.222837   0.051316
    16  H   -0.000035  -0.205690  -0.396408   2.037293   0.159870  -0.247349
    17  H    0.000002  -0.019209  -0.222837   0.159870   2.169460  -0.450794
    18  H    0.000018   0.013397   0.051316  -0.247349  -0.450794   2.277677
    19  H   -0.000003  -0.384289  -0.147517   0.146517   0.065740  -0.017939
    20  H    0.000005   0.034964   0.028041  -0.038243  -0.252664   0.100611
    21  H    0.003136   0.016377   0.011050  -0.025802  -0.010652   0.021847
    22  H    0.002459  -0.000116  -0.000098   0.000380   0.001061  -0.000156
    23  H   -0.000002  -0.000055   0.000086   0.000121  -0.001511  -0.002934
    24  H   -0.000037  -0.002180   0.001583   0.002816   0.000522  -0.010138
    25  C    0.000011  -0.023467   0.007458  -0.008818   0.000115   0.003146
    26  H   -0.018781  -0.002327  -0.000061   0.003253   0.000548   0.000508
    27  H   -0.002619  -0.000036   0.000010   0.000007  -0.000006   0.000029
    28  H    0.005679   0.000081   0.000010  -0.000110   0.000002   0.000042
    29  H    0.315020  -0.000001   0.000001  -0.000015  -0.000001   0.000000
    30  H    0.364001   0.000007  -0.000002   0.000002   0.000001   0.000002
    31  O   -0.039651   0.000000  -0.000000   0.000000   0.000000  -0.000000
    32  H    0.001177  -0.000000  -0.000000   0.000000   0.000000  -0.000000
    33  H    0.002558   0.000000  -0.000000  -0.000000   0.000000   0.000000
    34  H    0.000069  -0.008887  -0.001038  -0.001882  -0.000289  -0.000283
    35  H    0.000010   0.019504   0.006336  -0.003728   0.000944   0.000451
    36  H   -0.000053   0.019155  -0.004083   0.006784   0.000573   0.000671
    37  O    0.000155   0.000000   0.000000   0.000000   0.000000  -0.000000
    38  H    0.000161  -0.000000   0.000000   0.000000  -0.000000  -0.000000
    39  H   -0.000103  -0.000000   0.000000   0.000000  -0.000000  -0.000000
              19         20         21         22         23         24
     1  C   -0.008943  -0.062712  -0.109927   0.017635   0.694349  -2.249650
     2  C    0.209492   0.534338  -0.266304   0.125535  -0.250448   1.119630
     3  C    0.018100  -0.061607  -0.964185   0.194942   0.016246   0.255135
     4  N   -0.001107   0.006906   0.013561  -0.053292  -0.032348  -0.093929
     5  C    0.002455  -0.040230  -0.074125  -0.857670   0.465221  -0.203805
     6  C    0.001652   0.069875   0.062317   0.309468  -1.141412   0.769334
     7  C   -0.408236  -1.507945   0.684003   0.004892  -0.008292  -0.473710
     8  N    0.389844  -0.197478  -0.400510   0.003426  -0.002400   0.056196
     9  C   -0.299328  -0.045671   0.028034  -0.000765  -0.000809  -0.018497
    10  C    0.006907   0.103442   0.031031   0.000372   0.000090   0.025896
    11  C   -0.039543   0.363903   0.038502   0.005626  -0.014744   0.061671
    12  O   -0.000036   0.000113  -0.002423  -0.002299  -0.001283   0.001061
    13  O   -0.000003   0.000005   0.003136   0.002459  -0.000002  -0.000037
    14  H   -0.384289   0.034964   0.016377  -0.000116  -0.000055  -0.002180
    15  H   -0.147517   0.028041   0.011050  -0.000098   0.000086   0.001583
    16  H    0.146517  -0.038243  -0.025802   0.000380   0.000121   0.002816
    17  H    0.065740  -0.252664  -0.010652   0.001061  -0.001511   0.000522
    18  H   -0.017939   0.100611   0.021847  -0.000156  -0.002934  -0.010138
    19  H    1.959646  -0.052986   0.002771   0.000104  -0.000029   0.000698
    20  H   -0.052986   2.448339   0.046453  -0.000820  -0.000003  -0.042743
    21  H    0.002771   0.046453   3.023233   0.012056  -0.001220  -0.022991
    22  H    0.000104  -0.000820   0.012056   2.172702  -0.119225  -0.012774
    23  H   -0.000029  -0.000003  -0.001220  -0.119225   2.077206  -0.131344
    24  H    0.000698  -0.042743  -0.022991  -0.012774  -0.131344   2.820146
    25  C    0.006984   0.086678  -0.073862  -0.000477   0.002745   0.006656
    26  H    0.000089  -0.007079  -0.074921  -0.154565   0.012121   0.013090
    27  H    0.000002  -0.000052  -0.000151   0.001025  -0.000123   0.000095
    28  H   -0.000016   0.000080   0.003982   0.006676  -0.000228  -0.000149
    29  H   -0.000002  -0.000001   0.000828  -0.000642   0.000047  -0.000024
    30  H    0.000000   0.000001  -0.000599   0.000052   0.000001  -0.000007
    31  O    0.000000  -0.000000  -0.000037   0.000014   0.000006  -0.000001
    32  H    0.000000  -0.000000  -0.000015   0.000000   0.000000  -0.000000
    33  H   -0.000000   0.000001  -0.000027   0.000017  -0.000006   0.000003
    34  H   -0.000052   0.019742   0.010419   0.000383   0.000416  -0.004548
    35  H    0.007871  -0.004220   0.001560   0.000121  -0.000105   0.003084
    36  H   -0.003530   0.015074  -0.001489  -0.000104   0.000088   0.001613
    37  O    0.000000  -0.000000  -0.000004   0.000014   0.000000  -0.000000
    38  H    0.000000  -0.000000   0.000001   0.000001  -0.000000   0.000000
    39  H   -0.000000   0.000000  -0.000000  -0.000003   0.000001  -0.000000
              25         26         27         28         29         30
     1  C   -0.089177   0.105454   0.009341  -0.005282  -0.001482  -0.000201
     2  C   -0.040175  -0.490484  -0.008559   0.008814   0.001209   0.000468
     3  C    0.173012   0.467046   0.009243  -0.001536   0.001005  -0.002463
     4  N   -0.015334  -0.073423   0.002501   0.000603   0.000998   0.000604
     5  C   -0.018599  -0.271413  -0.005120  -0.010835  -0.001513   0.000532
     6  C   -0.024216  -0.215921  -0.004930   0.011417   0.000325   0.000693
     7  C   -0.329374  -0.093945   0.000013   0.001145  -0.000201   0.000300
     8  N    0.461583   0.019279   0.000598  -0.000137   0.000037  -0.000151
     9  C   -0.237432   0.003649   0.000406  -0.000253  -0.000040   0.000021
    10  C   -0.006135   0.006300   0.000157  -0.000040  -0.000010   0.000001
    11  C   -0.019922  -0.036621  -0.000235   0.000846   0.000017   0.000012
    12  O   -0.000446   0.021912   0.317306   0.364696   0.003397   0.000766
    13  O    0.000011  -0.018781  -0.002619   0.005679   0.315020   0.364001
    14  H   -0.023467  -0.002327  -0.000036   0.000081  -0.000001   0.000007
    15  H    0.007458  -0.000061   0.000010   0.000010   0.000001  -0.000002
    16  H   -0.008818   0.003253   0.000007  -0.000110  -0.000015   0.000002
    17  H    0.000115   0.000548  -0.000006   0.000002  -0.000001   0.000001
    18  H    0.003146   0.000508   0.000029   0.000042   0.000000   0.000002
    19  H    0.006984   0.000089   0.000002  -0.000016  -0.000002   0.000000
    20  H    0.086678  -0.007079  -0.000052   0.000080  -0.000001   0.000001
    21  H   -0.073862  -0.074921  -0.000151   0.003982   0.000828  -0.000599
    22  H   -0.000477  -0.154565   0.001025   0.006676  -0.000642   0.000052
    23  H    0.002745   0.012121  -0.000123  -0.000228   0.000047   0.000001
    24  H    0.006656   0.013090   0.000095  -0.000149  -0.000024  -0.000007
    25  C    4.578420  -0.003038  -0.000611   0.000441   0.000010   0.000039
    26  H   -0.003038   1.707539  -0.002636  -0.017690   0.000630   0.001852
    27  H   -0.000611  -0.002636   0.510765  -0.112578  -0.004253  -0.004853
    28  H    0.000441  -0.017690  -0.112578   0.610162   0.000562  -0.000446
    29  H    0.000010   0.000630  -0.004253   0.000562   0.533209  -0.108100
    30  H    0.000039   0.001852  -0.004853  -0.000446  -0.108100   0.617503
    31  O   -0.000001  -0.001414  -0.002590   0.000668   0.025991   0.000490
    32  H    0.000000   0.000204   0.000229  -0.000101  -0.002647  -0.000125
    33  H   -0.000001  -0.000127   0.000848  -0.000108  -0.005475  -0.000460
    34  H    0.341012  -0.014858  -0.000599   0.000355   0.000031  -0.000024
    35  H    0.051021   0.003179   0.000135  -0.000050   0.000002  -0.000013
    36  H    0.377708   0.001924  -0.000148  -0.000042  -0.000008   0.000039
    37  O    0.000000   0.000112  -0.000108  -0.000024   0.000238   0.000094
    38  H   -0.000000   0.000007   0.000055  -0.000003  -0.000675  -0.000007
    39  H    0.000000  -0.000002  -0.000015   0.000003   0.000009   0.000006
              31         32         33         34         35         36
     1  C    0.000013   0.000005   0.000109  -0.175439   0.044202   0.031349
     2  C    0.000074   0.000012  -0.000059   0.201671   0.012702  -0.019190
     3  C    0.000084  -0.000048   0.000143  -0.085692   0.080591  -0.033415
     4  N    0.000145   0.000047  -0.000167  -0.004045  -0.006585   0.009122
     5  C    0.000466   0.000023  -0.000095  -0.044298   0.005759   0.005926
     6  C    0.000162  -0.000044   0.000055   0.049683  -0.006519  -0.008059
     7  C    0.000000  -0.000006   0.000031   0.095791  -0.110041  -0.016491
     8  N    0.000001   0.000000  -0.000004  -0.076566   0.159015  -0.336229
     9  C    0.000000   0.000000   0.000000  -0.131244   0.057248   0.075933
    10  C    0.000000   0.000000  -0.000000  -0.026550   0.045025   0.005715
    11  C    0.000000  -0.000000   0.000000   0.061251  -0.048555  -0.004066
    12  O    0.000366   0.000086   0.000065   0.000305   0.000058  -0.000142
    13  O   -0.039651   0.001177   0.002558   0.000069   0.000010  -0.000053
    14  H    0.000000  -0.000000   0.000000  -0.008887   0.019504   0.019155
    15  H   -0.000000  -0.000000  -0.000000  -0.001038   0.006336  -0.004083
    16  H    0.000000   0.000000  -0.000000  -0.001882  -0.003728   0.006784
    17  H    0.000000   0.000000   0.000000  -0.000289   0.000944   0.000573
    18  H   -0.000000  -0.000000   0.000000  -0.000283   0.000451   0.000671
    19  H    0.000000   0.000000  -0.000000  -0.000052   0.007871  -0.003530
    20  H   -0.000000  -0.000000   0.000001   0.019742  -0.004220   0.015074
    21  H   -0.000037  -0.000015  -0.000027   0.010419   0.001560  -0.001489
    22  H    0.000014   0.000000   0.000017   0.000383   0.000121  -0.000104
    23  H    0.000006   0.000000  -0.000006   0.000416  -0.000105   0.000088
    24  H   -0.000001  -0.000000   0.000003  -0.004548   0.003084   0.001613
    25  C   -0.000001   0.000000  -0.000001   0.341012   0.051021   0.377708
    26  H   -0.001414   0.000204  -0.000127  -0.014858   0.003179   0.001924
    27  H   -0.002590   0.000229   0.000848  -0.000599   0.000135  -0.000148
    28  H    0.000668  -0.000101  -0.000108   0.000355  -0.000050  -0.000042
    29  H    0.025991  -0.002647  -0.005475   0.000031   0.000002  -0.000008
    30  H    0.000490  -0.000125  -0.000460  -0.000024  -0.000013   0.000039
    31  O    7.673375   0.360873   0.338554   0.000018  -0.000000  -0.000001
    32  H    0.360873   0.604047  -0.097363  -0.000001  -0.000000   0.000001
    33  H    0.338554  -0.097363   0.558917   0.000006   0.000000  -0.000002
    34  H    0.000018  -0.000001   0.000006   1.996735  -0.418405  -0.496718
    35  H   -0.000000  -0.000000   0.000000  -0.418405   1.577878  -0.310326
    36  H   -0.000001   0.000001  -0.000002  -0.496718  -0.310326   1.898892
    37  O   -0.036550   0.004770   0.011789  -0.000000  -0.000000  -0.000000
    38  H    0.002118  -0.000130  -0.001119  -0.000000  -0.000000   0.000000
    39  H    0.001349  -0.000748  -0.005126  -0.000000  -0.000000   0.000000
              37         38         39
     1  C   -0.000001   0.000001  -0.000006
     2  C    0.000001  -0.000003   0.000005
     3  C   -0.000018   0.000002  -0.000006
     4  N   -0.000001  -0.000000   0.000004
     5  C    0.000012  -0.000001   0.000001
     6  C    0.000004  -0.000003   0.000005
     7  C   -0.000000  -0.000001   0.000000
     8  N    0.000000   0.000000  -0.000000
     9  C    0.000000  -0.000000  -0.000000
    10  C    0.000000   0.000000  -0.000000
    11  C    0.000000  -0.000000   0.000000
    12  O    0.000002  -0.000002  -0.000003
    13  O    0.000155   0.000161  -0.000103
    14  H    0.000000  -0.000000  -0.000000
    15  H    0.000000   0.000000   0.000000
    16  H    0.000000   0.000000   0.000000
    17  H    0.000000  -0.000000  -0.000000
    18  H   -0.000000  -0.000000  -0.000000
    19  H    0.000000   0.000000  -0.000000
    20  H   -0.000000  -0.000000   0.000000
    21  H   -0.000004   0.000001  -0.000000
    22  H    0.000014   0.000001  -0.000003
    23  H    0.000000  -0.000000   0.000001
    24  H   -0.000000   0.000000  -0.000000
    25  C    0.000000  -0.000000   0.000000
    26  H    0.000112   0.000007  -0.000002
    27  H   -0.000108   0.000055  -0.000015
    28  H   -0.000024  -0.000003   0.000003
    29  H    0.000238  -0.000675   0.000009
    30  H    0.000094  -0.000007   0.000006
    31  O   -0.036550   0.002118   0.001349
    32  H    0.004770  -0.000130  -0.000748
    33  H    0.011789  -0.001119  -0.005126
    34  H   -0.000000  -0.000000  -0.000000
    35  H   -0.000000  -0.000000  -0.000000
    36  H   -0.000000   0.000000   0.000000
    37  O    7.663018   0.345167   0.349019
    38  H    0.345167   0.555531  -0.067614
    39  H    0.349019  -0.067614   0.570094
 Mulliken charges:
               1
     1  C    1.143088
     2  C    0.727181
     3  C    0.712741
     4  N    0.006452
     5  C    0.745393
     6  C    0.282262
     7  C    0.961684
     8  N   -0.410606
     9  C    1.164091
    10  C    0.608920
    11  C    0.936132
    12  O   -0.476118
    13  O   -0.387515
    14  H   -0.512766
    15  H   -0.266320
    16  H   -0.373992
    17  H   -0.364543
    18  H   -0.445962
    19  H   -0.455316
    20  H   -0.544112
    21  H   -0.981918
    22  H   -0.655957
    23  H   -0.560224
    24  H   -0.872702
    25  C    0.794047
    26  H    0.110609
    27  H    0.297456
    28  H    0.133365
    29  H    0.241523
    30  H    0.129963
    31  O   -0.324522
    32  H    0.129754
    33  H    0.197042
    34  H   -0.286469
    35  H   -0.168146
    36  H   -0.216471
    37  O   -0.337688
    38  H    0.166514
    39  H    0.153132
 Sum of Mulliken charges =   1.00000
 Mulliken charges with hydrogens summed into heavy atoms:
               1
     1  C    0.270385
     2  C    0.727181
     3  C   -0.269176
     4  N    0.117061
     5  C    0.089437
     6  C   -0.277962
     7  C    0.417572
     8  N   -0.410606
     9  C    0.196009
    10  C   -0.031392
    11  C    0.125627
    12  O   -0.045297
    13  O   -0.016029
    25  C    0.122960
    31  O    0.002275
    37  O   -0.018043
 Electronic spatial extent (au):  <R**2>=           9391.7349
 Charge=              1.0000 electrons
 Dipole moment (field-independent basis, Debye):
    X=             -5.2957    Y=              2.5062    Z=              0.9136  Tot=              5.9296
 Quadrupole moment (field-independent basis, Debye-Ang):
   XX=             22.6038   YY=            -71.3586   ZZ=            -80.4524
   XY=              4.7705   XZ=            -10.3820   YZ=              3.8991
 Traceless Quadrupole moment (field-independent basis, Debye-Ang):
   XX=             65.6729   YY=            -28.2895   ZZ=            -37.3834
   XY=              4.7705   XZ=            -10.3820   YZ=              3.8991
 Octapole moment (field-independent basis, Debye-Ang**2):
  XXX=           -803.6002  YYY=             16.4410  ZZZ=            -16.4189  XYY=            -51.3642
  XXY=            -31.6269  XXZ=            165.7283  XZZ=           -113.0481  YZZ=            -10.1346
  YYZ=             12.7320  XYZ=             -6.2556
 Hexadecapole moment (field-independent basis, Debye-Ang**3):
 XXXX=          -1657.0417 YYYY=          -1096.4927 ZZZZ=           -571.8454 XXXY=             65.4399
 XXXZ=          -1609.7573 YYYX=             87.1307 YYYZ=             45.3346 ZZZX=            -86.7043
 ZZZY=             14.2439 XXYY=          -1472.2589 XXZZ=           -953.1226 YYZZ=           -325.7175
 XXYZ=             95.9456 YYXZ=             -6.1433 ZZXY=             32.1626
 N-N= 1.096655389912D+03 E-N=-4.058331285376D+03  KE= 7.999761043979D+02
 Calling FoFJK, ICntrl=      2127 FMM=F ISym2X=0 I1Cent= 0 IOpClX= 0 NMat=1 NMatS=1 NMatT=0.
 ***** Axes restored to original set *****
 -------------------------------------------------------------------
 Center     Atomic                   Forces (Hartrees/Bohr)
 Number     Number              X              Y              Z
 -------------------------------------------------------------------
      1        6           0.000020805    0.000024554   -0.000014675
[...]
 00005765,0.00003852,0.00002316,-0.00012474,0.00005110,-0.00010693,-0.0
 0002398,-0.00005316,-0.00262583,0.00447760,-0.00367333,-0.01113645,0.0
 0022620,-0.01627225,-0.00081574,-0.00026113,0.00078250,-0.00004990,0.0
 0011367,0.00012056,0.00005619,0.00018373,0.00019379,0.00001906,0.00002
 104,0.00000552,0.00002833,0.00001411,-0.00000493,0.00031928,-0.0001101
 1,-0.00004642,0.00006422,-0.00001657,0.00006784,-0.00002082,-0.0000743
 0,0.00004804,0.00004391,-0.00002837,0.00001594,-0.00004838,0.00001417,
 0.00006599,0.00033445,-0.00003644,0.00058667,0.00075318,0.00021697,0.0
 0173227,0.00012286,-0.00004373,-0.00000382,0.00000496,-0.00001067,-0.0
 0001191,-0.00000250,-0.00000231,-0.00001055,-0.00000279,-0.00001809,0.
 00001174,0.03583175,-0.05996813,0.03090510,0.00001075,0.00000214,0.000
 00754,-0.00001804,-0.00000636,0.00000548,-0.00000531,-0.00000785,-0.00
 000567,-0.00002136,-0.00001252,0.00000016,-0.00001392,-0.00000475,0.00
 000128,0.00001447,0.00000875,-0.00000337,-0.00000188,-0.00000125,-0.00
 000036,-0.00000506,-0.00000277,0.00000711,-0.00842840,0.00192001,-0.00
 669958,-0.03804049,0.05794188,-0.00020343,0.00001072,-0.00005331,0.000
 01472,-0.00042454,0.00036705,-0.00003903,0.00009335,0.00004320,-0.0001
 5313,-0.00014943,0.00005479,-0.00002573,-0.00004883,-0.00005648,-0.000
 03452,-0.00005703,0.00004406,0.00011000,0.00522932,-0.00001191,-0.0174
 8956,-0.00544192,-0.03730225,-0.00503934,-0.00112556,0.00180495,0.0004
 3170,0.00004243,0.00033528,0.00001447,0.00038405,0.00042156,-0.0001002
 9,0.00006489,0.00001995,-0.00002044,0.00001832,0.00004024,0.00030870,0
 .00020636,-0.00009531,0.00017984,-0.00018897,-0.00003389,0.00009907,0.
 00020869,0.00029562,0.00007709,-0.00008148,-0.00003164,-0.00000668,-0.
 00001784,0.00007283,0.00197194,0.00034986,0.00043930,0.00033065,-0.001
 77498,0.00102222,0.00044498,0.00005005,-0.00008333,-0.00000194,-0.0000
 1697,-0.00000089,-0.00002060,-0.00001334,-0.00001544,0.00003012,-0.000
 00054,-0.00000278,-0.11226873,0.03139730,-0.14245527,0.00012541,-0.000
 08804,0.00004995,0.00004893,-0.00002972,-0.00006180,0.00001298,0.00000
 032,-0.00000032,0.00000719,0.00000060,-0.00000230,-0.00000972,-0.00000
 435,-0.00001106,-0.00000966,0.00000284,0.00000996,0.00000296,-0.000002
 13,-0.00000281,0.00000505,-0.00000041,-0.00000975,0.00846325,-0.002068
 97,0.00837870,0.12691320,-0.02758672,0.16937458,0.00006652,0.00018747,
 -0.00004034,0.00007801,0.00005736,0.00013766,0.00010610,-0.00003589,0.
 00011893,0.00001482,0.00009634,-0.00006953,0.00002835,-0.00007249,0.00
 005181,-0.00006711,0.00001247,-0.00003795,0.00010876,0.00042708,0.0008
 4368,-0.00076309,0.00593947,0.00031693,0.00037720,0.00115558,-0.000510
 41,-0.00002806,0.00004118,0.00000411,0.00011662,0.00020237,0.00021375,
 -0.00001535,0.00007394,0.00000223,0.00003334,0.00003253,0.00000727,0.0
 0017231,-0.00013938,0.00023924,-0.00000339,-0.00000652,0.00000501,-0.0
 0001199,-0.00004590,-0.00003914,0.00002407,-0.00001050,-0.00002142,-0.
 00006685,0.00005335,0.00009790,-0.00014047,0.00009270,-0.00018728,-0.0
 0005646,-0.00032747,0.00017128,-0.00003115,-0.00013004,-0.00001003,0.0
 0000217,0.00000403,0.00000887,-0.00000336,0.00000008,-0.00000239,-0.00
 001057,0.00000218,0.00000335,-0.04844144,0.01593094,-0.00289541,0.0000
 7180,-0.00007996,0.00002941,-0.00000633,-0.00002337,-0.00001370,-0.000
 00640,-0.00001161,-0.00000732,-0.00002772,-0.00001928,0.00000027,-0.00
 002575,-0.00001110,-0.00000363,0.00001564,0.00001536,-0.00000117,-0.00
 000136,-0.00000299,-0.00000159,-0.00000395,-0.00000493,0.00000615,0.00
 290144,-0.02746763,0.00388260,-0.00124872,0.02357772,-0.00416698,0.046
 84061,-0.00012344,0.00000342,-0.00000064,0.00050859,0.00021748,0.00003
 682,-0.00001988,-0.00008930,0.00009626,-0.00015787,0.00006526,-0.00006
 977,-0.00003084,-0.00004463,0.00001457,-0.00000791,0.00000375,-0.00000
 555,0.00157958,0.00077504,-0.00286938,-0.00049717,-0.01626614,-0.00061
 569,-0.00076146,0.00058886,0.00091841,-0.00005931,0.00005733,-0.000148
 43,-0.00035980,-0.00064229,0.00018755,-0.00007786,0.00011729,-0.000012
 53,0.00000382,0.00003504,0.00002215,0.00050491,0.00014478,-0.00054516,
 0.00001172,0.00006398,0.00000165,-0.00000635,0.00001630,-0.00000079,0.
 00007664,-0.00004345,-0.00011836,0.00020711,0.00001245,-0.00021360,0.0
 0027010,-0.00010970,0.00009725,-0.00020402,0.00037241,0.00001280,0.000
 04757,-0.00014957,-0.00003670,0.00000441,0.00000136,-0.00000017,-0.000
 01381,-0.00000473,-0.00000566,0.00000687,0.00003589,-0.00000232,0.0176
 0497,-0.31097628,0.04314349,0.00015688,-0.00015319,0.00007673,0.000024
 01,-0.00003711,-0.00004135,-0.00000869,-0.00001362,0.00000132,-0.00000
 929,-0.00001190,-0.00000006,-0.00002019,-0.00001238,-0.00000507,0.0000
 0083,0.00001406,0.00000287,0.00000111,-0.00000467,-0.00000132,0.000001
 79,-0.00000457,-0.00000134,0.00143725,-0.00751199,0.00142847,-0.000575
 97,-0.00419474,0.00106364,-0.01951400,0.33774564,-0.00020345,-0.000100
 41,-0.00000161,0.00039680,0.00007593,0.00003108,-0.00002312,-0.0000189
 0,0.00001168,-0.00006669,-0.00000638,-0.00000847,-0.00002988,0.0000257
 6,-0.00004021,0.00003127,-0.00003145,0.00005200,0.00237560,-0.00131736
 ,-0.00489131,0.00069428,-0.03621154,0.00176637,-0.00021435,-0.00122768
 ,0.00160325,-0.00046521,-0.00010110,0.00028662,-0.00004485,-0.00158043
 ,-0.00000484,0.00001899,0.00000987,-0.00000907,0.00000992,-0.00000444,
 -0.00001030,0.00003347,0.00047744,-0.00019074,-0.00001410,0.00009061,0
 .00001365,-0.00000258,0.00002255,-0.00001968,0.00014479,-0.00014396,-0
 .00019994,0.00028733,-0.00018237,-0.00023818,0.00011283,0.00028962,-0.
 00033399,0.00028879,-0.00034676,0.00011914,0.00003526,-0.00001778,0.00
 001651,-0.00000033,-0.00000083,-0.00000329,-0.00001111,-0.00001010,-0.
 00001000,0.00001424,-0.00000031,-0.00001949,-0.00296604,0.05274620,-0.
 05607095,-0.00000255,-0.00001875,0.00000269,-0.00001767,0.00000543,0.0
 0001255,-0.00000797,-0.00000521,0.00000008,-0.00000396,-0.00000122,0.0
 0000011,0.00000087,0.00000321,0.00000596,0.00000420,-0.00000100,-0.000
 00256,-0.00000084,0.00000072,0.00000080,-0.00000186,0.00000082,0.00000
 277,-0.00218626,0.01084384,-0.00196311,-0.00005731,0.01914590,-0.00254
 705,0.00187061,-0.04241034,0.06264052,0.00002364,0.00000455,0.00000383
 ,0.00004443,-0.00000228,0.00000224,0.00001266,0.00002930,-0.00001325,-
 0.00009872,0.00009059,-0.00004571,0.00004722,-0.00005367,0.00003379,-0
 .00006592,-0.00000416,-0.00000486,0.00002423,0.00003640,0.00002036,-0.
 00006207,-0.00002399,0.00000463,0.00004302,0.00001383,-0.00001850,-0.0
 0000648,0.00000872,0.00000157,0.00000563,-0.00001895,-0.00001242,-0.00
 039243,0.00008868,0.00023287,-0.00085131,-0.00046624,0.00030529,0.0000
 0079,-0.00000626,0.00000113,-0.00000831,-0.00000342,0.00000405,0.00000
 408,-0.00000028,-0.00000322,-0.00000934,0.00000009,0.00000176,0.000005
 56,-0.00000383,-0.00000547,-0.00001467,0.00000023,-0.00000595,-0.00000
 871,-0.00000826,-0.00000190,0.00002278,0.00000799,-0.00000534,0.000027
 34,-0.00002802,-0.00003092,0.00001008,-0.00001148,-0.00000760,-0.00000
 062,-0.00000105,-0.00000454,0.00002736,0.00000652,0.00000591,0.0002101
 7,-0.00012110,0.00005447,0.00044476,-0.00009769,-0.00038333,0.00003433
 ,0.00002477,-0.00007356,0.00104609,0.00066889,-0.00005424,0.00002404,0
 .00017764,-0.00006529,-0.00247832,-0.00268569,0.00865067,-0.00149145,-
 0.00025193,0.00073100,-0.00196569,0.00084365,-0.00062972,-0.00000992,-
 0.00000582,0.00000864,-0.00001148,0.00000480,-0.00000232,0.00000430,-0
 .00000165,0.00000163,0.26820412,-0.00002164,-0.00002101,0.00000171,-0.
 00002631,0.00004179,-0.00002104,0.00006252,0.00000627,0.00001414,-0.00
 007832,0.00004516,-0.00003663,-0.00005199,-0.00003079,-0.00000550,0.00
 003063,-0.00000906,0.00000871,-0.00000448,-0.00002264,0.00000095,-0.00
 000880,0.00002346,0.00000199,0.00000347,-0.00000091,0.00000352,0.00000
 204,-0.00000237,0.00000222,0.00000084,0.00000120,0.00000249,-0.0002670
 1,0.00018762,0.00011990,-0.00047930,0.00005331,0.00024648,0.00000139,0
 .00000377,-0.00000126,-0.00000063,0.00000079,-0.00000012,-0.00000043,-
 0.00000026,-0.00000149,-0.00000122,0.00000042,-0.00000187,0.00000126,0
 .00000171,0.00000314,-0.00000016,-0.00000004,-0.00000126,-0.00000074,0
 .00000311,-0.00000431,0.00001024,-0.00000601,-0.00000078,-0.00001230,-
 0.00002487,0.00001917,-0.00001463,0.00000333,0.00000125,-0.00000289,-0
 .00000286,0.00000063,0.00001024,-0.00000890,-0.00000770,0.00016369,-0.
 00013468,0.00007858,0.00031797,-0.00015148,-0.00025340,0.00001433,-0.0
 0002847,-0.00002667,0.00047738,0.00005962,-0.00011708,0.00016763,0.000
 05841,-0.00011680,-0.00226158,0.00443021,0.00359434,-0.00017743,-0.000
 32161,-0.00025921,0.00062943,-0.01049754,-0.00080452,0.00000066,-0.000
 00847,0.00000199,-0.00000409,0.00000243,0.00000217,0.00000555,0.000006
 67,-0.00000195,0.01438264,0.70591977,-0.00000164,0.00000454,0.00000096
 ,-0.00000915,-0.00001916,0.00001264,-0.00005365,-0.00003393,-0.0000086
 7,0.00016845,-0.00011899,0.00009831,-0.00003237,0.00006077,-0.00003914
 ,0.00004707,0.00001275,0.00001825,-0.00002162,-0.00002337,-0.00002302,
 0.00003316,0.00001269,0.00003599,-0.00001921,0.00000363,0.00000048,-0.
 00000333,-0.00000247,-0.00000531,-0.00000273,0.00000912,0.00000425,0.0
 0056839,-0.00013268,-0.00013181,0.00181394,0.00082289,0.00038332,-0.00
 000178,0.00000103,-0.00000236,0.00000265,0.00000244,-0.00000077,0.0000
 0136,-0.00000122,0.00000582,0.00000653,-0.00000058,0.00000023,-0.00000
 324,0.00000595,0.00000391,0.00000968,-0.00000138,0.00000690,0.00001342
 ,0.00000375,0.00000704,-0.00002495,-0.00000557,-0.00000965,-0.00003073
 ,0.00002539,-0.00002812,0.00000301,-0.00000441,-0.00001348,0.00000767,
 -0.00000090,-0.00000453,-0.00000351,-0.00000832,-0.00003610,-0.0003712
 3,0.00022948,-0.00018167,-0.00055875,0.00011200,0.00034996,-0.00009145
 ,-0.00004561,0.00005333,-0.00271011,-0.00140979,-0.00063439,-0.0000422
 3,-0.00013563,-0.00023671,0.00838867,0.00419747,-0.00864728,0.00060703
 ,-0.00017945,0.00062949,-0.00066501,-0.00122899,-0.00502140,-0.0000038
 9,-0.00000123,-0.00000993,0.00001552,-0.00000402,0.00000760,-0.0000026
 4,0.00000171,-0.00000184,-0.24162768,0.08581817,0.23821446,-0.00000524
 ,0.00000143,-0.00000231,-0.00001144,-0.00000248,-0.00000032,-0.0000039
 9,-0.00000497,0.00000413,0.00001689,-0.00001633,0.00000396,-0.00000209
 ,0.00001330,-0.00000412,0.00001042,-0.00000075,-0.00000132,-0.00000452
 ,-0.00000587,-0.00000375,0.00002012,0.00000344,-0.00000930,-0.00001444
 ,-0.00000653,0.00000662,0.00000271,-0.00000249,0.00000012,-0.00000209,
 0.00000517,0.00000326,0.00007568,-0.00003727,-0.00007752,0.00001165,-0
 .00006356,-0.00027270,-0.00000032,0.00000179,0.00000024,0.00000294,0.0
 0000063,-0.00000150,-0.00000174,0.00000027,0.00000041,0.00000252,-0.00
 000004,-0.00000041,-0.00000157,0.00000015,0.00000094,0.00000412,0.0000
 0014,0.00000145,0.00000080,0.00000203,0.00000009,-0.00000564,-0.000001
 13,0.00000412,-0.00000138,0.00000629,0.00001051,-0.00000252,0.00000403
 ,0.00000452,-0.00000108,0.00000081,0.00000241,-0.00001235,0.00000051,0
 .00000611,-0.00003016,0.00002138,0.00000145,-0.00010336,0.00004251,0.0
 0011224,0.00000315,0.00000193,0.00001913,0.00014029,0.00013571,0.00019
 657,-0.00005639,-0.00004919,0.00013363,0.00001236,-0.00054471,0.000410
 81,-0.00006834,-0.00014053,0.00014423,-0.00018312,0.00166487,-0.001175
 58,0.00000481,0.00000441,-0.00000172,0.00000230,-0.00000166,-0.0000009
 4,-0.00000238,-0.00000087,0.00000014,-0.16062752,0.18491482,0.17075087
 ,0.15376988,0.00000929,0.00000824,-0.00000095,0.00001442,-0.00001457,0
 .00000745,-0.00001668,0.00000515,-0.00000627,0.00000628,0.00000172,0.0
 0000108,0.00002233,-0.00000031,0.00000623,-0.00001948,0.00000261,-0.00
 000435,0.00000550,0.00001578,0.00000215,-0.00000293,-0.00001450,-0.000
 00364,0.00000286,0.00000160,-0.00000329,-0.00000117,0.00000189,-0.0000
 0024,0.00000006,-0.00000270,-0.00000242,0.00000022,-0.00005219,-0.0000
 0737,-0.00016048,-0.00024091,-0.00010435,-0.00000040,-0.00000240,0.000
 00105,-0.00000051,-0.00000077,0.00000033,0.00000041,0.00000024,-0.0000
 0004,-0.00000055,-0.00000016,0.00000097,0.00000006,-0.00000167,-0.0000
 0211,-0.00000174,0.00000012,-0.00000033,-0.00000137,-0.00000241,0.0000
 0147,0.00000037,0.00000415,0.00000099,0.00000732,0.00000331,-0.0000054
 8,0.00000488,-0.00000150,-0.00000071,0.00000066,0.00000137,-0.00000046
 ,-0.00000249,0.00000629,0.00000674,-0.00000666,0.00001773,-0.00000636,
 -0.00001208,0.00003776,0.00001883,0.00000904,0.00002104,-0.00000239,0.
 00035262,0.00032122,0.00010695,-0.00008553,0.00003870,0.00007821,-0.00
 141113,-0.00169084,0.00212315,-0.00011190,0.00017616,0.00008403,0.0020
 0198,0.00281907,-0.00339090,-0.00000077,0.00000379,0.00000048,-0.00000
 012,-0.00000057,-0.00000185,-0.00000230,-0.00000364,0.00000154,0.14230
 555,-0.25666735,-0.16187029,-0.16861821,0.28073254,0.00000123,-0.00000
 037,-0.00000020,0.00000132,0.00000173,-0.00000192,0.00000659,0.0000040
 6,0.00000206,-0.00002590,0.00001797,-0.00001649,0.00000778,-0.00000851
 ,0.00000817,-0.00000859,-0.00000129,-0.00000515,0.00000432,0.00000410,
 0.00000496,-0.00000308,-0.00000265,-0.00001134,0.00000129,-0.00000271,
 0.00000193,0.00000152,0.00000002,0.00000122,0.00000020,-0.00000086,-0.
 00000021,-0.00007101,0.00002094,0.00000080,-0.00011936,0.00000563,-0.0
 0002503,0.00000035,0.00000019,0.00000065,0.00000018,-0.00000044,-0.000
 00011,-0.00000089,0.00000027,-0.00000128,-0.00000094,0.00000020,-0.000
 00010,0.00000024,-0.00000138,-0.00000078,-0.00000141,0.00000047,-0.000
 00146,-0.00000279,-0.00000032,-0.00000168,0.00000361,0.00000090,0.0000
 0314,0.00000503,-0.00000129,0.00000528,0.00000029,0.00000147,0.0000037
 9,-0.00000168,0.00000066,0.00000159,-0.00000163,0.00000206,0.00001062,
 0.00005538,-0.00003367,0.00003070,0.00005968,-0.00001378,-0.00002973,0
 .00001336,0.00000257,-0.00000072,0.00013049,0.00001651,-0.00003824,0.0
 0006834,0.00000856,0.00003844,0.00032122,0.00135604,-0.00096452,0.0003
 5464,-0.00020484,-0.00032662,-0.00047112,-0.00288859,0.00112952,0.0000
 0209,0.00000144,0.00000197,-0.00000357,0.00000080,-0.00000218,0.000000
 08,-0.00000066,0.00000063,0.16372631,-0.19906922,-0.17650902,-0.161278
 86,0.18932948,0.17234442,-0.00001842,-0.00000932,-0.00000183,-0.000026
 88,0.00001734,-0.00000956,0.00002343,-0.00000459,0.00001095,-0.0000036
 9,-0.00000880,-0.00000449,-0.00003699,0.00000400,-0.00001306,0.0000349
 1,-0.00000317,0.00000349,-0.00000952,-0.00001899,-0.00000639,0.0000212
 0,0.00001475,-0.00000559,-0.00001588,-0.00000614,0.00000878,0.00000363
 ,-0.00000420,0.00000063,-0.00000203,0.00000770,0.00000566,-0.00000344,
 0.00003993,-0.00003221,-0.00009309,0.00004170,-0.00005890,0.00000025,0
 .00000352,-0.00000050,0.00000323,0.00000152,-0.00000177,-0.00000201,0.
 00000026,0.00000036,0.00000313,0.00000013,-0.00000124,-0.00000183,0.00
 000140,0.00000281,0.00000532,-0.00000002,0.00000159,0.00000206,0.00000
 401,-0.00000102,-0.00000331,-0.00000413,0.00000332,-0.00001361,-0.0000
 0141,0.00002423,-0.00001109,0.00000712,0.00000568,-0.00000129,-0.00000
 017,0.00000283,-0.00000857,-0.00000351,-0.00000098,0.00001216,-0.00002
 224,0.00002479,0.00000547,-0.00002766,0.00001695,0.00000115,-0.0000098
 7,0.00001395,0.00016295,-0.00000925,0.00003756,0.00001903,-0.00000579,
 0.00001180,-0.00027509,0.00026451,0.00094327,-0.00007653,0.00007891,0.
 00015711,0.00039624,-0.00126434,-0.00220348,0.00000497,0.00000029,-0.0
 0000205,0.00000210,-0.00000110,0.00000080,-0.00000016,0.00000220,-0.00
 000087,-0.10216370,-0.19778278,0.06384347,0.00706104,0.02571264,-0.002
 77466,0.09500488,0.00000956,0.00000925,-0.00000008,0.00001224,-0.00001
 961,0.00000965,-0.00002971,-0.00000393,-0.00000551,0.00003615,-0.00002
 292,0.00001575,0.00002232,0.00001524,0.00000349,-0.00001298,0.00000708
 ,-0.00000703,0.00000243,0.00001066,-0.00000004,0.00000422,-0.00001128,
 -0.00000238,-0.00000168,0.,-0.00000127,-0.00000060,0.00000106,-0.00000
 115,-0.00000039,-0.00000021,-0.00000086,0.00011951,-0.00008023,-0.0000
 5442,0.00025646,0.00003937,-0.00008794,-0.00000055,-0.00000179,0.00000
 061,0.00000035,-0.00000032,0.,0.00000010,0.00000014,0.00000062,0.00000
 074,-0.00000011,0.00000087,-0.00000076,-0.00000091,-0.00000164,0.,0.00
 000011,0.00000043,0.00000018,-0.00000132,0.00000197,-0.00000454,0.0000
 0275,0.00000077,0.00000472,0.00001559,-0.00000666,0.00000761,-0.000000
 16,0.00000052,0.00000160,0.00000196,-0.00000003,-0.00000541,0.00000410
 ,0.00000509,-0.00007617,0.00006079,-0.00003305,-0.00013728,0.00006171,
 0.00011375,-0.00000757,0.00001273,0.00001222,-0.00028147,-0.00010191,0
 .00002149,-0.00003937,-0.00002713,0.00002439,0.00115767,0.00008105,-0.
 00157051,-0.00006993,0.00004776,0.00011634,-0.00172406,-0.00026358,0.0
 0250859,0.00000008,0.00000400,-0.00000067,0.00000150,-0.00000094,-0.00
 000129,-0.00000235,-0.00000310,0.00000085,-0.15489912,-0.44290974,0.07
 390419,-0.01732904,-0.02552400,0.01145451,0.17298558,0.46859783,0.0000
 0289,0.00000127,-0.00000061,0.00000183,-0.00000161,-0.00000035,0.00000
 140,0.00000326,0.00000212,-0.00001797,0.00001201,-0.00001352,0.0000174
 7,-0.00000368,0.00000857,-0.00001240,-0.00000393,-0.00000651,0.0000038
 8,0.00000392,0.00000522,-0.00000176,-0.00000286,-0.00001106,0.00000040
 ,-0.00000243,0.00000206,0.00000150,-0.00000013,0.00000099,0.00000032,-
 0.00000029,0.00000018,-0.00003009,-0.00001684,-0.00002724,-0.00004115,
 -0.00001720,-0.00005493,0.00000022,0.00000007,0.00000056,0.00000036,-0
 .00000035,-0.00000010,-0.00000096,0.00000053,-0.00000111,-0.00000081,0
 .00000012,-0.00000005,0.00000004,-0.00000146,-0.00000081,-0.00000108,0
 .00000032,-0.00000133,-0.00000274,-0.00000046,-0.00000170,0.00000187,0
 .00000119,0.00000290,0.00000898,0.00000309,0.00000991,0.00000101,0.000
 00200,0.00000660,-0.00000236,0.00000055,0.00000216,-0.00000220,0.00000
 222,0.00001034,0.00003610,-0.00001608,0.00002312,0.00000238,0.00001761
 ,0.00001951,0.00001260,0.00001403,0.00000463,0.00006756,0.00001550,0.0
 0000330,0.00000746,-0.00000151,0.00002900,0.00100844,-0.00085571,-0.00
 234285,0.00029328,0.00040234,-0.00011587,-0.00157206,0.00241307,0.0035
 3420,0.00000212,0.00000141,0.00000151,-0.00000304,0.00000041,-0.000002
 07,-0.00000018,-0.00000078,0.00000019,0.06920567,0.11080929,-0.0482877
 4,-0.00898758,-0.02635735,0.00434690,-0.06000142,-0.08642155,0.0428538
 5\\0.00000112,-0.00001218,0.00001248,-0.00000797,0.00000526,-0.0000217
 2,0.00003420,-0.00004005,0.00002553,0.00006668,-0.00000428,0.00002245,
 -0.00001202,0.00002211,-0.00001763,0.00001386,-0.00002652,0.00001582,-
 0.00003779,0.00001092,-0.00002322,-0.00001981,0.00001162,0.00000525,0.
 00001337,0.00000547,0.00001090,0.00000060,-0.00001643,-0.00000516,-0.0
 0000961,0.00000875,-0.00000337,-0.00002703,0.00000424,-0.00004243,-0.0
 0009552,-0.00006745,-0.00005923,0.00000301,0.00000886,-0.00000333,-0.0
 0000875,-0.00000357,0.00000775,-0.00000206,0.00000154,0.00000119,-0.00
 000084,-0.00000777,0.00000173,-0.00000387,0.00000505,-0.00000147,-0.00
 000256,0.00000117,-0.00000448,0.00002010,-0.00000401,0.00000861,-0.000
 00246,-0.00000201,0.00000362,-0.00001281,-0.00000038,-0.00000416,-0.00
 000119,-0.00000398,-0.00000017,0.00000393,0.00000177,-0.00000046,-0.00
 000575,-0.00000354,0.00000295,-0.00005879,0.00005503,-0.00001061,-0.00
 000810,-0.00001499,0.00006886,0.00000509,-0.00000467,0.00000550,0.0001
 6492,0.00004953,0.00000227,-0.00000210,0.00002196,0.00002095,0.0001610
 4,-0.00004061,-0.00013414,-0.00004669,0.00000839,-0.00000339,-0.000100
 27,0.00007587,0.00007499,0.00000081,-0.00000377,-0.00000317,-0.0000019
 2,-0.00000049,-0.00000173,0.00000123,0.00000476,-0.00000024,-0.0000876
 5,-0.00003973,0.00010678,0.00003097,0.00003089,-0.00002524,0.00003463,
 -0.00003678,-0.00003230\\\@


 AND ALL THIS SCIENCE I DON'T UNDERSTAND
 IT'S JUST MY JOB FIVE DAYS A WEEK

                           -- ELTON JOHN, "ROCKET MAN"
 Job cpu time:       0 days 22 hours 21 minutes  3.0 seconds.
 Elapsed time:       0 days  0 hours 47 minutes 56.6 seconds.
 File lengths (MBytes):  RWF=   1240 Int=      0 D2E=      0 Chk=     32 Scr=      8
 Normal termination of Gaussian 16 at Fri Jan 27 15:26:34 2023.
