 Entering Gaussian System, Link 0=g16
 Input=NicPyWa4h7wB07XDaVDZ130K.gjf
 Output=NicPyWa4h7wB07XDaVDZ130K.log
 Initial command:
 /sw/contrib/gaussian/g16/A03/g16/l1.exe "/gscratch/scrubbed/gds001/Gau-11883.inp" -scrdir="/gscratch/scrubbed/gds001/"
 Entering Link 1 = /sw/contrib/gaussian/g16/A03/g16/l1.exe PID=     11884.
  
 Copyright (c) 1988,1990,1992,1993,1995,1998,2003,2009,2016,
            Gaussian, Inc.  All Rights Reserved.
  
 This is part of the Gaussian(R) 16 program.  It is based on
 the Gaussian(R) 09 system (copyright 2009, Gaussian, Inc.),
 the Gaussian(R) 03 system (copyright 2003, Gaussian, Inc.),
 the Gaussian(R) 98 system (copyright 1998, Gaussian, Inc.),
 the Gaussian(R) 94 system (copyright 1995, Gaussian, Inc.),
 the Gaussian 92(TM) system (copyright 1992, Gaussian, Inc.),
 the Gaussian 90(TM) system (copyright 1990, Gaussian, Inc.),
 the Gaussian 88(TM) system (copyright 1988, Gaussian, Inc.),
 the Gaussian 86(TM) system (copyright 1986, Carnegie Mellon
 University), and the Gaussian 82(TM) system (copyright 1983,
 Carnegie Mellon University). Gaussian is a federally registered
 trademark of Gaussian, Inc.
  
 This software contains proprietary and confidential information,
 including trade secrets, belonging to Gaussian, Inc.
  
 This software is provided under written license and may be
 used, copied, transmitted, or stored only in accord with that
 written license.
  
 The following legend is applicable only to US Government
 contracts under FAR:
  
                    RESTRICTED RIGHTS LEGEND
  
 Use, reproduction and disclosure by the US Government is
 subject to restrictions as set forth in subparagraphs (a)
 and (c) of the Commercial Computer Software - Restricted
 Rights clause in FAR 52.227-19.
  
 Gaussian, Inc.
 340 Quinnipiac St., Bldg. 40, Wallingford CT 06492
  
  
 ---------------------------------------------------------------
 Warning -- This program may not be used in any manner that
 competes with the business of Gaussian, Inc. or will provide
 assistance to any competitor of Gaussian, Inc.  The licensee
 of this program is prohibited from giving any competitor of
 Gaussian, Inc. access to this program.  By using this program,
 the user acknowledges that Gaussian, Inc. is engaged in the
 business of creating and licensing software in the field of
 computational chemistry and represents and warrants to the
 licensee that it is not a competitor of Gaussian, Inc. and that
 it will not use this program in any manner prohibited above.
 ---------------------------------------------------------------
  

 Cite this work as:
 Gaussian 16, Revision A.03,
 M. J. Frisch, G. W. Trucks, H. B. Schlegel, G. E. Scuseria, 
 M. A. Robb, J. R. Cheeseman, G. Scalmani, V. Barone, 
 G. A. Petersson, H. Nakatsuji, X. Li, M. Caricato, A. V. Marenich, 
 J. Bloino, B. G. Janesko, R. Gomperts, B. Mennucci, H. P. Hratchian, 
 J. V. Ortiz, A. F. Izmaylov, J. L. Sonnenberg, D. Williams-Young, 
 F. Ding, F. Lipparini, F. Egidi, J. Goings, B. Peng, A. Petrone, 
 T. Henderson, D. Ranasinghe, V. G. Zakrzewski, J. Gao, N. Rega, 
 G. Zheng, W. Liang, M. Hada, M. Ehara, K. Toyota, R. Fukuda, 
 J. Hasegawa, M. Ishida, T. Nakajima, Y. Honda, O. Kitao, H. Nakai, 
 T. Vreven, K. Throssell, J. A. Montgomery, Jr., J. E. Peralta, 
 F. Ogliaro, M. J. Bearpark, J. J. Heyd, E. N. Brothers, K. N. Kudin, 
 V. N. Staroverov, T. A. Keith, R. Kobayashi, J. Normand, 
 K. Raghavachari, A. P. Rendell, J. C. Burant, S. S. Iyengar, 
 J. Tomasi, M. Cossi, J. M. Millam, M. Klene, C. Adamo, R. Cammi, 
 J. W. Ochterski, R. L. Martin, K. Morokuma, O. Farkas, 
 J. B. Foresman, and D. J. Fox, Gaussian, Inc., Wallingford CT, 2016.
 
 ******************************************
 Gaussian 16:  ES64L-G16RevA.03 25-Dec-2016
                27-Aug-2020 
 ******************************************
 %nprocshared=28
 Will use up to   28 processors via shared memory.
 %mem=41GB
 %chk=NicPyWa4h7.chk
 -----------------------------------------
 # wB97XD/aug-cc-pVDZ Temperature=130 Freq
 -----------------------------------------
 1/10=4,30=1,38=1,112=130000/1,3;
 2/12=2,17=6,18=5,40=1/2;
 3/5=16,7=10,11=2,25=1,30=1,71=2,74=-58,140=1/1,2,3;
 4//1;
 5/5=2,38=5,98=1/2;
 8/6=4,10=90,11=11/1;
 11/6=1,8=1,9=11,15=111,16=1/1,2,10;
 10/6=1/2;
 6/7=2,8=2,9=2,10=2,28=1/1;
 7/8=1,10=1,25=1/1,2,3,16;
 1/10=4,30=1/3;
 99//99;
 ---------------------------
 p-Py Nicotine, W anti, 4H2O
 ---------------------------
 Symbolic Z-matrix:
 Charge =  1 Multiplicity = 1
 C                    -0.23351   2.76855   0.02606 
 C                     0.15868   1.45409  -0.2329 
 C                    -0.84837   0.52302  -0.44392 
 N                    -2.13677   0.8743   -0.38706 
 C                    -2.53471   2.1304   -0.13954 
 C                    -1.58568   3.11508   0.0658 
 C                     1.60551   1.02789  -0.28174 
 N                     1.91511  -0.02675   0.69951 
 C                     3.25454  -0.48459   0.29627 
 C                     3.16264  -0.59482  -1.22901 
 C                     2.06081   0.41884  -1.6222 
 O                    -3.40418  -1.41238  -0.48954 
 O                    -2.00885  -1.62261   1.88132 
 O                     0.43943  -2.36109   0.72583 
 H                     3.49919  -1.43027   0.79555 
 H                     4.12321  -0.37286  -1.70387 
 H                     2.87372  -1.60887  -1.52678 
 H                     2.41986   1.20017  -2.29982 
 H                     1.22419  -0.0858   -2.11992 
 H                     4.01526   0.25931   0.59443 
 H                     2.22577   1.91683  -0.05798 
 H                    -0.66354  -0.5227   -0.67613 
 H                    -3.60673   2.30851  -0.11031 
 H                    -1.90089   4.13661   0.2644 
 H                     0.52387   3.53323   0.20102 
 C                     1.85486   0.43215   2.08431 
 H                    -2.81824   0.05712  -0.49631 
 H                     0.97911  -1.52067   0.68443 
 H                     1.00909  -3.03886   1.09841 
 H                    -3.15787  -1.67255   0.41816 
 H                    -2.81925  -1.95986  -1.04209 
 H                    -2.23912  -2.00536   2.73123 
 H                    -1.14374  -1.9957    1.63545 
 O                    -1.07912  -2.54335  -1.60925 
 H                    -0.48747  -2.75681  -0.86739 
 H                    -0.9603   -3.23129  -2.2684 
 H                     2.15105  -0.38479   2.75267 
 H                     0.82877   0.72459   2.33881 
 H                     2.5288    1.28891   2.26158 
 

 GradGradGradGradGradGradGradGradGradGradGradGradGradGradGradGradGradGrad
 Berny optimization.
 Initialization pass.
 Trust Radius=3.00D-01 FncErr=1.00D-07 GrdErr=1.00D-07 EigMax=2.50D+02 EigMin=1.00D-04
 Number of steps in this run=      2 maximum allowed number of steps=      2.
 GradGradGradGradGradGradGradGradGradGradGradGradGradGradGradGradGradGrad

                          Input orientation:                          
 ---------------------------------------------------------------------
 Center     Atomic      Atomic             Coordinates (Angstroms)
 Number     Number       Type             X           Y           Z
 ---------------------------------------------------------------------
      1          6           0       -0.233508    2.768554    0.026057
      2          6           0        0.158680    1.454089   -0.232902
      3          6           0       -0.848374    0.523019   -0.443923
      4          7           0       -2.136765    0.874304   -0.387060
      5          6           0       -2.534712    2.130397   -0.139541
      6          6           0       -1.585678    3.115082    0.065799
      7          6           0        1.605510    1.027894   -0.281738
      8          7           0        1.915114   -0.026747    0.699508
      9          6           0        3.254539   -0.484589    0.296272
     10          6           0        3.162639   -0.594818   -1.229009
     11          6           0        2.060809    0.418844   -1.622196
     12          8           0       -3.404179   -1.412384   -0.489541
     13          8           0       -2.008851   -1.622605    1.881324
     14          8           0        0.439434   -2.361094    0.725832
     15          1           0        3.499192   -1.430273    0.795554
     16          1           0        4.123209   -0.372862   -1.703870
     17          1           0        2.873717   -1.608867   -1.526776
     18          1           0        2.419862    1.200173   -2.299821
     19          1           0        1.224191   -0.085799   -2.119918
     20          1           0        4.015264    0.259313    0.594430
     21          1           0        2.225772    1.916834   -0.057983
     22          1           0       -0.663536   -0.522699   -0.676130
     23          1           0       -3.606734    2.308514   -0.110308
     24          1           0       -1.900893    4.136613    0.264402
     25          1           0        0.523868    3.533227    0.201020
     26          6           0        1.854855    0.432147    2.084308
     27          1           0       -2.818244    0.057116   -0.496306
     28          1           0        0.979110   -1.520668    0.684431
     29          1           0        1.009093   -3.038865    1.098412
     30          1           0       -3.157873   -1.672549    0.418160
     31          1           0       -2.819249   -1.959864   -1.042089
     32          1           0       -2.239123   -2.005359    2.731227
     33          1           0       -1.143742   -1.995701    1.635450
     34          8           0       -1.079120   -2.543354   -1.609247
     35          1           0       -0.487468   -2.756814   -0.867394
     36          1           0       -0.960296   -3.231286   -2.268401
     37          1           0        2.151046   -0.384792    2.752671
     38          1           0        0.828774    0.724585    2.338810
     39          1           0        2.528798    1.288914    2.261576
 ---------------------------------------------------------------------
                    Distance matrix (angstroms):
                    1          2          3          4          5
     1  C    0.000000
     2  C    1.395955   0.000000
     3  C    2.375157   1.387652   0.000000
     4  N    2.716843   2.372548   1.336632   0.000000
     5  C    2.393785   2.778573   2.349478   1.340670   0.000000
     6  C    1.396433   2.427119   2.742667   2.351566   1.382908
     7  C    2.550808   1.509087   2.510528   3.746906   4.286860
     8  N    3.589404   2.479380   3.040813   4.290716   5.015798
     9  C    4.777282   3.690913   4.289179   5.601758   6.367379
    10  C    4.941789   3.770148   4.237233   5.563352   6.408865
    11  C    3.674475   2.572929   3.140466   4.399163   5.123133
    12  O    5.272498   4.580010   3.206245   2.616445   3.664665
    13  O    5.086859   4.316734   3.370042   3.375868   4.294817
    14  O    5.220711   3.943807   3.368217   4.282888   5.455997
    15  H    5.670566   4.531698   4.924732   6.202714   7.068293
    16  H    5.642883   4.606407   5.206410   6.517414   7.282949
    17  H    5.588198   4.292696   4.423965   5.707015   6.719942
    18  H    3.861334   3.074016   3.818935   4.952544   5.484517
    19  H    3.857127   2.658458   2.734071   3.901361   4.791948
    20  H    4.967031   4.121311   4.980230   6.260112   6.851413
    21  H    2.603949   2.125464   3.397358   4.497431   4.765970
    22  H    3.392689   2.186363   1.087019   2.050752   3.290615
    23  H    3.407182   3.863083   3.302702   2.072283   1.087111
    24  H    2.169923   3.418346   3.829828   3.335071   2.142382
    25  H    1.090392   2.155102   3.370512   3.807188   3.382133
    26  C    3.749194   3.048087   3.702385   4.715527   5.205560
    27  H    3.782277   3.298938   2.024894   1.069647   2.122773
    28  H    4.505699   3.219283   2.964715   4.073409   5.133824
    29  H    6.034908   4.762587   4.303022   5.236023   6.388455
    30  H    5.331890   4.604267   3.301135   2.859633   3.893810
    31  H    5.494081   4.601947   3.225966   2.987868   4.198308
    32  H    5.842147   5.148136   4.290508   4.245780   5.043130
    33  H    5.110460   4.133775   3.279479   3.648777   4.702135
    34  O    5.621890   4.405227   3.288444   3.780574   5.111040
    35  H    5.602896   4.307179   3.326693   4.016954   5.348440
    36  H    6.464583   5.229541   4.175650   4.666840   5.979839
    37  H    4.802511   4.032946   4.476478   5.461553   6.053709
    38  H    3.264212   2.755885   3.255312   4.030782   4.408125
    39  H    3.849313   3.444875   4.394498   5.380953   5.666797
                    6          7          8          9         10
     6  C    0.000000
     7  C    3.828945   0.000000
     8  N    4.746390   1.473420   0.000000
     9  C    6.036427   2.311060   1.471828   0.000000
    10  C    6.163311   2.440321   2.366052   1.532018   0.000000
    11  C    4.838997   1.541125   2.368562   2.433455   1.547946
    12  O    4.910529   5.576300   5.623940   6.768813   6.658703
    13  O    5.091256   4.976704   4.397835   5.613443   6.121669
    14  O    5.875817   3.722925   2.761793   3.410368   3.789061
    15  H    6.859205   3.284688   2.118588   1.097021   2.215876
    16  H    6.920179   3.213002   3.282028   2.183492   1.094282
    17  H    6.688662   3.179776   2.894540   2.175438   1.095644
    18  H    5.030645   2.183004   3.279646   3.205434   2.218186
    19  H    4.787313   2.182801   2.903450   3.181088   2.193262
    20  H    6.309154   2.676808   2.122146   1.104985   2.186650
    21  H    3.997283   1.106800   2.108983   2.636416   2.925306
    22  H    3.825474   2.776410   2.964420   4.037119   3.866587
    23  H    2.183170   5.369997   6.049798   7.419151   7.450184
    24  H    1.087350   4.717761   5.664344   6.923511   7.089152
    25  H    2.154835   2.771227   3.854539   4.858856   5.103807
    26  C    4.807264   2.452603   1.460098   2.448794   3.707159
    27  H    3.344598   4.534098   4.882794   6.148196   6.060762
    28  H    5.333950   2.796610   1.762989   2.530159   3.047335
    29  H    6.757972   4.335788   3.170623   3.494250   4.003500
    30  H    5.051472   5.520151   5.340695   6.522663   6.619935
    31  H    5.338932   5.392896   5.402249   6.392069   6.138507
    32  H    5.809511   5.749764   5.029958   6.198554   6.844861
    33  H    5.364626   4.513992   3.756244   4.839600   5.358406
    34  O    5.922861   4.660829   4.541927   5.162375   4.683363
    35  H    6.046162   4.364352   3.959905   4.529872   4.257731
    36  H    6.790875   5.354513   5.229296   5.646833   5.002988
    37  H    5.781998   3.391302   2.097460   2.694727   4.113539
    38  H    4.087864   2.750016   2.105219   3.393877   4.462856
    39  H    5.008517   2.718279   2.132517   2.744892   4.016763
                   11         12         13         14         15
    11  C    0.000000
    12  O    5.873874   0.000000
    13  O    5.744937   2.759010   0.000000
    14  O    3.983735   4.141321   2.806177   0.000000
    15  H    3.366555   7.021988   5.617333   3.198970   0.000000
    16  H    2.210648   7.695243   7.212325   4.840115   2.784715
    17  H    2.186672   6.366038   5.954394   3.400856   2.411707
    18  H    1.094792   6.634909   6.712939   5.075361   4.203040
    19  H    1.096504   5.083283   5.368824   3.727077   3.934872
    20  H    2.959523   7.682298   6.441093   4.435128   1.778056
    21  H    2.172084   6.554867   5.849835   4.701706   3.681474
    22  H    3.033744   2.887469   3.091963   2.561589   4.507532
    23  H    6.162605   3.745655   4.687593   6.235050   8.080427
    24  H    5.751186   5.798247   5.982866   6.921723   7.773883
    25  H    3.922459   6.353385   5.985039   5.918241   5.817418
    26  C    3.712245   6.138765   4.380803   3.413366   2.798810
    27  H    5.020322   1.582023   3.021540   4.237196   6.617494
    28  H    3.201922   4.539070   3.220381   0.999640   2.524150
    29  H    4.523667   4.964273   3.424431   0.960573   2.979913
    30  H    5.980938   0.975845   1.861074   3.675510   6.672154
    31  H    5.459830   0.973235   3.052349   3.729014   6.601522
    32  H    6.581677   3.475963   0.960136   3.364940   6.083240
    33  H    5.168310   3.156805   0.973688   1.862086   4.752049
    34  O    4.316705   2.817576   3.727769   2.791383   5.289892
    35  H    4.141044   3.233801   3.340133   1.885235   4.518691
    36  H    4.782061   3.527791   4.572476   3.417881   5.702500
    37  H    4.448981   6.513709   4.426756   3.308090   2.596312
    38  H    4.159442   5.521241   3.710891   3.503527   3.762471
    39  H    4.007458   7.075724   5.404794   4.477333   3.238034
                   16         17         18         19         20
    16  H    0.000000
    17  H    1.766437   0.000000
    18  H    2.393948   2.948608   0.000000
    19  H    2.942755   2.322173   1.765140   0.000000
    20  H    2.386101   3.048400   3.436163   3.908564   0.000000
    21  H    3.398811   3.873984   2.361591   3.043892   2.524936
    22  H    4.898125   3.796777   3.887416   2.416385   4.910910
    23  H    8.335541   7.703798   6.507092   5.754051   7.924060
    24  H    7.778127   7.682172   5.819523   5.768873   7.081193
    25  H    5.642818   5.911700   3.910517   4.355979   4.802409
    26  C    4.488180   4.271270   4.486612   4.282700   2.630014
    27  H    7.058814   6.019617   5.656589   4.358649   6.922963
    28  H    4.111788   2.913203   4.287715   3.159634   3.520606
    29  H    4.965690   3.523255   5.613172   4.373158   4.490995
    30  H    7.694566   6.337737   6.837476   5.306798   7.430818
    31  H    7.152220   5.724332   6.246280   4.585111   7.369770
    32  H    7.925554   6.665503   7.569215   6.262017   6.986558
    33  H    6.444023   5.127308   6.196712   4.832972   5.725745
    34  O    5.637749   4.062633   5.170470   3.406700   6.218029
    35  H    5.257496   3.612497   5.114896   3.410706   5.613247
    36  H    5.859292   4.228700   5.573534   3.832508   6.718354
    37  H    4.873431   4.509355   5.302080   4.968962   2.923728
    38  H    5.329254   4.956768   4.926930   4.548992   3.662384
    39  H    4.585674   4.782020   4.563561   4.773817   2.459479
                   21         22         23         24         25
    21  H    0.000000
    22  H    3.831648   0.000000
    23  H    5.845877   4.122904   0.000000
    24  H    4.696884   4.911705   2.528289   0.000000
    25  H    2.361416   4.316232   4.319574   2.499512   0.000000
    26  C    2.632733   3.856688   6.177868   5.580391   3.864582
    27  H    5.393772   2.238591   2.416507   4.250001   4.872302
    28  H    3.731188   2.354858   6.026957   6.362049   5.097331
    29  H    5.232257   3.503966   7.166682   7.787880   6.650801
    30  H    6.487990   2.956576   4.040992   5.945587   6.379849
    31  H    6.438128   2.616576   4.439302   6.302169   6.549489
    32  H    6.564951   4.036191   5.343611   6.627477   6.686703
    33  H    5.434084   2.782757   5.257401   6.329165   5.950425
    34  O    5.763854   2.264170   5.672413   6.986260   6.539990
    35  H    5.464412   2.249189   5.996711   7.127276   6.459793
    36  H    6.445162   3.155921   6.507717   7.847659   7.352511
    37  H    3.633572   4.438194   6.971555   6.561463   4.950707
    38  H    3.019549   3.587836   5.308554   4.836960   3.542821
    39  H    2.422078   4.701389   6.656589   5.632074   3.647270
                   26         27         28         29         30
    26  C    0.000000
    27  H    5.351455   0.000000
    28  H    2.557356   4.278252   0.000000
    29  H    3.706107   5.174624   1.573913   0.000000
    30  H    5.686232   1.985784   4.148325   4.437698   0.000000
    31  H    6.110918   2.089519   4.195390   4.516878   1.526284
    32  H    4.808388   3.873778   3.844649   3.779567   2.511004
    33  H    3.884264   3.400353   2.374151   2.451795   2.375489
    34  O    5.577111   3.320487   3.247023   3.455081   3.031484
    35  H    4.936445   3.672659   2.467199   2.486693   3.155843
    36  H    6.347589   4.172035   3.925140   3.905246   3.804815
    37  H    1.096279   5.953568   2.634628   3.329374   5.940781
    38  H    1.096874   4.667348   2.792979   3.966694   5.032743
    39  H    1.104388   6.141180   3.575286   4.732032   6.671332
                   31         32         33         34         35
    31  H    0.000000
    32  H    3.817922   0.000000
    33  H    3.158769   1.549413   0.000000
    34  O    1.920984   4.524904   3.291224   0.000000
    35  H    2.470395   4.072229   2.697076   0.972606   0.000000
    36  H    2.564383   5.304204   4.098826   0.960132   1.552904
    37  H    6.448635   4.679774   3.833906   5.841206   5.068838
    38  H    5.651975   4.125358   3.433000   5.468696   4.912471
    39  H    7.076042   5.814282   4.966717   6.533500   5.937696
                   36         37         38         39
    36  H    0.000000
    37  H    6.556992   0.000000
    38  H    6.330567   1.774937   0.000000
    39  H    7.288805   1.784702   1.792907   0.000000
 Stoichiometry    C10H23N2O4(1+)
 Framework group  C1[X(C10H23N2O4)]
 Deg. of freedom   111
 Full point group                 C1      NOp   1
 Largest Abelian subgroup         C1      NOp   1
 Largest concise Abelian subgroup C1      NOp   1
                         Standard orientation:                         
 ---------------------------------------------------------------------
 Center     Atomic      Atomic             Coordinates (Angstroms)
 Number     Number       Type             X           Y           Z
 ---------------------------------------------------------------------
      1          6           0       -0.233508    2.768554    0.026057
      2          6           0        0.158680    1.454089   -0.232902
      3          6           0       -0.848374    0.523019   -0.443923
      4          7           0       -2.136765    0.874304   -0.387060
      5          6           0       -2.534712    2.130397   -0.139541
      6          6           0       -1.585678    3.115082    0.065799
      7          6           0        1.605510    1.027894   -0.281738
      8          7           0        1.915114   -0.026747    0.699508
      9          6           0        3.254539   -0.484589    0.296272
     10          6           0        3.162639   -0.594818   -1.229009
     11          6           0        2.060809    0.418844   -1.622196
     12          8           0       -3.404179   -1.412384   -0.489541
     13          8           0       -2.008851   -1.622605    1.881324
     14          8           0        0.439434   -2.361094    0.725832
     15          1           0        3.499192   -1.430273    0.795554
     16          1           0        4.123209   -0.372862   -1.703870
     17          1           0        2.873717   -1.608867   -1.526776
     18          1           0        2.419862    1.200173   -2.299821
     19          1           0        1.224191   -0.085799   -2.119918
     20          1           0        4.015264    0.259313    0.594430
     21          1           0        2.225772    1.916834   -0.057983
     22          1           0       -0.663536   -0.522699   -0.676130
     23          1           0       -3.606734    2.308514   -0.110308
     24          1           0       -1.900893    4.136613    0.264402
     25          1           0        0.523868    3.533227    0.201020
     26          6           0        1.854855    0.432147    2.084308
     27          1           0       -2.818244    0.057116   -0.496306
     28          1           0        0.979110   -1.520668    0.684431
     29          1           0        1.009093   -3.038865    1.098412
     30          1           0       -3.157873   -1.672549    0.418160
     31          1           0       -2.819249   -1.959864   -1.042089
     32          1           0       -2.239123   -2.005359    2.731227
     33          1           0       -1.143742   -1.995701    1.635450
     34          8           0       -1.079120   -2.543354   -1.609247
     35          1           0       -0.487468   -2.756814   -0.867394
     36          1           0       -0.960296   -3.231286   -2.268401
     37          1           0        2.151046   -0.384792    2.752671
     38          1           0        0.828774    0.724585    2.338810
     39          1           0        2.528798    1.288914    2.261576
 ---------------------------------------------------------------------
 Rotational constants (GHZ):           0.5231954           0.3930272           0.2989797
 Standard basis: Aug-CC-pVDZ (5D, 7F)
 There are   607 symmetry adapted cartesian basis functions of A   symmetry.
 There are   575 symmetry adapted basis functions of A   symmetry.
   575 basis functions,   941 primitive gaussians,   607 cartesian basis functions
    64 alpha electrons       64 beta electrons
       nuclear repulsion energy      1273.8194074785 Hartrees.
 NAtoms=   39 NActive=   39 NUniq=   39 SFac= 1.00D+00 NAtFMM=   60 NAOKFM=F Big=F
 Integral buffers will be    131072 words long.
 Raffenetti 2 integral format.
 Two-electron integral symmetry is turned on.
 Nuclear repulsion after empirical dispersion term =     1273.7863288945 Hartrees.
 One-electron integrals computed using PRISM.
 NBasis=   575 RedAO= T EigKep=  1.49D-06  NBF=   575
 NBsUse=   575 1.00D-06 EigRej= -1.00D+00 NBFU=   575
 ExpMin= 2.97D-02 ExpMax= 1.17D+04 ExpMxC= 4.01D+02 IAcc=3 IRadAn=         5 AccDes= 0.00D+00
 Harris functional with IExCor= 4639 and IRadAn=       5 diagonalized for initial guess.
 HarFok:  IExCor= 4639 AccDes= 0.00D+00 IRadAn=         5 IDoV= 1 UseB2=F ITyADJ=14
 ICtDFT=  3500011 ScaDFX=  1.000000  1.000000  1.000000  1.000000
 FoFCou: FMM=F IPFlag=           0 FMFlag=      100000 FMFlg1=           0
         NFxFlg=           0 DoJE=T BraDBF=F KetDBF=T FulRan=T
         wScrn=  0.000000 ICntrl=       500 IOpCl=  0 I1Cent=   200000004 NGrid=           0
         NMat0=    1 NMatS0=      1 NMatT0=    0 NMatD0=    1 NMtDS0=    0 NMtDT0=    0
 Petite list used in FoFCou.
 Requested convergence on RMS density matrix=1.00D-08 within 128 cycles.
 Requested convergence on MAX density matrix=1.00D-06.
 Requested convergence on             energy=1.00D-06.
 No special actions if energy rises.
 SCF Done:  E(RwB97XD) =  -805.036145804     A.U. after   16 cycles
            NFock= 16  Conv=0.15D-08     -V/T= 2.0062
 DoSCS=F DFT=T ScalE2(SS,OS)=  1.000000  1.000000
 Range of M.O.s used for correlation:     1   575
 NBasis=   575 NAE=    64 NBE=    64 NFC=     0 NFV=     0
 NROrb=    575 NOA=    64 NOB=    64 NVA=   511 NVB=   511

 **** Warning!!: The largest alpha MO coefficient is  0.12552080D+03

 Symmetrizing basis deriv contribution to polar:
 IMax=3 JMax=2 DiffMx= 0.00D+00
 G2DrvN: will do    40 centers at a time, making    1 passes.
 Calling FoFCou, ICntrl=  3107 FMM=F I1Cent=   0 AccDes= 0.00D+00.
 End of G2Drv F.D. properties file   721 does not exist.
 End of G2Drv F.D. properties file   722 does not exist.
 End of G2Drv F.D. properties file   788 does not exist.
          IDoAtm=111111111111111111111111111111111111111
          Differentiating once with respect to electric field.
                with respect to dipole field.
          Differentiating once with respect to nuclear coordinates.
 CalDSu exits because no D1Ps are significant.
          There are   120 degrees of freedom in the 1st order CPHF.  IDoFFX=6 NUNeed=     3.
    117 vectors produced by pass  0 Test12= 3.27D-14 1.00D-09 XBig12= 7.64D+01 3.29D+00.
 AX will form   117 AO Fock derivatives at one time.
    117 vectors produced by pass  1 Test12= 3.27D-14 1.00D-09 XBig12= 9.31D+00 7.21D-01.
    117 vectors produced by pass  2 Test12= 3.27D-14 1.00D-09 XBig12= 2.36D-01 7.08D-02.
    117 vectors produced by pass  3 Test12= 3.27D-14 1.00D-09 XBig12= 2.32D-03 4.15D-03.
    117 vectors produced by pass  4 Test12= 3.27D-14 1.00D-09 XBig12= 2.09D-05 3.63D-04.
    117 vectors produced by pass  5 Test12= 3.27D-14 1.00D-09 XBig12= 1.31D-07 2.06D-05.
    115 vectors produced by pass  6 Test12= 3.27D-14 1.00D-09 XBig12= 7.61D-10 1.65D-06.
     44 vectors produced by pass  7 Test12= 3.27D-14 1.00D-09 XBig12= 3.80D-12 1.38D-07.
      3 vectors produced by pass  8 Test12= 3.27D-14 1.00D-09 XBig12= 2.39D-14 1.18D-08.
      3 vectors produced by pass  9 Test12= 3.27D-14 1.00D-09 XBig12= 9.32D-15 7.30D-09.
      1 vectors produced by pass 10 Test12= 3.27D-14 1.00D-09 XBig12= 2.72D-16 1.07D-09.
 InvSVY:  IOpt=1 It=  1 EMax= 1.78D-14
 Solved reduced A of dimension   868 with   120 vectors.
 Isotropic polarizability for W=    0.000000      161.15 Bohr**3.
 End of Minotr F.D. properties file   721 does not exist.
 End of Minotr F.D. properties file   722 does not exist.
 End of Minotr F.D. properties file   788 does not exist.

 **********************************************************************

            Population analysis using the SCF density.

 **********************************************************************

 Orbital symmetries:
       Occupied  (A) (A) (A) (A) (A) (A) (A) (A) (A) (A) (A) (A)
                 (A) (A) (A) (A) (A) (A) (A) (A) (A) (A) (A) (A)
                 (A) (A) (A) (A) (A) (A) (A) (A) (A) (A) (A) (A)
                 (A) (A) (A) (A) (A) (A) (A) (A) (A) (A) (A) (A)
                 (A) (A) (A) (A) (A) (A) (A) (A) (A) (A) (A) (A)
                 (A) (A) (A) (A)
       Virtual   (A) (A) (A) (A) (A) (A) (A) (A) (A) (A) (A) (A)
                 (A) (A) (A) (A) (A) (A) (A) (A) (A) (A) (A) (A)
                 (A) (A) (A) (A) (A) (A) (A) (A) (A) (A) (A) (A)
                 (A) (A) (A) (A) (A) (A) (A) (A) (A) (A) (A) (A)
                 (A) (A) (A) (A) (A) (A) (A) (A) (A) (A) (A) (A)
                 (A) (A) (A) (A) (A) (A) (A) (A) (A) (A) (A) (A)
                 (A) (A) (A) (A) (A) (A) (A) (A) (A) (A) (A) (A)
                 (A) (A) (A) (A) (A) (A) (A) (A) (A) (A) (A) (A)
                 (A) (A) (A) (A) (A) (A) (A) (A) (A) (A) (A) (A)
                 (A) (A) (A) (A) (A) (A) (A) (A) (A) (A) (A) (A)
                 (A) (A) (A) (A) (A) (A) (A) (A) (A) (A) (A) (A)
                 (A) (A) (A) (A) (A) (A) (A) (A) (A) (A) (A) (A)
                 (A) (A) (A) (A) (A) (A) (A) (A) (A) (A) (A) (A)
                 (A) (A) (A) (A) (A) (A) (A) (A) (A) (A) (A) (A)
                 (A) (A) (A) (A) (A) (A) (A) (A) (A) (A) (A) (A)
                 (A) (A) (A) (A) (A) (A) (A) (A) (A) (A) (A) (A)
                 (A) (A) (A) (A) (A) (A) (A) (A) (A) (A) (A) (A)
                 (A) (A) (A) (A) (A) (A) (A) (A) (A) (A) (A) (A)
                 (A) (A) (A) (A) (A) (A) (A) (A) (A) (A) (A) (A)
                 (A) (A) (A) (A) (A) (A) (A) (A) (A) (A) (A) (A)
                 (A) (A) (A) (A) (A) (A) (A) (A) (A) (A) (A) (A)
                 (A) (A) (A) (A) (A) (A) (A) (A) (A) (A) (A) (A)
                 (A) (A) (A) (A) (A) (A) (A) (A) (A) (A) (A) (A)
                 (A) (A) (A) (A) (A) (A) (A) (A) (A) (A) (A) (A)
                 (A) (A) (A) (A) (A) (A) (A) (A) (A) (A) (A) (A)
                 (A) (A) (A) (A) (A) (A) (A) (A) (A) (A) (A) (A)
                 (A) (A) (A) (A) (A) (A) (A) (A) (A) (A) (A) (A)
                 (A) (A) (A) (A) (A) (A) (A) (A) (A) (A) (A) (A)
                 (A) (A) (A) (A) (A) (A) (A) (A) (A) (A) (A) (A)
                 (A) (A) (A) (A) (A) (A) (A) (A) (A) (A) (A) (A)
                 (A) (A) (A) (A) (A) (A) (A) (A) (A) (A) (A) (A)
                 (A) (A) (A) (A) (A) (A) (A) (A) (A) (A) (A) (A)
                 (A) (A) (A) (A) (A) (A) (A) (A) (A) (A) (A) (A)
                 (A) (A) (A) (A) (A) (A) (A) (A) (A) (A) (A) (A)
                 (A) (A) (A) (A) (A) (A) (A) (A) (A) (A) (A) (A)
                 (A) (A) (A) (A) (A) (A) (A) (A) (A) (A) (A) (A)
                 (A) (A) (A) (A) (A) (A) (A) (A) (A) (A) (A) (A)
                 (A) (A) (A) (A) (A) (A) (A) (A) (A) (A) (A) (A)
                 (A) (A) (A) (A) (A) (A) (A) (A) (A) (A) (A) (A)
                 (A) (A) (A) (A) (A) (A) (A) (A) (A) (A) (A) (A)
                 (A) (A) (A) (A) (A) (A) (A) (A) (A) (A) (A) (A)
                 (A) (A) (A) (A) (A) (A) (A) (A) (A) (A) (A) (A)
                 (A) (A) (A) (A) (A) (A) (A)
 The electronic state is 1-A.
 Alpha  occ. eigenvalues --  -19.40776 -19.39408 -19.38867 -19.37953 -14.67070
 Alpha  occ. eigenvalues --  -14.59201 -10.50939 -10.50433 -10.47909 -10.47333
 Alpha  occ. eigenvalues --  -10.47026 -10.46862 -10.44325 -10.44037 -10.42058
 Alpha  occ. eigenvalues --  -10.41288  -1.25741  -1.25137  -1.23571  -1.23204
 Alpha  occ. eigenvalues --   -1.21918  -1.18352  -1.08350  -1.04752  -1.01265
 Alpha  occ. eigenvalues --   -0.96444  -0.90493  -0.90318  -0.89182  -0.82591
 Alpha  occ. eigenvalues --   -0.80546  -0.80064  -0.75999  -0.75179  -0.74913
 Alpha  occ. eigenvalues --   -0.74120  -0.73406  -0.72599  -0.71527  -0.70278
 Alpha  occ. eigenvalues --   -0.68934  -0.67967  -0.66313  -0.65278  -0.64377
 Alpha  occ. eigenvalues --   -0.63653  -0.62211  -0.61835  -0.60348  -0.60008
 Alpha  occ. eigenvalues --   -0.59483  -0.58014  -0.57749  -0.57045  -0.56333
 Alpha  occ. eigenvalues --   -0.54709  -0.54335  -0.53415  -0.52745  -0.52520
 Alpha  occ. eigenvalues --   -0.52132  -0.51416  -0.49500  -0.45727
 Alpha virt. eigenvalues --   -0.13770  -0.11062  -0.06921  -0.05783  -0.04870
 Alpha virt. eigenvalues --   -0.04826  -0.03648  -0.03326  -0.02961  -0.02856
 Alpha virt. eigenvalues --   -0.02428  -0.01454  -0.01199  -0.00734  -0.00315
 Alpha virt. eigenvalues --   -0.00245   0.00016   0.00382   0.00866   0.01462
 Alpha virt. eigenvalues --    0.01512   0.02048   0.02306   0.02624   0.02773
 Alpha virt. eigenvalues --    0.03083   0.03426   0.03737   0.04125   0.04194
 Alpha virt. eigenvalues --    0.04723   0.05084   0.05108   0.05630   0.05774
 Alpha virt. eigenvalues --    0.05806   0.06334   0.06386   0.06484   0.06795
 Alpha virt. eigenvalues --    0.07058   0.07854   0.08086   0.08235   0.08632
 Alpha virt. eigenvalues --    0.08777   0.09014   0.09414   0.09728   0.09877
 Alpha virt. eigenvalues --    0.10186   0.10554   0.11174   0.11188   0.11600
 Alpha virt. eigenvalues --    0.11823   0.11938   0.12150   0.12897   0.13211
 Alpha virt. eigenvalues --    0.13585   0.13862   0.14100   0.14542   0.14805
 Alpha virt. eigenvalues --    0.15314   0.15642   0.15738   0.16126   0.16258
 Alpha virt. eigenvalues --    0.16465   0.16771   0.16902   0.17074   0.17449
 Alpha virt. eigenvalues --    0.17766   0.17870   0.18419   0.18707   0.18732
 Alpha virt. eigenvalues --    0.18934   0.19475   0.19842   0.20104   0.20224
 Alpha virt. eigenvalues --    0.20564   0.20990   0.21281   0.21518   0.21783
 Alpha virt. eigenvalues --    0.22048   0.22362   0.23035   0.23590   0.23652
 Alpha virt. eigenvalues --    0.24031   0.24097   0.24526   0.24680   0.25245
 Alpha virt. eigenvalues --    0.25528   0.25642   0.26120   0.26501   0.27133
 Alpha virt. eigenvalues --    0.27294   0.27698   0.27919   0.28340   0.28662
 Alpha virt. eigenvalues --    0.29436   0.29625   0.30287   0.30600   0.31004
 Alpha virt. eigenvalues --    0.31613   0.31972   0.32223   0.32736   0.32818
 Alpha virt. eigenvalues --    0.33296   0.33574   0.34173   0.34526   0.34827
 Alpha virt. eigenvalues --    0.35337   0.36056   0.36237   0.36565   0.37354
 Alpha virt. eigenvalues --    0.37485   0.37786   0.38356   0.38666   0.39297
 Alpha virt. eigenvalues --    0.39601   0.40101   0.40392   0.40750   0.41147
 Alpha virt. eigenvalues --    0.41346   0.41792   0.42503   0.42729   0.43790
 Alpha virt. eigenvalues --    0.44055   0.44655   0.44790   0.45088   0.45608
 Alpha virt. eigenvalues --    0.45959   0.46068   0.46683   0.46954   0.47489
 Alpha virt. eigenvalues --    0.47583   0.47996   0.48069   0.48666   0.49250
 Alpha virt. eigenvalues --    0.50097   0.50137   0.50449   0.50647   0.51312
 Alpha virt. eigenvalues --    0.51484   0.52415   0.52588   0.52991   0.53511
 Alpha virt. eigenvalues --    0.53827   0.54205   0.54531   0.54585   0.54970
 Alpha virt. eigenvalues --    0.55454   0.55663   0.56017   0.56277   0.56611
 Alpha virt. eigenvalues --    0.57563   0.58103   0.58205   0.58327   0.59046
 Alpha virt. eigenvalues --    0.59206   0.59548   0.59995   0.60585   0.60817
 Alpha virt. eigenvalues --    0.61422   0.62063   0.62130   0.62627   0.63165
 Alpha virt. eigenvalues --    0.63338   0.63648   0.64417   0.64593   0.64692
 Alpha virt. eigenvalues --    0.65310   0.66227   0.66409   0.67311   0.67757
 Alpha virt. eigenvalues --    0.67964   0.68410   0.68884   0.69464   0.69509
 Alpha virt. eigenvalues --    0.69727   0.70785   0.70928   0.71083   0.71691
 Alpha virt. eigenvalues --    0.72599   0.73057   0.73396   0.73693   0.74285
 Alpha virt. eigenvalues --    0.74581   0.74933   0.75153   0.75817   0.76207
 Alpha virt. eigenvalues --    0.76759   0.77384   0.77736   0.78056   0.78608
 Alpha virt. eigenvalues --    0.79889   0.80218   0.80757   0.81060   0.82228
 Alpha virt. eigenvalues --    0.82679   0.83601   0.83642   0.84156   0.84974
 Alpha virt. eigenvalues --    0.86395   0.86450   0.86859   0.87602   0.87865
 Alpha virt. eigenvalues --    0.88912   0.89266   0.90092   0.90472   0.91304
 Alpha virt. eigenvalues --    0.92386   0.92757   0.93239   0.93719   0.94467
 Alpha virt. eigenvalues --    0.95801   0.96144   0.96904   0.97446   0.97862
 Alpha virt. eigenvalues --    0.99332   1.00188   1.00811   1.01855   1.02569
 Alpha virt. eigenvalues --    1.03187   1.03394   1.04137   1.05373   1.05860
 Alpha virt. eigenvalues --    1.06593   1.07384   1.07635   1.08246   1.09849
 Alpha virt. eigenvalues --    1.10609   1.10968   1.11648   1.12311   1.13092
 Alpha virt. eigenvalues --    1.13725   1.15152   1.15349   1.15724   1.16910
 Alpha virt. eigenvalues --    1.17517   1.17971   1.19448   1.20198   1.21270
 Alpha virt. eigenvalues --    1.21807   1.22668   1.23534   1.24054   1.25592
 Alpha virt. eigenvalues --    1.26220   1.27103   1.27883   1.28769   1.29978
 Alpha virt. eigenvalues --    1.31722   1.32148   1.32320   1.32591   1.34210
 Alpha virt. eigenvalues --    1.34639   1.36150   1.37369   1.38280   1.38951
 Alpha virt. eigenvalues --    1.39065   1.40091   1.40614   1.41355   1.42685
 Alpha virt. eigenvalues --    1.43496   1.43998   1.44474   1.45291   1.46613
 Alpha virt. eigenvalues --    1.47650   1.48599   1.49568   1.50789   1.52671
 Alpha virt. eigenvalues --    1.53129   1.53638   1.54976   1.55699   1.56874
 Alpha virt. eigenvalues --    1.57552   1.57976   1.58942   1.59332   1.60799
 Alpha virt. eigenvalues --    1.61355   1.62433   1.62980   1.63869   1.64300
 Alpha virt. eigenvalues --    1.64540   1.65432   1.66814   1.67061   1.68696
 Alpha virt. eigenvalues --    1.69116   1.69799   1.70135   1.70923   1.71322
 Alpha virt. eigenvalues --    1.71538   1.72822   1.73738   1.74615   1.75679
 Alpha virt. eigenvalues --    1.75925   1.77735   1.78072   1.79314   1.80101
 Alpha virt. eigenvalues --    1.81508   1.82296   1.82797   1.83876   1.84742
 Alpha virt. eigenvalues --    1.85156   1.85610   1.86071   1.86986   1.87636
 Alpha virt. eigenvalues --    1.88196   1.88968   1.89441   1.90308   1.91163
 Alpha virt. eigenvalues --    1.91676   1.93120   1.93857   1.94585   1.95042
 Alpha virt. eigenvalues --    1.96199   1.96922   1.97376   1.97650   1.98359
 Alpha virt. eigenvalues --    1.99351   1.99623   2.00002   2.00541   2.02431
 Alpha virt. eigenvalues --    2.02668   2.03539   2.04036   2.06116   2.06822
 Alpha virt. eigenvalues --    2.08876   2.09484   2.11110   2.11379   2.12138
 Alpha virt. eigenvalues --    2.12465   2.13738   2.14114   2.15907   2.16063
 Alpha virt. eigenvalues --    2.16567   2.18477   2.19324   2.20365   2.20929
 Alpha virt. eigenvalues --    2.22019   2.23819   2.24077   2.24662   2.25503
 Alpha virt. eigenvalues --    2.26900   2.27819   2.28056   2.28770   2.29361
 Alpha virt. eigenvalues --    2.30375   2.31420   2.32299   2.33617   2.35262
 Alpha virt. eigenvalues --    2.36398   2.37251   2.38909   2.39172   2.40634
 Alpha virt. eigenvalues --    2.42016   2.42406   2.43991   2.44362   2.44975
 Alpha virt. eigenvalues --    2.46458   2.47621   2.49529   2.50808   2.51939
 Alpha virt. eigenvalues --    2.53373   2.54561   2.55229   2.56682   2.57212
 Alpha virt. eigenvalues --    2.58363   2.59543   2.61259   2.61690   2.62542
 Alpha virt. eigenvalues --    2.62851   2.63441   2.65502   2.65937   2.67855
 Alpha virt. eigenvalues --    2.68381   2.69216   2.71685   2.72793   2.74138
 Alpha virt. eigenvalues --    2.75107   2.77217   2.79455   2.80573   2.80960
 Alpha virt. eigenvalues --    2.82563   2.82747   2.85563   2.88142   2.89131
 Alpha virt. eigenvalues --    2.89827   2.90805   2.93054   2.94077   2.96357
 Alpha virt. eigenvalues --    3.01382   3.03983   3.05082   3.07272   3.12756
 Alpha virt. eigenvalues --    3.13270   3.19747   3.23828   3.25357   3.31557
 Alpha virt. eigenvalues --    3.36718   3.40656   3.41469   3.42393   3.43115
 Alpha virt. eigenvalues --    3.45790   3.46360   3.47069   3.48501   3.52890
 Alpha virt. eigenvalues --    3.55184   3.55514   3.58091   3.66931   3.68197
 Alpha virt. eigenvalues --    3.71287   3.80683   3.84327   3.86215   3.92102
 Alpha virt. eigenvalues --    4.00006   4.03999   4.05051   4.09163   4.38081
 Alpha virt. eigenvalues --    5.04326
          Condensed to atoms (all electrons):
               1          2          3          4          5          6
     1  C   24.206581 -10.698297  -1.798113  -0.678098   1.444804  -3.700400
     2  C  -10.698297  27.807580  -5.181978   0.360747  -0.498766  -0.552590
     3  C   -1.798113  -5.181978  19.920046  -1.448683  -1.930136   1.111518
     4  N   -0.678098   0.360747  -1.448683   7.913322   0.184958   0.042390
     5  C    1.444804  -0.498766  -1.930136   0.184958  10.244142  -2.487523
     6  C   -3.700400  -0.552590   1.111518   0.042390  -2.487523  11.617914
     7  C   -1.147282  -9.695988  -3.559275   0.903011  -0.566283  -0.165892
     8  N   -0.432254   1.919310   0.800086  -0.131564   0.071266  -0.093763
     9  C    0.064392  -0.736192  -0.357376   0.032236  -0.026490  -0.016185
    10  C   -0.150830   0.384877   0.002229   0.020913   0.015530  -0.039805
    11  C    0.213176  -0.441986  -1.332683  -0.012491  -0.042728  -0.106927
    12  O    0.028360  -0.023662   0.139468  -0.259209  -0.021988  -0.030241
    13  O   -0.025375   0.067854  -0.098925   0.011799   0.011054   0.010929
    14  O   -0.001165   0.049292  -0.061297  -0.051098  -0.008842  -0.004619
    15  H    0.027085  -0.296770  -0.029121   0.001992  -0.000640  -0.001129
    16  H    0.008227  -0.051832   0.014669  -0.001013   0.002476  -0.003000
    17  H   -0.009510  -0.002563  -0.027335   0.005573  -0.002354   0.001253
    18  H   -0.074583   0.441066   0.409830  -0.014107   0.003662  -0.001051
    19  H    0.095253  -0.187539  -0.391696  -0.001414   0.010832  -0.054990
    20  H    0.026928   0.236305   0.035972  -0.001068  -0.000664   0.000208
    21  H    0.110202   1.190188  -0.178740   0.001214   0.025340   0.010863
    22  H   -0.516566  -0.519032  -1.259889   0.135119  -0.202642   0.317139
    23  H    0.260380  -0.264112   0.321489  -0.166631  -0.486266   0.099005
    24  H    0.441425   0.348793  -0.406319   0.025173   0.354585  -1.146504
    25  H   -2.497374   1.249135   0.260252  -0.060109  -0.234657   0.665379
    26  C   -0.413009   0.981852   0.096284  -0.019519  -0.027546   0.090770
    27  H    0.018880  -0.336253   0.479704   0.053101  -0.492996  -0.089591
    28  H    0.035187  -0.354167  -0.215816   0.036426   0.013304  -0.025048
    29  H   -0.002656   0.016761   0.020984  -0.000599  -0.000047   0.000692
    30  H   -0.009022   0.020301  -0.008057  -0.006635  -0.004138   0.007486
    31  H    0.006076   0.005900  -0.012806   0.000841  -0.005845  -0.002089
    32  H    0.000299  -0.013669   0.014541   0.002478  -0.001616   0.001481
    33  H   -0.001726  -0.002585   0.017980   0.008737   0.003659  -0.001073
    34  O   -0.001866  -0.046776  -0.011202   0.023234  -0.008792   0.017396
    35  H   -0.000470  -0.001664  -0.039266   0.006861   0.001653  -0.000924
    36  H   -0.000704   0.003565   0.027009   0.000987   0.001263  -0.000693
    37  H   -0.059067   0.128643  -0.069698   0.005090  -0.006348   0.017092
    38  H    0.062718  -0.209020   0.010432   0.001230  -0.023793   0.029586
    39  H    0.009629   0.241132   0.052601  -0.005098   0.013875  -0.018924
               7          8          9         10         11         12
     1  C   -1.147282  -0.432254   0.064392  -0.150830   0.213176   0.028360
     2  C   -9.695988   1.919310  -0.736192   0.384877  -0.441986  -0.023662
     3  C   -3.559275   0.800086  -0.357376   0.002229  -1.332683   0.139468
     4  N    0.903011  -0.131564   0.032236   0.020913  -0.012491  -0.259209
     5  C   -0.566283   0.071266  -0.026490   0.015530  -0.042728  -0.021988
     6  C   -0.165892  -0.093763  -0.016185  -0.039805  -0.106927  -0.030241
     7  C   29.923955  -5.879791  -0.036714   0.035138  -1.234771   0.024386
     8  N   -5.879791  14.972420  -0.343161  -0.328767  -1.248700   0.002178
     9  C   -0.036714  -0.343161   6.024553   0.049872   0.981003   0.000468
    10  C    0.035138  -0.328767   0.049872   6.405050  -1.129207   0.000503
    11  C   -1.234771  -1.248700   0.981003  -1.129207   9.603442   0.002427
    12  O    0.024386   0.002178   0.000468   0.000503   0.002427   8.277088
    13  O   -0.010360   0.001078   0.002345   0.001131  -0.002465  -0.091777
    14  O   -0.041937  -0.124309   0.033483   0.018551   0.153531   0.020115
    15  H    0.656436  -1.146612  -0.049341  -0.025892   0.242507  -0.000201
    16  H    0.004387  -0.157843   0.207214  -0.340678   0.327425   0.000041
    17  H    0.137611   0.167039  -0.130319  -0.367683   0.126818  -0.000280
    18  H    0.108460   0.487711  -0.308565   0.202758  -1.429102  -0.000082
    19  H    0.113367  -0.234848   0.160677   0.343479   0.157433   0.007276
    20  H    0.065768  -0.180325  -0.413431   0.099776  -0.113358   0.000042
    21  H   -3.100456  -0.099751   0.035601  -0.073546   0.736547   0.000360
    22  H   -1.048807   0.041819  -0.119474  -0.007895  -0.232568  -0.102694
    23  H   -0.048797   0.006899  -0.001504   0.000488   0.000483  -0.000148
    24  H    0.125486  -0.000549   0.000821   0.000555   0.005058  -0.000162
    25  H   -0.159487   0.025394  -0.012112  -0.004824  -0.084156   0.000037
    26  C   -1.299289   1.077212  -0.361139   0.113490  -0.435246  -0.001870
    27  H    0.087631  -0.003861   0.003639  -0.001049  -0.008076   0.114563
    28  H    0.837280  -0.236544  -0.061229  -0.131723   0.133652   0.009500
    29  H   -0.052570  -0.061240   0.018077   0.003463  -0.005639  -0.000547
    30  H   -0.003427  -0.000689  -0.001678   0.000570  -0.003036   0.295452
    31  H   -0.000041   0.001594   0.001195  -0.000665   0.007355   0.304658
    32  H    0.002072   0.003657  -0.000977  -0.001277   0.000175   0.001781
    33  H    0.027734  -0.031944   0.008210   0.014024  -0.010060  -0.001173
    34  O   -0.075703   0.017071  -0.005484  -0.009110   0.002300  -0.100582
    35  H    0.011849  -0.020913   0.011902  -0.021899   0.019223   0.002170
    36  H    0.006767   0.004404  -0.000624   0.005233  -0.008775   0.001145
    37  H    0.046309  -0.347606  -0.034040   0.060948  -0.107416  -0.000421
    38  H    0.157317   0.234820  -0.007360  -0.040140   0.099499  -0.000459
    39  H   -0.265030  -0.601615   0.043780   0.037528   0.016508  -0.000162
              13         14         15         16         17         18
     1  C   -0.025375  -0.001165   0.027085   0.008227  -0.009510  -0.074583
     2  C    0.067854   0.049292  -0.296770  -0.051832  -0.002563   0.441066
     3  C   -0.098925  -0.061297  -0.029121   0.014669  -0.027335   0.409830
     4  N    0.011799  -0.051098   0.001992  -0.001013   0.005573  -0.014107
     5  C    0.011054  -0.008842  -0.000640   0.002476  -0.002354   0.003662
     6  C    0.010929  -0.004619  -0.001129  -0.003000   0.001253  -0.001051
     7  C   -0.010360  -0.041937   0.656436   0.004387   0.137611   0.108460
     8  N    0.001078  -0.124309  -1.146612  -0.157843   0.167039   0.487711
     9  C    0.002345   0.033483  -0.049341   0.207214  -0.130319  -0.308565
    10  C    0.001131   0.018551  -0.025892  -0.340678  -0.367683   0.202758
    11  C   -0.002465   0.153531   0.242507   0.327425   0.126818  -1.429102
    12  O   -0.091777   0.020115  -0.000201   0.000041  -0.000280  -0.000082
    13  O    7.811558  -0.022859  -0.000414  -0.000116   0.001118   0.000294
    14  O   -0.022859   8.739379   0.078866   0.000032  -0.038508  -0.000168
    15  H   -0.000414   0.078866   3.024916   0.124211  -0.349303  -0.044764
    16  H   -0.000116   0.000032   0.124211   2.129944  -0.651801  -0.341567
    17  H    0.001118  -0.038508  -0.349303  -0.651801   2.418172   0.224683
    18  H    0.000294  -0.000168  -0.044764  -0.341567   0.224683   2.787414
    19  H   -0.002140   0.036236   0.080005   0.229651  -0.507321  -0.851017
    20  H   -0.000099  -0.009036  -0.609739  -0.234009   0.208870   0.061155
    21  H   -0.000241   0.002346   0.090652   0.065189  -0.072854  -0.385801
    22  H    0.038748  -0.042703  -0.070756  -0.030245   0.106691   0.180745
    23  H    0.001834  -0.000291  -0.000145   0.000045   0.000062   0.000699
    24  H    0.000363  -0.000193   0.000142  -0.000026   0.000055  -0.001625
    25  H   -0.000871  -0.001298  -0.003630   0.001745   0.000114   0.009002
    26  C    0.010303  -0.054392  -0.224094  -0.022313   0.039358   0.096600
    27  H   -0.019405   0.005000   0.001176   0.000458  -0.001668  -0.000563
    28  H   -0.007226  -0.059718   0.134187   0.008417   0.025578  -0.025193
    29  H    0.001390   0.316159  -0.021886  -0.001989   0.012744   0.001722
    30  H    0.034282  -0.003269  -0.000366  -0.000012   0.000344   0.000064
    31  H    0.003083   0.002856   0.000087  -0.000019  -0.000414  -0.000967
    32  H    0.333609  -0.007064  -0.000459  -0.000039   0.000088   0.000039
    33  H    0.283857   0.014114   0.003956   0.000301  -0.002540  -0.000944
    34  O   -0.005650  -0.014791  -0.001604  -0.000598  -0.000226   0.000645
    35  H    0.000557   0.002964  -0.000478   0.001705   0.001775  -0.002675
    36  H    0.001167  -0.006584   0.000405   0.000174   0.000510   0.000262
    37  H    0.007512  -0.036450  -0.028222  -0.004817   0.015238   0.002863
    38  H   -0.015267   0.010730   0.010996   0.001472  -0.008600  -0.003996
    39  H    0.000538   0.006546   0.016126   0.001578   0.001153   0.012014
              19         20         21         22         23         24
     1  C    0.095253   0.026928   0.110202  -0.516566   0.260380   0.441425
     2  C   -0.187539   0.236305   1.190188  -0.519032  -0.264112   0.348793
     3  C   -0.391696   0.035972  -0.178740  -1.259889   0.321489  -0.406319
     4  N   -0.001414  -0.001068   0.001214   0.135119  -0.166631   0.025173
     5  C    0.010832  -0.000664   0.025340  -0.202642  -0.486266   0.354585
     6  C   -0.054990   0.000208   0.010863   0.317139   0.099005  -1.146504
     7  C    0.113367   0.065768  -3.100456  -1.048807  -0.048797   0.125486
     8  N   -0.234848  -0.180325  -0.099751   0.041819   0.006899  -0.000549
     9  C    0.160677  -0.413431   0.035601  -0.119474  -0.001504   0.000821
    10  C    0.343479   0.099776  -0.073546  -0.007895   0.000488   0.000555
    11  C    0.157433  -0.113358   0.736547  -0.232568   0.000483   0.005058
    12  O    0.007276   0.000042   0.000360  -0.102694  -0.000148  -0.000162
    13  O   -0.002140  -0.000099  -0.000241   0.038748   0.001834   0.000363
    14  O    0.036236  -0.009036   0.002346  -0.042703  -0.000291  -0.000193
    15  H    0.080005  -0.609739   0.090652  -0.070756  -0.000145   0.000142
    16  H    0.229651  -0.234009   0.065189  -0.030245   0.000045  -0.000026
    17  H   -0.507321   0.208870  -0.072854   0.106691   0.000062   0.000055
    18  H   -0.851017   0.061155  -0.385801   0.180745   0.000699  -0.001625
    19  H    2.624586  -0.071666   0.260925  -0.435246  -0.002103   0.001584
    20  H   -0.071666   2.439991  -0.109410   0.046681   0.000079  -0.000337
    21  H    0.260925  -0.109410   3.544711  -0.059924   0.000261   0.003262
    22  H   -0.435246   0.046681  -0.059924   6.230083   0.050721  -0.029403
    23  H   -0.002103   0.000079   0.000261   0.050721   2.243177  -0.121873
    24  H    0.001584  -0.000337   0.003262  -0.029403  -0.121873   2.122788
    25  H   -0.015082   0.003407  -0.161887   0.010703  -0.004920  -0.142220
    26  C   -0.095897  -0.015543  -0.083031   0.182669   0.003582  -0.007679
    27  H    0.004052  -0.000366  -0.000519  -0.193137  -0.229550   0.014628
    28  H    0.031587  -0.004185  -0.008128  -0.211022  -0.001297   0.000957
    29  H   -0.005344   0.006672  -0.000202   0.032529   0.000052  -0.000024
    30  H   -0.000775  -0.000050  -0.000004  -0.007949   0.002787  -0.000153
    31  H    0.005157   0.000056   0.000384  -0.006581   0.003327  -0.000139
    32  H   -0.000366   0.000105  -0.000038   0.009535  -0.000014  -0.000012
    33  H    0.001983  -0.001264   0.001668  -0.055601  -0.001013   0.000558
    34  O   -0.008380   0.000060   0.000930   0.024636   0.001528   0.000224
    35  H    0.003387  -0.000753   0.001762   0.007712  -0.000822   0.000031
    36  H   -0.001628  -0.000192  -0.000181  -0.018783  -0.000028  -0.000011
    37  H   -0.015622   0.005294   0.007216   0.035118   0.000393  -0.000675
    38  H    0.016824   0.004048   0.011197  -0.012363  -0.001991  -0.001510
    39  H   -0.004881   0.051176   0.069620   0.018550   0.000578  -0.000513
              25         26         27         28         29         30
     1  C   -2.497374  -0.413009   0.018880   0.035187  -0.002656  -0.009022
     2  C    1.249135   0.981852  -0.336253  -0.354167   0.016761   0.020301
     3  C    0.260252   0.096284   0.479704  -0.215816   0.020984  -0.008057
     4  N   -0.060109  -0.019519   0.053101   0.036426  -0.000599  -0.006635
     5  C   -0.234657  -0.027546  -0.492996   0.013304  -0.000047  -0.004138
     6  C    0.665379   0.090770  -0.089591  -0.025048   0.000692   0.007486
     7  C   -0.159487  -1.299289   0.087631   0.837280  -0.052570  -0.003427
     8  N    0.025394   1.077212  -0.003861  -0.236544  -0.061240  -0.000689
     9  C   -0.012112  -0.361139   0.003639  -0.061229   0.018077  -0.001678
    10  C   -0.004824   0.113490  -0.001049  -0.131723   0.003463   0.000570
    11  C   -0.084156  -0.435246  -0.008076   0.133652  -0.005639  -0.003036
    12  O    0.000037  -0.001870   0.114563   0.009500  -0.000547   0.295452
    13  O   -0.000871   0.010303  -0.019405  -0.007226   0.001390   0.034282
    14  O   -0.001298  -0.054392   0.005000  -0.059718   0.316159  -0.003269
    15  H   -0.003630  -0.224094   0.001176   0.134187  -0.021886  -0.000366
    16  H    0.001745  -0.022313   0.000458   0.008417  -0.001989  -0.000012
    17  H    0.000114   0.039358  -0.001668   0.025578   0.012744   0.000344
    18  H    0.009002   0.096600  -0.000563  -0.025193   0.001722   0.000064
    19  H   -0.015082  -0.095897   0.004052   0.031587  -0.005344  -0.000775
    20  H    0.003407  -0.015543  -0.000366  -0.004185   0.006672  -0.000050
    21  H   -0.161887  -0.083031  -0.000519  -0.008128  -0.000202  -0.000004
    22  H    0.010703   0.182669  -0.193137  -0.211022   0.032529  -0.007949
    23  H   -0.004920   0.003582  -0.229550  -0.001297   0.000052   0.002787
    24  H   -0.142220  -0.007679   0.014628   0.000957  -0.000024  -0.000153
    25  H    2.997796   0.058727   0.002625  -0.004246   0.000233  -0.000394
    26  C    0.058727   4.852352  -0.011202  -0.172132   0.021102   0.002084
    27  H    0.002625  -0.011202   1.490213   0.000391  -0.001041   0.000681
    28  H   -0.004246  -0.172132   0.000391   0.894864  -0.214555   0.004350
    29  H    0.000233   0.021102  -0.001041  -0.214555   0.579294  -0.000321
    30  H   -0.000394   0.002084   0.000681   0.004350  -0.000321   0.471969
    31  H   -0.000067  -0.001120  -0.008607   0.004024  -0.000724  -0.061160
    32  H    0.000076  -0.001537  -0.000000  -0.001829   0.003021   0.002397
    33  H   -0.000576  -0.009015   0.003531   0.006990   0.004374  -0.008161
    34  O    0.000129   0.002116  -0.010409  -0.034895   0.010284   0.004170
    35  H   -0.000412  -0.000379   0.000684   0.028471   0.002188  -0.000456
    36  H    0.000059   0.000709   0.002034   0.003069   0.000222  -0.000259
    37  H    0.001433   0.262206  -0.003374   0.069359   0.008371   0.001137
    38  H   -0.005048   0.012411   0.001303   0.003474  -0.000629  -0.001112
    39  H    0.008430   0.252885   0.000151  -0.074560   0.007208   0.000035
              31         32         33         34         35         36
     1  C    0.006076   0.000299  -0.001726  -0.001866  -0.000470  -0.000704
     2  C    0.005900  -0.013669  -0.002585  -0.046776  -0.001664   0.003565
     3  C   -0.012806   0.014541   0.017980  -0.011202  -0.039266   0.027009
     4  N    0.000841   0.002478   0.008737   0.023234   0.006861   0.000987
     5  C   -0.005845  -0.001616   0.003659  -0.008792   0.001653   0.001263
     6  C   -0.002089   0.001481  -0.001073   0.017396  -0.000924  -0.000693
     7  C   -0.000041   0.002072   0.027734  -0.075703   0.011849   0.006767
     8  N    0.001594   0.003657  -0.031944   0.017071  -0.020913   0.004404
     9  C    0.001195  -0.000977   0.008210  -0.005484   0.011902  -0.000624
    10  C   -0.000665  -0.001277   0.014024  -0.009110  -0.021899   0.005233
    11  C    0.007355   0.000175  -0.010060   0.002300   0.019223  -0.008775
    12  O    0.304658   0.001781  -0.001173  -0.100582   0.002170   0.001145
    13  O    0.003083   0.333609   0.283857  -0.005650   0.000557   0.001167
    14  O    0.002856  -0.007064   0.014114  -0.014791   0.002964  -0.006584
    15  H    0.000087  -0.000459   0.003956  -0.001604  -0.000478   0.000405
    16  H   -0.000019  -0.000039   0.000301  -0.000598   0.001705   0.000174
    17  H   -0.000414   0.000088  -0.002540  -0.000226   0.001775   0.000510
    18  H   -0.000967   0.000039  -0.000944   0.000645  -0.002675   0.000262
    19  H    0.005157  -0.000366   0.001983  -0.008380   0.003387  -0.001628
    20  H    0.000056   0.000105  -0.001264   0.000060  -0.000753  -0.000192
    21  H    0.000384  -0.000038   0.001668   0.000930   0.001762  -0.000181
    22  H   -0.006581   0.009535  -0.055601   0.024636   0.007712  -0.018783
    23  H    0.003327  -0.000014  -0.001013   0.001528  -0.000822  -0.000028
    24  H   -0.000139  -0.000012   0.000558   0.000224   0.000031  -0.000011
    25  H   -0.000067   0.000076  -0.000576   0.000129  -0.000412   0.000059
    26  C   -0.001120  -0.001537  -0.009015   0.002116  -0.000379   0.000709
    27  H   -0.008607  -0.000000   0.003531  -0.010409   0.000684   0.002034
    28  H    0.004024  -0.001829   0.006990  -0.034895   0.028471   0.003069
    29  H   -0.000724   0.003021   0.004374   0.010284   0.002188   0.000222
    30  H   -0.061160   0.002397  -0.008161   0.004170  -0.000456  -0.000259
    31  H    0.508037  -0.000747  -0.000124   0.032748  -0.002104   0.000895
    32  H   -0.000747   0.603282  -0.125010   0.002141  -0.000653  -0.000043
    33  H   -0.000124  -0.125010   0.570675   0.000937   0.008107   0.000515
    34  O    0.032748   0.002141   0.000937   7.946213   0.322514   0.285262
    35  H   -0.002104  -0.000653   0.008107   0.322514   0.537071  -0.120310
    36  H    0.000895  -0.000043   0.000515   0.285262  -0.120310   0.611199
    37  H   -0.000248  -0.000300   0.001168   0.000756  -0.001556   0.000225
    38  H    0.000797   0.001500   0.003552   0.000102  -0.000151  -0.000054
    39  H   -0.000229   0.000093  -0.001512   0.000037   0.001022  -0.000079
              37         38         39
     1  C   -0.059067   0.062718   0.009629
     2  C    0.128643  -0.209020   0.241132
     3  C   -0.069698   0.010432   0.052601
     4  N    0.005090   0.001230  -0.005098
     5  C   -0.006348  -0.023793   0.013875
     6  C    0.017092   0.029586  -0.018924
     7  C    0.046309   0.157317  -0.265030
     8  N   -0.347606   0.234820  -0.601615
     9  C   -0.034040  -0.007360   0.043780
    10  C    0.060948  -0.040140   0.037528
    11  C   -0.107416   0.099499   0.016508
    12  O   -0.000421  -0.000459  -0.000162
    13  O    0.007512  -0.015267   0.000538
    14  O   -0.036450   0.010730   0.006546
    15  H   -0.028222   0.010996   0.016126
    16  H   -0.004817   0.001472   0.001578
    17  H    0.015238  -0.008600   0.001153
    18  H    0.002863  -0.003996   0.012014
    19  H   -0.015622   0.016824  -0.004881
    20  H    0.005294   0.004048   0.051176
    21  H    0.007216   0.011197   0.069620
    22  H    0.035118  -0.012363   0.018550
    23  H    0.000393  -0.001991   0.000578
    24  H   -0.000675  -0.001510  -0.000513
    25  H    0.001433  -0.005048   0.008430
    26  C    0.262206   0.012411   0.252885
    27  H   -0.003374   0.001303   0.000151
    28  H    0.069359   0.003474  -0.074560
    29  H    0.008371  -0.000629   0.007208
    30  H    0.001137  -0.001112   0.000035
    31  H   -0.000248   0.000797  -0.000229
    32  H   -0.000300   0.001500   0.000093
    33  H    0.001168   0.003552  -0.001512
    34  O    0.000756   0.000102   0.000037
    35  H   -0.001556  -0.000151   0.001022
    36  H    0.000225  -0.000054  -0.000079
    37  H    2.299459  -0.616383  -0.428436
    38  H   -0.616383   1.808479  -0.410916
    39  H   -0.428436  -0.410916   2.163441
 Mulliken charges:
               1
     1  C    1.158765
     2  C    0.662140
     3  C    0.683315
     4  N    0.079903
     5  C    0.678698
     6  C    0.501862
     7  C    1.116934
     8  N   -1.127309
     9  C    1.343928
    10  C    0.858881
    11  C    1.160828
    12  O   -0.596360
    13  O   -0.333212
    14  O   -0.899609
    15  H   -0.588178
    16  H   -0.287445
    17  H   -0.321569
    18  H   -0.544918
    19  H   -0.296336
    20  H   -0.527099
    21  H   -0.835725
    22  H   -1.285916
    23  H   -0.666366
    24  H   -0.586561
    25  H   -0.901307
    26  C    1.099242
    27  H    0.127224
    28  H    0.562445
    29  H    0.302474
    30  H    0.273016
    31  H    0.215626
    32  H    0.173280
    33  H    0.267690
    34  O   -0.359366
    35  H    0.242278
    36  H    0.201868
    37  H   -0.215151
    38  H   -0.123693
    39  H   -0.214279
 Sum of Mulliken charges =   1.00000
 Mulliken charges with hydrogens summed into heavy atoms:
               1
     1  C    0.257459
     2  C    0.662140
     3  C   -0.602601
     4  N    0.207127
     5  C    0.012332
     6  C   -0.084699
     7  C    0.281209
     8  N   -1.127309
     9  C    0.228651
    10  C    0.249866
    11  C    0.319573
    12  O   -0.107718
    13  O    0.107758
    14  O   -0.034689
    26  C    0.546120
    34  O    0.084781
 APT charges:
               1
     1  C    0.147703
     2  C   -0.044552
     3  C    0.091890
     4  N   -0.353834
     5  C    0.140759
     6  C   -0.119370
     7  C    0.320085
     8  N   -0.695336
     9  C    0.307711
    10  C    0.069528
    11  C    0.042925
    12  O   -0.782775
    13  O   -0.634599
    14  O   -0.783973
    15  H   -0.017622
    16  H   -0.004674
    17  H   -0.014692
    18  H   -0.002555
    19  H   -0.003821
    20  H   -0.050834
    21  H   -0.067081
    22  H    0.156173
    23  H    0.108383
    24  H    0.089724
    25  H    0.079646
    26  C    0.265233
    27  H    0.612282
    28  H    0.499794
    29  H    0.265335
    30  H    0.388116
    31  H    0.368332
    32  H    0.269034
    33  H    0.376895
    34  O   -0.656148
    35  H    0.378494
    36  H    0.277298
    37  H    0.007350
    38  H    0.000775
    39  H   -0.031600
 Sum of APT charges =   1.00000
 APT charges with hydrogens summed into heavy atoms:
               1
     1  C    0.227350
     2  C   -0.044552
     3  C    0.248063
     4  N    0.258448
     5  C    0.249142
     6  C   -0.029646
     7  C    0.253004
     8  N   -0.695336
     9  C    0.239254
    10  C    0.050161
    11  C    0.036549
    12  O   -0.026326
    13  O    0.011330
    14  O   -0.018845
    26  C    0.241758
    34  O   -0.000355
 Electronic spatial extent (au):  <R**2>=           4171.1336
 Charge=              1.0000 electrons
 Dipole moment (field-independent basis, Debye):
    X=              1.2539    Y=              1.3010    Z=              1.2599  Tot=              2.2027
 Quadrupole moment (field-independent basis, Debye-Ang):
   XX=            -74.4291   YY=            -58.2095   ZZ=            -84.5429
   XY=             -9.9523   XZ=             -1.4728   YZ=             -1.5123
 Traceless Quadrupole moment (field-independent basis, Debye-Ang):
   XX=             -2.0353   YY=             14.1843   ZZ=            -12.1491
   XY=             -9.9523   XZ=             -1.4728   YZ=             -1.5123
 Octapole moment (field-independent basis, Debye-Ang**2):
  XXX=              2.1088  YYY=            -36.2248  ZZZ=             19.0801  XYY=            -31.1720
  XXY=             18.2839  XXZ=             13.6795  XZZ=            -10.4461  YZZ=            -50.2690
  YYZ=              5.4684  XYZ=              1.8082
 Hexadecapole moment (field-independent basis, Debye-Ang**3):
 XXXX=          -2504.9597 YYYY=          -1298.3849 ZZZZ=           -709.8012 XXXY=           -109.7671
 XXXZ=            -60.7803 YYYX=            -49.0591 YYYZ=             48.1250 ZZZX=            -28.0028
 ZZZY=            -16.0086 XXYY=           -618.8749 XXZZ=           -514.5795 YYZZ=           -332.5278
 XXYZ=            -40.1687 YYXZ=              4.1465 ZZXY=             66.1465
 N-N= 1.273786328894D+03 E-N=-4.410146629574D+03  KE= 8.000500063473D+02
  Exact polarizability: 182.308  -9.159 168.632  -0.614   5.677 132.515
 Approx polarizability: 189.791  -3.898 187.106   0.378   7.644 148.244
 Calling FoFJK, ICntrl=    100127 FMM=F ISym2X=0 I1Cent= 0 IOpClX= 0 NMat=1 NMatS=1 NMatT=0.
 Full mass-weighted force constant matrix:
 Low frequencies ---   -3.2227   -0.0009   -0.0008    0.0008    6.9391   10.6303
 Low frequencies ---   18.6701   40.2881   55.7966
 Diagonal vibrational polarizability:
       73.0345373      99.8737773     200.7681735
 Harmonic frequencies (cm**-1), IR intensities (KM/Mole), Raman scattering
 activities (A**4/AMU), depolarization ratios for plane and unpolarized
 incident light, reduced masses (AMU), force constants (mDyne/A),
 and normal coordinates:
                      1                      2                      3
                      A                      A                      A
 Frequencies --     18.4173                40.1210                55.7890
 Red. masses --      4.2657                 4.6393                 3.9804
 Frc consts  --      0.0009                 0.0044                 0.0073
 IR Inten    --      1.5649                 0.4723                 0.6009
  Atom  AN      X      Y      Z        X      Y      Z        X      Y      Z
     1   6     0.00   0.04  -0.13    -0.03  -0.05   0.09    -0.00   0.03  -0.02
     2   6    -0.01   0.01   0.01    -0.01  -0.03   0.01     0.04   0.03   0.02
     3   6    -0.02  -0.00   0.09     0.01  -0.03  -0.08     0.06   0.01   0.01
     4   7    -0.01   0.02   0.03     0.00  -0.04  -0.08     0.05  -0.02  -0.03
     5   6    -0.00   0.05  -0.11    -0.01  -0.07   0.00     0.02  -0.03  -0.07
     6   6     0.01   0.06  -0.19    -0.03  -0.07   0.09    -0.01   0.00  -0.07
     7   6    -0.01  -0.01   0.05     0.00  -0.00   0.02     0.05   0.07   0.05
     8   7    -0.04  -0.04   0.02    -0.00  -0.05  -0.02     0.03  -0.03  -0.05
     9   6    -0.01   0.01   0.06     0.02   0.01  -0.00     0.02  -0.01  -0.08
    10   6     0.08   0.09   0.05     0.09   0.10  -0.01     0.03   0.12  -0.09
    11   6     0.01   0.02   0.05     0.06   0.08   0.01     0.10   0.23  -0.01
    12   8    -0.01   0.02   0.16    -0.03  -0.03  -0.01    -0.02   0.03   0.01
    13   8     0.17  -0.06   0.05     0.11   0.37  -0.01    -0.16  -0.13   0.06
    14   8     0.06  -0.09  -0.15    -0.02  -0.02  -0.03    -0.07   0.01   0.09
    15   1    -0.01  -0.01   0.03     0.02  -0.02  -0.05     0.00  -0.06  -0.16
    16   1     0.08   0.20   0.11     0.09   0.18   0.04     0.05   0.10  -0.06
    17   1     0.18   0.08  -0.03     0.15   0.11  -0.09    -0.03   0.17  -0.17
    18   1    -0.04   0.04   0.04     0.04   0.12   0.05     0.18   0.30   0.12
    19   1     0.03  -0.03   0.07     0.09   0.07  -0.04     0.11   0.34  -0.13
    20   1    -0.04   0.01   0.14    -0.01   0.01   0.07     0.03  -0.05  -0.01
    21   1    -0.01  -0.02   0.09    -0.02  -0.00   0.09     0.02   0.06   0.16
    22   1    -0.03  -0.03   0.21     0.02  -0.01  -0.14     0.09   0.01   0.03
    23   1    -0.00   0.07  -0.15    -0.02  -0.08  -0.00     0.01  -0.05  -0.10
    24   1     0.02   0.09  -0.31    -0.04  -0.09   0.16    -0.04  -0.00  -0.11
    25   1     0.01   0.05  -0.20    -0.04  -0.06   0.17    -0.02   0.05  -0.02
    26   6    -0.11  -0.10   0.04    -0.06  -0.13  -0.00     0.03  -0.14  -0.01
    27   1    -0.02   0.02   0.09     0.01  -0.04  -0.11     0.06  -0.04  -0.02
    28   1     0.03  -0.08  -0.10     0.01  -0.04  -0.06    -0.04  -0.01   0.01
    29   1     0.09  -0.12  -0.24    -0.05  -0.03  -0.00    -0.07   0.02   0.11
    30   1     0.06   0.01   0.13    -0.02   0.06   0.01    -0.08   0.01   0.02
    31   1    -0.06   0.03   0.10    -0.03  -0.08   0.03    -0.02  -0.01   0.04
    32   1     0.20  -0.06   0.05     0.13   0.52   0.07    -0.18  -0.19   0.03
    33   1     0.13  -0.11  -0.02     0.05   0.23  -0.01    -0.13  -0.05   0.08
    34   8    -0.12   0.03  -0.05    -0.08  -0.10   0.03    -0.07  -0.09   0.11
    35   1    -0.06  -0.00  -0.12    -0.06  -0.06   0.03    -0.08  -0.06   0.13
    36   1    -0.19   0.06  -0.09    -0.09  -0.12   0.05    -0.08  -0.14   0.16
    37   1    -0.12  -0.12   0.02    -0.06  -0.15  -0.04     0.01  -0.20  -0.07
    38   1    -0.13  -0.14   0.01    -0.08  -0.18  -0.02     0.04  -0.13   0.01
    39   1    -0.14  -0.09   0.11    -0.10  -0.11   0.07     0.05  -0.17   0.06
                      4                      5                      6
                      A                      A                      A
 Frequencies --     56.7114                75.3487                80.2265
 Red. masses --      3.8454                 2.6211                 4.9793
 Frc consts  --      0.0073                 0.0088                 0.0189
 IR Inten    --      0.4861                 0.8794                 0.4802
  Atom  AN      X      Y      Z        X      Y      Z        X      Y      Z
     1   6    -0.03   0.04  -0.02     0.02  -0.01  -0.02     0.02   0.01  -0.01
     2   6    -0.03   0.02   0.07    -0.02  -0.03   0.02     0.02   0.03  -0.12
     3   6    -0.02   0.01   0.09    -0.05  -0.01   0.06     0.02   0.03  -0.15
     4   7    -0.02   0.02   0.02    -0.04   0.04   0.05     0.02   0.01  -0.04
     5   6    -0.03   0.04  -0.08    -0.00   0.06   0.01     0.02  -0.02   0.07
     6   6    -0.03   0.05  -0.09     0.03   0.03  -0.02     0.01  -0.01   0.08
     7   6    -0.03   0.01   0.07    -0.03  -0.06  -0.02     0.01   0.01  -0.08
     8   7    -0.04  -0.05   0.00     0.00  -0.05  -0.04    -0.09  -0.02  -0.07
     9   6    -0.08  -0.10  -0.07     0.03   0.02  -0.03    -0.07  -0.04   0.03
    10   6    -0.18  -0.08  -0.06     0.13   0.14  -0.05     0.07   0.01   0.02
    11   6    -0.05   0.10   0.01    -0.10  -0.09  -0.02     0.08   0.00  -0.05
    12   8     0.11  -0.06  -0.03    -0.00   0.01  -0.06     0.14  -0.06   0.14
    13   8     0.07   0.11   0.03    -0.05   0.02  -0.03    -0.05  -0.02   0.24
    14   8     0.01  -0.07   0.07    -0.01  -0.04   0.10    -0.13   0.01   0.02
    15   1    -0.09  -0.11  -0.10     0.04  -0.02  -0.10    -0.14  -0.06   0.03
    16   1    -0.18  -0.24  -0.13     0.10   0.44   0.03     0.10   0.04   0.11
    17   1    -0.38  -0.03  -0.04     0.41   0.10  -0.19     0.11   0.01  -0.04
    18   1     0.08   0.14   0.12    -0.33  -0.09  -0.15     0.12  -0.01  -0.04
    19   1    -0.09   0.26  -0.08    -0.08  -0.29   0.16     0.11  -0.01  -0.09
    20   1    -0.03  -0.13  -0.11    -0.01   0.01   0.07    -0.07  -0.07   0.12
    21   1    -0.02  -0.01   0.13    -0.01  -0.06  -0.06     0.03  -0.01  -0.03
    22   1    -0.02   0.00   0.15    -0.08  -0.02   0.09     0.03   0.05  -0.23
    23   1    -0.03   0.05  -0.14     0.00   0.09   0.01     0.02  -0.04   0.17
    24   1    -0.03   0.06  -0.17     0.06   0.05  -0.05     0.01  -0.03   0.16
    25   1    -0.03   0.05  -0.04     0.04  -0.02  -0.06     0.02   0.00   0.01
    26   6     0.03  -0.11   0.03    -0.02  -0.08  -0.03    -0.20  -0.04  -0.07
    27   1    -0.01   0.02   0.01    -0.05   0.05   0.04     0.04  -0.02   0.01
    28   1    -0.01  -0.06   0.04     0.01  -0.06   0.03    -0.12  -0.00  -0.05
    29   1     0.02  -0.05   0.09    -0.02  -0.04   0.14    -0.11   0.02   0.01
    30   1     0.11  -0.03  -0.02    -0.02  -0.01  -0.06     0.15  -0.02   0.15
    31   1     0.15  -0.02  -0.02     0.03   0.03  -0.05     0.13  -0.05   0.13
    32   1     0.03   0.18   0.05    -0.09   0.05  -0.02    -0.06  -0.14   0.18
    33   1     0.05   0.03   0.06    -0.04   0.01   0.02    -0.06   0.01   0.18
    34   8     0.19   0.06  -0.03     0.11   0.04   0.05     0.12   0.12  -0.11
    35   1     0.14  -0.00  -0.00     0.06  -0.00   0.07     0.05   0.05  -0.08
    36   1     0.20   0.08  -0.05     0.14   0.07   0.03     0.11   0.13  -0.13
    37   1     0.01  -0.16  -0.02     0.03  -0.07  -0.04    -0.26  -0.05  -0.06
    38   1     0.06  -0.06   0.07    -0.04  -0.14  -0.02    -0.22  -0.04  -0.14
    39   1     0.09  -0.16   0.05    -0.07  -0.05  -0.02    -0.21  -0.05   0.01
                      7                      8                      9
                      A                      A                      A
 Frequencies --     86.4887               101.6942               125.0338
 Red. masses --      5.1938                 5.0920                 4.1155
 Frc consts  --      0.0229                 0.0310                 0.0379
 IR Inten    --      1.7798                 2.5802                 1.4785
  Atom  AN      X      Y      Z        X      Y      Z        X      Y      Z
     1   6     0.02   0.04   0.06    -0.02  -0.05   0.01     0.02   0.05  -0.18
     2   6    -0.02   0.05  -0.06     0.00  -0.04  -0.03     0.03   0.03  -0.07
     3   6    -0.03   0.09  -0.13     0.02  -0.05  -0.08     0.04  -0.02   0.12
     4   7    -0.03   0.12  -0.08     0.01  -0.07  -0.09     0.04  -0.06   0.25
     5   6     0.00   0.10   0.03    -0.01  -0.08  -0.05     0.02  -0.06   0.21
     6   6     0.03   0.07   0.10    -0.03  -0.07  -0.01     0.01  -0.00  -0.02
     7   6    -0.03   0.01  -0.04     0.01  -0.01  -0.00     0.03   0.04  -0.05
     8   7    -0.10  -0.00  -0.04     0.01  -0.02  -0.01    -0.04   0.02  -0.05
     9   6    -0.09  -0.02   0.01     0.02   0.00  -0.00    -0.03   0.00   0.02
    10   6    -0.05  -0.03   0.01     0.01  -0.02   0.00     0.00  -0.04   0.03
    11   6     0.01   0.02  -0.03     0.07   0.03  -0.01     0.11   0.06  -0.04
    12   8     0.04   0.09  -0.02    -0.24   0.03   0.09    -0.06  -0.03  -0.10
    13   8     0.14  -0.11  -0.10     0.04  -0.02  -0.08    -0.02   0.06  -0.10
    14   8     0.15  -0.14   0.05     0.08  -0.07   0.10     0.02  -0.04   0.02
    15   1    -0.12  -0.02   0.03     0.04   0.01   0.01    -0.06   0.01   0.05
    16   1    -0.02  -0.08   0.04     0.02  -0.10  -0.01     0.04  -0.15   0.04
    17   1    -0.09  -0.02   0.02    -0.06  -0.01   0.03    -0.09  -0.02   0.06
    18   1     0.07   0.01  -0.00     0.14   0.06   0.05     0.23   0.06   0.03
    19   1     0.02   0.05  -0.08     0.08   0.09  -0.09     0.12   0.14  -0.13
    20   1    -0.09  -0.03   0.03     0.01   0.02  -0.02    -0.03  -0.00   0.03
    21   1    -0.01  -0.01  -0.01    -0.01   0.00   0.03     0.03   0.03  -0.00
    22   1    -0.06   0.10  -0.21     0.04  -0.03  -0.13     0.06  -0.03   0.17
    23   1     0.01   0.12   0.07    -0.01  -0.10  -0.06     0.02  -0.10   0.34
    24   1     0.05   0.05   0.20    -0.05  -0.08   0.02    -0.00   0.00  -0.08
    25   1     0.04   0.00   0.13    -0.04  -0.05   0.05     0.01   0.10  -0.36
    26   6    -0.17  -0.03  -0.04    -0.00  -0.02  -0.01    -0.14   0.01  -0.05
    27   1    -0.03   0.12  -0.09    -0.01  -0.05  -0.06     0.04  -0.06   0.23
    28   1     0.03  -0.07  -0.02     0.05  -0.06   0.05    -0.00  -0.04  -0.02
    29   1     0.25  -0.05   0.06     0.10  -0.05   0.11     0.03  -0.02   0.04
    30   1     0.09   0.11  -0.03    -0.13   0.06   0.08    -0.14  -0.12  -0.11
    31   1     0.02   0.06  -0.01    -0.28   0.03   0.07    -0.01   0.03  -0.10
    32   1     0.08  -0.13  -0.12     0.04   0.05  -0.05     0.01   0.21  -0.03
    33   1     0.13  -0.15  -0.07     0.04  -0.04  -0.05    -0.03   0.02  -0.05
    34   8     0.03  -0.15   0.22     0.04   0.34   0.12     0.00  -0.01   0.02
    35   1     0.05  -0.09   0.23     0.01   0.14   0.09    -0.01  -0.04   0.01
    36   1     0.04  -0.18   0.26     0.19   0.59  -0.12     0.00   0.01  -0.00
    37   1    -0.21  -0.04  -0.04    -0.00  -0.02  -0.01    -0.20  -0.00  -0.03
    38   1    -0.19  -0.04  -0.09    -0.01  -0.04  -0.02    -0.16   0.01  -0.12
    39   1    -0.18  -0.03   0.02    -0.01  -0.02   0.00    -0.15   0.00   0.02
                     10                     11                     12
                      A                      A                      A
 Frequencies --    166.9203               170.0028               174.6661
 Red. masses --      3.8920                 2.1273                 4.9900
 Frc consts  --      0.0639                 0.0362                 0.0897
 IR Inten    --     14.3741                 0.7800                 1.4487
  Atom  AN      X      Y      Z        X      Y      Z        X      Y      Z
     1   6    -0.01   0.00  -0.02     0.02  -0.04   0.00    -0.01   0.02   0.01
     2   6     0.00  -0.00   0.00    -0.02  -0.05   0.00     0.02   0.03   0.01
     3   6     0.01  -0.01   0.01    -0.05  -0.02   0.01     0.04   0.01   0.01
     4   7     0.01  -0.03   0.02    -0.04   0.03   0.01     0.03  -0.02  -0.01
     5   6    -0.01  -0.03   0.01    -0.00   0.05  -0.00     0.00  -0.03  -0.02
     6   6    -0.01  -0.02  -0.02     0.03   0.01  -0.01    -0.02  -0.01  -0.00
     7   6     0.01  -0.01   0.01    -0.02  -0.04  -0.00     0.01   0.02  -0.00
     8   7    -0.02  -0.03  -0.00     0.05  -0.03  -0.01    -0.01   0.02   0.01
     9   6    -0.05  -0.13   0.01     0.12   0.17  -0.02    -0.01  -0.00   0.00
    10   6    -0.00  -0.02  -0.01    -0.03  -0.06   0.01    -0.01  -0.00   0.00
    11   6    -0.03  -0.04   0.01     0.03  -0.00  -0.01    -0.04  -0.03   0.00
    12   8     0.01  -0.02  -0.01    -0.00   0.00  -0.01     0.07  -0.04  -0.21
    13   8     0.04  -0.02  -0.04    -0.04   0.00   0.05    -0.10   0.03   0.22
    14   8     0.02   0.33  -0.13     0.01   0.05  -0.05     0.08  -0.17  -0.22
    15   1    -0.17  -0.19  -0.05     0.33   0.29   0.10    -0.03  -0.01   0.00
    16   1     0.01   0.07   0.05    -0.06  -0.26  -0.14    -0.02   0.04   0.00
    17   1     0.07  -0.01  -0.11    -0.19  -0.08   0.23     0.03  -0.01  -0.01
    18   1    -0.07  -0.06  -0.03     0.11   0.02   0.06    -0.09  -0.06  -0.05
    19   1    -0.04  -0.07   0.07     0.04   0.06  -0.10    -0.06  -0.07   0.07
    20   1     0.01  -0.23   0.09    -0.01   0.36  -0.19     0.00  -0.02   0.00
    21   1     0.02  -0.02   0.00    -0.05  -0.02   0.01     0.04   0.01  -0.04
    22   1     0.02  -0.00   0.01    -0.09  -0.03   0.01     0.07   0.02   0.00
    23   1    -0.01  -0.04   0.01     0.01   0.08  -0.01    -0.00  -0.05  -0.04
    24   1    -0.03  -0.02  -0.04     0.07   0.03  -0.02    -0.05  -0.02  -0.00
[...]
 ,0.00012460,-0.00098094,-0.00048297,-0.00025638,0.00006679,0.00006450,
 -0.00007882,0.00038077,0.00012477,-0.00037382,-0.00006605,-0.00003536,
 -0.00019534,-0.00018329,-0.00004671,0.00020641,-0.00000414,0.00025675,
 -0.00019213,0.00003107,0.00004608,-0.00002781,0.00000788,-0.00005646,-
 0.00010862,-0.00003687,-0.00018093,-0.00019943,-0.00085167,-0.00085413
 ,-0.00055689,-0.00045261,0.00021269,0.00054965,-0.00806964,0.00251316,
 -0.00000988,-0.00001129,0.00001865,0.00005558,0.00004868,0.00000984,-0
 .00009353,0.00006039,0.00002898,0.00011029,0.00007247,0.00005921,0.000
 09541,-0.00007841,0.00027220,0.00005555,0.00002866,-0.00000542,0.00004
 393,0.00004235,0.00003284,0.00085306,-0.00362488,-0.00004603,0.0000058
 8,0.00006780,0.00001669,-0.00000826,-0.00000655,-0.00000253,-0.0000154
 2,0.00005027,0.00000791,0.00004826,-0.00002680,-0.00014565,0.00057106,
 0.00083360,0.00015675,-0.00086278,-0.00021905,-0.00275565,0.00157880,0
 .00184300,0.00305777,0.00043798,0.00025776,0.00015126,-0.00067226,0.00
 024486,0.00126484,0.00001029,0.00015573,0.00008976,0.00063400,0.000401
 37,-0.00073701,0.09412638,-0.06372345,0.08833357,-0.07481756,0.0674923
 5,-0.00006701,-0.00008202,0.00004718,0.00017984,-0.00016102,-0.0000944
 5,0.00004535,-0.00010240,-0.00032735,-0.00028977,-0.00050452,-0.000162
 06,-0.00008526,0.00017956,0.00013429,-0.00008775,-0.00008926,-0.000015
 95,0.00054549,-0.00050373,0.00090982,0.00139401,0.00276409,-0.00080301
 ,-0.00080147,0.00000124,0.00039764,0.00005484,0.00013719,0.00012343,0.
 00025671,0.00010610,0.00024774,0.00122662,-0.00180607,-0.00339562,-0.0
 0236238,0.00071724,0.00051365,0.00435535,0.00573785,-0.00049966,-0.000
 20437,0.00002866,-0.00009337,-0.00000950,0.00001835,-0.00009745,0.0001
 1705,-0.00010298,0.00016923,-0.00006844,-0.00002964,-0.00012266,-0.000
 12582,0.00020184,-0.00013288,0.00019892,0.00010582,-0.00011871,-0.0000
 0495,0.00033682,-0.00027510,0.00029855,0.00031374,0.00178507,0.0000181
 0,-0.00000319,0.00004033,-0.00001821,-0.00000929,0.00000465,0.00001869
 ,-0.00005212,0.00000903,0.00000593,-0.00029089,-0.00046582,0.00048128,
 0.00103863,0.00034024,-0.00217076,-0.00689054,0.00316807,0.00007416,0.
 00210207,0.00051709,0.00122483,-0.00033342,0.00150579,-0.00352321,0.00
 217286,0.00391449,0.00010579,0.00015909,-0.00022906,0.00289748,-0.0013
 2349,-0.00265993,-0.19743941,0.04866033,-0.28793501,0.21199844,-0.0629
 6164,0.30354044,-0.00002441,-0.00001247,-0.00001447,0.00006486,-0.0000
 5459,0.00003680,0.00009304,-0.00019034,-0.00009659,0.00003080,-0.00014
 333,-0.00003627,0.00003570,0.00001955,0.00000962,-0.00001482,-0.000004
 57,0.00000015,0.00008494,0.00001667,-0.00004959,-0.00011459,-0.0000307
 3,0.00011900,0.00008605,-0.00000544,-0.00010163,-0.00003232,-0.0001966
 9,-0.00003623,-0.00007687,-0.00002737,-0.00004228,-0.00283906,0.000506
 60,0.00039723,-0.00009530,-0.00008421,0.00008489,-0.00137474,0.0004465
 2,-0.00122470,-0.00000864,-0.00000602,-0.00000684,0.00000573,0.0000495
 4,0.00002069,-0.00008734,0.00009236,-0.00003798,0.00000887,0.00003212,
 0.00001566,0.00009148,-0.00011131,-0.00002748,-0.00002177,0.00002615,0
 .00005167,-0.00001575,0.00000669,0.00003891,-0.00030966,0.00031532,0.0
 0013396,0.00000414,-0.00001020,0.00000404,-0.00000269,0.00000282,-0.00
 000071,0.00000439,-0.00001595,-0.00000098,0.00000192,-0.00000233,-0.00
 004170,0.00007352,-0.00010385,0.00000181,0.00013271,0.00014763,-0.0000
 3110,-0.00004302,-0.00019424,-0.00055293,0.00030124,0.00002636,-0.0002
 0807,0.00307495,0.00149865,0.00151660,0.00004149,0.00004198,0.00003719
 ,0.00000079,0.00005739,-0.00005814,-0.03302697,0.07435628,0.04391606,0
 .00444177,-0.02124841,-0.01815584,0.02951386,-0.00012088,-0.00001855,-
 0.00001234,0.00022490,-0.00028673,-0.00002705,-0.00041227,0.00012823,-
 0.00014407,0.00002516,-0.00004804,0.00001579,0.00003015,-0.00003717,-0
 .00001608,0.00002778,-0.00001052,0.00000442,0.00016681,-0.00002464,-0.
 00001329,0.00002574,0.00014900,0.00008498,-0.00002675,0.00000689,-0.00
 005442,-0.00001984,-0.00004327,0.00000402,-0.00016989,-0.00006423,-0.0
 0010354,-0.00031619,0.00057366,0.00025454,-0.00016742,0.00000436,0.000
 15073,0.00088117,0.00035233,0.00140811,-0.00001928,-0.00000812,0.00001
 956,0.00001789,0.00003468,0.00001264,-0.00009120,0.00006538,-0.0000179
 1,0.00002844,0.00002766,0.00002887,0.00009901,-0.00009518,-0.00005581,
 0.00000622,0.00002345,0.00002764,-0.00002242,0.00003942,0.00004145,0.0
 0038231,0.00008864,0.00023088,0.00000839,-0.00001688,-0.00001111,-0.00
 000190,0.00000100,-0.00000531,0.00001359,-0.00003335,-0.00000481,0.000
 01218,-0.00002679,-0.00007734,-0.00007989,0.00001394,-0.00002272,-0.00
 000598,-0.00030560,0.00000924,0.00011620,0.00021847,0.00005152,0.00012
 581,-0.00001069,-0.00003458,0.00048863,-0.00095149,-0.00044976,0.00002
 334,0.00005708,-0.00000292,0.00017464,-0.00007647,-0.00022434,0.052982
 24,-0.29141570,-0.27468494,0.00081062,0.00562635,0.01043461,-0.0552131
 4,0.28605249,0.00013482,-0.00005774,-0.00003121,-0.00009863,0.00032367
 ,0.00003099,0.00006354,0.00034464,0.00029413,0.00011433,0.00016773,-0.
 00002150,0.00005444,0.00005685,-0.00000459,-0.00010363,0.00001151,0.00
 000579,-0.00008844,-0.00008099,0.00005821,0.00018440,0.00017825,-0.000
 04977,-0.00008939,-0.00001135,0.00005587,0.00000585,-0.00001678,-0.000
 05086,0.00005997,0.00001876,-0.00000730,-0.00062504,0.00071128,0.00052
 758,-0.00002184,0.00017453,0.00012895,-0.00064581,0.00100535,-0.000306
 08,-0.00001371,-0.00000361,-0.00002010,0.00002749,0.00002830,0.0000084
 0,-0.00003584,-0.00001386,0.00006410,0.00003406,0.00004151,0.00001176,
 -0.00005714,-0.00002250,0.00011417,0.00002575,0.00001809,-0.00000929,0
 .00002590,0.00002465,-0.00001727,-0.00016121,-0.00083829,-0.00043269,-
 0.00000093,0.00000957,0.00001570,0.00000470,-0.00000049,0.00000915,-0.
 00000293,0.00002261,0.00001359,-0.00000837,-0.00002156,-0.00004470,-0.
 00004767,-0.00036212,0.00002138,-0.00031635,-0.00035961,-0.00005380,-0
 .00030045,-0.00031685,-0.00043750,-0.00002744,-0.00009728,-0.00010432,
 0.00127107,-0.00104693,-0.00069896,0.00002147,-0.00005553,-0.00007188,
 0.00003273,-0.00011637,-0.00002482,0.01652825,-0.23430745,-0.26793402,
 0.00973156,-0.02857381,-0.01982614,-0.02568743,0.26316490,0.28880464,0
 .00000620,-0.00023746,-0.00004056,0.00014347,-0.00005002,-0.00003173,0
 .00026364,0.00017792,0.00002113,-0.00012003,-0.00009543,0.00000720,0.0
 0000813,0.00002682,0.00000780,0.00002787,-0.00002807,-0.00002638,0.000
 00049,-0.00005650,0.00077026,-0.00088299,-0.00169807,0.00190038,0.0006
 9364,-0.00092485,0.00082509,-0.00004225,-0.00009919,-0.00003371,0.0003
 2063,0.00021225,0.00026720,-0.00000449,-0.00014791,0.00009490,0.000274
 65,0.00003007,0.00024135,-0.00004939,-0.00002669,0.00074973,0.00023386
 ,0.00021153,-0.00002397,0.00000837,-0.00001935,-0.00000055,-0.00001652
 ,-0.00000313,-0.00003822,0.00002567,-0.00004363,-0.00001414,-0.0000416
 8,0.00003310,0.00011401,-0.00004708,-0.00018252,-0.00010571,0.00004661
 ,0.00033903,-0.00019007,-0.00000435,0.00005605,0.00000033,0.00000619,-
 0.00000052,0.00000161,-0.00000844,-0.00000338,0.00000502,-0.00003453,-
 0.00000329,0.00000136,-0.06763731,0.05707938,-0.04604749,0.00010882,0.
 00021745,0.00000185,0.00025065,0.00042137,-0.00071252,0.00009079,-0.00
 021348,-0.00026753,-0.00007244,0.00003333,-0.00014435,-0.00001306,0.00
 002000,-0.00000942,-0.00013029,-0.00006243,-0.00002268,-0.00019714,-0.
 00004128,-0.00018528,0.00005150,-0.00004238,0.00011196,-0.00008972,-0.
 00000080,-0.00019053,0.00000924,-0.00000569,-0.00000918,0.06747056,-0.
 00008446,-0.00004934,0.00003694,0.00010790,0.00005319,-0.00007660,-0.0
 0012620,-0.00010357,0.00000737,0.00012251,0.00006080,-0.00000071,-0.00
 002202,-0.00001167,-0.00000209,-0.00001115,0.00006383,0.00001276,0.000
 25553,-0.00032018,-0.00198568,-0.00454475,0.01094933,-0.00976568,-0.00
 012073,0.00105293,-0.00051269,-0.00029439,0.00015893,0.00016441,0.0002
 3616,0.00054615,-0.00065801,0.00003514,0.00007754,-0.00001872,0.000017
 73,-0.00000861,-0.00009852,0.00027572,0.00009964,-0.00002520,-0.000182
 77,0.00003763,0.00034440,-0.00000369,-0.00000649,0.00002498,0.00001583
 ,-0.00000805,-0.00000196,-0.00000687,-0.00007053,-0.00022736,-0.000070
 74,0.00005303,0.00003356,0.00004155,-0.00046181,0.00004397,0.00021272,
 0.00044620,-0.00036820,0.00001005,-0.00001550,-0.00000186,-0.00000174,
 0.00000643,0.00000235,-0.00000757,0.00000197,-0.00000174,-0.00001987,0
 .00009112,-0.00005900,0.05787489,-0.20841107,0.12658985,-0.00006538,-0
 .00011906,-0.00000866,-0.00018103,0.00008965,-0.00007531,-0.00006263,-
 0.00001786,-0.00001002,0.00000136,-0.00001582,0.00003539,-0.00001074,-
 0.00001053,-0.00000285,0.00002863,0.00001921,0.00003134,-0.00002629,0.
 00004611,0.00008886,0.00002041,0.00003002,0.00003245,-0.00002357,-0.00
 002318,-0.00003984,0.00000057,-0.00000640,-0.00000765,-0.06156644,0.21
 762360,-0.00013781,-0.00003244,0.00010875,0.00081204,-0.00020725,0.000
 06266,-0.00013844,-0.00004337,0.00006551,-0.00004505,-0.00007895,-0.00
 001049,-0.00005094,0.00004381,-0.00001121,-0.00004963,0.00003388,0.000
 03243,0.00158650,-0.00410972,-0.00430970,-0.01096446,0.02482842,-0.025
 65007,-0.00104238,0.00160415,0.00094851,-0.00037051,-0.00005699,0.0000
 6200,-0.00033447,0.00143207,-0.00106145,0.00000012,-0.00007505,0.00003
 634,0.00014068,0.00000353,0.00001682,0.00003984,-0.00046561,0.00061511
 ,0.00046311,-0.00063558,-0.00013985,0.00003202,-0.00004135,0.00009826,
 0.00005201,-0.00003758,0.00002942,0.00012047,-0.00028966,-0.00048916,0
 .00004929,-0.00007023,-0.00014347,0.00027923,-0.00006556,-0.00003597,0
 .00013292,-0.00002141,0.00011378,0.00002697,0.00006090,-0.00002346,0.0
 0000433,0.00000227,-0.00000226,-0.00001866,0.00000404,-0.00000702,0.00
 002391,0.00002455,-0.00005734,-0.04233374,0.11759218,-0.14085540,0.000
 04118,0.00010675,-0.00000518,0.00018213,0.00109691,-0.00080164,-0.0001
 0949,-0.00034322,-0.00022013,-0.00003153,0.00001507,-0.00005721,-0.000
 01442,0.00001672,-0.00000180,-0.00002025,-0.00000382,0.00002217,-0.000
 17842,0.00000904,0.00000287,0.00004507,-0.00004165,0.00010026,-0.00009
 309,-0.00000113,-0.00016943,0.00000591,-0.00000105,-0.00000899,0.04877
 858,-0.13080614,0.16316499,-0.00012508,0.00009562,-0.00033743,-0.00024
 101,-0.00018489,-0.00050228,0.00045814,0.00019133,-0.00024222,-0.00022
 487,0.00006760,0.00007865,-0.00005217,-0.00018004,0.00002730,0.0002627
 4,-0.00000585,-0.00007755,-0.00007664,0.00064969,-0.00036280,0.0021878
 5,-0.00001920,0.00097684,0.00132143,-0.00038108,0.00029237,0.00007208,
 0.00017087,-0.00024175,-0.00010351,-0.00002987,0.00016339,-0.00000466,
 -0.00006891,-0.00001360,0.00000290,0.00002119,-0.00005776,0.00023069,0
 .00028789,-0.00013601,-0.00000796,-0.00005062,-0.00010070,0.00001683,-
 0.00001481,0.00002993,0.00002770,-0.00000832,0.00013179,0.00000467,-0.
 00002739,0.00002450,0.00002983,-0.00000078,0.00001730,0.00045088,0.000
 05593,-0.00021918,-0.00018640,-0.00007332,-0.00009572,-0.00002408,0.00
 001399,0.00002550,0.00000156,-0.00000955,-0.00000352,0.00001284,-0.000
 00945,0.00002239,-0.00004390,-0.00009008,0.00013252,-0.29010916,0.0671
 3698,0.05566463,0.00004923,0.00009716,0.00001118,-0.00026581,-0.000285
 72,0.00017298,-0.00005257,0.00001253,0.00003424,0.00000056,0.00001416,
 0.00000054,-0.00002493,0.00002413,0.00001593,0.00002149,0.00001672,0.0
 0003095,-0.00000039,0.00005156,0.00007148,0.00005378,-0.00001837,-0.00
 000693,-0.00003560,-0.00000441,-0.00001515,-0.00001415,-0.00000851,0.0
 0000253,-0.00629023,0.00027114,0.00165359,0.30817064,-0.00006761,0.000
 07379,0.00020611,0.00006328,0.00000107,0.00023682,0.00024170,0.0001692
 2,0.00011718,-0.00035961,-0.00005330,-0.00000822,-0.00000788,-0.000048
 49,-0.00006157,0.00015436,-0.00004892,-0.00000142,-0.00035045,0.000224
 99,0.00053524,0.01127997,-0.00564789,-0.00335718,-0.00108002,0.0003527
 6,-0.00215643,0.00087579,0.00032812,-0.00006897,0.00002785,-0.00010026
 ,-0.00000576,0.00001316,-0.00014374,0.00017173,0.00049281,0.00037962,0
 .00035869,-0.00051242,-0.00007144,0.00050132,-0.00028472,0.00029664,0.
 00013388,-0.00005123,-0.00003916,-0.00030685,-0.00000538,-0.00003580,0
 .00007752,-0.00002285,0.00002578,-0.00000554,-0.00000761,0.00000583,-0
 .00001223,0.00045736,0.00008670,-0.00005714,-0.00018454,-0.00001025,-0
 .00022184,-0.00000670,-0.00002676,-0.00004546,-0.00000017,-0.00000518,
 0.00000123,0.00000509,-0.00000852,-0.00000116,-0.00005297,-0.00005506,
 0.00003288,0.06379554,-0.06595310,-0.01531872,0.00010668,0.00023497,-0
 .00001420,0.00086750,0.00035520,-0.00042981,0.00012235,-0.00000957,-0.
 00004453,-0.00013382,0.00003368,-0.00023822,0.00001224,-0.00000095,-0.
 00003353,-0.00013827,-0.00011314,0.00001318,-0.00008229,-0.00041781,-0
 .00029958,-0.00001100,-0.00002881,0.00009869,-0.00002844,-0.00000328,-
 0.00012622,0.00001242,0.00000022,-0.00001582,0.02210047,-0.00525794,-0
 .00611731,-0.07387036,0.06809989,-0.00036595,0.00040794,-0.00005893,-0
 .00020260,0.00021567,-0.00080219,-0.00021289,-0.00017940,-0.00025225,-
 0.00000985,0.00022262,0.00007337,-0.00002818,-0.00017936,-0.00004481,0
 .00013508,0.00015965,0.00000688,0.00130526,-0.00039841,0.00133847,0.03
 427455,-0.01276309,-0.01122668,-0.00242410,-0.00000665,-0.00567872,0.0
 0181806,-0.00059811,-0.00044826,0.00009727,-0.00036387,0.00022607,0.00
 006111,0.00019799,-0.00001025,0.00004498,0.00007425,-0.00019808,-0.000
 36388,-0.00032821,0.00003648,0.00003086,-0.00032055,0.00009903,-0.0001
 0259,-0.00010755,-0.00055584,0.00002041,-0.00000704,-0.00016545,-0.000
 03927,0.00003781,0.00005618,-0.00006089,0.00002926,-0.00003073,0.00002
 273,0.00021469,-0.00006109,-0.00009176,0.00021870,-0.00020313,0.000061
 64,-0.00006913,-0.00003175,-0.00001016,0.00000239,0.00000029,0.0000037
 5,-0.00000448,0.00000988,0.00000951,-0.00000690,0.00001496,0.04723566,
 -0.01311474,-0.05905961,-0.00016123,-0.00027542,-0.00002951,0.00062999
 ,0.00062832,-0.00012283,-0.00002596,-0.00001646,-0.00000123,0.00000350
 ,-0.00004075,0.00005748,0.00002170,-0.00004323,-0.00002636,0.00005806,
 0.00009836,0.00005546,0.00000944,-0.00011384,0.00005343,-0.00005660,0.
 00006016,0.00002787,0.00004398,-0.00002570,0.00002820,0.00001405,0.000
 01045,-0.00001107,-0.01813418,0.00373179,0.00514916,-0.06022827,0.0207
 6907,0.07060433,-0.00011653,-0.00035278,-0.00005585,-0.00004644,0.0001
 4550,0.00006688,-0.00016306,-0.00013504,-0.00001584,0.00027622,0.00004
 286,0.00002571,0.00001056,0.00004225,0.00002440,-0.00006908,0.00004155
 ,0.00006697,0.00028607,-0.00027491,0.00060040,0.00163061,0.00078551,-0
 .00322925,0.00298387,0.00232681,0.00070852,-0.00002320,0.00001791,0.00
 013963,0.00019739,0.00019541,-0.00002799,-0.00003742,0.00006462,-0.000
 07751,-0.00027962,-0.00017179,-0.00009173,-0.00026688,-0.00057839,-0.0
 0000971,-0.00013221,-0.00012365,0.00000635,-0.00001295,-0.00003754,-0.
 00003271,-0.00006778,-0.00001236,0.00002931,-0.00000055,-0.00000592,-0
 .00007068,-0.00008273,0.00010173,0.00009379,0.00041542,-0.00098422,-0.
 00072450,-0.00024971,0.00043401,-0.00091624,0.00005329,0.00000433,0.00
 005157,0.00000888,0.00001222,-0.00000325,-0.00001728,0.00000050,-0.000
 01179,-0.00000028,0.00013938,-0.00012073,-0.14616143,-0.11950255,-0.01
 817436,-0.00002892,-0.00009890,0.00001404,0.00047146,0.00110594,0.0000
 5523,-0.00004868,0.00003187,-0.00002712,0.00007905,-0.00001082,0.00010
 991,0.00002342,-0.00000314,0.00001378,0.00006007,0.00004885,-0.0000303
 8,0.00013505,0.00015965,0.00004142,-0.00005591,-0.00000199,-0.00009010
 ,0.00007332,0.00002789,0.00012241,0.00000062,0.00001004,0.00001857,0.0
 0564098,0.00790518,0.00146339,-0.01549271,-0.02337023,-0.00338323,0.15
 100710,-0.00008895,-0.00008967,-0.00007183,0.00007790,-0.00008472,-0.0
 0006561,0.00004029,-0.00012876,-0.00000109,-0.00004260,0.00004089,-0.0
 0001383,-0.00001142,0.00001837,-0.00001398,-0.00004218,0.00001639,0.00
 002772,0.00180713,0.00189843,0.00163087,-0.00604148,-0.01094168,-0.010
 84232,-0.00205388,0.00038150,0.00077329,0.00030322,0.00033527,0.000092
 20,0.00020467,0.00018520,0.00026143,-0.00006033,0.00001063,-0.00000795
 ,-0.00015863,0.00010181,0.00006977,-0.00062887,-0.00110291,0.00013225,
 0.00000901,-0.00010359,0.00010994,0.00002599,0.00002686,-0.00013296,0.
 00008474,0.00002304,0.00022409,0.00001249,-0.00002291,-0.00007958,-0.0
 0003432,0.00001911,0.00014117,0.00122051,-0.00016695,-0.00049220,-0.00
 045773,0.00078585,-0.00133122,0.00007234,0.00001694,0.00003295,0.00000
 114,0.00000322,0.00000484,-0.00000786,0.00000013,-0.00000674,-0.000003
 97,0.00001486,-0.00002207,-0.11838776,-0.19739551,-0.02225652,0.000011
 88,0.00000359,-0.00000666,0.00106544,0.00189997,-0.00040969,-0.0001128
 9,0.00011337,0.00009309,0.00004244,-0.00000485,0.00001703,0.00005577,-
 0.00001067,-0.00000243,0.00002900,-0.00000898,-0.00002574,0.00026229,-
 0.00008389,-0.00010347,-0.00011863,-0.00002057,-0.00013344,0.00014866,
 0.00006309,0.00019617,-0.00000044,0.00001657,0.00002442,-0.01540625,-0
 .01658975,-0.00332922,0.00616306,0.00741089,0.00188374,0.13202021,0.21
 336942,-0.00010158,-0.00006482,0.00000653,0.00019079,0.00047628,-0.000
 10442,0.00000546,-0.00019912,-0.00003926,0.00005680,0.00008258,0.00001
 461,-0.00004419,0.00004937,-0.00002720,-0.00003290,0.00002794,0.000026
 51,-0.00110411,-0.00543010,0.00271811,-0.02017097,-0.03129417,-0.01960
 807,-0.00444984,0.00001604,0.00112233,0.00017667,0.00038206,0.00028463
 ,0.00040939,0.00033430,0.00024428,-0.00000367,0.00001567,0.00006910,0.
 00009525,0.00016348,0.00019145,-0.00100725,-0.00139452,0.00089270,0.00
 042311,0.00008984,-0.00010242,0.00002928,0.00008326,-0.00007266,0.0000
 0300,0.00008850,0.00016431,0.00010507,0.00005358,-0.00007838,0.0000097
 0,0.00011678,0.00019246,0.00120708,0.00094299,0.00045953,0.00088644,0.
 00162386,0.00026752,0.00009801,0.00002953,0.00001418,0.00000170,0.0000
 0929,0.00000685,-0.00000505,0.00000444,-0.00000056,-0.00001510,0.00003
 441,-0.00000174,-0.01698554,-0.02077372,-0.05188207,0.00000211,-0.0000
 1643,-0.00001356,0.00147654,0.00204777,-0.00156045,-0.00007852,-0.0001
 8397,-0.00018190,-0.00003630,-0.00000070,-0.00008049,0.00003927,-0.000
 01956,-0.00002381,-0.00007429,-0.00004585,-0.00000905,0.00006624,-0.00
 018048,-0.00021850,-0.00007365,-0.00001410,-0.00000986,0.00006487,0.00
 003474,0.00002728,0.00000673,0.00000903,0.00000244,0.01232841,0.013574
 06,0.00343220,0.00306036,0.00569417,0.00118124,0.02344067,0.03363359,0
 .06269614\\0.00000117,0.00000035,-0.00000065,-0.00000061,-0.00000050,-
 0.00000515,0.00000096,-0.00000097,0.00000105,-0.00000378,0.00000079,0.
 00000034,0.00000125,0.00000029,-0.00000108,-0.00000045,-0.00000076,-0.
 00000079,-0.00000586,0.00000243,0.00000073,0.00000841,0.00000019,0.000
 00245,0.00000054,-0.00000268,-0.00000071,-0.00000102,-0.00000062,-0.00
 000019,0.00000050,-0.00000059,0.00000073,0.00000136,-0.00000214,0.0000
 0683,0.00000038,-0.00000115,0.00000431,-0.00000056,-0.00000357,0.00000
 092,0.00000003,0.00000036,0.00000128,0.00000050,-0.00000010,0.00000058
 ,0.00000067,-0.00000020,0.00000137,0.00000089,-0.00000052,0.00000073,0
 .00000036,-0.00000106,-0.00000017,0.00000029,-0.00000065,0.00000016,0.
 00000067,0.00000006,0.00000063,-0.00000026,0.00000034,-0.00000259,-0.0
 0000011,0.00000027,-0.00000140,0.00000013,0.00000064,-0.00000141,-0.00
 000001,-0.00000016,-0.00000079,-0.00000464,-0.00000189,0.00000258,0.00
 000248,0.00000260,-0.00000475,0.00000094,0.00000306,0.00000338,-0.0000
 0058,-0.00000006,0.00000087,-0.00000226,0.00000285,-0.00000715,0.00000
 004,0.00000082,-0.00000072,-0.00000168,0.00000051,0.00000020,-0.000001
 00,0.00000039,-0.00000291,-0.00000065,0.00000076,0.00000074,0.00000063
 ,-0.00000031,0.00000020,0.00000058,-0.00000064,0.00000021,-0.00000036,
 0.00000167,-0.00000025,0.00000170,-0.00000013,-0.00000032,-0.00000065,
 0.00000034,0.00000076\\\@


 ALL THINGS ARE POSSIBLE EXCEPT SKIING THROUGH A REVOLVING DOOR.
 Job cpu time:       1 days 14 hours 14 minutes  8.7 seconds.
 Elapsed time:       0 days  1 hours 22 minutes  4.4 seconds.
 File lengths (MBytes):  RWF=   1232 Int=      0 D2E=      0 Chk=     28 Scr=      8
 Normal termination of Gaussian 16 at Thu Aug 27 14:01:22 2020.
