 Entering Gaussian System, Link 0=g16
 Input=NicPySs4hYiaa.gjf
 Output=NicPySs4hYiaa.log
 Initial command:
 /sw/contrib/gaussian/g16/A03/g16/l1.exe "/gscratch/scrubbed/gds001/Gau-1903.inp" -scrdir="/gscratch/scrubbed/gds001/"
 Entering Link 1 = /sw/contrib/gaussian/g16/A03/g16/l1.exe PID=      1904.
  
 Copyright (c) 1988,1990,1992,1993,1995,1998,2003,2009,2016,
            Gaussian, Inc.  All Rights Reserved.
  
 This is part of the Gaussian(R) 16 program.  It is based on
 the Gaussian(R) 09 system (copyright 2009, Gaussian, Inc.),
 the Gaussian(R) 03 system (copyright 2003, Gaussian, Inc.),
 the Gaussian(R) 98 system (copyright 1998, Gaussian, Inc.),
 the Gaussian(R) 94 system (copyright 1995, Gaussian, Inc.),
 the Gaussian 92(TM) system (copyright 1992, Gaussian, Inc.),
 the Gaussian 90(TM) system (copyright 1990, Gaussian, Inc.),
 the Gaussian 88(TM) system (copyright 1988, Gaussian, Inc.),
 the Gaussian 86(TM) system (copyright 1986, Carnegie Mellon
 University), and the Gaussian 82(TM) system (copyright 1983,
 Carnegie Mellon University). Gaussian is a federally registered
 trademark of Gaussian, Inc.
  
 This software contains proprietary and confidential information,
 including trade secrets, belonging to Gaussian, Inc.
  
 This software is provided under written license and may be
 used, copied, transmitted, or stored only in accord with that
 written license.
  
 The following legend is applicable only to US Government
 contracts under FAR:
  
                    RESTRICTED RIGHTS LEGEND
  
 Use, reproduction and disclosure by the US Government is
 subject to restrictions as set forth in subparagraphs (a)
 and (c) of the Commercial Computer Software - Restricted
 Rights clause in FAR 52.227-19.
  
 Gaussian, Inc.
 340 Quinnipiac St., Bldg. 40, Wallingford CT 06492
  
  
 ---------------------------------------------------------------
 Warning -- This program may not be used in any manner that
 competes with the business of Gaussian, Inc. or will provide
 assistance to any competitor of Gaussian, Inc.  The licensee
 of this program is prohibited from giving any competitor of
 Gaussian, Inc. access to this program.  By using this program,
 the user acknowledges that Gaussian, Inc. is engaged in the
 business of creating and licensing software in the field of
 computational chemistry and represents and warrants to the
 licensee that it is not a competitor of Gaussian, Inc. and that
 it will not use this program in any manner prohibited above.
 ---------------------------------------------------------------
  

 Cite this work as:
 Gaussian 16, Revision A.03,
 M. J. Frisch, G. W. Trucks, H. B. Schlegel, G. E. Scuseria, 
 M. A. Robb, J. R. Cheeseman, G. Scalmani, V. Barone, 
 G. A. Petersson, H. Nakatsuji, X. Li, M. Caricato, A. V. Marenich, 
 J. Bloino, B. G. Janesko, R. Gomperts, B. Mennucci, H. P. Hratchian, 
 J. V. Ortiz, A. F. Izmaylov, J. L. Sonnenberg, D. Williams-Young, 
 F. Ding, F. Lipparini, F. Egidi, J. Goings, B. Peng, A. Petrone, 
 T. Henderson, D. Ranasinghe, V. G. Zakrzewski, J. Gao, N. Rega, 
 G. Zheng, W. Liang, M. Hada, M. Ehara, K. Toyota, R. Fukuda, 
 J. Hasegawa, M. Ishida, T. Nakajima, Y. Honda, O. Kitao, H. Nakai, 
 T. Vreven, K. Throssell, J. A. Montgomery, Jr., J. E. Peralta, 
 F. Ogliaro, M. J. Bearpark, J. J. Heyd, E. N. Brothers, K. N. Kudin, 
 V. N. Staroverov, T. A. Keith, R. Kobayashi, J. Normand, 
 K. Raghavachari, A. P. Rendell, J. C. Burant, S. S. Iyengar, 
 J. Tomasi, M. Cossi, J. M. Millam, M. Klene, C. Adamo, R. Cammi, 
 J. W. Ochterski, R. L. Martin, K. Morokuma, O. Farkas, 
 J. B. Foresman, and D. J. Fox, Gaussian, Inc., Wallingford CT, 2016.
 
 ******************************************
 Gaussian 16:  ES64L-G16RevA.03 25-Dec-2016
                27-Jan-2023 
 ******************************************
 %nprocshared=28
 Will use up to   28 processors via shared memory.
 %mem=41GB
 -----------------------------
 # wB97XD/aug-cc-pVDZ opt freq
 -----------------------------
 1/18=20,19=15,26=3,38=1/1,3;
 2/9=110,12=2,17=6,18=5,40=1/2;
 3/5=16,7=10,11=2,25=1,30=1,71=1,74=-58/1,2,3;
 4//1;
 5/5=2,38=5/2;
 6/7=2,8=2,9=2,10=2,28=1/1;
 7//1,2,3,16;
 1/18=20,19=15,26=3/3(2);
 2/9=110/2;
 99//99;
 2/9=110/2;
 3/5=16,7=10,11=2,25=1,30=1,71=1,74=-58/1,2,3;
 4/5=5,16=3,69=1/1;
 5/5=2,38=5/2;
 7//1,2,3,16;
 1/18=20,19=15,26=3/3(-5);
 2/9=110/2;
 6/7=2,8=2,9=2,10=2,19=2,28=1/1;
 99/9=1/99;
 ----
 blah
 ----
 Symbolic Z-matrix:
 Charge =  1 Multiplicity = 1
 C                    -2.71964   1.64009  -0.51979 
 C                    -2.11139   0.21699  -0.60491 
 N                    -3.21163  -0.66524  -0.24976 
 C                    -4.39196  -0.07915  -0.87978 
 C                    -4.24779   1.4163   -0.59843 
 C                    -0.92991   0.02825   0.31607 
 C                     0.37039   0.07594  -0.15898 
 N                     1.41569  -0.05131   0.67515 
 C                     1.26404  -0.23825   1.99267 
 C                    -0.00867  -0.30688   2.535 
 C                    -1.10724  -0.1725    1.69086 
 C                    -2.99162  -2.05564  -0.60136 
 H                    -1.77141   0.02786  -1.64556 
 H                    -2.43826   2.12653   0.42181 
 H                    -2.34024   2.26672  -1.33479 
 H                    -4.72006   1.67051   0.357 
 H                    -4.71837   2.02617  -1.3765 
 H                    -4.39243  -0.27288  -1.97194 
 H                    -5.30447  -0.51845  -0.45986 
 H                    -2.12429  -0.23455   2.07794 
 H                     2.1766   -0.33218   2.57625 
 H                     2.39848  -0.00873   0.27173 
 H                     0.61356   0.2133   -1.21084 
 H                    -2.1187   -2.45264  -0.06625 
 H                    -2.8269   -2.19161  -1.68917 
 H                    -3.86398  -2.6504   -0.30706 
 H                    -0.13148  -0.46472   3.60397 
 O                     3.83198   0.05285  -0.32681 
 H                     4.35094  -0.71101  -0.63711 
 H                     4.3776    0.85487  -0.41702 
 O                     5.25567   2.40147  -0.52324 
 H                     5.41089   2.88176  -1.34086 
 H                     5.95964   2.6678    0.07408 
 O                     5.17391  -2.19866  -1.1707 
 H                     5.86748  -2.64207  -0.67502 
 H                     5.31728  -2.43659  -2.09057 
 O                     5.48079   4.01559  -2.72751 
 H                     5.58693   3.91675  -3.68903 
 H                     4.78506   4.69305  -2.6585 
 
 Add virtual bond connecting atoms O28        and H22        Dist= 2.94D+00.
 Add virtual bond connecting atoms O31        and H30        Dist= 3.37D+00.
 Add virtual bond connecting atoms O34        and H29        Dist= 3.37D+00.
 Add virtual bond connecting atoms O37        and H32        Dist= 3.39D+00.

 GradGradGradGradGradGradGradGradGradGradGradGradGradGradGradGradGradGrad
 Berny optimization.
 Initialization pass.
                           ----------------------------
                           !    Initial Parameters    !
                           ! (Angstroms and Degrees)  !
 --------------------------                            --------------------------
 ! Name  Definition              Value          Derivative Info.                !
 --------------------------------------------------------------------------------
 ! R1    R(1,2)                  1.55           estimate D2E/DX2                !
 ! R2    R(1,5)                  1.5465         estimate D2E/DX2                !
 ! R3    R(1,14)                 1.0965         estimate D2E/DX2                !
 ! R4    R(1,15)                 1.0958         estimate D2E/DX2                !
 ! R5    R(2,3)                  1.4543         estimate D2E/DX2                !
 ! R6    R(2,6)                  1.5099         estimate D2E/DX2                !
 ! R7    R(2,13)                 1.111          estimate D2E/DX2                !
 ! R8    R(3,4)                  1.4607         estimate D2E/DX2                !
 ! R9    R(3,12)                 1.4509         estimate D2E/DX2                !
 ! R10   R(4,5)                  1.5285         estimate D2E/DX2                !
 ! R11   R(4,18)                 1.1092         estimate D2E/DX2                !
 ! R12   R(4,19)                 1.0964         estimate D2E/DX2                !
 ! R13   R(5,16)                 1.0957         estimate D2E/DX2                !
 ! R14   R(5,17)                 1.0949         estimate D2E/DX2                !
 ! R15   R(6,7)                  1.3852         estimate D2E/DX2                !
 ! R16   R(6,11)                 1.4006         estimate D2E/DX2                !
 ! R17   R(7,8)                  1.3434         estimate D2E/DX2                !
 ! R18   R(7,23)                 1.0883         estimate D2E/DX2                !
 ! R19   R(8,9)                  1.3393         estimate D2E/DX2                !
 ! R20   R(8,22)                 1.0632         estimate D2E/DX2                !
 ! R21   R(9,10)                 1.3851         estimate D2E/DX2                !
 ! R22   R(9,21)                 1.0873         estimate D2E/DX2                !
 ! R23   R(10,11)                1.3919         estimate D2E/DX2                !
 ! R24   R(10,27)                1.0875         estimate D2E/DX2                !
 ! R25   R(11,20)                1.09           estimate D2E/DX2                !
 ! R26   R(12,24)                1.0982         estimate D2E/DX2                !
 ! R27   R(12,25)                1.1086         estimate D2E/DX2                !
 ! R28   R(12,26)                1.0961         estimate D2E/DX2                !
 ! R29   R(22,28)                1.5546         estimate D2E/DX2                !
 ! R30   R(28,29)                0.9742         estimate D2E/DX2                !
 ! R31   R(28,30)                0.9742         estimate D2E/DX2                !
 ! R32   R(29,34)                1.7819         estimate D2E/DX2                !
 ! R33   R(30,31)                1.7816         estimate D2E/DX2                !
 ! R34   R(31,32)                0.9609         estimate D2E/DX2                !
 ! R35   R(31,33)                0.9609         estimate D2E/DX2                !
 ! R36   R(32,37)                1.7926         estimate D2E/DX2                !
 ! R37   R(34,35)                0.9609         estimate D2E/DX2                !
 ! R38   R(34,36)                0.9609         estimate D2E/DX2                !
 ! R39   R(37,38)                0.9724         estimate D2E/DX2                !
 ! R40   R(37,39)                0.9735         estimate D2E/DX2                !
 ! A1    A(2,1,5)              104.6029         estimate D2E/DX2                !
 ! A2    A(2,1,14)             110.7174         estimate D2E/DX2                !
 ! A3    A(2,1,15)             110.3844         estimate D2E/DX2                !
 ! A4    A(5,1,14)             111.1879         estimate D2E/DX2                !
 ! A5    A(5,1,15)             112.7715         estimate D2E/DX2                !
 ! A6    A(14,1,15)            107.2253         estimate D2E/DX2                !
 ! A7    A(1,2,3)              104.2812         estimate D2E/DX2                !
 ! A8    A(1,2,6)              112.8514         estimate D2E/DX2                !
 ! A9    A(1,2,13)             109.1367         estimate D2E/DX2                !
 ! A10   A(3,2,6)              111.5434         estimate D2E/DX2                !
 ! A11   A(3,2,13)             110.9158         estimate D2E/DX2                !
 ! A12   A(6,2,13)             108.0962         estimate D2E/DX2                !
 ! A13   A(2,3,4)              105.2244         estimate D2E/DX2                !
 ! A14   A(2,3,12)             114.0435         estimate D2E/DX2                !
 ! A15   A(4,3,12)             113.7347         estimate D2E/DX2                !
 ! A16   A(3,4,5)              103.7069         estimate D2E/DX2                !
 ! A17   A(3,4,18)             110.7899         estimate D2E/DX2                !
 ! A18   A(3,4,19)             110.2789         estimate D2E/DX2                !
 ! A19   A(5,4,18)             110.6196         estimate D2E/DX2                !
 ! A20   A(5,4,19)             113.5803         estimate D2E/DX2                !
 ! A21   A(18,4,19)            107.8661         estimate D2E/DX2                !
 ! A22   A(1,5,4)              104.1316         estimate D2E/DX2                !
 ! A23   A(1,5,16)             110.3655         estimate D2E/DX2                !
 ! A24   A(1,5,17)             112.3484         estimate D2E/DX2                !
 ! A25   A(4,5,16)             110.2946         estimate D2E/DX2                !
 ! A26   A(4,5,17)             111.9399         estimate D2E/DX2                !
 ! A27   A(16,5,17)            107.7694         estimate D2E/DX2                !
 ! A28   A(2,6,7)              121.4031         estimate D2E/DX2                !
 ! A29   A(2,6,11)             121.1691         estimate D2E/DX2                !
 ! A30   A(7,6,11)             117.413          estimate D2E/DX2                !
 ! A31   A(6,7,8)              120.9459         estimate D2E/DX2                !
 ! A32   A(6,7,23)             123.0629         estimate D2E/DX2                !
 ! A33   A(8,7,23)             115.991          estimate D2E/DX2                !
 ! A34   A(7,8,9)              122.4075         estimate D2E/DX2                !
 ! A35   A(7,8,22)             118.6767         estimate D2E/DX2                !
 ! A36   A(9,8,22)             118.9143         estimate D2E/DX2                !
 ! A37   A(8,9,10)             119.7431         estimate D2E/DX2                !
 ! A38   A(8,9,21)             116.425          estimate D2E/DX2                !
 ! A39   A(10,9,21)            123.8314         estimate D2E/DX2                !
 ! A40   A(9,10,11)            118.8778         estimate D2E/DX2                !
 ! A41   A(9,10,27)            119.7235         estimate D2E/DX2                !
 ! A42   A(11,10,27)           121.3986         estimate D2E/DX2                !
 ! A43   A(6,11,10)            120.609          estimate D2E/DX2                !
 ! A44   A(6,11,20)            118.3501         estimate D2E/DX2                !
 ! A45   A(10,11,20)           121.0353         estimate D2E/DX2                !
 ! A46   A(3,12,24)            110.4186         estimate D2E/DX2                !
 ! A47   A(3,12,25)            112.2005         estimate D2E/DX2                !
 ! A48   A(3,12,26)            109.5264         estimate D2E/DX2                !
 ! A49   A(24,12,25)           108.4028         estimate D2E/DX2                !
 ! A50   A(24,12,26)           107.7972         estimate D2E/DX2                !
 ! A51   A(25,12,26)           108.3724         estimate D2E/DX2                !
 ! A52   A(22,28,29)           125.6451         estimate D2E/DX2                !
 ! A53   A(22,28,30)           125.7805         estimate D2E/DX2                !
 ! A54   A(29,28,30)           108.5204         estimate D2E/DX2                !
 ! A55   A(30,31,32)           124.3501         estimate D2E/DX2                !
 ! A56   A(30,31,33)           124.3756         estimate D2E/DX2                !
 ! A57   A(32,31,33)           105.7873         estimate D2E/DX2                !
 ! A58   A(29,34,35)           124.3423         estimate D2E/DX2                !
 ! A59   A(29,34,36)           124.2155         estimate D2E/DX2                !
 ! A60   A(35,34,36)           105.7753         estimate D2E/DX2                !
 ! A61   A(32,37,38)           134.8188         estimate D2E/DX2                !
 ! A62   A(32,37,39)           110.944          estimate D2E/DX2                !
 ! A63   A(38,37,39)           102.6408         estimate D2E/DX2                !
 ! A64   L(8,22,28,23,-1)      179.6611         estimate D2E/DX2                !
 ! A65   L(28,29,34,24,-1)     175.0242         estimate D2E/DX2                !
 ! A66   L(28,30,31,15,-1)     175.7542         estimate D2E/DX2                !
 ! A67   L(31,32,37,1,-1)      173.562          estimate D2E/DX2                !
 ! A68   L(8,22,28,23,-2)      180.078          estimate D2E/DX2                !
 ! A69   L(28,29,34,24,-2)     181.2406         estimate D2E/DX2                !
 ! A70   L(28,30,31,15,-2)     177.1992         estimate D2E/DX2                !
 ! A71   L(31,32,37,1,-2)      170.3934         estimate D2E/DX2                !
 ! D1    D(5,1,2,3)            -19.2882         estimate D2E/DX2                !
 ! D2    D(5,1,2,6)           -140.517          estimate D2E/DX2                !
 ! D3    D(5,1,2,13)            99.2833         estimate D2E/DX2                !
 ! D4    D(14,1,2,3)           100.5698         estimate D2E/DX2                !
 ! D5    D(14,1,2,6)           -20.659          estimate D2E/DX2                !
 ! D6    D(14,1,2,13)         -140.8586         estimate D2E/DX2                !
 ! D7    D(15,1,2,3)          -140.8561         estimate D2E/DX2                !
 ! D8    D(15,1,2,6)            97.915          estimate D2E/DX2                !
 ! D9    D(15,1,2,13)          -22.2846         estimate D2E/DX2                !
 ! D10   D(2,1,5,4)             -6.1898         estimate D2E/DX2                !
 ! D11   D(2,1,5,16)           112.1682         estimate D2E/DX2                !
 ! D12   D(2,1,5,17)          -127.5281         estimate D2E/DX2                !
 ! D13   D(14,1,5,4)          -125.732          estimate D2E/DX2                !
 ! D14   D(14,1,5,16)           -7.374          estimate D2E/DX2                !
 ! D15   D(14,1,5,17)          112.9297         estimate D2E/DX2                !
 ! D16   D(15,1,5,4)           113.7928         estimate D2E/DX2                !
 ! D17   D(15,1,5,16)         -127.8492         estimate D2E/DX2                !
 ! D18   D(15,1,5,17)           -7.5455         estimate D2E/DX2                !
 ! D19   D(1,2,3,4)             39.0104         estimate D2E/DX2                !
 ! D20   D(1,2,3,12)           164.3338         estimate D2E/DX2                !
 ! D21   D(6,2,3,4)            161.1047         estimate D2E/DX2                !
 ! D22   D(6,2,3,12)           -73.5719         estimate D2E/DX2                !
 ! D23   D(13,2,3,4)           -78.3395         estimate D2E/DX2                !
 ! D24   D(13,2,3,12)           46.9839         estimate D2E/DX2                !
 ! D25   D(1,2,6,7)           -101.2358         estimate D2E/DX2                !
 ! D26   D(1,2,6,11)            77.3274         estimate D2E/DX2                !
 ! D27   D(3,2,6,7)            141.753          estimate D2E/DX2                !
 ! D28   D(3,2,6,11)           -39.6837         estimate D2E/DX2                !
 ! D29   D(13,2,6,7)            19.559          estimate D2E/DX2                !
 ! D30   D(13,2,6,11)         -161.8778         estimate D2E/DX2                !
 ! D31   D(2,3,4,5)            -43.3076         estimate D2E/DX2                !
 ! D32   D(2,3,4,18)            75.3995         estimate D2E/DX2                !
 ! D33   D(2,3,4,19)          -165.2515         estimate D2E/DX2                !
 ! D34   D(12,3,4,5)          -168.8232         estimate D2E/DX2                !
 ! D35   D(12,3,4,18)          -50.1161         estimate D2E/DX2                !
 ! D36   D(12,3,4,19)           69.2328         estimate D2E/DX2                !
 ! D37   D(2,3,12,24)           61.7411         estimate D2E/DX2                !
 ! D38   D(2,3,12,25)          -59.3069         estimate D2E/DX2                !
 ! D39   D(2,3,12,26)         -179.7            estimate D2E/DX2                !
 ! D40   D(4,3,12,24)         -177.5764         estimate D2E/DX2                !
 ! D41   D(4,3,12,25)           61.3756         estimate D2E/DX2                !
 ! D42   D(4,3,12,26)          -59.0175         estimate D2E/DX2                !
 ! D43   D(3,4,5,1)             29.4697         estimate D2E/DX2                !
 ! D44   D(3,4,5,16)           -88.9369         estimate D2E/DX2                !
 ! D45   D(3,4,5,17)           151.0795         estimate D2E/DX2                !
 ! D46   D(18,4,5,1)           -89.3547         estimate D2E/DX2                !
 ! D47   D(18,4,5,16)          152.2387         estimate D2E/DX2                !
 ! D48   D(18,4,5,17)           32.2552         estimate D2E/DX2                !
 ! D49   D(19,4,5,1)           149.1863         estimate D2E/DX2                !
 ! D50   D(19,4,5,16)           30.7797         estimate D2E/DX2                !
 ! D51   D(19,4,5,17)          -89.2039         estimate D2E/DX2                !
 ! D52   D(2,6,7,8)            177.8904         estimate D2E/DX2                !
 ! D53   D(2,6,7,23)            -2.2766         estimate D2E/DX2                !
 ! D54   D(11,6,7,8)            -0.7248         estimate D2E/DX2                !
 ! D55   D(11,6,7,23)          179.1082         estimate D2E/DX2                !
 ! D56   D(2,6,11,10)         -178.1445         estimate D2E/DX2                !
 ! D57   D(2,6,11,20)            2.7075         estimate D2E/DX2                !
 ! D58   D(7,6,11,10)            0.4741         estimate D2E/DX2                !
 ! D59   D(7,6,11,20)         -178.6739         estimate D2E/DX2                !
 ! D60   D(6,7,8,9)              0.4783         estimate D2E/DX2                !
 ! D61   D(6,7,8,22)          -179.9697         estimate D2E/DX2                !
 ! D62   D(23,7,8,9)          -179.3661         estimate D2E/DX2                !
 ! D63   D(23,7,8,22)            0.1859         estimate D2E/DX2                !
 ! D64   D(7,8,9,10)             0.052          estimate D2E/DX2                !
 ! D65   D(7,8,9,21)           179.7968         estimate D2E/DX2                !
 ! D66   D(22,8,9,10)         -179.499          estimate D2E/DX2                !
 ! D67   D(22,8,9,21)            0.2458         estimate D2E/DX2                !
 ! D68   D(7,8,28,29)          -91.0683         estimate D2E/DX2                !
 ! D69   D(7,8,28,30)           91.7151         estimate D2E/DX2                !
 ! D70   D(9,8,28,29)           88.4531         estimate D2E/DX2                !
 ! D71   D(9,8,28,30)          -88.7635         estimate D2E/DX2                !
 ! D72   D(8,9,10,11)           -0.2967         estimate D2E/DX2                !
 ! D73   D(8,9,10,27)          179.6298         estimate D2E/DX2                !
 ! D74   D(21,9,10,11)         179.9785         estimate D2E/DX2                !
 ! D75   D(21,9,10,27)          -0.095          estimate D2E/DX2                !
 ! D76   D(9,10,11,6)            0.0233         estimate D2E/DX2                !
 ! D77   D(9,10,11,20)         179.1482         estimate D2E/DX2                !
 ! D78   D(27,10,11,6)        -179.9019         estimate D2E/DX2                !
 ! D79   D(27,10,11,20)         -0.777          estimate D2E/DX2                !
 ! D80   D(22,28,31,32)       -105.8757         estimate D2E/DX2                !
 ! D81   D(22,28,31,33)        101.6744         estimate D2E/DX2                !
 ! D82   D(29,28,31,32)         76.6095         estimate D2E/DX2                !
 ! D83   D(29,28,31,33)        -75.8405         estimate D2E/DX2                !
 ! D84   D(22,28,34,35)       -101.9147         estimate D2E/DX2                !
 ! D85   D(22,28,34,36)        106.0506         estimate D2E/DX2                !
 ! D86   D(30,28,34,35)         75.6501         estimate D2E/DX2                !
 ! D87   D(30,28,34,36)        -76.3846         estimate D2E/DX2                !
 ! D88   D(30,31,37,38)        -37.9283         estimate D2E/DX2                !
 ! D89   D(30,31,37,39)         95.3512         estimate D2E/DX2                !
 ! D90   D(33,31,37,38)        123.8033         estimate D2E/DX2                !
 ! D91   D(33,31,37,39)       -102.9172         estimate D2E/DX2                !
 --------------------------------------------------------------------------------
 Trust Radius=3.00D-01 FncErr=1.00D-07 GrdErr=1.00D-06 EigMax=2.50D+02 EigMin=1.00D-04
 Number of steps in this run=    212 maximum allowed number of steps=    234.
 GradGradGradGradGradGradGradGradGradGradGradGradGradGradGradGradGradGrad

                          Input orientation:                          
 ---------------------------------------------------------------------
 Center     Atomic      Atomic             Coordinates (Angstroms)
 Number     Number       Type             X           Y           Z
 ---------------------------------------------------------------------
      1          6           0       -2.719638    1.640091   -0.519793
      2          6           0       -2.111391    0.216988   -0.604913
      3          7           0       -3.211627   -0.665235   -0.249760
      4          6           0       -4.391963   -0.079147   -0.879781
      5          6           0       -4.247793    1.416297   -0.598434
      6          6           0       -0.929912    0.028253    0.316069
      7          6           0        0.370391    0.075939   -0.158984
      8          7           0        1.415688   -0.051308    0.675150
      9          6           0        1.264041   -0.238253    1.992667
     10          6           0       -0.008668   -0.306881    2.535002
     11          6           0       -1.107236   -0.172504    1.690862
     12          6           0       -2.991624   -2.055639   -0.601363
     13          1           0       -1.771407    0.027864   -1.645562
     14          1           0       -2.438263    2.126530    0.421811
     15          1           0       -2.340239    2.266722   -1.334794
     16          1           0       -4.720058    1.670506    0.356996
     17          1           0       -4.718370    2.026173   -1.376500
     18          1           0       -4.392425   -0.272882   -1.971936
     19          1           0       -5.304474   -0.518450   -0.459863
     20          1           0       -2.124290   -0.234549    2.077944
     21          1           0        2.176601   -0.332179    2.576249
     22          1           0        2.398484   -0.008728    0.271732
     23          1           0        0.613559    0.213304   -1.210837
     24          1           0       -2.118696   -2.452641   -0.066248
     25          1           0       -2.826897   -2.191605   -1.689167
     26          1           0       -3.863980   -2.650397   -0.307058
     27          1           0       -0.131483   -0.464724    3.603967
     28          8           0        3.831975    0.052847   -0.326806
     29          1           0        4.350944   -0.711010   -0.637111
     30          1           0        4.377602    0.854869   -0.417023
     31          8           0        5.255670    2.401467   -0.523239
     32          1           0        5.410889    2.881760   -1.340863
     33          1           0        5.959644    2.667796    0.074081
     34          8           0        5.173909   -2.198658   -1.170700
     35          1           0        5.867475   -2.642070   -0.675015
     36          1           0        5.317280   -2.436593   -2.090569
     37          8           0        5.480786    4.015594   -2.727511
     38          1           0        5.586927    3.916751   -3.689033
     39          1           0        4.785057    4.693046   -2.658498
 ---------------------------------------------------------------------
                    Distance matrix (angstroms):
                    1          2          3          4          5
     1  C    0.000000
     2  C    1.549978   0.000000
     3  N    2.372657   1.454294   0.000000
     4  C    2.425292   2.316087   1.460691   0.000000
     5  C    1.546456   2.450020   2.351168   1.528494   0.000000
     6  C    2.549472   1.509875   2.450982   3.664340   3.710972
     7  C    3.482102   2.525468   3.659021   4.819089   4.828799
     8  N    4.624894   3.761759   4.758614   6.012270   5.987562
     9  C    5.070535   4.283481   5.024181   6.345601   6.311232
    10  C    4.524581   3.815095   4.259374   5.561104   5.545985
    11  C    3.282124   2.535866   2.904696   4.172092   4.198603
    12  C    3.706622   2.437141   1.450948   2.438234   3.692196
    13  H    2.183065   1.110994   2.122000   2.732249   3.026006
    14  H    1.096546   2.192569   2.973727   3.221195   2.195388
    15  H    1.095827   2.187809   3.245456   3.149557   2.214545
    16  H    2.184345   3.137376   2.845910   2.167614   1.095675
    17  H    2.208605   3.265706   3.283823   2.187611   1.094887
    18  H    2.926842   2.704042   2.124645   1.109205   2.181915
    19  H    3.368125   3.279891   2.108482   1.096355   2.208851
    20  H    3.258366   2.720620   2.604995   3.730232   3.794411
    21  H    6.119516   5.367332   6.093460   7.426587   7.376220
    22  H    5.435098   4.599829   5.672416   6.887751   6.852801
    23  H    3.690998   2.791507   4.040736   5.024975   5.045292
    24  H    4.161405   2.723441   2.103092   3.385713   4.448028
    25  H    4.007597   2.736581   2.133006   2.750821   4.028101
    26  H    4.445567   3.373749   2.090386   2.686653   4.095145
    27  H    5.304167   4.701004   4.937479   6.197125   6.175955
    28  O    6.743902   5.952133   7.080530   8.243565   8.198502
    29  H    7.452152   6.528705   7.572623   8.769069   8.858059
    30  H    7.141285   6.522977   7.741776   8.831297   8.645551
    31  O    8.011569   7.684543   9.009693   9.967818   9.554686
    32  H    8.265674   8.014195   9.387197  10.250633   9.797394
    33  H    8.760068   8.462216   9.763513  10.752270  10.305838
    34  O    8.801577   7.696172   8.574190   9.802187  10.107614
    35  H    9.596849   8.475932   9.301549  10.576699  10.899305
    36  H    9.147608   8.027068   8.903288  10.064440  10.419302
    37  O    8.818389   8.750770  10.178775  10.846759  10.292452
    38  H    9.177488   9.080977  10.499417  11.110236  10.607817
    39  H    8.379441   8.474273   9.922708  10.495492   9.827173
                    6          7          8          9         10
     6  C    0.000000
     7  C    1.385185   0.000000
     8  N    2.374260   1.343360   0.000000
     9  C    2.774065   2.350942   1.339327   0.000000
    10  C    2.425834   2.747326   2.356514   1.385144   0.000000
    11  C    1.400644   2.380554   2.722408   2.391310   1.391934
    12  C    3.071635   4.005305   5.007118   5.304957   4.668294
    13  H    2.134505   2.607590   3.943291   4.745679   4.549332
    14  H    2.586324   3.525732   4.433971   4.665495   4.036087
    15  H    3.118512   3.678257   4.849755   5.507970   5.199517
    16  H    4.130845   5.359249   6.380693   6.490626   5.554365
    17  H    4.605311   5.584017   6.793516   7.229672   6.551663
    18  H    4.161087   5.108120   6.386731   6.907596   6.287366
    19  H    4.476354   5.713836   6.831329   7.017037   6.087655
    20  H    2.144716   3.365068   3.812198   3.389406   2.165639
    21  H    3.858594   3.303098   2.066895   1.087270   2.185805
    22  H    3.328897   2.075053   1.063225   2.073948   3.317479
    23  H    2.178988   1.088299   2.066489   3.299919   3.832632
    24  H    2.777446   3.549348   4.336812   4.537131   3.977814
    25  H    3.542216   4.207834   5.307579   5.840142   5.416475
    26  H    4.021468   5.038326   5.966145   6.115862   5.332242
    27  H    3.419179   3.834579   3.338056   2.143610   1.087513
    28  O    4.805149   3.465727   2.617863   3.472604   4.803112
    29  H    5.416872   4.085670   3.282219   4.082671   5.406648
    30  H    5.421293   4.090361   3.284347   4.086047   5.413269
    31  O    6.678174   5.422796   4.711444   5.406571   6.663426
    32  H    7.147985   5.888641   5.350591   6.167921   7.386566
    33  H    7.381851   6.165370   5.329385   5.845920   7.108135
    34  O    6.665302   5.410282   4.705582   5.397884   6.646063
    35  H    7.370030   6.154006   5.324791   5.838362   7.091289
    36  H    7.134058   5.874993   5.344269   6.159080   7.368670
    37  O    8.139982   6.945095   6.681528   7.626023   8.747110
    38  H    8.580819   7.377353   7.224322   8.260334   9.374879
    39  H    7.954194   6.859630   6.706322   7.638625   8.657454
                   11         12         13         14         15
    11  C    0.000000
    12  C    3.514457   0.000000
    13  H    3.407785   2.630640   0.000000
    14  H    2.944092   4.340925   3.020451   0.000000
    15  H    4.077342   4.432271   2.330801   1.764915   0.000000
    16  H    4.269469   4.217830   3.924672   2.327820   2.980128
    17  H    5.223330   4.499298   3.570746   2.905664   2.390630
    18  H    4.921243   2.649328   2.658327   3.912282   3.326711
    19  H    4.728859   2.780692   3.766551   3.998554   4.160454
    20  H    1.089991   3.353703   3.749384   2.901043   4.236717
    21  H    3.404848   6.306987   5.791380   5.655424   6.515550
    22  H    3.785608   5.831415   4.589700   5.289232   5.496735
    23  H    3.395562   4.303127   2.431345   3.954692   3.599557
    24  H    3.051149   1.098163   2.961038   4.616182   4.891899
    25  H    4.296347   1.108575   2.458049   4.822194   4.498788
    26  H    4.210852   1.096065   3.652881   5.038150   5.249389
    27  H    2.167362   5.328810   5.521734   4.707648   6.060591
    28  O    5.340185   7.147209   5.756529   6.646538   6.634268
    29  H    5.958286   7.464758   6.248687   7.434129   7.357009
    30  H    5.965075   7.925309   6.324837   6.984038   6.925678
    31  O    7.212083   9.374954   7.501561   7.756630   7.640328
    32  H    7.810623   9.773791   7.734529   8.080011   7.775493
    33  H    7.786018  10.143582   8.348387   8.422513   8.428158
    34  O    7.193512   8.186607   7.308920   8.898792   8.742366
    35  H    7.768058   8.878793   8.150032   9.639910   9.586351
    36  H    7.791003   8.449896   7.518049   9.342515   9.018313
    37  O    8.970185  10.637768   8.346670   8.729154   8.134288
    38  H    9.511945  10.899298   8.569965   9.192802   8.432378
    39  H    8.792589  10.500158   8.110313   8.261456   7.642583
                   16         17         18         19         20
    16  H    0.000000
    17  H    1.769607   0.000000
    18  H    3.050906   2.397173   0.000000
    19  H    2.408387   2.767462   1.782835   0.000000
    20  H    3.650878   4.875787   4.641921   4.078558   0.000000
    21  H    7.516631   8.290155   7.990094   8.075838   4.330762
    22  H    7.314420   7.583344   7.156834   7.754393   4.875334
    23  H    5.747087   5.634129   5.086799   6.010203   4.302612
    24  H    4.893522   5.341801   3.681418   3.747694   3.085048
    25  H    4.763060   4.633042   2.492455   3.232495   4.302889
    26  H    4.454665   4.872781   2.950195   2.577512   3.814587
    27  H    6.013073   7.214510   7.020194   6.578559   2.520517
    28  O    8.730503   8.837662   8.393647   9.155260   6.429814
    29  H    9.430957   9.502175   8.855519   9.658964   7.037556
    30  H    9.166885   9.221131   8.977915   9.779082   7.048850
    31  O   10.041129  10.017503  10.116156  10.956577   8.257030
    32  H   10.343401  10.165392  10.317702  11.276373   8.841863
    33  H   10.729896  10.795177  10.954410  11.718260   8.819811
    34  O   10.732887  10.758659   9.791085  10.636019   8.226489
    35  H   11.478642  11.590716  10.609458  11.374027   8.788814
    36  H   11.117868  11.006382   9.948572  10.916049   8.809226
    37  O   10.911958  10.478827  10.790839  11.917282   9.949537
    38  H   11.298226  10.729457  10.958509  12.195129  10.485904
    39  H   10.419988   9.953434  10.457436  11.566863   9.718752
                   21         22         23         24         25
    21  H    0.000000
    22  H    2.337659   0.000000
    23  H    4.133119   2.330937   0.000000
    24  H    5.470715   5.147024   3.985293   0.000000
    25  H    6.832732   5.992886   4.224822   1.789848   0.000000
    26  H    7.083517   6.821427   5.391285   1.772883   1.787808
    27  H    2.530025   4.208617   4.919060   4.622911   6.185842
    28  O    3.363961   1.554650   3.341476   6.461876   7.157805
    29  H    3.898328   2.265236   3.892501   6.724240   7.404079
    30  H    3.900406   2.266515   3.899970   7.298257   7.924908
    31  O    5.153670   3.821587   5.177842   8.840389   9.369290
    32  H    6.011139   4.475485   5.491078   9.315317   9.680985
    33  H    5.438024   4.459227   6.021310   9.565466  10.194416
    34  O    5.148517   3.818296   5.159066   7.380136   8.017590
    35  H    5.434047   4.456985   6.003657   8.011580   8.764903
    36  H    6.005965   4.471506   5.469998   7.706612   8.157742
    37  O    7.612532   5.889924   6.359843  10.328238  10.422335
    38  H    8.302860   6.423645   6.677677  10.633455  10.587914
    39  H    7.710999   6.032301   6.290088  10.268515  10.309212
                   26         27         28         29         30
    26  H    0.000000
    27  H    5.831365   0.000000
    28  O    8.156938   5.606055   0.000000
    29  H    8.447197   6.175723   0.974215   0.000000
    30  H    8.956710   6.183974   0.974211   1.581495   0.000000
    31  O   10.427659   7.366838   2.753454   3.243302   1.781643
    32  H   10.848811   8.146667   3.394706   3.811397   2.455494
    33  H   11.177300   7.705492   3.394944   3.809205   2.455757
    34  O    9.090291   7.345145   2.753583   1.781877   3.244405
    35  H    9.738413   7.683620   3.395156   2.455666   3.809838
    36  H    9.355328   8.124348   3.393273   2.454380   3.810180
    37  O   11.731099   9.573841   4.917858   5.290284   4.067622
    38  H   11.995200  10.251116   5.414257   5.679618   4.641513
    39  H   11.587116   9.486486   5.279829   5.786042   4.463388
                   31         32         33         34         35
    31  O    0.000000
    32  H    0.960876   0.000000
    33  H    0.960886   1.532638   0.000000
    34  O    4.646186   5.088788   5.084214   0.000000
    35  H    5.082775   5.582519   5.363238   0.960912   0.000000
    36  H    5.085975   5.371750   5.581499   0.960899   1.532556
    37  O    2.741331   1.792556   3.145597   6.413639   6.977590
    38  H    3.525347   2.572178   3.982441   6.626524   7.223652
    39  H    3.167356   2.325636   3.598372   7.061185   7.675269
                   36         37         38         39
    36  H    0.000000
    37  O    6.485611   0.000000
    38  H    6.556888   0.972399   0.000000
    39  H    7.171998   0.973521   1.519089   0.000000
 Stoichiometry    C10H23N2O4(1+)
 Framework group  C1[X(C10H23N2O4)]
 Deg. of freedom   111
 Full point group                 C1      NOp   1
 Largest Abelian subgroup         C1      NOp   1
 Largest concise Abelian subgroup C1      NOp   1
                         Standard orientation:                         
 ---------------------------------------------------------------------
 Center     Atomic      Atomic             Coordinates (Angstroms)
 Number     Number       Type             X           Y           Z
 ---------------------------------------------------------------------
      1          6           0       -2.827775    1.903094    0.292913
      2          6           0       -2.455558    0.588424   -0.438886
      3          7           0       -3.717874   -0.123074   -0.562581
      4          6           0       -4.709590    0.905277   -0.866904
      5          6           0       -4.353908    2.045126    0.087313
      6          6           0       -1.429532   -0.228681    0.308999
      7          6           0       -0.094786   -0.225352   -0.061377
      8          7           0        0.817371   -0.922651    0.636020
      9          6           0        0.493219   -1.657806    1.707593
     10          6           0       -0.825307   -1.715501    2.128051
     11          6           0       -1.787417   -0.996978    1.424096
     12          6           0       -3.691601   -1.211208   -1.522020
     13          1           0       -2.038893    0.833775   -1.439136
     14          1           0       -2.575661    1.838864    1.358148
     15          1           0       -2.263479    2.744906   -0.123929
     16          1           0       -4.880207    1.921190    1.040283
     17          1           0       -4.629663    3.022445   -0.322059
     18          1           0       -4.621764    1.237059   -1.921675
     19          1           0       -5.722350    0.511390   -0.721418
     20          1           0       -2.837175   -1.028140    1.715845
     21          1           0        1.308259   -2.185501    2.196883
     22          1           0        1.832148   -0.894167    0.320011
     23          1           0        0.281750    0.327280   -0.919988
     24          1           0       -2.959795   -1.971779   -1.218782
     25          1           0       -3.432841   -0.863761   -2.542443
     26          1           0       -4.676685   -1.690323   -1.559639
     27          1           0       -1.089099   -2.317359    2.994575
     28          8           0        3.313313   -0.848452   -0.150092
     29          1           0        3.730890   -1.470839   -0.772473
     30          1           0        3.989661   -0.218799    0.158419
     31          8           0        5.115786    0.998598    0.809598
     32          1           0        5.436603    1.758732    0.317097
     33          1           0        5.783924    0.818008    1.476142
     34          8           0        4.352310   -2.678463   -1.925976
     35          1           0        4.905008   -3.426015   -1.682987
     36          1           0        4.554950   -2.492089   -2.846589
     37          8           0        5.843518    3.362742   -0.371980
     38          1           0        6.037053    3.696111   -1.264712
     39          1           0        5.265012    4.055314   -0.006715
 ---------------------------------------------------------------------
 Rotational constants (GHZ):           0.5415631           0.1572768           0.1417552
 Standard basis: Aug-CC-pVDZ (5D, 7F)
 There are   607 symmetry adapted cartesian basis functions of A   symmetry.
 There are   575 symmetry adapted basis functions of A   symmetry.
   575 basis functions,   941 primitive gaussians,   607 cartesian basis functions
    64 alpha electrons       64 beta electrons
       nuclear repulsion energy      1113.3544391536 Hartrees.
 NAtoms=   39 NActive=   39 NUniq=   39 SFac= 1.00D+00 NAtFMM=   60 NAOKFM=F Big=F
 Integral buffers will be    131072 words long.
 Raffenetti 2 integral format.
 Two-electron integral symmetry is turned on.
 Nuclear repulsion after empirical dispersion term =     1113.3308379085 Hartrees.
 One-electron integrals computed using PRISM.
 NBasis=   575 RedAO= T EigKep=  2.23D-06  NBF=   575
 NBsUse=   575 1.00D-06 EigRej= -1.00D+00 NBFU=   575
 ExpMin= 2.97D-02 ExpMax= 1.17D+04 ExpMxC= 4.01D+02 IAcc=3 IRadAn=         5 AccDes= 0.00D+00
 Harris functional with IExCor= 4639 and IRadAn=       5 diagonalized for initial guess.
 HarFok:  IExCor= 4639 AccDes= 0.00D+00 IRadAn=         5 IDoV= 1 UseB2=F ITyADJ=14
 ICtDFT=  3500011 ScaDFX=  1.000000  1.000000  1.000000  1.000000
 FoFCou: FMM=F IPFlag=           0 FMFlag=      100000 FMFlg1=           0
         NFxFlg=           0 DoJE=T BraDBF=F KetDBF=T FulRan=T
         wScrn=  0.000000 ICntrl=       500 IOpCl=  0 I1Cent=   200000004 NGrid=           0
         NMat0=    1 NMatS0=      1 NMatT0=    0 NMatD0=    1 NMtDS0=    0 NMtDT0=    0
 Petite list used in FoFCou.
 Requested convergence on RMS density matrix=1.00D-08 within 128 cycles.
 Requested convergence on MAX density matrix=1.00D-06.
 Requested convergence on             energy=1.00D-06.
 No special actions if energy rises.
 SCF Done:  E(RwB97XD) =  -805.020298675     A.U. after   14 cycles
            NFock= 14  Conv=0.68D-08     -V/T= 2.0063

 **********************************************************************

            Population analysis using the SCF density.

 **********************************************************************

 Orbital symmetries:
       Occupied  (A) (A) (A) (A) (A) (A) (A) (A) (A) (A) (A) (A)
                 (A) (A) (A) (A) (A) (A) (A) (A) (A) (A) (A) (A)
                 (A) (A) (A) (A) (A) (A) (A) (A) (A) (A) (A) (A)
                 (A) (A) (A) (A) (A) (A) (A) (A) (A) (A) (A) (A)
                 (A) (A) (A) (A) (A) (A) (A) (A) (A) (A) (A) (A)
                 (A) (A) (A) (A)
       Virtual   (A) (A) (A) (A) (A) (A) (A) (A) (A) (A) (A) (A)
                 (A) (A) (A) (A) (A) (A) (A) (A) (A) (A) (A) (A)
                 (A) (A) (A) (A) (A) (A) (A) (A) (A) (A) (A) (A)
                 (A) (A) (A) (A) (A) (A) (A) (A) (A) (A) (A) (A)
                 (A) (A) (A) (A) (A) (A) (A) (A) (A) (A) (A) (A)
                 (A) (A) (A) (A) (A) (A) (A) (A) (A) (A) (A) (A)
                 (A) (A) (A) (A) (A) (A) (A) (A) (A) (A) (A) (A)
                 (A) (A) (A) (A) (A) (A) (A) (A) (A) (A) (A) (A)
                 (A) (A) (A) (A) (A) (A) (A) (A) (A) (A) (A) (A)
                 (A) (A) (A) (A) (A) (A) (A) (A) (A) (A) (A) (A)
                 (A) (A) (A) (A) (A) (A) (A) (A) (A) (A) (A) (A)
                 (A) (A) (A) (A) (A) (A) (A) (A) (A) (A) (A) (A)
                 (A) (A) (A) (A) (A) (A) (A) (A) (A) (A) (A) (A)
                 (A) (A) (A) (A) (A) (A) (A) (A) (A) (A) (A) (A)
                 (A) (A) (A) (A) (A) (A) (A) (A) (A) (A) (A) (A)
                 (A) (A) (A) (A) (A) (A) (A) (A) (A) (A) (A) (A)
                 (A) (A) (A) (A) (A) (A) (A) (A) (A) (A) (A) (A)
                 (A) (A) (A) (A) (A) (A) (A) (A) (A) (A) (A) (A)
                 (A) (A) (A) (A) (A) (A) (A) (A) (A) (A) (A) (A)
                 (A) (A) (A) (A) (A) (A) (A) (A) (A) (A) (A) (A)
                 (A) (A) (A) (A) (A) (A) (A) (A) (A) (A) (A) (A)
                 (A) (A) (A) (A) (A) (A) (A) (A) (A) (A) (A) (A)
                 (A) (A) (A) (A) (A) (A) (A) (A) (A) (A) (A) (A)
                 (A) (A) (A) (A) (A) (A) (A) (A) (A) (A) (A) (A)
                 (A) (A) (A) (A) (A) (A) (A) (A) (A) (A) (A) (A)
                 (A) (A) (A) (A) (A) (A) (A) (A) (A) (A) (A) (A)
                 (A) (A) (A) (A) (A) (A) (A) (A) (A) (A) (A) (A)
                 (A) (A) (A) (A) (A) (A) (A) (A) (A) (A) (A) (A)
                 (A) (A) (A) (A) (A) (A) (A) (A) (A) (A) (A) (A)
                 (A) (A) (A) (A) (A) (A) (A) (A) (A) (A) (A) (A)
                 (A) (A) (A) (A) (A) (A) (A) (A) (A) (A) (A) (A)
                 (A) (A) (A) (A) (A) (A) (A) (A) (A) (A) (A) (A)
                 (A) (A) (A) (A) (A) (A) (A) (A) (A) (A) (A) (A)
                 (A) (A) (A) (A) (A) (A) (A) (A) (A) (A) (A) (A)
                 (A) (A) (A) (A) (A) (A) (A) (A) (A) (A) (A) (A)
                 (A) (A) (A) (A) (A) (A) (A) (A) (A) (A) (A) (A)
                 (A) (A) (A) (A) (A) (A) (A) (A) (A) (A) (A) (A)
                 (A) (A) (A) (A) (A) (A) (A) (A) (A) (A) (A) (A)
                 (A) (A) (A) (A) (A) (A) (A) (A) (A) (A) (A) (A)
                 (A) (A) (A) (A) (A) (A) (A) (A) (A) (A) (A) (A)
                 (A) (A) (A) (A) (A) (A) (A) (A) (A) (A) (A) (A)
                 (A) (A) (A) (A) (A) (A) (A) (A) (A) (A) (A) (A)
                 (A) (A) (A) (A) (A) (A) (A)
 The electronic state is 1-A.
 Alpha  occ. eigenvalues --  -19.39959 -19.39417 -19.36807 -19.36645 -14.66094
 Alpha  occ. eigenvalues --  -14.54478 -10.49865 -10.49542 -10.46144 -10.45765
 Alpha  occ. eigenvalues --  -10.45643 -10.44375 -10.40796 -10.40771 -10.39841
 Alpha  occ. eigenvalues --  -10.38496  -1.24559  -1.24270  -1.23289  -1.21558
 Alpha  occ. eigenvalues --   -1.20474  -1.14972  -1.06686  -1.03409  -0.98342
 Alpha  occ. eigenvalues --   -0.94108  -0.89173  -0.87795  -0.86725  -0.81455
 Alpha  occ. eigenvalues --   -0.77707  -0.76387  -0.74678  -0.73707  -0.73427
 Alpha  occ. eigenvalues --   -0.73160  -0.72221  -0.72001  -0.69681  -0.67714
 Alpha  occ. eigenvalues --   -0.67656  -0.66537  -0.63661  -0.63064  -0.62435
 Alpha  occ. eigenvalues --   -0.61650  -0.61132  -0.60094  -0.59065  -0.57564
 Alpha  occ. eigenvalues --   -0.56322  -0.56013  -0.55251  -0.54330  -0.53559
 Alpha  occ. eigenvalues --   -0.52787  -0.52056  -0.51725  -0.51665  -0.51054
 Alpha  occ. eigenvalues --   -0.50150  -0.50066  -0.47900  -0.40546
 Alpha virt. eigenvalues --   -0.12818  -0.09411  -0.06260  -0.04945  -0.04653
 Alpha virt. eigenvalues --   -0.04130  -0.03170  -0.03019  -0.02467  -0.02249
 Alpha virt. eigenvalues --   -0.01900  -0.01224  -0.00992  -0.00781  -0.00559
 Alpha virt. eigenvalues --   -0.00324   0.00328   0.00681   0.01178   0.01685
 Alpha virt. eigenvalues --    0.01999   0.02275   0.02541   0.03028   0.03331
 Alpha virt. eigenvalues --    0.03919   0.04020   0.04098   0.04173   0.04814
 Alpha virt. eigenvalues --    0.05012   0.05630   0.05881   0.06254   0.06356
 Alpha virt. eigenvalues --    0.06647   0.06817   0.07057   0.07487   0.07861
 Alpha virt. eigenvalues --    0.08193   0.08278   0.08616   0.08810   0.09062
 Alpha virt. eigenvalues --    0.09652   0.09782   0.10106   0.10532   0.10912
 Alpha virt. eigenvalues --    0.11104   0.11274   0.11744   0.12083   0.12335
 Alpha virt. eigenvalues --    0.12370   0.12719   0.12830   0.13075   0.13325
 Alpha virt. eigenvalues --    0.13703   0.13966   0.14390   0.14571   0.14865
 Alpha virt. eigenvalues --    0.15009   0.15329   0.15762   0.16098   0.16533
 Alpha virt. eigenvalues --    0.16774   0.17073   0.17150   0.17396   0.17580
 Alpha virt. eigenvalues --    0.17782   0.18043   0.18102   0.18784   0.19188
 Alpha virt. eigenvalues --    0.19471   0.19569   0.19839   0.20351   0.20789
 Alpha virt. eigenvalues --    0.20846   0.21183   0.21260   0.21703   0.22181
 Alpha virt. eigenvalues --    0.22386   0.22742   0.23136   0.23403   0.23529
 Alpha virt. eigenvalues --    0.23959   0.24037   0.24587   0.24987   0.25312
 Alpha virt. eigenvalues --    0.25629   0.26005   0.26337   0.26662   0.26789
 Alpha virt. eigenvalues --    0.27352   0.27546   0.27792   0.28007   0.28557
 Alpha virt. eigenvalues --    0.28879   0.28960   0.29285   0.29953   0.30418
 Alpha virt. eigenvalues --    0.30769   0.31058   0.31602   0.31857   0.32360
 Alpha virt. eigenvalues --    0.32806   0.33018   0.33311   0.33656   0.33896
 Alpha virt. eigenvalues --    0.34394   0.34888   0.35451   0.35736   0.36282
 Alpha virt. eigenvalues --    0.36496   0.37228   0.37689   0.38040   0.38448
 Alpha virt. eigenvalues --    0.38884   0.38997   0.39132   0.39592   0.39774
 Alpha virt. eigenvalues --    0.40832   0.41168   0.41498   0.42374   0.42592
 Alpha virt. eigenvalues --    0.43082   0.43288   0.43517   0.43761   0.44138
 Alpha virt. eigenvalues --    0.44169   0.44590   0.44911   0.45452   0.45665
 Alpha virt. eigenvalues --    0.46143   0.46218   0.46547   0.46673   0.46877
 Alpha virt. eigenvalues --    0.47333   0.47685   0.48355   0.48809   0.49572
 Alpha virt. eigenvalues --    0.50146   0.50506   0.50781   0.50890   0.51375
 Alpha virt. eigenvalues --    0.51418   0.51623   0.51992   0.52404   0.52501
 Alpha virt. eigenvalues --    0.52578   0.52733   0.53627   0.53971   0.54267
 Alpha virt. eigenvalues --    0.54547   0.54859   0.55109   0.55543   0.56014
 Alpha virt. eigenvalues --    0.56256   0.56649   0.57102   0.57413   0.57849
 Alpha virt. eigenvalues --    0.58131   0.58720   0.58957   0.59910   0.60367
 Alpha virt. eigenvalues --    0.60865   0.61096   0.62187   0.62733   0.63082
 Alpha virt. eigenvalues --    0.63890   0.64042   0.64378   0.64642   0.65042
 Alpha virt. eigenvalues --    0.65320   0.65934   0.66008   0.66907   0.67673
 Alpha virt. eigenvalues --    0.68160   0.68574   0.69158   0.69624   0.69970
 Alpha virt. eigenvalues --    0.70183   0.71152   0.71230   0.71337   0.71552
 Alpha virt. eigenvalues --    0.72342   0.72766   0.73163   0.73636   0.74429
 Alpha virt. eigenvalues --    0.74645   0.74685   0.75047   0.75928   0.76450
 Alpha virt. eigenvalues --    0.77135   0.77662   0.77957   0.78281   0.79034
 Alpha virt. eigenvalues --    0.79222   0.79760   0.80495   0.80999   0.81264
 Alpha virt. eigenvalues --    0.82176   0.83000   0.83282   0.84453   0.84811
 Alpha virt. eigenvalues --    0.85004   0.86456   0.86675   0.86859   0.87352
 Alpha virt. eigenvalues --    0.88323   0.89431   0.89496   0.90719   0.91317
 Alpha virt. eigenvalues --    0.92356   0.92786   0.93334   0.93876   0.94211
 Alpha virt. eigenvalues --    0.94832   0.95830   0.96709   0.97667   0.98301
 Alpha virt. eigenvalues --    0.98774   0.99444   0.99660   1.00534   1.01621
 Alpha virt. eigenvalues --    1.02320   1.02734   1.03383   1.04290   1.04700
 Alpha virt. eigenvalues --    1.05943   1.06119   1.07233   1.07666   1.07982
 Alpha virt. eigenvalues --    1.09502   1.09614   1.10101   1.10752   1.12140
 Alpha virt. eigenvalues --    1.13613   1.13994   1.16036   1.16776   1.17022
 Alpha virt. eigenvalues --    1.17300   1.17754   1.18448   1.19372   1.20366
 Alpha virt. eigenvalues --    1.21841   1.23201   1.23324   1.24772   1.25088
 Alpha virt. eigenvalues --    1.26035   1.27483   1.28503   1.29205   1.30485
 Alpha virt. eigenvalues --    1.31527   1.31769   1.32630   1.33726   1.33991
 Alpha virt. eigenvalues --    1.34267   1.35016   1.36387   1.36916   1.37630
 Alpha virt. eigenvalues --    1.38196   1.39127   1.39937   1.40609   1.42718
 Alpha virt. eigenvalues --    1.43546   1.43837   1.44470   1.45654   1.47033
 Alpha virt. eigenvalues --    1.48052   1.48623   1.49907   1.50130   1.51539
 Alpha virt. eigenvalues --    1.52545   1.53787   1.54307   1.55690   1.55927
 Alpha virt. eigenvalues --    1.57379   1.58313   1.59503   1.61127   1.61270
 Alpha virt. eigenvalues --    1.62882   1.63318   1.64444   1.65132   1.65617
 Alpha virt. eigenvalues --    1.66795   1.67392   1.68178   1.69021   1.69815
 Alpha virt. eigenvalues --    1.69986   1.71510   1.72187   1.72792   1.73193
 Alpha virt. eigenvalues --    1.73621   1.73952   1.74209   1.75009   1.77153
 Alpha virt. eigenvalues --    1.77525   1.78171   1.79196   1.79729   1.80308
 Alpha virt. eigenvalues --    1.81558   1.82499   1.82859   1.83491   1.84003
 Alpha virt. eigenvalues --    1.84992   1.85285   1.86775   1.87123   1.87694
 Alpha virt. eigenvalues --    1.89084   1.89235   1.89928   1.90731   1.92074
 Alpha virt. eigenvalues --    1.92826   1.93124   1.93812   1.95132   1.95900
 Alpha virt. eigenvalues --    1.96493   1.96965   1.98213   1.98616   2.00277
 Alpha virt. eigenvalues --    2.00512   2.01198   2.02201   2.03718   2.04533
 Alpha virt. eigenvalues --    2.06902   2.07394   2.07967   2.08689   2.09796
 Alpha virt. eigenvalues --    2.10466   2.12290   2.12778   2.13597   2.14568
 Alpha virt. eigenvalues --    2.14996   2.15284   2.16632   2.17127   2.17805
 Alpha virt. eigenvalues --    2.18390   2.18977   2.19560   2.21067   2.22393
 Alpha virt. eigenvalues --    2.23867   2.24018   2.24457   2.25443   2.25722
 Alpha virt. eigenvalues --    2.27762   2.28894   2.30165   2.30350   2.31344
 Alpha virt. eigenvalues --    2.31823   2.33887   2.33993   2.36236   2.36953
 Alpha virt. eigenvalues --    2.38181   2.40723   2.41946   2.42179   2.44497
 Alpha virt. eigenvalues --    2.45533   2.46339   2.46877   2.48280   2.49772
 Alpha virt. eigenvalues --    2.50868   2.51135   2.52360   2.53302   2.55355
 Alpha virt. eigenvalues --    2.56135   2.56884   2.57170   2.58056   2.59546
 Alpha virt. eigenvalues --    2.61318   2.61783   2.62457   2.64038   2.65258
 Alpha virt. eigenvalues --    2.66958   2.68251   2.68978   2.70045   2.71819
 Alpha virt. eigenvalues --    2.72036   2.73510   2.74001   2.74794   2.75532
 Alpha virt. eigenvalues --    2.78394   2.79591   2.79791   2.80940   2.83075
 Alpha virt. eigenvalues --    2.83476   2.84791   2.85670   2.87637   2.88930
 Alpha virt. eigenvalues --    2.91304   2.93968   2.96784   3.03319   3.05299
 Alpha virt. eigenvalues --    3.14204   3.15082   3.16636   3.21662   3.28219
 Alpha virt. eigenvalues --    3.29132   3.29898   3.32356   3.35848   3.37096
 Alpha virt. eigenvalues --    3.37848   3.40050   3.41863   3.44042   3.44367
 Alpha virt. eigenvalues --    3.46041   3.51242   3.51831   3.53434   3.64214
 Alpha virt. eigenvalues --    3.66365   3.68023   3.72384   3.80258   3.88797
 Alpha virt. eigenvalues --    3.90453   3.98982   4.05130   4.09919   4.28694
 Alpha virt. eigenvalues --    4.91451
          Condensed to atoms (all electrons):
               1          2          3          4          5          6
     1  C    7.236373  -0.842370  -0.431930   0.373115  -0.724594   0.357657
     2  C   -0.842370  20.334470  -2.277624  -0.212143  -0.878046  -5.438814
     3  N   -0.431930  -2.277624   8.851404   0.117747   0.145803   0.802625
     4  C    0.373115  -0.212143   0.117747   5.686835   0.078721  -0.228908
     5  C   -0.724594  -0.878046   0.145803   0.078721   6.148369   0.585230
     6  C    0.357657  -5.438814   0.802625  -0.228908   0.585230  24.025245
     7  C   -0.758147  -2.043282   0.045786  -0.255266   0.155279  -7.916802
     8  N    0.028857   0.472384  -0.057652   0.019774  -0.013273   0.364553
     9  C   -0.153148  -0.971039   0.059024  -0.061194  -0.009034  -0.561357
    10  C    0.305381   0.127226  -0.148769   0.077210   0.062283   1.477834
    11  C   -0.236981  -0.779158   0.390048  -0.100445  -0.351597  -8.447284
    12  C   -0.068799  -0.406353   0.431403  -0.206888   0.009015   0.239910
    13  H    0.374161  -2.207214  -0.132060  -0.125764   0.057725   0.464706
    14  H   -0.350645   0.048026   0.029697   0.064078   0.281579  -0.505184
    15  H   -0.724551   0.185349   0.154923  -0.152584   0.239312   0.215463
    16  H    0.120805  -0.037557   0.087657  -0.027947  -0.229352   0.048584
    17  H    0.320678  -0.016677  -0.032392   0.134492  -0.321145  -0.041408
    18  H   -0.126914  -0.281391   0.460203  -0.284331   0.071827   0.183460
    19  H    0.132245   0.556130  -0.705093  -0.099609  -0.042508  -0.226112
    20  H    0.058960   0.078506  -0.217190   0.026430   0.009825   0.135541
    21  H    0.005517   0.021620   0.003339  -0.001153  -0.000399   0.266956
    22  H   -0.030750  -0.089986   0.006337  -0.006160   0.005569  -0.832693
    23  H    0.157487   0.039896   0.060130   0.017576   0.000237   0.091312
    24  H    0.129060   0.184533  -0.171313  -0.075635  -0.068839   0.052969
    25  H   -0.025336  -0.302855   0.224528   0.014386   0.057345   0.005590
    26  H   -0.057451  -0.063922  -0.257755   0.029424   0.050871   0.125712
    27  H   -0.009722   0.015122  -0.004205   0.001100   0.005120  -0.395598
    28  O   -0.002635  -0.004133   0.000464   0.000175  -0.000181  -0.147204
    29  H    0.001244   0.005388   0.000018   0.000267  -0.000218   0.017358
    30  H   -0.000808   0.002689  -0.000048   0.000052  -0.000030  -0.004196
    31  O    0.000178   0.000061  -0.000001   0.000000   0.000008   0.001575
    32  H    0.000006   0.000142  -0.000024  -0.000006   0.000011   0.001362
    33  H    0.000042  -0.000019   0.000006   0.000001   0.000002   0.000108
    34  O    0.000023   0.000236   0.000003   0.000001  -0.000000   0.002260
    35  H   -0.000002   0.000004  -0.000004  -0.000001  -0.000000  -0.000062
    36  H   -0.000016   0.000031  -0.000003  -0.000003   0.000005   0.000469
    37  O    0.000023   0.000015  -0.000000   0.000000   0.000000   0.000316
    38  H    0.000008  -0.000001   0.000002   0.000000   0.000001  -0.000007
    39  H   -0.000007   0.000003  -0.000003   0.000000  -0.000004  -0.000083
               7          8          9         10         11         12
     1  C   -0.758147   0.028857  -0.153148   0.305381  -0.236981  -0.068799
     2  C   -2.043282   0.472384  -0.971039   0.127226  -0.779158  -0.406353
     3  N    0.045786  -0.057652   0.059024  -0.148769   0.390048   0.431403
     4  C   -0.255266   0.019774  -0.061194   0.077210  -0.100445  -0.206888
     5  C    0.155279  -0.013273  -0.009034   0.062283  -0.351597   0.009015
     6  C   -7.916802   0.364553  -0.561357   1.477834  -8.447284   0.239910
     7  C   19.676604  -1.029405  -0.545236  -1.508833  -0.912743  -0.031624
     8  N   -1.029405   7.496195   0.003238   0.415416  -0.506451  -0.018370
     9  C   -0.545236   0.003238  10.586566  -3.229892   1.089462   0.012906
    10  C   -1.508833   0.415416  -3.229892  13.983296  -5.645314  -0.002958
    11  C   -0.912743  -0.506451   1.089462  -5.645314  21.792426  -0.060687
    12  C   -0.031624  -0.018370   0.012906  -0.002958  -0.060687   4.480668
    13  H    0.443797  -0.012911   0.043033  -0.080657  -0.039589   0.052576
    14  H    0.135535   0.019435  -0.025457  -0.012939   0.102853   0.017488
    15  H   -0.020073  -0.011691   0.003812   0.033093  -0.041457   0.016976
    16  H    0.021106  -0.001905   0.002675   0.012515   0.010668  -0.015865
    17  H    0.003102  -0.000484   0.000676  -0.005486  -0.000129   0.014102
    18  H    0.017686  -0.000176  -0.000515   0.004462   0.024989  -0.015824
    19  H   -0.018354   0.001964  -0.003387   0.000670  -0.007693  -0.013933
    20  H    0.197800  -0.025202  -0.208014   1.106518  -2.382141  -0.028817
    21  H   -0.003361  -0.003142  -0.953793   0.362743   0.057043   0.003031
    22  H    0.722042   0.062253  -0.376563  -0.200433   0.004570  -0.001756
    23  H   -1.040464   0.075848  -0.053425   0.054484   0.018113   0.005847
    24  H   -0.224444   0.024849  -0.012401   0.058858  -0.041109   0.261886
    25  H    0.090384  -0.009747   0.003422   0.000375   0.025600   0.142822
    26  H    0.025137  -0.003640   0.004852  -0.003503  -0.042918   0.348605
    27  H    0.066161  -0.040570   0.542974  -1.345030   0.877005  -0.007722
    28  O    0.118741  -0.220115   0.012640  -0.063136   0.054011  -0.000519
    29  H   -0.022465   0.012286  -0.007462   0.012255   0.001429  -0.000352
    30  H    0.004967   0.000926   0.001559  -0.000488   0.010314   0.000032
    31  O   -0.000362  -0.002461   0.003329   0.001514  -0.000326  -0.000000
    32  H   -0.002656   0.001331   0.001364   0.000710  -0.000830   0.000008
    33  H    0.001155   0.000018  -0.001639  -0.000090  -0.000195  -0.000001
    34  O   -0.001358  -0.001899   0.003825   0.001126  -0.000252  -0.000009
    35  H    0.001019   0.000033  -0.001093  -0.000376  -0.000076   0.000000
    36  H   -0.002065   0.000593   0.000147   0.000421  -0.000340   0.000019
    37  O    0.000123   0.000317   0.000211   0.000055  -0.000021  -0.000000
    38  H    0.000008  -0.000046  -0.000096  -0.000005   0.000006  -0.000001
    39  H    0.000047   0.000035   0.000058  -0.000018   0.000036  -0.000001
              13         14         15         16         17         18
     1  C    0.374161  -0.350645  -0.724551   0.120805   0.320678  -0.126914
     2  C   -2.207214   0.048026   0.185349  -0.037557  -0.016677  -0.281391
     3  N   -0.132060   0.029697   0.154923   0.087657  -0.032392   0.460203
     4  C   -0.125764   0.064078  -0.152584  -0.027947   0.134492  -0.284331
     5  C    0.057725   0.281579   0.239312  -0.229352  -0.321145   0.071827
     6  C    0.464706  -0.505184   0.215463   0.048584  -0.041408   0.183460
     7  C    0.443797   0.135535  -0.020073   0.021106   0.003102   0.017686
     8  N   -0.012911   0.019435  -0.011691  -0.001905  -0.000484  -0.000176
     9  C    0.043033  -0.025457   0.003812   0.002675   0.000676  -0.000515
    10  C   -0.080657  -0.012939   0.033093   0.012515  -0.005486   0.004462
    11  C   -0.039589   0.102853  -0.041457   0.010668  -0.000129   0.024989
    12  C    0.052576   0.017488   0.016976  -0.015865   0.014102  -0.015824
    13  H    3.159589   0.140645  -0.298259  -0.048063   0.043597  -0.077846
    14  H    0.140645   2.220516  -0.494807  -0.349236   0.142496  -0.040540
    15  H   -0.298259  -0.494807   2.347186   0.191739  -0.305489   0.060329
    16  H   -0.048063  -0.349236   0.191739   2.076039  -0.454544   0.170877
    17  H    0.043597   0.142496  -0.305489  -0.454544   1.921055  -0.202740
    18  H   -0.077846  -0.040540   0.060329   0.170877  -0.202740   1.854036
    19  H    0.051583   0.019690  -0.025642  -0.260273   0.074375  -0.442260
    20  H    0.007619  -0.020488   0.001539   0.010762   0.003817   0.002462
    21  H    0.000626  -0.001395   0.001357   0.000192   0.000002   0.000133
    22  H    0.001315  -0.003594   0.005012   0.001195  -0.000119   0.000139
    23  H   -0.093853   0.017321   0.006399   0.000766   0.000346   0.004728
    24  H    0.028082   0.008479  -0.003488  -0.007721  -0.000670  -0.003421
    25  H    0.047117   0.000990   0.001325  -0.000859   0.007215   0.002198
    26  H    0.002520  -0.002175   0.000963   0.007302  -0.002492  -0.001142
    27  H    0.003781  -0.002066  -0.001286   0.000378  -0.000379  -0.000116
    28  O    0.000991   0.000052  -0.000160  -0.000012  -0.000001  -0.000033
    29  H    0.000395   0.000213  -0.000144  -0.000032   0.000003   0.000004
    30  H   -0.000221   0.000214  -0.000055  -0.000018   0.000009  -0.000017
    31  O   -0.000130   0.000019   0.000024  -0.000000   0.000000   0.000001
    32  H    0.000072  -0.000033   0.000019   0.000002  -0.000001   0.000001
    33  H   -0.000035   0.000007   0.000000  -0.000000   0.000000   0.000000
    34  O    0.000045   0.000014  -0.000007  -0.000001   0.000001  -0.000001
    35  H   -0.000010   0.000001  -0.000001  -0.000000   0.000000  -0.000000
    36  H   -0.000019  -0.000005   0.000004   0.000000   0.000000   0.000000
    37  O    0.000119   0.000013  -0.000029  -0.000000   0.000001  -0.000001
    38  H   -0.000010   0.000000  -0.000001   0.000000   0.000000   0.000000
    39  H    0.000037   0.000007  -0.000030  -0.000001   0.000001  -0.000001
              19         20         21         22         23         24
     1  C    0.132245   0.058960   0.005517  -0.030750   0.157487   0.129060
     2  C    0.556130   0.078506   0.021620  -0.089986   0.039896   0.184533
     3  N   -0.705093  -0.217190   0.003339   0.006337   0.060130  -0.171313
     4  C   -0.099609   0.026430  -0.001153  -0.006160   0.017576  -0.075635
     5  C   -0.042508   0.009825  -0.000399   0.005569   0.000237  -0.068839
     6  C   -0.226112   0.135541   0.266956  -0.832693   0.091312   0.052969
     7  C   -0.018354   0.197800  -0.003361   0.722042  -1.040464  -0.224444
     8  N    0.001964  -0.025202  -0.003142   0.062253   0.075848   0.024849
     9  C   -0.003387  -0.208014  -0.953793  -0.376563  -0.053425  -0.012401
    10  C    0.000670   1.106518   0.362743  -0.200433   0.054484   0.058858
    11  C   -0.007693  -2.382141   0.057043   0.004570   0.018113  -0.041109
    12  C   -0.013933  -0.028817   0.003031  -0.001756   0.005847   0.261886
    13  H    0.051583   0.007619   0.000626   0.001315  -0.093853   0.028082
    14  H    0.019690  -0.020488  -0.001395  -0.003594   0.017321   0.008479
    15  H   -0.025642   0.001539   0.001357   0.005012   0.006399  -0.003488
    16  H   -0.260273   0.010762   0.000192   0.001195   0.000766  -0.007721
    17  H    0.074375   0.003817   0.000002  -0.000119   0.000346  -0.000670
    18  H   -0.442260   0.002462   0.000133   0.000139   0.004728  -0.003421
    19  H    2.505688   0.010611  -0.000124  -0.000704  -0.001274   0.007883
    20  H    0.010611   3.322979  -0.016025   0.022895  -0.022560   0.020368
    21  H   -0.000124  -0.016025   2.214616  -0.180423   0.003589  -0.000212
    22  H   -0.000704   0.022895  -0.180423   1.818443  -0.066090  -0.006378
    23  H   -0.001274  -0.022560   0.003589  -0.066090   2.559292   0.007405
    24  H    0.007883   0.020368  -0.000212  -0.006378   0.007405   2.124875
    25  H    0.005272   0.004152   0.000017   0.003685   0.002321  -0.403358
    26  H    0.014548  -0.002733   0.000375  -0.000036   0.001436  -0.551649
    27  H   -0.000680  -0.129678  -0.127937   0.013368  -0.000698   0.000784
    28  O    0.000009   0.001191  -0.003162   0.078311   0.003797  -0.000135
    29  H    0.000022  -0.000100   0.009156  -0.034974   0.002110   0.000143
    30  H    0.000009  -0.000271   0.001472  -0.033509   0.006241   0.000109
    31  O   -0.000000  -0.000012   0.001214  -0.009250   0.002154   0.000011
    32  H   -0.000000  -0.000008   0.000359   0.001126  -0.001437   0.000002
    33  H   -0.000000  -0.000002  -0.000079   0.002725   0.000311  -0.000001
    34  O    0.000000  -0.000018   0.001064  -0.008026   0.001012   0.000087
    35  H   -0.000000  -0.000002  -0.000208   0.003015   0.000049   0.000003
    36  H   -0.000000  -0.000006  -0.000006   0.003583  -0.000292   0.000000
    37  O    0.000000  -0.000000  -0.000039  -0.000362  -0.001001  -0.000000
    38  H   -0.000000  -0.000000  -0.000017   0.000427  -0.000044   0.000000
    39  H    0.000000   0.000001   0.000001  -0.000205  -0.000228  -0.000001
              25         26         27         28         29         30
     1  C   -0.025336  -0.057451  -0.009722  -0.002635   0.001244  -0.000808
     2  C   -0.302855  -0.063922   0.015122  -0.004133   0.005388   0.002689
     3  N    0.224528  -0.257755  -0.004205   0.000464   0.000018  -0.000048
     4  C    0.014386   0.029424   0.001100   0.000175   0.000267   0.000052
     5  C    0.057345   0.050871   0.005120  -0.000181  -0.000218  -0.000030
     6  C    0.005590   0.125712  -0.395598  -0.147204   0.017358  -0.004196
     7  C    0.090384   0.025137   0.066161   0.118741  -0.022465   0.004967
     8  N   -0.009747  -0.003640  -0.040570  -0.220115   0.012286   0.000926
     9  C    0.003422   0.004852   0.542974   0.012640  -0.007462   0.001559
    10  C    0.000375  -0.003503  -1.345030  -0.063136   0.012255  -0.000488
    11  C    0.025600  -0.042918   0.877005   0.054011   0.001429   0.010314
    12  C    0.142822   0.348605  -0.007722  -0.000519  -0.000352   0.000032
    13  H    0.047117   0.002520   0.003781   0.000991   0.000395  -0.000221
    14  H    0.000990  -0.002175  -0.002066   0.000052   0.000213   0.000214
    15  H    0.001325   0.000963  -0.001286  -0.000160  -0.000144  -0.000055
    16  H   -0.000859   0.007302   0.000378  -0.000012  -0.000032  -0.000018
    17  H    0.007215  -0.002492  -0.000379  -0.000001   0.000003   0.000009
    18  H    0.002198  -0.001142  -0.000116  -0.000033   0.000004  -0.000017
    19  H    0.005272   0.014548  -0.000680   0.000009   0.000022   0.000009
    20  H    0.004152  -0.002733  -0.129678   0.001191  -0.000100  -0.000271
    21  H    0.000017   0.000375  -0.127937  -0.003162   0.009156   0.001472
    22  H    0.003685  -0.000036   0.013368   0.078311  -0.034974  -0.033509
    23  H    0.002321   0.001436  -0.000698   0.003797   0.002110   0.006241
    24  H   -0.403358  -0.551649   0.000784  -0.000135   0.000143   0.000109
    25  H    1.543800  -0.272711  -0.001447   0.000075  -0.000148   0.000019
    26  H   -0.272711   1.888466   0.000329  -0.000048  -0.000014  -0.000023
    27  H   -0.001447   0.000329   2.129129  -0.001323  -0.000169   0.000208
    28  O    0.000075  -0.000048  -0.001323   8.048673   0.341013   0.331466
    29  H   -0.000148  -0.000014  -0.000169   0.341013   0.628108  -0.165058
    30  H    0.000019  -0.000023   0.000208   0.331466  -0.165058   0.617843
    31  O    0.000000   0.000000   0.000001  -0.047210   0.004907   0.002391
    32  H   -0.000001   0.000001  -0.000006   0.004065  -0.001241  -0.006090
    33  H    0.000000   0.000000   0.000006   0.000790  -0.000982  -0.003736
    34  O   -0.000013  -0.000002   0.000010  -0.040337  -0.012936   0.002699
    35  H    0.000001   0.000001   0.000006   0.002286  -0.001847  -0.001716
    36  H    0.000003   0.000000   0.000002   0.001951   0.000851  -0.003605
    37  O   -0.000001   0.000000   0.000001   0.000092   0.001789  -0.006735
    38  H    0.000000  -0.000000   0.000001   0.000119  -0.000048  -0.000748
    39  H   -0.000000   0.000000  -0.000000   0.000002   0.000109  -0.000152
              31         32         33         34         35         36
     1  C    0.000178   0.000006   0.000042   0.000023  -0.000002  -0.000016
     2  C    0.000061   0.000142  -0.000019   0.000236   0.000004   0.000031
     3  N   -0.000001  -0.000024   0.000006   0.000003  -0.000004  -0.000003
     4  C    0.000000  -0.000006   0.000001   0.000001  -0.000001  -0.000003
     5  C    0.000008   0.000011   0.000002  -0.000000  -0.000000   0.000005
     6  C    0.001575   0.001362   0.000108   0.002260  -0.000062   0.000469
     7  C   -0.000362  -0.002656   0.001155  -0.001358   0.001019  -0.002065
     8  N   -0.002461   0.001331   0.000018  -0.001899   0.000033   0.000593
     9  C    0.003329   0.001364  -0.001639   0.003825  -0.001093   0.000147
    10  C    0.001514   0.000710  -0.000090   0.001126  -0.000376   0.000421
    11  C   -0.000326  -0.000830  -0.000195  -0.000252  -0.000076  -0.000340
    12  C   -0.000000   0.000008  -0.000001  -0.000009   0.000000   0.000019
    13  H   -0.000130   0.000072  -0.000035   0.000045  -0.000010  -0.000019
    14  H    0.000019  -0.000033   0.000007   0.000014   0.000001  -0.000005
    15  H    0.000024   0.000019   0.000000  -0.000007  -0.000001   0.000004
    16  H   -0.000000   0.000002  -0.000000  -0.000001  -0.000000   0.000000
    17  H    0.000000  -0.000001   0.000000   0.000001   0.000000   0.000000
    18  H    0.000001   0.000001   0.000000  -0.000001  -0.000000   0.000000
    19  H   -0.000000  -0.000000  -0.000000   0.000000  -0.000000  -0.000000
    20  H   -0.000012  -0.000008  -0.000002  -0.000018  -0.000002  -0.000006
    21  H    0.001214   0.000359  -0.000079   0.001064  -0.000208  -0.000006
    22  H   -0.009250   0.001126   0.002725  -0.008026   0.003015   0.003583
    23  H    0.002154  -0.001437   0.000311   0.001012   0.000049  -0.000292
    24  H    0.000011   0.000002  -0.000001   0.000087   0.000003   0.000000
    25  H    0.000000  -0.000001   0.000000  -0.000013   0.000001   0.000003
    26  H    0.000000   0.000001   0.000000  -0.000002   0.000001   0.000000
    27  H    0.000001  -0.000006   0.000006   0.000010   0.000006   0.000002
    28  O   -0.047210   0.004065   0.000790  -0.040337   0.002286   0.001951
    29  H    0.004907  -0.001241  -0.000982  -0.012936  -0.001847   0.000851
    30  H    0.002391  -0.006090  -0.003736   0.002699  -0.001716  -0.003605
    31  O    7.730473   0.334193   0.362047  -0.001517  -0.000075   0.000054
    32  H    0.334193   0.576531  -0.108047  -0.000214  -0.000070   0.000129
    33  H    0.362047  -0.108047   0.611872   0.000114   0.000090   0.000012
    34  O   -0.001517  -0.000214   0.000114   7.684419   0.352741   0.351398
    35  H   -0.000075  -0.000070   0.000090   0.352741   0.569475  -0.074177
    36  H    0.000054   0.000129   0.000012   0.351398  -0.074177   0.569308
    37  O   -0.037106   0.004607   0.006367   0.000056  -0.000032   0.000004
    38  H    0.002464  -0.001197   0.000108   0.000036   0.000003   0.000006
    39  H   -0.000061  -0.002449  -0.001263  -0.000009  -0.000002  -0.000005
              37         38         39
     1  C    0.000023   0.000008  -0.000007
     2  C    0.000015  -0.000001   0.000003
     3  N   -0.000000   0.000002  -0.000003
     4  C    0.000000   0.000000   0.000000
     5  C    0.000000   0.000001  -0.000004
     6  C    0.000316  -0.000007  -0.000083
     7  C    0.000123   0.000008   0.000047
     8  N    0.000317  -0.000046   0.000035
     9  C    0.000211  -0.000096   0.000058
    10  C    0.000055  -0.000005  -0.000018
    11  C   -0.000021   0.000006   0.000036
    12  C   -0.000000  -0.000001  -0.000001
    13  H    0.000119  -0.000010   0.000037
    14  H    0.000013   0.000000   0.000007
    15  H   -0.000029  -0.000001  -0.000030
    16  H   -0.000000   0.000000  -0.000001
    17  H    0.000001   0.000000   0.000001
    18  H   -0.000001   0.000000  -0.000001
    19  H    0.000000  -0.000000   0.000000
    20  H   -0.000000  -0.000000   0.000001
    21  H   -0.000039  -0.000017   0.000001
    22  H   -0.000362   0.000427  -0.000205
    23  H   -0.001001  -0.000044  -0.000228
    24  H   -0.000000   0.000000  -0.000001
    25  H   -0.000001   0.000000  -0.000000
    26  H    0.000000  -0.000000   0.000000
    27  H    0.000001   0.000001  -0.000000
    28  O    0.000092   0.000119   0.000002
    29  H    0.001789  -0.000048   0.000109
    30  H   -0.006735  -0.000748  -0.000152
    31  O   -0.037106   0.002464  -0.000061
    32  H    0.004607  -0.001197  -0.002449
    33  H    0.006367   0.000108  -0.001263
    34  O    0.000056   0.000036  -0.000009
    35  H   -0.000032   0.000003  -0.000002
    36  H    0.000004   0.000006  -0.000005
    37  O    7.679661   0.345378   0.343921
    38  H    0.345378   0.555409  -0.072004
    39  H    0.343921  -0.072004   0.581701
 Mulliken charges:
               1
     1  C    0.942986
     2  C    0.780752
     3  N   -0.435080
     4  C    1.196652
     5  C    0.675083
     6  C    1.278918
     7  C    0.610462
     8  N   -0.041167
     9  C    0.798975
    10  C    0.149481
    11  C    1.139162
    12  C    0.843186
    13  H   -0.807490
    14  H   -0.440802
    15  H   -0.385070
    16  H   -0.329876
    17  H   -0.281814
    18  H   -0.380266
    19  H   -0.533052
    20  H   -0.968710
    21  H   -0.662947
    22  H    0.126003
    23  H   -0.858841
    24  H   -0.339608
    25  H   -0.166165
    26  H   -0.238328
    27  H   -0.586851
    28  O   -0.470571
    29  H    0.209124
    30  H    0.244303
    31  O   -0.348106
    32  H    0.198268
    33  H    0.130309
    34  O   -0.334571
    35  H    0.151028
    36  H    0.151550
    37  O   -0.337741
    38  H    0.170248
    39  H    0.150568
 Sum of Mulliken charges =   1.00000
 Mulliken charges with hydrogens summed into heavy atoms:
               1
     1  C    0.117114
     2  C   -0.026738
     3  N   -0.435080
     4  C    0.283334
     5  C    0.063393
     6  C    1.278918
     7  C   -0.248379
     8  N    0.084835
     9  C    0.136028
    10  C   -0.437370
    11  C    0.170452
    12  C    0.099085
    28  O   -0.017144
    31  O   -0.019528
    34  O   -0.031993
    37  O   -0.016925
 Electronic spatial extent (au):  <R**2>=           7934.1993
 Charge=              1.0000 electrons
 Dipole moment (field-independent basis, Debye):
    X=              6.1084    Y=             -0.6440    Z=             -0.6815  Tot=              6.1800
 Quadrupole moment (field-independent basis, Debye-Ang):
   XX=            -19.6585   YY=            -59.8944   ZZ=            -75.4871
   XY=              1.0851   XZ=            -12.8785   YZ=             -4.8114
 Traceless Quadrupole moment (field-independent basis, Debye-Ang):
   XX=             32.0215   YY=             -8.2144   ZZ=            -23.8071
   XY=              1.0851   XZ=            -12.8785   YZ=             -4.8114
 Octapole moment (field-independent basis, Debye-Ang**2):
  XXX=            338.0008  YYY=             45.4851  ZZZ=            -16.0597  XYY=            171.6836
  XXY=             30.6016  XXZ=            -86.7214  XZZ=             85.0095  YZZ=            -31.5417
  YYZ=            -28.2227  XYZ=             13.6357
 Hexadecapole moment (field-independent basis, Debye-Ang**3):
 XXXX=          -4927.9904 YYYY=          -1112.3791 ZZZZ=           -708.6206 XXXY=             86.8470
 XXXZ=           -357.0578 YYYX=            240.4461 YYYZ=            -13.2037 ZZZX=           -187.0286
 ZZZY=             19.7332 XXYY=           -588.5770 XXZZ=           -926.4932 YYZZ=           -285.0399
 XXYZ=             56.7430 YYXZ=           -237.7755 ZZXY=            -23.0025
 N-N= 1.113330837908D+03 E-N=-4.091603066489D+03  KE= 7.999764498210D+02
 Calling FoFJK, ICntrl=      2127 FMM=F ISym2X=0 I1Cent= 0 IOpClX= 0 NMat=1 NMatS=1 NMatT=0.
 ***** Axes restored to original set *****
 -------------------------------------------------------------------
 Center     Atomic                   Forces (Hartrees/Bohr)
 Number     Number              X              Y              Z
 -------------------------------------------------------------------
      1        6          -0.000032902   -0.000041798    0.000036519
      2        6           0.000061837   -0.000001014    0.000154816
[...]
 95,-0.00001067,-0.00002677,-0.00000327,-0.00000268,-0.00000449,0.00000
 127,0.00000394,0.00000132,-0.00000041,-0.00000268,-0.00000620,0.000015
 34,0.00002501,0.00000189,0.00001227,-0.00009178,-0.00000280,0.00005764
 ,0.00002722,0.00001187,-0.00001353,-0.00002563,-0.00000987,-0.00000800
 ,-0.00000594,0.00000405,-0.00000190,-0.00001138,0.00002406,0.00000122,
 -0.00000402,0.00000136,0.00000225,0.00000116,-0.00000256,-0.00000413,0
 .00000042,-0.00000191,0.00000382,-0.00000131,-0.00000072,0.00000023,-0
 .00000106,-0.00000096,-0.00000028,0.00000034,0.00000081,-0.00000262,-0
 .00000368,-0.00000084,0.00000073,0.00000041,0.00000408,0.00000135,0.00
 002647,0.00001818,-0.00001505,0.00024576,-0.00000910,-0.00013743,0.000
 01343,0.00001047,-0.00000025,0.00000510,0.00000652,0.00000440,0.000001
 16,-0.00000117,-0.00000623,-0.00000586,-0.00000179,0.00000003,-0.00000
 081,0.00000788,0.00000203,-0.00019160,-0.00133999,-0.00141136,0.000902
 25,0.00152349,0.00316490,0.00053714,-0.00010005,0.00001852,-0.00027005
 ,0.00023684,-0.00003877,0.00002627,-0.00013580,0.00011191,0.00005692,-
 0.00021386,-0.00004147,0.18838213,-0.11707472,0.11915173,-0.18311660,0
 .11331521,-0.00000498,-0.00000766,0.00000253,-0.00000679,0.00000784,0.
 00002768,0.00000412,-0.00000020,-0.00003016,0.00000215,-0.00000081,0.0
 0001054,-0.00000056,0.00000299,0.00000041,0.00005915,0.00000006,-0.000
 07035,-0.00010312,-0.00000706,-0.00000971,0.00025031,0.00002914,-0.000
 06596,0.00012940,-0.00001931,0.00009275,-0.00006310,0.00001830,-0.0000
 4822,0.00002713,-0.00000785,0.00005205,0.00000307,0.00000388,0.0000215
 6,-0.00000173,-0.00000337,-0.00001453,0.00000089,-0.00000231,-0.000001
 28,-0.00000025,0.00000312,-0.00000222,0.00000112,-0.00000056,-0.000001
 50,-0.00000215,0.00000042,0.00000002,0.,-0.00000134,-0.00000533,0.0000
 0067,0.00000064,-0.00000074,0.00000042,0.00000014,-0.00000023,0.000025
 85,-0.00004672,-0.00000914,-0.00047713,-0.00007445,0.00030232,-0.00003
 129,0.00001371,-0.00000112,-0.00000380,-0.00000011,0.00000308,-0.00000
 325,0.00000295,-0.00001139,0.00000320,-0.00000052,-0.00000071,0.000017
 57,-0.00000560,-0.00000648,0.00088786,-0.00210072,-0.00180448,-0.00081
 426,0.00341342,0.00307496,0.00028880,0.00010631,0.00000579,-0.00006551
 ,-0.00011659,-0.00015981,-0.00002422,0.00002945,0.00005044,0.00000429,
 -0.00007141,0.00008897,-0.16077622,0.08791785,-0.16810637,0.19767780,-
 0.11150014,0.18825601,-0.00000087,0.00000339,-0.00000248,-0.00002125,0
 .00000494,0.00006005,0.00004021,-0.00003130,-0.00003906,-0.00002753,0.
 00000807,0.00000313,-0.00000270,-0.00000186,0.00000225,0.00001006,0.00
 000240,-0.00008300,-0.00004428,-0.00001559,0.00012200,-0.00012727,-0.0
 0002769,0.00008285,0.00005329,0.00000942,-0.00003680,-0.00006291,0.000
 00022,-0.00001258,0.00001563,0.00000033,0.00005251,-0.00001495,0.00003
 463,0.00003240,-0.00000089,-0.00000243,-0.00002896,0.00000204,-0.00000
 269,-0.00000623,-0.00000006,0.00000288,0.00000273,0.00000255,-0.000000
 86,-0.00000501,0.00000143,-0.00000251,0.00000357,0.00000089,-0.0000019
 2,-0.00000167,0.00000280,0.00000182,-0.00000173,0.00000078,0.00000376,
 0.00000001,0.00001565,0.00000291,-0.00001445,0.00038840,0.00005438,-0.
 00004085,-0.00002988,0.00006305,0.00000738,0.00000153,-0.00000090,0.00
 001984,-0.00001036,0.00000170,-0.00002674,0.00000695,-0.00000390,-0.00
 000690,-0.00000079,0.00000323,0.00000146,-0.00075180,0.00125233,-0.000
 25629,0.00101074,-0.00263819,0.00106460,-0.00012757,0.00011823,-0.0000
 0842,-0.00010487,0.00010509,0.00002435,0.00005766,-0.00004709,0.000031
 70,0.00003518,-0.00004251,-0.00003712,-0.04612191,0.04399627,0.1009813
 5,0.00353832,-0.00652570,-0.03700925,0.04227084,0.00000013,0.00000234,
 -0.00000722,0.00002699,0.00001493,-0.00000719,-0.00000772,-0.00003750,
 0.00000256,-0.00000693,-0.00000313,-0.00000031,0.00000436,-0.00000036,
 0.00000002,-0.00000745,-0.00000645,0.00003854,0.00002346,0.00001109,-0
 .00003975,-0.00005212,0.00000653,-0.00000400,-0.00000005,0.00000162,-0
 .00000892,0.00000340,-0.00000492,0.00000576,-0.00001046,0.00000321,-0.
 00001310,-0.00001416,0.00003029,0.00000429,-0.00000281,0.00000487,0.00
 000601,0.00000016,-0.00000145,-0.00000309,0.00000132,-0.00000419,0.000
 00601,-0.00000191,-0.00000125,0.00000030,0.00000049,-0.00000147,0.0000
 0003,0.00000081,0.00000160,-0.00000171,-0.00000353,-0.00000103,0.00000
 121,0.00000086,0.00000381,0.00000368,0.00000400,0.00001683,0.00000156,
 0.00013531,-0.00001701,-0.00004084,0.00003266,0.00001269,-0.00000947,0
 .00000540,0.00000535,0.00000860,-0.00000041,0.00000025,-0.00001092,-0.
 00000459,-0.00000256,-0.00000017,-0.00000087,0.00000492,0.00000123,0.0
 0109404,-0.00225407,0.00071490,-0.00187040,0.00327049,-0.00244053,0.00
 039783,0.00003202,-0.00041322,-0.00017702,0.00008402,0.00025881,0.0000
 2733,-0.00017088,-0.00009696,0.00000405,-0.00004282,-0.00007899,0.0381
 9575,-0.04283043,-0.12241863,-0.00145926,0.00372238,0.02240918,-0.0363
 1611,0.03814427,-0.00001214,-0.00001769,0.00000205,0.00001075,0.000018
 40,0.00005843,-0.00002445,0.00000047,-0.00004823,0.00001441,-0.0000087
 9,0.00002323,0.00000251,0.00000695,-0.00000299,0.00003058,-0.00000706,
 -0.00001280,0.00002015,-0.00001639,0.00009874,-0.00021399,-0.00001144,
 0.00009841,0.00003169,0.00001001,-0.00008531,-0.00005601,0.00000215,-0
 .00000854,0.00001168,0.00000220,0.00001635,0.00000552,0.00000825,0.000
 03590,-0.00000415,-0.00000550,-0.00001519,0.00000231,-0.00000610,-0.00
 000530,-0.00000021,0.00000484,-0.00000236,-0.00000082,-0.00000107,-0.0
 0000064,-0.00000635,0.00000181,-0.00000141,-0.00000104,-0.00000177,-0.
 00001234,-0.00000340,-0.00000093,-0.00000153,0.00000447,-0.00000043,0.
 00000351,0.00001217,-0.00001034,-0.00001713,0.00043994,-0.00000122,-0.
 00016688,0.00000504,0.00000113,0.00001824,-0.00000446,0.00000506,-0.00
 000433,-0.00000111,0.00000286,-0.00001394,-0.00000186,-0.00000109,-0.0
 0000200,-0.00000080,-0.00000374,-0.00000212,-0.00120460,0.00135391,0.0
 0039904,0.00163013,-0.00191002,-0.00090387,-0.00003099,-0.00028579,0.0
 0006464,0.00000584,0.00023768,-0.00012053,0.00000572,-0.00006880,0.000
 16528,0.00001475,-0.00006540,0.00000089,0.05329060,-0.09204761,-0.5035
 0991,0.01088018,-0.00932840,-0.02162524,-0.06486555,0.10209598,0.52564
 125,0.00000734,0.00002298,-0.00003319,0.00004272,0.00002933,-0.0000341
 8,-0.00003624,-0.00005331,0.00002324,0.00000750,-0.00000238,0.00000350
 ,0.00001610,-0.00000838,-0.00000010,-0.00003080,-0.00001067,0.00008336
 ,0.00008124,0.00000501,-0.00006858,-0.00002991,-0.00002088,-0.00001903
 ,-0.00004023,0.00000660,-0.00000805,0.00004713,-0.00000210,0.00000440,
 -0.00001259,0.00001026,-0.00005338,-0.00000965,0.00003147,-0.00000285,
 -0.00000593,0.00001187,0.00002277,0.00000416,-0.00000092,-0.00001089,0
 .00000828,-0.00001063,0.00002728,-0.00000776,-0.00000270,0.00000609,0.
 00000435,0.00000080,-0.00000360,0.00000187,0.00000338,-0.00000341,-0.0
 0000856,-0.00000847,0.00000387,0.00000178,0.00000340,-0.00000018,-0.00
 000940,0.00000910,-0.00000524,-0.00003712,0.00006974,-0.00004072,0.000
 02263,0.00006029,-0.00000027,0.00000567,0.00000479,-0.00000089,0.00000
 423,-0.00000247,-0.00000407,-0.00000946,-0.00000531,0.00000153,-0.0000
 0259,0.00000355,-0.00000026,0.00018602,-0.00025706,0.00008901,-0.00016
 446,0.00015533,0.00005624,-0.00012661,0.00014079,-0.00006987,0.0038066
 0,-0.00274869,0.00231698,-0.00609279,0.00419258,0.00018551,-0.00054899
 ,-0.00072451,0.00096652,0.00015732,-0.00001191,-0.00002668,-0.00004751
 ,-0.00004337,0.00000428,-0.00007174,-0.00003010,-0.00000952,0.35209828
 ,-0.00001970,-0.00003177,0.00000092,0.00005627,0.00002289,0.00002206,-
 0.00007298,0.00002288,-0.00002042,0.00003624,-0.00003069,0.00001534,0.
 00000833,0.00001395,-0.00000427,0.00000972,-0.00001507,0.00006898,0.00
 009811,-0.00001254,0.00006458,-0.00042400,-0.00001038,0.00017618,0.000
 01835,0.00001587,-0.00013520,-0.00005125,0.00000475,0.00000209,-0.0000
 0410,0.00000547,-0.00001882,0.00000721,-0.00000352,0.00000523,-0.00000
 954,0.00000235,0.00000770,0.00000283,-0.00001132,0.00000423,0.00000061
 ,-0.00000335,-0.00001214,-0.00000503,-0.00000207,0.00000609,-0.0000120
 1,0.00000137,-0.00000759,-0.00000378,0.00000296,-0.00001101,-0.0000085
 0,-0.00000121,-0.00000042,0.00000508,-0.00000375,0.00000603,0.00002479
 ,0.00000522,-0.00003341,0.00088301,0.00004254,-0.00038262,0.00005485,-
 0.00000718,-0.00000343,-0.00000474,0.00001181,-0.00000965,0.00000402,0
 .00000110,0.00000202,-0.00000727,-0.00000070,0.00000212,-0.00000575,-0
 .00000581,-0.00000051,-0.00083253,-0.00088648,0.00033893,-0.00009754,0
 .00028604,-0.00003619,0.00075841,0.00127030,-0.00011072,-0.00236144,-0
 .00216789,0.00940263,0.00410978,-0.00581281,-0.00208023,-0.00062311,-0
 .00098756,0.00025049,-0.00002948,-0.00032160,0.00005859,0.00000183,0.0
 0009228,-0.00005126,0.00003815,0.00016252,-0.00000651,-0.17891009,0.56
 231537,0.00002769,0.00003800,-0.00001836,-0.00004204,-0.00005053,-0.00
 010866,0.00006350,0.00000156,0.00009133,-0.00003295,0.00002606,-0.0000
 4739,-0.00001205,-0.00001099,0.00000350,-0.00006270,0.00001737,-0.0000
 0172,-0.00006168,0.00001895,-0.00018154,0.00043758,0.00003611,-0.00019
 561,-0.00007033,-0.00002688,0.00017535,0.00011181,0.00000270,0.0000207
 5,-0.00002196,-0.00000501,-0.00002138,-0.00000007,-0.00002450,-0.00005
 062,0.00000955,0.00001558,0.00002511,-0.00000806,0.00001132,0.00002136
 ,-0.00000196,-0.00000912,-0.00000105,0.00000147,0.00000087,0.00000112,
 0.00001765,-0.00000353,0.00000452,0.00000229,0.00000494,0.00002724,0.0
 0000976,0.00000293,0.00000288,-0.00001130,-0.00000346,-0.00000978,-0.0
 0002844,-0.00004157,0.00003673,-0.00092074,-0.00010908,0.00033098,-0.0
 0002757,-0.00000316,-0.00003493,0.00000571,-0.00001491,0.00000653,-0.0
 0000162,-0.00000199,0.00002144,0.00000702,0.00000364,0.00000135,0.0000
 0246,-0.00000687,0.00000256,0.00126656,0.00186688,0.00028864,0.0002879
 4,-0.00043886,-0.00033534,-0.00163993,-0.00278380,-0.00046872,0.001755
 13,0.00989111,-0.00858698,0.00025225,-0.00287341,-0.00526933,0.0008126
 8,0.00021239,0.00041257,-0.00005262,0.00026936,0.00023537,-0.00001549,
 -0.00007068,-0.00003636,-0.00003334,0.00004388,-0.00012232,-0.28409439
 ,-0.01584028,0.29527619,-0.00000298,-0.00000632,0.00001098,-0.00001851
 ,-0.00000883,0.00001872,0.00001583,0.00001718,-0.00001374,-0.00000424,
 0.00000182,0.00000207,-0.00000473,0.00000148,0.00000117,0.00001553,0.0
 0000347,-0.00003263,-0.00003096,-0.00000293,0.00002309,0.00003928,0.00
 000620,-0.00000890,0.00001461,-0.00000242,0.00000841,-0.00001470,0.000
 00092,-0.00000220,0.00000526,-0.00000242,0.00001906,0.00000237,-0.0000
 0932,0.00000527,0.00000282,-0.00000535,-0.00001080,-0.00000048,0.00000
 056,0.00000098,-0.00000131,0.00000437,-0.00000647,0.00000266,0.0000008
 4,-0.00000286,-0.00000194,-0.00000013,0.00000155,-0.00000041,-0.000002
 06,-0.00000011,0.00000333,0.00000273,-0.00000191,-0.00000031,-0.000001
 12,0.00000041,0.00000112,-0.00000300,0.00000350,-0.00005476,-0.0000173
 7,0.00004329,-0.00001094,-0.00001324,0.00000623,-0.00000229,-0.0000020
 4,0.00000076,-0.00000189,0.00000091,-0.00000065,0.00000407,0.00000153,
 -0.00000119,0.00000136,-0.00000103,0.00000008,0.00000236,0.00015284,-0
 .00010235,0.00007496,-0.00008673,0.00001224,-0.00002912,-0.00012654,0.
 00006231,0.00002025,0.00140768,-0.00118779,-0.00024261,-0.00187887,0.0
 0138739,0.00020694,-0.00012668,-0.00005928,-0.00008335,0.00003143,-0.0
 0001346,0.00003166,0.00001861,0.00000186,0.00004340,-0.00001466,0.0000
 1830,-0.28988317,0.06491836,0.25980978,0.29897919,0.00000219,0.0000051
 5,-0.00000095,-0.00000787,0.00000213,0.00001106,0.00001275,-0.00001318
 ,-0.00000789,-0.00000757,0.00000575,0.00000242,-0.00000038,-0.00000260
 ,0.00000071,0.00000398,0.00000138,-0.00001665,-0.00001190,0.00000171,0
 .00000735,0.00005226,-0.00000526,-0.00001983,0.00000421,0.00000213,0.0
 0000911,-0.00000094,-0.00000264,-0.00000328,0.00000360,-0.00000023,0.0
 0000694,-0.00000393,0.00000958,0.00000794,0.00000093,-0.00000197,-0.00
 000598,0.00000048,0.00000094,-0.00000454,0.00000027,0.00000153,0.00000
 486,0.00000085,0.00000015,-0.00000189,0.00000149,-0.00000009,0.0000017
 8,0.00000090,-0.00000130,-0.00000090,0.00000076,-0.00000025,-0.0000002
 1,0.00000017,0.00000217,-0.00000018,-0.00000231,0.00000804,0.00000332,
 -0.00010535,0.00001838,0.00005541,-0.00001054,0.00001158,0.00000816,0.
 00000134,-0.00000085,0.00000306,-0.00000118,-0.00000012,-0.00000581,0.
 00000063,-0.00000079,-0.00000122,0.00000072,0.00000330,-0.00000004,0.0
 0003128,-0.00027831,-0.00021654,-0.00011049,0.00005748,0.00014477,0.00
 013064,0.00040805,0.00016639,0.00059690,-0.00205804,0.00173594,-0.0017
 3022,0.00360785,-0.00287648,-0.00014069,-0.00006325,0.00023399,0.00009
 213,0.00008459,-0.00012602,-0.00000903,-0.00004368,0.00004517,-0.00004
 083,-0.00012413,0.00004552,0.02489783,-0.05099130,-0.00477771,-0.05907
 344,0.05523577,-0.00000424,-0.00000495,0.00000265,0.00000545,0.0000113
 0,0.00002367,-0.00000974,-0.00000496,-0.00002146,0.00000513,-0.0000031
 9,0.00001241,0.00000287,0.00000077,0.00000024,0.00001515,-0.00000322,-
 0.00000249,0.00000317,-0.00000305,0.00002600,-0.00005494,-0.00000742,0
 .00002255,0.00001359,0.00000390,-0.00002216,-0.00001927,-0.00000058,-0
 .00000361,0.00000457,0.00000036,0.00000460,-0.00000113,0.00000764,0.00
 001376,-0.00000123,-0.00000373,-0.00000624,0.00000142,-0.00000164,-0.0
 0000619,0.00000127,0.00000233,0.00000287,-0.00000022,-0.00000017,-0.00
 000102,-0.00000306,0.00000104,-0.00000037,0.00000011,-0.00000180,-0.00
 000659,-0.00000175,-0.00000096,-0.00000063,0.00000231,0.00000142,0.000
 00248,0.00000418,0.00000641,-0.00000312,0.00010988,0.00001897,-0.00003
 673,0.00000398,0.00000520,0.00000774,-0.00000103,0.00000246,-0.0000009
 5,0.00000028,0.00000050,-0.00000630,-0.00000112,-0.00000104,-0.0000004
 6,0.00000067,0.00000212,-0.00000053,-0.00011621,-0.00013851,-0.0000092
 7,0.00000307,0.00006521,0.00003959,0.00011044,0.00019434,-0.00003592,-
 0.00080749,0.00089493,-0.00048757,0.00184470,-0.00194847,0.00019692,0.
 00029936,0.00015031,-0.00041681,-0.00003061,-0.00006112,-0.00004770,0.
 00001638,0.00002934,0.00001064,0.00001853,0.00000384,0.00004257,0.2712
 3055,-0.04370004,-0.25170362,-0.27015840,0.03804112,0.25167181,-0.0000
 0904,-0.00002265,0.00002169,-0.00001155,-0.00001474,0.00002325,0.00000
 587,0.00003985,-0.00001756,0.00000312,-0.00000645,0.00000004,-0.000008
 89,0.00000950,-0.00000042,0.00002224,0.00000321,-0.00002944,-0.0000240
 5,-0.00000461,0.00004560,-0.00006932,0.00001058,0.00004736,0.00002703,
 -0.00000163,-0.00002380,-0.00003753,0.00000217,-0.00000035,0.00000414,
 -0.00000515,0.00002677,0.00000748,-0.00002030,0.00000187,0.00000153,-0
 .00000574,-0.00001139,-0.00000261,-0.00000254,0.00000926,-0.00000533,0
 .00000448,-0.00002184,0.00000397,0.00000121,-0.00000265,-0.00000590,-0
 .00000058,0.00000047,-0.00000211,-0.00000112,0.00000009,0.00000353,0.0
 0000562,-0.00000255,-0.00000014,-0.00000335,0.00000236,0.00000916,-0.0
 0000362,-0.00000351,0.00020446,-0.00002720,-0.00006353,0.00000363,-0.0
 0003462,-0.00000244,-0.00000448,0.00000004,-0.00000121,-0.00000163,0.0
 0000194,0.00000319,0.00000414,0.00000329,-0.00000020,-0.00000005,-0.00
 000297,0.00000050,-0.00026755,-0.00011237,0.00003442,0.00002497,0.0000
 0200,-0.00001282,0.00024365,0.00024522,-0.00001665,-0.00037618,-0.0005
 2458,0.00120768,0.00055653,0.00056856,-0.00254742,-0.00002487,0.000123
 19,0.00002309,-0.00004399,-0.00003279,0.00000501,0.00001449,0.00002018
 ,-0.00000231,0.00002328,0.00002222,0.00000471,-0.05932771,0.11244686,0
 .02225842,-0.00907830,0.03542036,-0.00248662,0.06813802,0.00000467,0.0
 0000442,0.00000600,-0.00002278,-0.00000818,0.00000723,0.00002577,-0.00
 000233,-0.00000369,-0.00001092,0.00000995,-0.00000213,-0.00000500,-0.0
 0000241,0.00000057,0.00000229,0.00000548,-0.00003613,-0.00003796,0.000
 00186,0.00000880,0.00008959,0.00000426,-0.00003096,0.00000422,-0.00000
 262,0.00002738,0.00000060,-0.00000237,-0.00000218,0.00000404,-0.000003
 22,0.00001640,-0.00000105,-0.00000036,0.00000265,0.00000357,-0.0000043
 8,-0.00000801,-0.00000163,0.00000362,-0.00000217,-0.00000284,0.0000043
 5,0.00000055,0.00000325,0.00000140,-0.00000350,0.00000272,-0.00000003,
 0.00000350,0.00000096,-0.00000203,0.00000207,0.00000329,0.00000139,-0.
 00000045,-0.00000112,0.00000137,-0.00000146,-0.00000404,-0.00000019,0.
 00000641,-0.00015999,-0.00001949,0.00008481,-0.00001681,-0.00001062,0.
 00000204,0.00000075,-0.00000365,0.00000286,-0.00000172,-0.00000004,-0.
 00000189,0.00000296,0.00000073,-0.00000116,0.00000103,0.00000218,0.000
 00014,0.00010864,0.00015445,-0.00009164,0.00002242,-0.00004923,0.00000
 681,-0.00006870,-0.00018389,0.00003929,0.00026498,0.00071829,-0.000439
 92,-0.00002814,-0.00168171,0.00010822,-0.00008544,-0.00005957,0.000227
 38,0.00000391,0.00006201,-0.00001995,-0.00000137,-0.00001844,0.0000134
 2,-0.00000510,-0.00003237,0.00000889,0.15319485,-0.50297266,0.01463268
 ,-0.00518644,-0.00587968,0.00644134,-0.14810348,0.50996368,-0.00000478
 ,-0.00000409,0.00000999,0.00000170,0.00001223,0.00002650,-0.00000595,-
 0.00000531,-0.00002525,0.00000368,-0.00000173,0.00001385,0.00000343,-0
 .00000133,0.00000084,0.00002263,-0.00000204,-0.00000924,-0.00000829,-0
 .00000224,0.00002484,0.00000233,-0.00001046,-0.00000081,0.00001294,0.0
 0000335,-0.00001283,-0.00001641,-0.00000229,-0.00000711,0.00000827,0.0
 0000046,0.00000749,-0.00000181,0.00000794,0.00001470,-0.00000044,-0.00
 000635,-0.00000894,0.00000257,0.00000003,-0.00001096,0.00000179,0.0000
 0359,0.00000527,0.00000091,0.00000054,-0.00000207,-0.00000386,0.000001
 07,-0.00000008,0.00000036,-0.00000302,-0.00000735,-0.00000140,-0.00000
 114,-0.00000078,0.00000301,0.00000258,0.00000258,-0.00000154,0.0000117
 0,0.00000045,-0.00001735,0.00002454,0.00002130,-0.00000159,0.00000398,
 0.00001072,-0.00000097,0.00000216,-0.00000057,0.00000008,0.00000031,-0
 .00000689,-0.00000068,-0.00000107,-0.00000063,0.00000165,0.00000501,-0
 .00000129,0.00000480,-0.00004446,-0.00006365,-0.00000975,0.00002107,0.
 00003789,0.00002195,0.00004564,0.00000447,0.00094843,0.00012451,-0.002
 86824,-0.00208492,0.00076062,0.00465965,-0.00005032,0.00051188,-0.0001
 0255,-0.00000039,-0.00000695,-0.00003242,0.00000377,0.00000322,0.00001
 157,0.00000571,-0.00001137,0.00001639,0.00946422,0.05203052,-0.0297918
 0,0.01016529,-0.03246891,0.00073926,-0.01846909,-0.02100418,0.02734570
 \\0.00000084,0.00000160,0.00000035,-0.00000109,-0.00000212,0.00000057,
 0.00000026,0.00000233,-0.00000093,-0.00000006,-0.00000047,0.00000075,-
 0.00000019,0.00000034,0.00000116,0.00000059,0.00000030,0.00000028,-0.0
 0000163,0.00000183,-0.00000054,-0.00000262,-0.00000021,0.00000176,0.00
 000117,-0.00000096,-0.00000201,-0.00000078,-0.00000039,-0.00000014,0.0
 0000135,-0.00000132,0.00000203,-0.00000045,0.00000022,-0.00000011,-0.0
 0000032,-0.00000020,0.00000019,0.00000022,-0.00000044,0.00000090,0.000
 00014,0.00000043,0.00000072,0.00000011,0.00000036,0.00000070,0.0000000
 5,0.00000028,0.00000078,-0.00000038,0.00000071,0.00000044,-0.00000016,
 0.00000045,0.00000053,-0.00000003,-0.00000018,-0.00000051,0.00000020,-
 0.00000061,-0.00000002,0.00000661,0.00000201,-0.00000198,0.00000004,-0
 .00000023,-0.00000011,-0.00000014,0.00000003,-0.00000030,-0.00000018,0
 .00000047,-0.00000003,-0.00000026,0.00000033,-0.00000021,0.00000055,-0
 .00000086,-0.00000008,0.00000091,-0.00000418,-0.00000134,-0.00000292,0
 .00000572,0.00000151,-0.00000407,-0.00000099,-0.00000041,-0.00000194,-
 0.00000045,-0.00000119,0.00000057,-0.00000152,0.00000432,0.00000262,0.
 00000202,-0.00000120,0.00000216,-0.00000833,-0.00000366,-0.00000026,0.
 00000156,0.00000059,-0.00000102,0.00000184,-0.00000170,-0.00000058,-0.
 00000193,-0.00000066,0.00000333,-0.00000161,-0.00000264,-0.00000263,0.
 00000417,0.00000219\\\@


 The arm of the moral universe is long, but it bends toward justice.
 -- Martin Luther King, Jr.
 Job cpu time:       0 days 23 hours 31 minutes 23.4 seconds.
 Elapsed time:       0 days  0 hours 50 minutes 26.8 seconds.
 File lengths (MBytes):  RWF=   1240 Int=      0 D2E=      0 Chk=     32 Scr=      8
 Normal termination of Gaussian 16 at Fri Jan 27 21:06:32 2023.
