 Entering Gaussian System, Link 0=g16
 Input=NicPyrNa4h4wB07XDaVDZ130K.gjf
 Output=NicPyrNa4h4wB07XDaVDZ130K.log
 Initial command:
 /sw/contrib/gaussian/g16/A03/g16/l1.exe "/gscratch/scrubbed/gds001/Gau-25497.inp" -scrdir="/gscratch/scrubbed/gds001/"
 Entering Link 1 = /sw/contrib/gaussian/g16/A03/g16/l1.exe PID=     25498.
  
 Copyright (c) 1988,1990,1992,1993,1995,1998,2003,2009,2016,
            Gaussian, Inc.  All Rights Reserved.
  
 This is part of the Gaussian(R) 16 program.  It is based on
 the Gaussian(R) 09 system (copyright 2009, Gaussian, Inc.),
 the Gaussian(R) 03 system (copyright 2003, Gaussian, Inc.),
 the Gaussian(R) 98 system (copyright 1998, Gaussian, Inc.),
 the Gaussian(R) 94 system (copyright 1995, Gaussian, Inc.),
 the Gaussian 92(TM) system (copyright 1992, Gaussian, Inc.),
 the Gaussian 90(TM) system (copyright 1990, Gaussian, Inc.),
 the Gaussian 88(TM) system (copyright 1988, Gaussian, Inc.),
 the Gaussian 86(TM) system (copyright 1986, Carnegie Mellon
 University), and the Gaussian 82(TM) system (copyright 1983,
 Carnegie Mellon University). Gaussian is a federally registered
 trademark of Gaussian, Inc.
  
 This software contains proprietary and confidential information,
 including trade secrets, belonging to Gaussian, Inc.
  
 This software is provided under written license and may be
 used, copied, transmitted, or stored only in accord with that
 written license.
  
 The following legend is applicable only to US Government
 contracts under FAR:
  
                    RESTRICTED RIGHTS LEGEND
  
 Use, reproduction and disclosure by the US Government is
 subject to restrictions as set forth in subparagraphs (a)
 and (c) of the Commercial Computer Software - Restricted
 Rights clause in FAR 52.227-19.
  
 Gaussian, Inc.
 340 Quinnipiac St., Bldg. 40, Wallingford CT 06492
  
  
 ---------------------------------------------------------------
 Warning -- This program may not be used in any manner that
 competes with the business of Gaussian, Inc. or will provide
 assistance to any competitor of Gaussian, Inc.  The licensee
 of this program is prohibited from giving any competitor of
 Gaussian, Inc. access to this program.  By using this program,
 the user acknowledges that Gaussian, Inc. is engaged in the
 business of creating and licensing software in the field of
 computational chemistry and represents and warrants to the
 licensee that it is not a competitor of Gaussian, Inc. and that
 it will not use this program in any manner prohibited above.
 ---------------------------------------------------------------
  

 Cite this work as:
 Gaussian 16, Revision A.03,
 M. J. Frisch, G. W. Trucks, H. B. Schlegel, G. E. Scuseria, 
 M. A. Robb, J. R. Cheeseman, G. Scalmani, V. Barone, 
 G. A. Petersson, H. Nakatsuji, X. Li, M. Caricato, A. V. Marenich, 
 J. Bloino, B. G. Janesko, R. Gomperts, B. Mennucci, H. P. Hratchian, 
 J. V. Ortiz, A. F. Izmaylov, J. L. Sonnenberg, D. Williams-Young, 
 F. Ding, F. Lipparini, F. Egidi, J. Goings, B. Peng, A. Petrone, 
 T. Henderson, D. Ranasinghe, V. G. Zakrzewski, J. Gao, N. Rega, 
 G. Zheng, W. Liang, M. Hada, M. Ehara, K. Toyota, R. Fukuda, 
 J. Hasegawa, M. Ishida, T. Nakajima, Y. Honda, O. Kitao, H. Nakai, 
 T. Vreven, K. Throssell, J. A. Montgomery, Jr., J. E. Peralta, 
 F. Ogliaro, M. J. Bearpark, J. J. Heyd, E. N. Brothers, K. N. Kudin, 
 V. N. Staroverov, T. A. Keith, R. Kobayashi, J. Normand, 
 K. Raghavachari, A. P. Rendell, J. C. Burant, S. S. Iyengar, 
 J. Tomasi, M. Cossi, J. M. Millam, M. Klene, C. Adamo, R. Cammi, 
 J. W. Ochterski, R. L. Martin, K. Morokuma, O. Farkas, 
 J. B. Foresman, and D. J. Fox, Gaussian, Inc., Wallingford CT, 2016.
 
 ******************************************
 Gaussian 16:  ES64L-G16RevA.03 25-Dec-2016
                27-Aug-2020 
 ******************************************
 %nprocshared=28
 Will use up to   28 processors via shared memory.
 %mem=41GB
 %chk=NicPyrNa4h4.chk
 -----------------------------------------
 # wB97XD/aug-cc-pVDZ Temperature=130 Freq
 -----------------------------------------
 1/10=4,30=1,38=1,112=130000/1,3;
 2/12=2,17=6,18=5,40=1/2;
 3/5=16,7=10,11=2,25=1,30=1,71=2,74=-58,140=1/1,2,3;
 4//1;
 5/5=2,38=5,98=1/2;
 8/6=4,10=90,11=11/1;
 11/6=1,8=1,9=11,15=111,16=1/1,2,10;
 10/6=1/2;
 6/7=2,8=2,9=2,10=2,28=1/1;
 7/8=1,10=1,25=1/1,2,3,16;
 1/10=4,30=1/3;
 99//99;
 ----------------------------
 p-Pyr Nicotine, N anti, 4H2O
 ----------------------------
 Symbolic Z-matrix:
 Charge =  1 Multiplicity = 1
 N                     1.84874  -0.01889   0.70253 
 C                     1.52626   0.99719  -0.38703 
 C                     1.9375    0.29361  -1.67863 
 C                     3.18383  -0.48535  -1.25788 
 C                     2.80494  -1.03706   0.11505 
 C                     0.10564   1.4866   -0.28014 
 C                    -0.9693    0.62707  -0.5228 
 N                    -2.24453   1.00307  -0.41816 
 C                    -2.50936   2.27118  -0.08384 
 C                    -1.51249   3.21001   0.16119 
 C                    -0.18396   2.80553   0.0677 
 O                    -0.19344  -1.34022   1.944 
 O                    -1.90878  -2.92105   0.54787 
 O                    -3.76456  -1.30504  -0.39243 
 H                     3.64934  -1.16485   0.79781 
 H                     4.05225   0.18278  -1.18532 
 H                     3.43615  -1.2927   -1.95193 
 H                     1.14882  -0.39178  -2.00705 
 H                     2.12531   1.02425  -2.47169 
 H                     2.24824  -1.97395   0.02772 
 H                     2.20905   1.83809  -0.20735 
 H                    -0.79575  -0.41309  -0.80761 
 H                    -3.56276   2.54239  -0.01031 
 H                    -1.77426   4.23326   0.42292 
 H                     0.62104   3.5171    0.25797 
 C                     2.34139   0.6202    1.94417 
 H                     0.97758  -0.51867   0.98654 
 H                    -0.64003  -0.97836   2.71275 
 H                    -0.84149  -1.94048   1.51705 
 H                    -3.36656  -0.40817  -0.48392 
 H                    -4.32482  -1.44639  -1.15864 
 H                    -2.67077  -2.40042   0.18287 
 H                    -2.2716   -3.73028   0.91582 
 H                    -0.51593  -2.85859  -0.62275 
 O                     0.24559  -2.51763  -1.12572 
 H                     0.32084  -3.09033  -1.89248 
 H                     3.30688   1.09691   1.74597 
 H                     2.45094  -0.14717   2.71573 
 H                     1.61094   1.36892   2.2688 
 

 GradGradGradGradGradGradGradGradGradGradGradGradGradGradGradGradGradGrad
 Berny optimization.
 Initialization pass.
 Trust Radius=3.00D-01 FncErr=1.00D-07 GrdErr=1.00D-07 EigMax=2.50D+02 EigMin=1.00D-04
 Number of steps in this run=      2 maximum allowed number of steps=      2.
 GradGradGradGradGradGradGradGradGradGradGradGradGradGradGradGradGradGrad

                          Input orientation:                          
 ---------------------------------------------------------------------
 Center     Atomic      Atomic             Coordinates (Angstroms)
 Number     Number       Type             X           Y           Z
 ---------------------------------------------------------------------
      1          7           0        1.848737   -0.018892    0.702526
      2          6           0        1.526256    0.997189   -0.387031
      3          6           0        1.937500    0.293610   -1.678632
      4          6           0        3.183827   -0.485346   -1.257876
      5          6           0        2.804938   -1.037064    0.115048
      6          6           0        0.105635    1.486596   -0.280143
      7          6           0       -0.969300    0.627069   -0.522801
      8          7           0       -2.244526    1.003068   -0.418155
      9          6           0       -2.509357    2.271179   -0.083836
     10          6           0       -1.512488    3.210010    0.161192
     11          6           0       -0.183960    2.805527    0.067700
     12          8           0       -0.193440   -1.340219    1.943997
     13          8           0       -1.908776   -2.921051    0.547874
     14          8           0       -3.764562   -1.305040   -0.392429
     15          1           0        3.649335   -1.164845    0.797808
     16          1           0        4.052250    0.182782   -1.185318
     17          1           0        3.436146   -1.292700   -1.951934
     18          1           0        1.148824   -0.391778   -2.007050
     19          1           0        2.125313    1.024246   -2.471688
     20          1           0        2.248236   -1.973954    0.027724
     21          1           0        2.209045    1.838090   -0.207347
     22          1           0       -0.795750   -0.413089   -0.807606
     23          1           0       -3.562758    2.542386   -0.010312
     24          1           0       -1.774264    4.233261    0.422916
     25          1           0        0.621035    3.517100    0.257972
     26          6           0        2.341392    0.620202    1.944168
     27          1           0        0.977577   -0.518667    0.986543
     28          1           0       -0.640029   -0.978361    2.712750
     29          1           0       -0.841489   -1.940482    1.517046
     30          1           0       -3.366557   -0.408170   -0.483915
     31          1           0       -4.324816   -1.446386   -1.158635
     32          1           0       -2.670773   -2.400417    0.182867
     33          1           0       -2.271602   -3.730284    0.915815
     34          1           0       -0.515928   -2.858585   -0.622751
     35          8           0        0.245588   -2.517633   -1.125722
     36          1           0        0.320842   -3.090326   -1.892480
     37          1           0        3.306881    1.096913    1.745972
     38          1           0        2.450935   -0.147171    2.715732
     39          1           0        1.610944    1.368924    2.268802
 ---------------------------------------------------------------------
                    Distance matrix (angstroms):
                    1          2          3          4          5
     1  N    0.000000
     2  C    1.524319   0.000000
     3  C    2.403217   1.527213   0.000000
     4  C    2.417275   2.388268   1.528770   0.000000
     5  C    1.515297   2.454648   2.395919   1.527374   0.000000
     6  C    2.504104   1.506356   2.595133   3.784149   3.716352
     7  C    3.140068   2.526504   3.145890   4.361911   4.173855
     8  N    4.365218   3.770915   4.425096   5.691004   5.472068
     9  C    4.985557   4.242776   5.121395   6.433440   6.263047
    10  C    4.692194   3.798827   4.877782   6.142051   6.056396
    11  C    3.537259   2.530159   3.722901   4.891726   4.868394
    12  O    2.730868   3.722166   4.509295   4.731673   3.525227
    13  O    4.750300   5.293968   5.484999   5.926888   5.094688
    14  O    5.861930   5.770012   6.059993   7.049894   6.594519
    15  H    2.136455   3.253567   3.345179   2.214555   1.093387
    16  H    2.908625   2.771492   2.174353   1.098098   2.175951
    17  H    3.344938   3.367520   2.199321   1.094167   2.176278
    18  H    2.823247   2.167059   1.095274   2.170542   2.768105
    19  H    3.352651   2.169193   1.094550   2.207410   3.376698
    20  H    2.106472   3.085607   2.854830   2.178084   1.093300
    21  H    2.099065   1.097999   2.150310   2.729866   2.953902
    22  H    3.070700   2.749087   2.954448   4.005621   3.769030
    23  H    6.029309   5.331755   6.171963   7.499332   7.305870
    24  H    5.593311   4.692719   5.806423   7.047906   6.988576
    25  H    3.769366   2.754161   3.984269   4.988514   5.052749
    26  C    1.480819   2.498210   3.659846   3.490705   2.511391
    27  H    1.043724   2.117917   2.946931   3.147390   2.089853
    28  H    3.339991   4.266642   5.248409   5.534511   4.315009
    29  H    3.404889   4.226303   4.788142   5.101057   4.009762
    30  H    5.362693   5.091566   5.482049   6.596401   6.232304
    31  H    6.604121   6.387603   6.520321   7.570546   7.254185
    32  H    5.134947   5.429877   5.653242   6.326103   5.643292
    33  H    5.549515   6.202430   6.374905   6.709416   5.802234
    34  H    3.925794   4.369562   4.131649   4.441152   3.858813
    35  O    3.486586   3.813102   3.327366   3.575039   3.206535
    36  H    4.301421   4.519644   3.756373   3.922413   3.796944
    37  H    2.111867   2.780337   3.774707   3.397321   2.732347
    38  H    2.105254   3.433909   4.446160   4.054757   2.771423
    39  H    2.106134   2.683059   4.104287   4.283659   3.442827
                    6          7          8          9         10
     6  C    0.000000
     7  C    1.397553   0.000000
     8  N    2.403353   1.333614   0.000000
     9  C    2.737205   2.295117   1.337913   0.000000
    10  C    2.404840   2.726625   2.396271   1.391111   0.000000
    11  C    1.394431   2.389797   2.780440   2.390808   1.391881
    12  O    3.609311   3.249196   3.908671   4.745290   5.061903
    13  O    4.916382   3.823364   4.055200   5.264884   6.156011
    14  O    4.773287   3.400519   2.763790   3.802645   5.075826
    15  H    4.555209   5.127061   6.396562   7.107253   6.796253
    16  H    4.253827   5.084514   6.396155   6.973475   6.476381
    17  H    4.648836   5.013570   6.316096   7.179138   7.016315
    18  H    2.756581   2.779837   3.998125   4.916541   4.975614
    19  H    3.015914   3.678660   4.828347   5.360676   4.994319
    20  H    4.081780   4.173840   5.407992   6.377170   6.405805
    21  H    2.133818   3.415840   4.536077   4.739846   3.983440
    22  H    2.167837   1.092320   2.063038   3.265821   3.818263
    23  H    3.826827   3.264523   2.067262   1.090235   2.163040
    24  H    3.401835   3.814049   3.370859   2.155673   1.088149
    25  H    2.162903   3.389845   3.871556   3.386518   2.157682
    26  C    3.270597   4.128761   5.172794   5.510743   4.973781
    27  H    2.527025   2.716829   3.830248   4.592130   4.559020
    28  H    3.948346   3.626929   4.037702   4.677049   4.981374
    29  H    3.983942   3.281711   3.791834   4.804445   5.368067
    30  H    3.960780   2.611527   1.804126   2.841437   4.116426
    31  H    5.385446   3.995371   3.297839   4.274503   5.597603
    32  H    4.799134   3.543818   3.482330   4.681986   5.728786
    33  H    5.856399   4.769919   4.917807   6.088792   7.022349
    34  H    4.402763   3.516436   4.235832   5.529798   6.199641
    35  O    4.094929   3.424707   4.369972   5.622096   6.128040
    36  H    4.857382   4.166475   5.050804   6.326686   6.875529
    37  H    3.808539   4.863518   5.959058   6.209325   5.495728
    38  H    4.140639   4.773421   5.761220   6.187931   5.788356
    39  H    2.962587   3.873120   4.713623   4.829684   4.193739
                   11         12         13         14         15
    11  C    0.000000
    12  O    4.550581   0.000000
    13  O    5.999938   2.718560   0.000000
    14  O    5.470758   4.267673   2.634313   0.000000
    15  H    5.566962   4.013904   5.834323   7.510139   0.000000
    16  H    5.137540   5.489811   6.940574   7.996552   2.431302
    17  H    5.829198   5.324888   6.121173   7.367659   2.760956
    18  H    4.037779   4.279251   4.719510   5.251896   3.836328
    19  H    3.867065   5.519564   6.399765   6.666297   4.219522
    20  H    5.362892   3.167886   4.295148   6.064463   1.791861
    21  H    2.595777   4.527898   6.338472   6.752592   3.478849
    22  H    3.391156   2.965412   3.060396   3.127586   4.785527
    23  H    3.389927   5.499659   5.735536   3.871618   8.149289
    24  H    2.166488   5.989689   7.156667   5.941284   7.661300
    25  H    1.091126   5.205727   6.923422   6.550536   5.602020
    26  C    3.830689   3.204469   5.705615   6.815344   2.492238
    27  H    3.639190   1.721321   3.780861   5.000783   2.755260
    28  H    4.639191   0.959877   3.173397   4.417189   4.701109
    29  H    5.005752   0.981107   1.743534   3.548836   4.613720
    30  H    4.556430   4.102700   3.082902   0.985471   7.172037
    31  H    6.060474   5.167772   3.305156   0.959654   8.215474
    32  H    5.770559   3.219127   0.992436   1.651421   6.469046
    33  H    6.913347   3.329914   0.960147   3.134045   6.453906
    34  H    5.715688   2.999605   1.820519   3.608348   4.715523
    35  O    5.472184   3.316960   2.757708   4.253164   4.137088
    36  H    6.233636   4.248049   3.309861   4.704033   4.692973
    37  H    4.233430   4.269786   6.691977   7.768362   2.476255
    38  H    4.761635   3.001942   5.603668   7.045121   2.479971
    39  H    3.182822   3.271201   5.809811   6.567214   3.569152
                   16         17         18         19         20
    16  H    0.000000
    17  H    1.773226   0.000000
    18  H    3.071684   2.458971   0.000000
    19  H    2.464933   2.712317   1.781725   0.000000
    20  H    3.062262   2.407132   2.802194   3.905301   0.000000
    21  H    2.663433   3.788299   3.055374   2.407612   3.819486
    22  H    4.899064   4.471258   2.284839   3.656188   3.521353
    23  H    8.058332   8.213552   5.898753   6.381009   7.359784
    24  H    7.276061   7.957671   5.986666   5.820929   7.407172
    25  H    4.997399   5.995224   4.548430   3.991017   5.731708
    26  C    3.593335   4.476303   4.249523   4.439564   3.226621
    27  H    3.829181   3.908751   3.001171   3.956923   2.156796
    28  H    6.209724   6.202684   5.081396   6.207733   4.067265
    29  H    5.979942   5.545413   4.333484   5.788050   3.430102
    30  H    7.475285   7.015286   4.765383   6.013626   5.851440
    31  H    8.534057   7.802914   5.638505   7.030810   6.700059
    32  H    7.331022   6.563450   4.839389   6.463545   4.939898
    33  H    7.727739   6.836972   5.602506   7.308460   4.929740
    34  H    5.516760   4.453943   3.282197   5.046890   2.974272
    35  O    4.667598   3.516070   2.472212   4.229645   2.374157
    36  H    5.013653   3.597237   2.825038   4.530044   2.940802
    37  H    3.159695   4.404710   4.578055   4.380644   3.674688
    38  H    4.229807   4.906117   4.905099   5.327999   3.256318
    39  H    4.392932   5.313212   4.647207   4.780756   4.074728
                   21         22         23         24         25
    21  H    0.000000
    22  H    3.802224   0.000000
    23  H    5.817952   4.126360   0.000000
    24  H    4.690504   4.905124   2.499091   0.000000
    25  H    2.357408   4.311510   4.304203   2.505504   0.000000
    26  C    2.475840   4.299024   6.509514   5.683927   3.767612
    27  H    2.914823   2.524838   5.565825   5.520066   4.116473
    28  H    4.957478   3.568850   5.324760   5.804380   5.274977
    29  H    5.153338   2.781911   5.462072   6.338950   5.788734
    30  H    6.017434   2.591110   2.994758   4.990052   5.644380
    31  H    7.374556   3.693945   4.220152   6.423785   7.148735
    32  H    6.475325   2.906238   5.026356   6.698286   6.771901
    33  H    7.234948   4.018968   6.470795   7.994269   7.831008
    34  H    5.445805   2.468385   6.231271   7.278125   6.535879
    35  O    4.865275   2.369533   6.430508   7.214752   6.202707
    36  H    5.540241   3.096987   7.095939   7.961498   6.955044
    37  H    2.360094   5.062850   7.236426   6.115978   3.909631
    38  H    3.541774   4.798498   7.129484   6.503653   4.776610
    39  H    2.590204   4.293254   5.773956   4.803265   3.104516
                   26         27         28         29         30
    26  C    0.000000
    27  H    2.018430   0.000000
    28  H    3.469149   2.409929   0.000000
    29  H    4.107343   2.368964   1.547892   0.000000
    30  H    6.287592   4.587587   4.240016   3.567603   0.000000
    31  H    7.637834   5.794637   5.365102   4.420064   1.565695
    32  H    6.111311   4.182982   3.542100   2.310380   2.213089
    33  H    6.423702   4.569097   3.669344   2.368564   3.767574
    34  H    5.182211   3.208676   3.830954   2.351092   3.761635
    35  O    4.864425   2.998889   4.229367   2.915315   4.231943
    36  H    5.707058   3.915802   5.156725   3.781273   4.772308
    37  H    1.094853   2.934704   4.562841   5.146567   7.195307
    38  H    1.093696   2.301931   3.200772   3.936098   6.644477
    39  H    1.095229   2.368194   3.282334   4.187091   5.959113
                   31         32         33         34         35
    31  H    0.000000
    32  H    2.333594   0.000000
    33  H    3.706106   1.570063   0.000000
    34  H    4.097451   2.345697   2.491874   0.000000
    35  O    4.694385   3.198641   3.460439   0.974235   0.000000
    36  H    4.982289   3.705779   3.875156   1.538213   0.959978
    37  H    8.552655   7.099786   7.423642   5.989214   5.539231
    38  H    7.912615   6.142020   6.195220   5.224893   5.023884
    39  H    7.409895   6.073891   6.550318   5.545854   5.337819
                   36         37         38         39
    36  H    0.000000
    37  H    6.299820   0.000000
    38  H    5.868141   1.794665   0.000000
    39  H    6.234223   1.795423   1.789937   0.000000
 Stoichiometry    C10H23N2O4(1+)
 Framework group  C1[X(C10H23N2O4)]
 Deg. of freedom   111
 Full point group                 C1      NOp   1
 Largest Abelian subgroup         C1      NOp   1
 Largest concise Abelian subgroup C1      NOp   1
                         Standard orientation:                         
 ---------------------------------------------------------------------
 Center     Atomic      Atomic             Coordinates (Angstroms)
 Number     Number       Type             X           Y           Z
 ---------------------------------------------------------------------
      1          7           0        1.848737   -0.018892    0.702526
      2          6           0        1.526256    0.997189   -0.387031
      3          6           0        1.937500    0.293610   -1.678632
      4          6           0        3.183827   -0.485346   -1.257876
      5          6           0        2.804938   -1.037064    0.115048
      6          6           0        0.105635    1.486596   -0.280143
      7          6           0       -0.969300    0.627069   -0.522801
      8          7           0       -2.244526    1.003068   -0.418155
      9          6           0       -2.509357    2.271179   -0.083836
     10          6           0       -1.512488    3.210010    0.161192
     11          6           0       -0.183960    2.805527    0.067700
     12          8           0       -0.193440   -1.340219    1.943997
     13          8           0       -1.908776   -2.921051    0.547874
     14          8           0       -3.764562   -1.305040   -0.392429
     15          1           0        3.649335   -1.164845    0.797808
     16          1           0        4.052250    0.182782   -1.185318
     17          1           0        3.436146   -1.292700   -1.951934
     18          1           0        1.148824   -0.391778   -2.007050
     19          1           0        2.125313    1.024246   -2.471688
     20          1           0        2.248236   -1.973954    0.027724
     21          1           0        2.209045    1.838090   -0.207347
     22          1           0       -0.795750   -0.413089   -0.807606
     23          1           0       -3.562758    2.542386   -0.010312
     24          1           0       -1.774264    4.233261    0.422916
     25          1           0        0.621035    3.517100    0.257972
     26          6           0        2.341392    0.620202    1.944168
     27          1           0        0.977577   -0.518667    0.986543
     28          1           0       -0.640029   -0.978361    2.712750
     29          1           0       -0.841489   -1.940482    1.517046
     30          1           0       -3.366557   -0.408170   -0.483915
     31          1           0       -4.324816   -1.446386   -1.158635
     32          1           0       -2.670773   -2.400417    0.182867
     33          1           0       -2.271602   -3.730284    0.915815
     34          1           0       -0.515928   -2.858585   -0.622751
     35          8           0        0.245588   -2.517633   -1.125722
     36          1           0        0.320842   -3.090326   -1.892480
     37          1           0        3.306881    1.096913    1.745972
     38          1           0        2.450935   -0.147171    2.715732
     39          1           0        1.610944    1.368924    2.268802
 ---------------------------------------------------------------------
 Rotational constants (GHZ):           0.5048914           0.3991177           0.2866166
 Standard basis: Aug-CC-pVDZ (5D, 7F)
 There are   607 symmetry adapted cartesian basis functions of A   symmetry.
 There are   575 symmetry adapted basis functions of A   symmetry.
   575 basis functions,   941 primitive gaussians,   607 cartesian basis functions
    64 alpha electrons       64 beta electrons
       nuclear repulsion energy      1267.3485290937 Hartrees.
 NAtoms=   39 NActive=   39 NUniq=   39 SFac= 1.00D+00 NAtFMM=   60 NAOKFM=F Big=F
 Integral buffers will be    131072 words long.
 Raffenetti 2 integral format.
 Two-electron integral symmetry is turned on.
 Nuclear repulsion after empirical dispersion term =     1267.3155788337 Hartrees.
 One-electron integrals computed using PRISM.
 NBasis=   575 RedAO= T EigKep=  1.93D-06  NBF=   575
 NBsUse=   575 1.00D-06 EigRej= -1.00D+00 NBFU=   575
 ExpMin= 2.97D-02 ExpMax= 1.17D+04 ExpMxC= 4.01D+02 IAcc=3 IRadAn=         5 AccDes= 0.00D+00
 Harris functional with IExCor= 4639 and IRadAn=       5 diagonalized for initial guess.
 HarFok:  IExCor= 4639 AccDes= 0.00D+00 IRadAn=         5 IDoV= 1 UseB2=F ITyADJ=14
 ICtDFT=  3500011 ScaDFX=  1.000000  1.000000  1.000000  1.000000
 FoFCou: FMM=F IPFlag=           0 FMFlag=      100000 FMFlg1=           0
         NFxFlg=           0 DoJE=T BraDBF=F KetDBF=T FulRan=T
         wScrn=  0.000000 ICntrl=       500 IOpCl=  0 I1Cent=   200000004 NGrid=           0
         NMat0=    1 NMatS0=      1 NMatT0=    0 NMatD0=    1 NMtDS0=    0 NMtDT0=    0
 Petite list used in FoFCou.
 Requested convergence on RMS density matrix=1.00D-08 within 128 cycles.
 Requested convergence on MAX density matrix=1.00D-06.
 Requested convergence on             energy=1.00D-06.
 No special actions if energy rises.
 SCF Done:  E(RwB97XD) =  -805.041076988     A.U. after   15 cycles
            NFock= 15  Conv=0.29D-08     -V/T= 2.0062
 DoSCS=F DFT=T ScalE2(SS,OS)=  1.000000  1.000000
 Range of M.O.s used for correlation:     1   575
 NBasis=   575 NAE=    64 NBE=    64 NFC=     0 NFV=     0
 NROrb=    575 NOA=    64 NOB=    64 NVA=   511 NVB=   511

 **** Warning!!: The largest alpha MO coefficient is  0.10210203D+03

 Symmetrizing basis deriv contribution to polar:
 IMax=3 JMax=2 DiffMx= 0.00D+00
 G2DrvN: will do    40 centers at a time, making    1 passes.
 Calling FoFCou, ICntrl=  3107 FMM=F I1Cent=   0 AccDes= 0.00D+00.
 End of G2Drv F.D. properties file   721 does not exist.
 End of G2Drv F.D. properties file   722 does not exist.
 End of G2Drv F.D. properties file   788 does not exist.
          IDoAtm=111111111111111111111111111111111111111
          Differentiating once with respect to electric field.
                with respect to dipole field.
          Differentiating once with respect to nuclear coordinates.
 CalDSu exits because no D1Ps are significant.
          There are   120 degrees of freedom in the 1st order CPHF.  IDoFFX=6 NUNeed=     3.
    117 vectors produced by pass  0 Test12= 3.27D-14 1.00D-09 XBig12= 7.55D+01 3.19D+00.
 AX will form   117 AO Fock derivatives at one time.
    117 vectors produced by pass  1 Test12= 3.27D-14 1.00D-09 XBig12= 1.01D+01 7.16D-01.
    117 vectors produced by pass  2 Test12= 3.27D-14 1.00D-09 XBig12= 2.19D-01 7.61D-02.
    117 vectors produced by pass  3 Test12= 3.27D-14 1.00D-09 XBig12= 2.05D-03 4.68D-03.
    117 vectors produced by pass  4 Test12= 3.27D-14 1.00D-09 XBig12= 1.90D-05 3.88D-04.
    117 vectors produced by pass  5 Test12= 3.27D-14 1.00D-09 XBig12= 1.30D-07 3.02D-05.
    113 vectors produced by pass  6 Test12= 3.27D-14 1.00D-09 XBig12= 7.37D-10 2.33D-06.
     42 vectors produced by pass  7 Test12= 3.27D-14 1.00D-09 XBig12= 3.74D-12 1.21D-07.
      3 vectors produced by pass  8 Test12= 3.27D-14 1.00D-09 XBig12= 2.07D-14 7.30D-09.
      3 vectors produced by pass  9 Test12= 3.27D-14 1.00D-09 XBig12= 2.46D-15 4.69D-09.
 InvSVY:  IOpt=1 It=  1 EMax= 2.31D-14
 Solved reduced A of dimension   863 with   120 vectors.
 Isotropic polarizability for W=    0.000000      160.13 Bohr**3.
 End of Minotr F.D. properties file   721 does not exist.
 End of Minotr F.D. properties file   722 does not exist.
 End of Minotr F.D. properties file   788 does not exist.

 **********************************************************************

            Population analysis using the SCF density.

 **********************************************************************

 Orbital symmetries:
       Occupied  (A) (A) (A) (A) (A) (A) (A) (A) (A) (A) (A) (A)
                 (A) (A) (A) (A) (A) (A) (A) (A) (A) (A) (A) (A)
                 (A) (A) (A) (A) (A) (A) (A) (A) (A) (A) (A) (A)
                 (A) (A) (A) (A) (A) (A) (A) (A) (A) (A) (A) (A)
                 (A) (A) (A) (A) (A) (A) (A) (A) (A) (A) (A) (A)
                 (A) (A) (A) (A)
       Virtual   (A) (A) (A) (A) (A) (A) (A) (A) (A) (A) (A) (A)
                 (A) (A) (A) (A) (A) (A) (A) (A) (A) (A) (A) (A)
                 (A) (A) (A) (A) (A) (A) (A) (A) (A) (A) (A) (A)
                 (A) (A) (A) (A) (A) (A) (A) (A) (A) (A) (A) (A)
                 (A) (A) (A) (A) (A) (A) (A) (A) (A) (A) (A) (A)
                 (A) (A) (A) (A) (A) (A) (A) (A) (A) (A) (A) (A)
                 (A) (A) (A) (A) (A) (A) (A) (A) (A) (A) (A) (A)
                 (A) (A) (A) (A) (A) (A) (A) (A) (A) (A) (A) (A)
                 (A) (A) (A) (A) (A) (A) (A) (A) (A) (A) (A) (A)
                 (A) (A) (A) (A) (A) (A) (A) (A) (A) (A) (A) (A)
                 (A) (A) (A) (A) (A) (A) (A) (A) (A) (A) (A) (A)
                 (A) (A) (A) (A) (A) (A) (A) (A) (A) (A) (A) (A)
                 (A) (A) (A) (A) (A) (A) (A) (A) (A) (A) (A) (A)
                 (A) (A) (A) (A) (A) (A) (A) (A) (A) (A) (A) (A)
                 (A) (A) (A) (A) (A) (A) (A) (A) (A) (A) (A) (A)
                 (A) (A) (A) (A) (A) (A) (A) (A) (A) (A) (A) (A)
                 (A) (A) (A) (A) (A) (A) (A) (A) (A) (A) (A) (A)
                 (A) (A) (A) (A) (A) (A) (A) (A) (A) (A) (A) (A)
                 (A) (A) (A) (A) (A) (A) (A) (A) (A) (A) (A) (A)
                 (A) (A) (A) (A) (A) (A) (A) (A) (A) (A) (A) (A)
                 (A) (A) (A) (A) (A) (A) (A) (A) (A) (A) (A) (A)
                 (A) (A) (A) (A) (A) (A) (A) (A) (A) (A) (A) (A)
                 (A) (A) (A) (A) (A) (A) (A) (A) (A) (A) (A) (A)
                 (A) (A) (A) (A) (A) (A) (A) (A) (A) (A) (A) (A)
                 (A) (A) (A) (A) (A) (A) (A) (A) (A) (A) (A) (A)
                 (A) (A) (A) (A) (A) (A) (A) (A) (A) (A) (A) (A)
                 (A) (A) (A) (A) (A) (A) (A) (A) (A) (A) (A) (A)
                 (A) (A) (A) (A) (A) (A) (A) (A) (A) (A) (A) (A)
                 (A) (A) (A) (A) (A) (A) (A) (A) (A) (A) (A) (A)
                 (A) (A) (A) (A) (A) (A) (A) (A) (A) (A) (A) (A)
                 (A) (A) (A) (A) (A) (A) (A) (A) (A) (A) (A) (A)
                 (A) (A) (A) (A) (A) (A) (A) (A) (A) (A) (A) (A)
                 (A) (A) (A) (A) (A) (A) (A) (A) (A) (A) (A) (A)
                 (A) (A) (A) (A) (A) (A) (A) (A) (A) (A) (A) (A)
                 (A) (A) (A) (A) (A) (A) (A) (A) (A) (A) (A) (A)
                 (A) (A) (A) (A) (A) (A) (A) (A) (A) (A) (A) (A)
                 (A) (A) (A) (A) (A) (A) (A) (A) (A) (A) (A) (A)
                 (A) (A) (A) (A) (A) (A) (A) (A) (A) (A) (A) (A)
                 (A) (A) (A) (A) (A) (A) (A) (A) (A) (A) (A) (A)
                 (A) (A) (A) (A) (A) (A) (A) (A) (A) (A) (A) (A)
                 (A) (A) (A) (A) (A) (A) (A) (A) (A) (A) (A) (A)
                 (A) (A) (A) (A) (A) (A) (A) (A) (A) (A) (A) (A)
                 (A) (A) (A) (A) (A) (A) (A)
 The electronic state is 1-A.
 Alpha  occ. eigenvalues --  -19.39636 -19.39445 -19.37823 -19.37366 -14.68058
 Alpha  occ. eigenvalues --  -14.58433 -10.49122 -10.47822 -10.46834 -10.46301
 Alpha  occ. eigenvalues --  -10.46143 -10.44965 -10.44893 -10.43346 -10.42959
 Alpha  occ. eigenvalues --  -10.42858  -1.24931  -1.24072  -1.23157  -1.21959
 Alpha  occ. eigenvalues --   -1.21286  -1.18072  -1.06172  -1.04008  -1.00973
 Alpha  occ. eigenvalues --   -0.96402  -0.94161  -0.87546  -0.85644  -0.83914
 Alpha  occ. eigenvalues --   -0.82935  -0.77770  -0.75739  -0.74854  -0.74548
 Alpha  occ. eigenvalues --   -0.73691  -0.72919  -0.72120  -0.70654  -0.70267
 Alpha  occ. eigenvalues --   -0.67590  -0.65574  -0.65341  -0.64996  -0.63746
 Alpha  occ. eigenvalues --   -0.62672  -0.62338  -0.61819  -0.61539  -0.59890
 Alpha  occ. eigenvalues --   -0.59509  -0.58564  -0.58065  -0.56890  -0.56782
 Alpha  occ. eigenvalues --   -0.56066  -0.54652  -0.53096  -0.52927  -0.51104
 Alpha  occ. eigenvalues --   -0.50960  -0.49769  -0.47793  -0.46462
 Alpha virt. eigenvalues --   -0.09467  -0.08476  -0.06574  -0.05663  -0.05067
 Alpha virt. eigenvalues --   -0.04621  -0.03529  -0.03284  -0.03181  -0.02767
 Alpha virt. eigenvalues --   -0.02458  -0.01400  -0.01286  -0.00978  -0.00524
 Alpha virt. eigenvalues --   -0.00314   0.00404   0.00477   0.01150   0.01173
 Alpha virt. eigenvalues --    0.01434   0.02106   0.02546   0.02642   0.02973
 Alpha virt. eigenvalues --    0.03391   0.03673   0.03984   0.04117   0.04546
 Alpha virt. eigenvalues --    0.04903   0.05161   0.05284   0.05519   0.05779
 Alpha virt. eigenvalues --    0.06126   0.06174   0.06590   0.06741   0.07043
 Alpha virt. eigenvalues --    0.07086   0.07444   0.07751   0.08014   0.08160
 Alpha virt. eigenvalues --    0.08356   0.08845   0.09156   0.09399   0.09556
 Alpha virt. eigenvalues --    0.10161   0.10753   0.10936   0.11151   0.11199
 Alpha virt. eigenvalues --    0.11638   0.11967   0.12483   0.12838   0.12994
 Alpha virt. eigenvalues --    0.13220   0.13501   0.13923   0.14098   0.14590
 Alpha virt. eigenvalues --    0.14860   0.15770   0.15971   0.16220   0.16519
 Alpha virt. eigenvalues --    0.16900   0.17118   0.17129   0.17525   0.17818
 Alpha virt. eigenvalues --    0.17916   0.18258   0.18414   0.18608   0.19033
 Alpha virt. eigenvalues --    0.19234   0.19330   0.19620   0.20160   0.20458
 Alpha virt. eigenvalues --    0.20891   0.21246   0.21429   0.21766   0.22030
 Alpha virt. eigenvalues --    0.22491   0.22661   0.23072   0.23641   0.23994
 Alpha virt. eigenvalues --    0.24122   0.24515   0.24854   0.25255   0.25385
 Alpha virt. eigenvalues --    0.25826   0.26143   0.26656   0.27101   0.27336
 Alpha virt. eigenvalues --    0.27715   0.28160   0.28304   0.28702   0.29063
 Alpha virt. eigenvalues --    0.29806   0.30109   0.30303   0.30682   0.31110
 Alpha virt. eigenvalues --    0.31475   0.31835   0.32147   0.32311   0.32683
 Alpha virt. eigenvalues --    0.33129   0.33663   0.33861   0.33950   0.34530
 Alpha virt. eigenvalues --    0.35682   0.35834   0.36219   0.36413   0.36931
 Alpha virt. eigenvalues --    0.37300   0.37677   0.37877   0.38185   0.38648
 Alpha virt. eigenvalues --    0.39578   0.39864   0.40657   0.41195   0.41369
 Alpha virt. eigenvalues --    0.41822   0.42342   0.42716   0.42845   0.42912
 Alpha virt. eigenvalues --    0.43337   0.43862   0.44644   0.44911   0.45344
 Alpha virt. eigenvalues --    0.45913   0.46572   0.46965   0.47241   0.47641
 Alpha virt. eigenvalues --    0.47984   0.48501   0.48800   0.49084   0.49369
 Alpha virt. eigenvalues --    0.49947   0.50381   0.50781   0.51194   0.51703
 Alpha virt. eigenvalues --    0.51975   0.52231   0.52555   0.52816   0.53056
 Alpha virt. eigenvalues --    0.53414   0.53756   0.54019   0.54476   0.54663
 Alpha virt. eigenvalues --    0.54942   0.55450   0.55802   0.56236   0.56622
 Alpha virt. eigenvalues --    0.56869   0.57420   0.57665   0.57921   0.58606
 Alpha virt. eigenvalues --    0.58945   0.59468   0.59796   0.60203   0.60538
 Alpha virt. eigenvalues --    0.60805   0.61155   0.61874   0.62143   0.62658
 Alpha virt. eigenvalues --    0.63003   0.63495   0.63638   0.64255   0.64712
 Alpha virt. eigenvalues --    0.65230   0.65900   0.66278   0.66603   0.67426
 Alpha virt. eigenvalues --    0.67740   0.68354   0.68715   0.68915   0.69705
 Alpha virt. eigenvalues --    0.70214   0.70457   0.70740   0.71174   0.71499
 Alpha virt. eigenvalues --    0.72060   0.72538   0.72723   0.73333   0.73582
 Alpha virt. eigenvalues --    0.73985   0.74709   0.75606   0.76016   0.76465
 Alpha virt. eigenvalues --    0.77404   0.77842   0.78480   0.78946   0.79654
 Alpha virt. eigenvalues --    0.80028   0.80548   0.80738   0.81569   0.82030
 Alpha virt. eigenvalues --    0.82216   0.82435   0.84317   0.84378   0.85422
 Alpha virt. eigenvalues --    0.85584   0.86406   0.87158   0.87990   0.88104
 Alpha virt. eigenvalues --    0.88706   0.89027   0.89913   0.90783   0.91302
 Alpha virt. eigenvalues --    0.91948   0.93433   0.93596   0.94403   0.94570
 Alpha virt. eigenvalues --    0.95562   0.96527   0.97295   0.97560   0.98373
 Alpha virt. eigenvalues --    0.99436   0.99990   1.01300   1.01331   1.02202
 Alpha virt. eigenvalues --    1.02721   1.02967   1.04394   1.04884   1.05480
 Alpha virt. eigenvalues --    1.06749   1.07349   1.07984   1.08157   1.09248
 Alpha virt. eigenvalues --    1.10071   1.10475   1.11577   1.12076   1.12854
 Alpha virt. eigenvalues --    1.13754   1.14447   1.15154   1.16324   1.16696
 Alpha virt. eigenvalues --    1.17523   1.17846   1.19622   1.20035   1.20876
 Alpha virt. eigenvalues --    1.21482   1.21598   1.23056   1.24249   1.24688
 Alpha virt. eigenvalues --    1.25696   1.26511   1.27752   1.29208   1.29720
 Alpha virt. eigenvalues --    1.30843   1.31803   1.33027   1.33524   1.33925
 Alpha virt. eigenvalues --    1.34397   1.36188   1.36700   1.38118   1.39241
 Alpha virt. eigenvalues --    1.39348   1.39815   1.40798   1.42029   1.42646
 Alpha virt. eigenvalues --    1.44084   1.44700   1.45750   1.45929   1.46914
 Alpha virt. eigenvalues --    1.48271   1.49529   1.49721   1.50090   1.51904
 Alpha virt. eigenvalues --    1.52049   1.53471   1.53812   1.55441   1.55603
 Alpha virt. eigenvalues --    1.56990   1.57451   1.59001   1.59281   1.59520
 Alpha virt. eigenvalues --    1.59807   1.61407   1.61835   1.62080   1.63350
 Alpha virt. eigenvalues --    1.64768   1.65467   1.66319   1.67490   1.67907
 Alpha virt. eigenvalues --    1.68358   1.68824   1.69914   1.71174   1.71872
 Alpha virt. eigenvalues --    1.72969   1.73259   1.74087   1.75929   1.77181
 Alpha virt. eigenvalues --    1.77510   1.77835   1.79260   1.79466   1.79986
 Alpha virt. eigenvalues --    1.80961   1.81322   1.81809   1.82744   1.82978
 Alpha virt. eigenvalues --    1.83271   1.84274   1.85065   1.85752   1.86411
 Alpha virt. eigenvalues --    1.87796   1.88693   1.89129   1.89783   1.91053
 Alpha virt. eigenvalues --    1.91780   1.91988   1.92298   1.93401   1.94650
 Alpha virt. eigenvalues --    1.95134   1.96863   1.97729   1.98014   1.98330
 Alpha virt. eigenvalues --    1.98710   2.00555   2.01004   2.01195   2.01903
 Alpha virt. eigenvalues --    2.02513   2.04126   2.05151   2.06389   2.07223
 Alpha virt. eigenvalues --    2.08440   2.08906   2.09811   2.10400   2.11374
 Alpha virt. eigenvalues --    2.12100   2.12889   2.13878   2.14495   2.15064
 Alpha virt. eigenvalues --    2.16267   2.18610   2.18737   2.20666   2.21816
 Alpha virt. eigenvalues --    2.22629   2.23799   2.23965   2.25133   2.25426
 Alpha virt. eigenvalues --    2.26073   2.27112   2.27454   2.28004   2.29093
 Alpha virt. eigenvalues --    2.29779   2.30509   2.31854   2.32788   2.34588
 Alpha virt. eigenvalues --    2.34996   2.37586   2.39897   2.40105   2.41731
 Alpha virt. eigenvalues --    2.42512   2.43654   2.46242   2.47030   2.49209
 Alpha virt. eigenvalues --    2.49844   2.51443   2.51886   2.53485   2.54723
 Alpha virt. eigenvalues --    2.55083   2.56309   2.56470   2.57169   2.57615
 Alpha virt. eigenvalues --    2.59763   2.60175   2.61587   2.61799   2.63221
 Alpha virt. eigenvalues --    2.64115   2.66180   2.66968   2.68096   2.69854
 Alpha virt. eigenvalues --    2.70553   2.72901   2.74333   2.74717   2.76747
 Alpha virt. eigenvalues --    2.77495   2.78324   2.80173   2.80589   2.82541
 Alpha virt. eigenvalues --    2.83829   2.85108   2.86321   2.86634   2.89482
 Alpha virt. eigenvalues --    2.90533   2.91043   2.92255   2.93821   2.96113
 Alpha virt. eigenvalues --    2.97227   3.02233   3.02846   3.06461   3.10122
 Alpha virt. eigenvalues --    3.12515   3.17699   3.24730   3.27775   3.34387
 Alpha virt. eigenvalues --    3.37063   3.39598   3.40785   3.41478   3.43702
 Alpha virt. eigenvalues --    3.44344   3.47822   3.50666   3.51374   3.53573
 Alpha virt. eigenvalues --    3.54505   3.56158   3.59623   3.61347   3.70418
 Alpha virt. eigenvalues --    3.78737   3.81580   3.83638   3.85893   3.87929
 Alpha virt. eigenvalues --    3.99668   4.04985   4.06950   4.07973   4.15282
 Alpha virt. eigenvalues --    4.46085
          Condensed to atoms (all electrons):
               1          2          3          4          5          6
     1  N   12.773531  -2.992742  -1.061733   0.273608  -0.031945   0.699774
     2  C   -2.992742  24.860575  -1.286683  -0.666535  -0.331905  -8.085742
     3  C   -1.061733  -1.286683   6.927173  -0.095812   0.400331   1.100799
     4  C    0.273608  -0.666535  -0.095812   6.466199  -0.378670   0.388525
     5  C   -0.031945  -0.331905   0.400331  -0.378670   5.907161  -0.019075
     6  C    0.699774  -8.085742   1.100799   0.388525  -0.019075  25.741047
     7  C   -0.282173  -1.216008  -0.350082  -0.186680  -0.023140  -5.836312
     8  N   -0.070020   0.524429  -0.078683   0.044205  -0.015190   0.201444
     9  C    0.012768  -0.766221  -0.133441  -0.009833  -0.052078  -1.943615
    10  C   -0.040083   0.529070  -0.004894  -0.042320   0.066751   1.229748
    11  C   -0.160796  -1.356873  -0.652007  -0.009430  -0.204427 -10.872285
    12  O   -0.257859  -0.109118   0.027340   0.007560  -0.024428   0.163562
    13  O    0.014138  -0.009783  -0.005014   0.002473  -0.000957  -0.016408
    14  O   -0.000760   0.005595  -0.001735  -0.001310   0.000817  -0.061577
    15  H   -0.726198   0.571590   0.056961  -0.143037   0.033487  -0.087037
    16  H   -0.126289  -0.062009   0.006710  -0.066706  -0.094521   0.066865
    17  H    0.040932   0.163435   0.142381  -0.432161   0.289967  -0.070243
    18  H   -0.306660  -0.514665   0.095295   0.113063  -0.059442   0.263127
    19  H    0.568980  -0.228163  -0.585202   0.011815  -0.094308   0.149942
    20  H   -0.433494  -0.027704   0.010913   0.230524  -0.663328  -0.012514
    21  H   -0.442000  -3.399495   0.551283  -0.220555   0.180060   1.320269
    22  H   -0.254233  -0.298149   0.118127   0.021616   0.015635  -0.379448
    23  H    0.004899  -0.010816  -0.000205  -0.000191  -0.000886  -0.138191
    24  H   -0.008347   0.002178   0.007274  -0.001059   0.000397  -0.058806
    25  H    0.033234   0.060177  -0.024155   0.009262   0.002495   1.310360
    26  C    0.811605  -0.109440  -0.258534  -0.019380  -0.188618  -0.296028
    27  H   -0.162180  -0.318628   0.227141  -0.132424   0.112895   0.225351
    28  H   -0.000508   0.019526  -0.001237   0.002300   0.002868  -0.022527
    29  H    0.039439  -0.018323   0.000945  -0.002558  -0.005323   0.004389
    30  H   -0.003549   0.008814  -0.008702  -0.003812   0.000348  -0.015898
    31  H    0.000448  -0.001411   0.001545   0.000449   0.000071   0.012614
    32  H    0.003044  -0.002445   0.001971  -0.000525  -0.001323   0.008223
    33  H   -0.000958   0.002731   0.000146  -0.000389   0.001797  -0.000512
    34  H   -0.033209  -0.027937   0.019288   0.012688   0.010132   0.027982
    35  O    0.030295  -0.021184  -0.093564   0.050426  -0.142625   0.024497
    36  H    0.010874   0.029616  -0.000156  -0.015986   0.005834  -0.006931
    37  H   -0.266290   0.185567  -0.036353   0.018284  -0.057433  -0.020528
    38  H   -0.359368   0.105043  -0.035076  -0.038055   0.151875  -0.051418
    39  H    0.026546  -0.101869   0.073652   0.019821  -0.109407   0.134983
               7          8          9         10         11         12
     1  N   -0.282173  -0.070020   0.012768  -0.040083  -0.160796  -0.257859
     2  C   -1.216008   0.524429  -0.766221   0.529070  -1.356873  -0.109118
     3  C   -0.350082  -0.078683  -0.133441  -0.004894  -0.652007   0.027340
     4  C   -0.186680   0.044205  -0.009833  -0.042320  -0.009430   0.007560
     5  C   -0.023140  -0.015190  -0.052078   0.066751  -0.204427  -0.024428
     6  C   -5.836312   0.201444  -1.943615   1.229748 -10.872285   0.163562
     7  C   17.684960  -0.766758  -1.046433  -0.345373  -1.357565  -0.258245
     8  N   -0.766758   7.912791   0.274853   0.177536  -0.489387   0.037895
     9  C   -1.046433   0.274853  10.211824  -2.629093   2.072792   0.037949
    10  C   -0.345373   0.177536  -2.629093  11.552115  -4.592597  -0.017621
    11  C   -1.357565  -0.489387   2.072792  -4.592597  24.430246  -0.023149
    12  O   -0.258245   0.037895   0.037949  -0.017621  -0.023149   8.291045
    13  O    0.003855   0.006223   0.012284  -0.006279   0.002119  -0.105988
    14  O   -0.016291  -0.040911   0.036703  -0.017055   0.020381   0.008451
    15  H    0.003240  -0.000497  -0.003300   0.007589   0.013443  -0.003067
    16  H    0.015746   0.001053   0.003626  -0.011135   0.005524   0.000887
    17  H   -0.024704   0.002127  -0.001766   0.001248   0.012420   0.000026
    18  H   -0.154848   0.006813  -0.000203  -0.026488  -0.088355   0.004516
    19  H    0.151379  -0.014562   0.010210  -0.010151   0.022178  -0.000721
    20  H    0.009348   0.000070  -0.002587   0.002525  -0.012496   0.048494
    21  H    0.134557  -0.024548   0.033719   0.008040  -0.185607   0.000790
    22  H   -1.063286  -0.034817  -0.057380   0.085352  -0.173677   0.070104
    23  H    0.241475  -0.222705  -0.518112   0.110103   0.209327  -0.001774
    24  H   -0.003732  -0.036508   0.361234  -1.185369   0.643365   0.000647
    25  H    0.012347  -0.029098  -0.248179   0.725422  -2.725368  -0.003509
    26  C    0.151952  -0.010495  -0.021847   0.055870   0.110794  -0.060162
    27  H   -0.263847   0.015384   0.046308  -0.045500  -0.064363   0.098217
    28  H    0.018579   0.001267  -0.000780   0.000394  -0.003179   0.339684
    29  H    0.028932   0.002089  -0.004895   0.008149  -0.008525   0.244559
    30  H   -0.174211   0.160507   0.117209  -0.077323   0.036992   0.006596
    31  H    0.006859  -0.007487  -0.014602   0.008304  -0.006479  -0.001026
    32  H    0.010032  -0.004911  -0.006775   0.004783  -0.005588  -0.003155
    33  H    0.002784  -0.002502  -0.001505  -0.000201   0.000612   0.007619
    34  H   -0.013300  -0.000950   0.000593  -0.001475  -0.006458   0.002021
    35  O    0.018477  -0.000400   0.001554   0.000892   0.016609  -0.002850
    36  H   -0.017924  -0.000086  -0.001056   0.000122  -0.000255   0.003776
    37  H    0.043757  -0.002340   0.001220   0.005728   0.037558  -0.019349
    38  H    0.043364  -0.001940  -0.000894   0.009726   0.023623  -0.003031
    39  H   -0.081916   0.009178  -0.000289  -0.036677   0.026820   0.047118
              13         14         15         16         17         18
     1  N    0.014138  -0.000760  -0.726198  -0.126289   0.040932  -0.306660
     2  C   -0.009783   0.005595   0.571590  -0.062009   0.163435  -0.514665
     3  C   -0.005014  -0.001735   0.056961   0.006710   0.142381   0.095295
     4  C    0.002473  -0.001310  -0.143037  -0.066706  -0.432161   0.113063
     5  C   -0.000957   0.000817   0.033487  -0.094521   0.289967  -0.059442
     6  C   -0.016408  -0.061577  -0.087037   0.066865  -0.070243   0.263127
     7  C    0.003855  -0.016291   0.003240   0.015746  -0.024704  -0.154848
     8  N    0.006223  -0.040911  -0.000497   0.001053   0.002127   0.006813
     9  C    0.012284   0.036703  -0.003300   0.003626  -0.001766  -0.000203
    10  C   -0.006279  -0.017055   0.007589  -0.011135   0.001248  -0.026488
    11  C    0.002119   0.020381   0.013443   0.005524   0.012420  -0.088355
    12  O   -0.105988   0.008451  -0.003067   0.000887   0.000026   0.004516
    13  O    8.324312  -0.081800  -0.001010  -0.000002   0.000212  -0.005134
    14  O   -0.081800   7.875926   0.000146  -0.000069  -0.000130   0.004377
    15  H   -0.001010   0.000146   2.352634  -0.239505   0.059711  -0.034981
    16  H   -0.000002  -0.000069  -0.239505   2.090915  -0.512541   0.165809
    17  H    0.000212  -0.000130   0.059711  -0.512541   1.988469  -0.156985
    18  H   -0.005134   0.004377  -0.034981   0.165809  -0.156985   2.368455
    19  H   -0.000085  -0.000024  -0.001787  -0.171303   0.018275  -0.593625
    20  H    0.004843  -0.000634  -0.662571   0.240721  -0.255665   0.132810
    21  H   -0.000559   0.000279   0.035486   0.046074   0.006703   0.208281
    22  H    0.057183  -0.017139   0.012324   0.002244  -0.006238  -0.034475
    23  H    0.000853   0.001742  -0.000122   0.000084  -0.000038  -0.001428
    24  H   -0.000203   0.000059   0.000164  -0.000144   0.000013   0.002169
    25  H    0.000213   0.000220  -0.003310   0.001965  -0.000979  -0.004834
    26  C   -0.005258  -0.000441   0.138257  -0.042906   0.008691  -0.097496
    27  H   -0.019723   0.007766  -0.039669   0.005840   0.000214   0.034505
    28  H    0.003339   0.000413   0.000868   0.000226  -0.000036   0.000292
    29  H   -0.033995  -0.004352  -0.000793  -0.001016   0.000609  -0.005438
    30  H    0.001568   0.268654   0.000218  -0.000098  -0.000075   0.000458
    31  H    0.005378   0.380252  -0.000012   0.000020   0.000008   0.000484
    32  H    0.310833   0.009195  -0.000122  -0.000113   0.000137   0.001876
    33  H    0.305458  -0.003394   0.000210   0.000007  -0.000048  -0.000388
    34  H   -0.027703  -0.003351   0.001205  -0.000461   0.000211   0.015121
    35  O   -0.065037  -0.000384  -0.001503   0.000146   0.012320   0.007008
    36  H   -0.000781   0.001322   0.000302  -0.000129   0.000931  -0.012144
    37  H   -0.000266  -0.000035   0.028704   0.001827   0.002256  -0.004403
    38  H   -0.000053  -0.000091   0.034993   0.005037  -0.003194  -0.003191
    39  H   -0.000690  -0.000080   0.025199  -0.007151   0.001659  -0.004123
              19         20         21         22         23         24
     1  N    0.568980  -0.433494  -0.442000  -0.254233   0.004899  -0.008347
     2  C   -0.228163  -0.027704  -3.399495  -0.298149  -0.010816   0.002178
     3  C   -0.585202   0.010913   0.551283   0.118127  -0.000205   0.007274
     4  C    0.011815   0.230524  -0.220555   0.021616  -0.000191  -0.001059
     5  C   -0.094308  -0.663328   0.180060   0.015635  -0.000886   0.000397
     6  C    0.149942  -0.012514   1.320269  -0.379448  -0.138191  -0.058806
     7  C    0.151379   0.009348   0.134557  -1.063286   0.241475  -0.003732
     8  N   -0.014562   0.000070  -0.024548  -0.034817  -0.222705  -0.036508
     9  C    0.010210  -0.002587   0.033719  -0.057380  -0.518112   0.361234
    10  C   -0.010151   0.002525   0.008040   0.085352   0.110103  -1.185369
    11  C    0.022178  -0.012496  -0.185607  -0.173677   0.209327   0.643365
    12  O   -0.000721   0.048494   0.000790   0.070104  -0.001774   0.000647
    13  O   -0.000085   0.004843  -0.000559   0.057183   0.000853  -0.000203
    14  O   -0.000024  -0.000634   0.000279  -0.017139   0.001742   0.000059
    15  H   -0.001787  -0.662571   0.035486   0.012324  -0.000122   0.000164
    16  H   -0.171303   0.240721   0.046074   0.002244   0.000084  -0.000144
    17  H    0.018275  -0.255665   0.006703  -0.006238  -0.000038   0.000013
    18  H   -0.593625   0.132810   0.208281  -0.034475  -0.001428   0.002169
    19  H    2.375980  -0.033438  -0.248286   0.021916   0.001060  -0.002405
    20  H   -0.033438   2.988029   0.003676   0.004706   0.000457  -0.000276
    21  H   -0.248286   0.003676   3.934784   0.003227   0.000723   0.000643
    22  H    0.021916   0.004706   0.003227   4.114365   0.034865  -0.017279
    23  H    0.001060   0.000457   0.000723   0.034865   2.106059  -0.133332
    24  H   -0.002405  -0.000276   0.000643  -0.017279  -0.133332   2.154846
    25  H    0.014337   0.001863  -0.153762  -0.019624  -0.006057  -0.131391
    26  C    0.076798  -0.085789  -0.031780  -0.029473   0.004022  -0.009504
    27  H   -0.012833  -0.038295   0.095430   0.135242  -0.012206   0.010799
    28  H   -0.001052   0.000408   0.000209  -0.003594  -0.000556  -0.000099
    29  H    0.002573   0.000856  -0.001876  -0.020381   0.001320  -0.000172
    30  H   -0.000250  -0.001264  -0.000516  -0.028436  -0.062496   0.007892
    31  H    0.000023   0.000171  -0.000101   0.003254   0.003868  -0.000395
    32  H    0.000086  -0.001607   0.000141  -0.022523   0.001281   0.000058
    33  H   -0.000046   0.000726   0.000081   0.004940  -0.000225   0.000010
    34  H    0.000187   0.012079   0.002222   0.002539  -0.000138   0.000095
    35  O    0.014298   0.020320  -0.002387  -0.040809   0.000391  -0.000010
    36  H    0.000759  -0.010153  -0.000763  -0.002869  -0.000201   0.000015
    37  H    0.009079   0.020953  -0.023110   0.006183   0.000264  -0.000103
    38  H    0.000406   0.006550   0.038634   0.007423   0.000610  -0.001064
    39  H    0.003602  -0.021884  -0.006272  -0.009350   0.000224  -0.003145
              25         26         27         28         29         30
     1  N    0.033234   0.811605  -0.162180  -0.000508   0.039439  -0.003549
     2  C    0.060177  -0.109440  -0.318628   0.019526  -0.018323   0.008814
     3  C   -0.024155  -0.258534   0.227141  -0.001237   0.000945  -0.008702
     4  C    0.009262  -0.019380  -0.132424   0.002300  -0.002558  -0.003812
     5  C    0.002495  -0.188618   0.112895   0.002868  -0.005323   0.000348
     6  C    1.310360  -0.296028   0.225351  -0.022527   0.004389  -0.015898
     7  C    0.012347   0.151952  -0.263847   0.018579   0.028932  -0.174211
     8  N   -0.029098  -0.010495   0.015384   0.001267   0.002089   0.160507
     9  C   -0.248179  -0.021847   0.046308  -0.000780  -0.004895   0.117209
    10  C    0.725422   0.055870  -0.045500   0.000394   0.008149  -0.077323
    11  C   -2.725368   0.110794  -0.064363  -0.003179  -0.008525   0.036992
    12  O   -0.003509  -0.060162   0.098217   0.339684   0.244559   0.006596
    13  O    0.000213  -0.005258  -0.019723   0.003339  -0.033995   0.001568
    14  O    0.000220  -0.000441   0.007766   0.000413  -0.004352   0.268654
    15  H   -0.003310   0.138257  -0.039669   0.000868  -0.000793   0.000218
    16  H    0.001965  -0.042906   0.005840   0.000226  -0.001016  -0.000098
    17  H   -0.000979   0.008691   0.000214  -0.000036   0.000609  -0.000075
    18  H   -0.004834  -0.097496   0.034505   0.000292  -0.005438   0.000458
    19  H    0.014337   0.076798  -0.012833  -0.001052   0.002573  -0.000250
    20  H    0.001863  -0.085789  -0.038295   0.000408   0.000856  -0.001264
    21  H   -0.153762  -0.031780   0.095430   0.000209  -0.001876  -0.000516
    22  H   -0.019624  -0.029473   0.135242  -0.003594  -0.020381  -0.028436
    23  H   -0.006057   0.004022  -0.012206  -0.000556   0.001320  -0.062496
    24  H   -0.131391  -0.009504   0.010799  -0.000099  -0.000172   0.007892
    25  H    3.125292   0.028491  -0.027035   0.000448   0.001071  -0.002200
    26  C    0.028491   4.675811  -0.429601  -0.005345   0.024648  -0.002777
    27  H   -0.027035  -0.429601   1.574506  -0.004777  -0.024578   0.008312
    28  H    0.000448  -0.005345  -0.004777   0.525538  -0.123965   0.000473
    29  H    0.001071   0.024648  -0.024578  -0.123965   0.609246  -0.006907
    30  H   -0.002200  -0.002777   0.008312   0.000473  -0.006907   0.621359
    31  H    0.000109   0.000074  -0.000733  -0.000120   0.000787  -0.114780
    32  H   -0.000131   0.001027   0.003165   0.001467  -0.005484  -0.003969
    33  H   -0.000027  -0.000833   0.001723  -0.001322   0.002997  -0.000693
    34  H   -0.000304  -0.006016   0.000494  -0.002160   0.016706  -0.001170
    35  O    0.001297   0.006481   0.002499   0.000108   0.009136   0.000280
    36  H   -0.000077   0.000287   0.013101  -0.000260  -0.002031   0.001497
    37  H    0.012107   0.189828  -0.132114  -0.000097   0.004102  -0.000182
    38  H    0.003130   0.201947   0.052818  -0.001135  -0.005251   0.000189
    39  H   -0.033168   0.183195   0.037095  -0.003249   0.002633  -0.000397
              31         32         33         34         35         36
     1  N    0.000448   0.003044  -0.000958  -0.033209   0.030295   0.010874
     2  C   -0.001411  -0.002445   0.002731  -0.027937  -0.021184   0.029616
     3  C    0.001545   0.001971   0.000146   0.019288  -0.093564  -0.000156
     4  C    0.000449  -0.000525  -0.000389   0.012688   0.050426  -0.015986
     5  C    0.000071  -0.001323   0.001797   0.010132  -0.142625   0.005834
     6  C    0.012614   0.008223  -0.000512   0.027982   0.024497  -0.006931
     7  C    0.006859   0.010032   0.002784  -0.013300   0.018477  -0.017924
     8  N   -0.007487  -0.004911  -0.002502  -0.000950  -0.000400  -0.000086
     9  C   -0.014602  -0.006775  -0.001505   0.000593   0.001554  -0.001056
    10  C    0.008304   0.004783  -0.000201  -0.001475   0.000892   0.000122
    11  C   -0.006479  -0.005588   0.000612  -0.006458   0.016609  -0.000255
    12  O   -0.001026  -0.003155   0.007619   0.002021  -0.002850   0.003776
    13  O    0.005378   0.310833   0.305458  -0.027703  -0.065037  -0.000781
    14  O    0.380252   0.009195  -0.003394  -0.003351  -0.000384   0.001322
    15  H   -0.000012  -0.000122   0.000210   0.001205  -0.001503   0.000302
    16  H    0.000020  -0.000113   0.000007  -0.000461   0.000146  -0.000129
    17  H    0.000008   0.000137  -0.000048   0.000211   0.012320   0.000931
    18  H    0.000484   0.001876  -0.000388   0.015121   0.007008  -0.012144
    19  H    0.000023   0.000086  -0.000046   0.000187   0.014298   0.000759
    20  H    0.000171  -0.001607   0.000726   0.012079   0.020320  -0.010153
    21  H   -0.000101   0.000141   0.000081   0.002222  -0.002387  -0.000763
    22  H    0.003254  -0.022523   0.004940   0.002539  -0.040809  -0.002869
    23  H    0.003868   0.001281  -0.000225  -0.000138   0.000391  -0.000201
    24  H   -0.000395   0.000058   0.000010   0.000095  -0.000010   0.000015
    25  H    0.000109  -0.000131  -0.000027  -0.000304   0.001297  -0.000077
    26  C    0.000074   0.001027  -0.000833  -0.006016   0.006481   0.000287
    27  H   -0.000733   0.003165   0.001723   0.000494   0.002499   0.013101
    28  H   -0.000120   0.001467  -0.001322  -0.002160   0.000108  -0.000260
    29  H    0.000787  -0.005484   0.002997   0.016706   0.009136  -0.002031
    30  H   -0.114780  -0.003969  -0.000693  -0.001170   0.000280   0.001497
    31  H    0.587961  -0.005070   0.000451   0.000438  -0.000171  -0.000482
    32  H   -0.005070   0.463936  -0.131174  -0.003129  -0.003165   0.001294
    33  H    0.000451  -0.131174   0.594957   0.000260   0.004948   0.000177
    34  H    0.000438  -0.003129   0.000260   0.606800   0.292352  -0.124639
    35  O   -0.000171  -0.003165   0.004948   0.292352   8.089819   0.315547
    36  H   -0.000482   0.001294   0.000177  -0.124639   0.315547   0.548217
    37  H    0.000007  -0.000049  -0.000097   0.000075   0.002928  -0.000142
    38  H   -0.000016   0.000263   0.000088  -0.001239   0.000204  -0.000202
    39  H    0.000017   0.000061  -0.000100   0.000157  -0.001342   0.000066
              37         38         39
     1  N   -0.266290  -0.359368   0.026546
     2  C    0.185567   0.105043  -0.101869
     3  C   -0.036353  -0.035076   0.073652
     4  C    0.018284  -0.038055   0.019821
     5  C   -0.057433   0.151875  -0.109407
     6  C   -0.020528  -0.051418   0.134983
     7  C    0.043757   0.043364  -0.081916
     8  N   -0.002340  -0.001940   0.009178
     9  C    0.001220  -0.000894  -0.000289
    10  C    0.005728   0.009726  -0.036677
    11  C    0.037558   0.023623   0.026820
    12  O   -0.019349  -0.003031   0.047118
    13  O   -0.000266  -0.000053  -0.000690
    14  O   -0.000035  -0.000091  -0.000080
    15  H    0.028704   0.034993   0.025199
    16  H    0.001827   0.005037  -0.007151
    17  H    0.002256  -0.003194   0.001659
    18  H   -0.004403  -0.003191  -0.004123
    19  H    0.009079   0.000406   0.003602
    20  H    0.020953   0.006550  -0.021884
    21  H   -0.023110   0.038634  -0.006272
    22  H    0.006183   0.007423  -0.009350
    23  H    0.000264   0.000610   0.000224
    24  H   -0.000103  -0.001064  -0.003145
    25  H    0.012107   0.003130  -0.033168
    26  C    0.189828   0.201947   0.183195
    27  H   -0.132114   0.052818   0.037095
    28  H   -0.000097  -0.001135  -0.003249
    29  H    0.004102  -0.005251   0.002633
    30  H   -0.000182   0.000189  -0.000397
    31  H    0.000007  -0.000016   0.000017
    32  H   -0.000049   0.000263   0.000061
    33  H   -0.000097   0.000088  -0.000100
    34  H    0.000075  -0.001239   0.000157
    35  O    0.002928   0.000204  -0.001342
    36  H   -0.000142  -0.000202   0.000066
    37  H    2.015654  -0.480967  -0.377270
    38  H   -0.480967   1.952719  -0.440323
    39  H   -0.377270  -0.440323   1.677118
 Mulliken charges:
               1
     1  N   -0.322722
     2  C    0.895503
     3  C    0.943990
     4  C    0.794610
     5  C    1.316107
     6  C    0.921591
     7  C    0.901183
     8  N   -0.523066
     9  C    0.230038
    10  C    0.500167
    11  C    1.314064
    12  O   -0.553805
    13  O   -0.668556
    14  O   -0.370737
    15  H   -0.428209
    16  H   -0.325227
    17  H   -0.288149
    18  H   -0.315152
    19  H   -0.455640
    20  H   -0.477343
    21  H   -0.863696
    22  H   -1.208067
    23  H   -0.613948
    24  H   -0.598515
    25  H   -0.930631
    26  C    1.041946
    27  H    0.019700
    28  H    0.257593
    29  H    0.270674
    30  H    0.268340
    31  H    0.139292
    32  H    0.378385
    33  H    0.211693
    34  H    0.229992
    35  O   -0.547403
    36  H    0.263531
    37  H   -0.164955
    38  H   -0.212136
    39  H   -0.030441
 Sum of Mulliken charges =   1.00000
 Mulliken charges with hydrogens summed into heavy atoms:
               1
     1  N   -0.303023
     2  C    0.031807
     3  C    0.173198
     4  C    0.181234
     5  C    0.410555
     6  C    0.921591
     7  C   -0.306884
     8  N   -0.523066
     9  C   -0.383910
    10  C   -0.098348
    11  C    0.383433
    12  O   -0.025538
    13  O   -0.078479
    14  O    0.036895
    26  C    0.634414
    35  O   -0.053880
 APT charges:
               1
     1  N   -0.477927
     2  C    0.367357
     3  C    0.003279
     4  C    0.062899
     5  C    0.229070
     6  C   -0.128573
     7  C    0.128000
     8  N   -0.453351
     9  C    0.193195
    10  C   -0.136595
    11  C    0.109405
    12  O   -0.700831
    13  O   -0.762829
    14  O   -0.765648
    15  H    0.008047
    16  H   -0.008363
    17  H    0.016526
    18  H    0.036649
    19  H    0.020328
    20  H    0.055712
    21  H   -0.015944
    22  H    0.098266
    23  H    0.055603
    24  H    0.066966
    25  H    0.057014
    26  C    0.207608
    27  H    0.374390
    28  H    0.260465
    29  H    0.443664
    30  H    0.514876
    31  H    0.272988
    32  H    0.482126
    33  H    0.278654
    34  H    0.389714
    35  O   -0.646056
    36  H    0.255753
    37  H    0.032021
    38  H    0.042012
    39  H    0.033531
 Sum of APT charges =   1.00000
 APT charges with hydrogens summed into heavy atoms:
               1
     1  N   -0.103538
     2  C    0.351412
     3  C    0.060256
     4  C    0.071061
     5  C    0.292830
     6  C   -0.128573
     7  C    0.226267
     8  N   -0.453351
     9  C    0.248797
    10  C   -0.069629
    11  C    0.166419
    12  O    0.003298
    13  O   -0.002050
    14  O    0.022216
    26  C    0.315172
    35  O   -0.000589
 Electronic spatial extent (au):  <R**2>=           4257.2120
 Charge=              1.0000 electrons
 Dipole moment (field-independent basis, Debye):
    X=              2.5041    Y=              0.4028    Z=              1.1191  Tot=              2.7722
 Quadrupole moment (field-independent basis, Debye-Ang):
   XX=            -60.6803   YY=            -64.8522   ZZ=            -81.9520
   XY=              4.9724   XZ=              3.5316   YZ=              5.1177
 Traceless Quadrupole moment (field-independent basis, Debye-Ang):
   XX=              8.4812   YY=              4.3093   ZZ=            -12.7905
   XY=              4.9724   XZ=              3.5316   YZ=              5.1177
 Octapole moment (field-independent basis, Debye-Ang**2):
  XXX=            -17.3944  YYY=            -54.4720  ZZZ=             20.6420  XYY=            -53.5674
  XXY=            -21.7322  XXZ=            -11.7123  XZZ=              0.7467  YZZ=            -32.8866
  YYZ=              2.7010  XYZ=              4.1262
 Hexadecapole moment (field-independent basis, Debye-Ang**3):
 XXXX=          -2216.1246 YYYY=          -1456.3918 ZZZZ=           -633.9472 XXXY=             69.6730
 XXXZ=            140.3286 YYYX=            118.4258 YYYZ=             38.6335 ZZZX=             -0.3242
 ZZZY=             23.1442 XXYY=           -577.1142 XXZZ=           -475.4851 YYZZ=           -403.3320
 XXYZ=             29.9823 YYXZ=            -39.7716 ZZXY=             49.3495
 N-N= 1.267315578834D+03 E-N=-4.397808671557D+03  KE= 8.000502702354D+02
  Exact polarizability: 182.065  -8.601 167.817  -0.808   7.271 130.496
 Approx polarizability: 188.953  -2.389 183.654  -0.247  10.101 148.372
 Calling FoFJK, ICntrl=    100127 FMM=F ISym2X=0 I1Cent= 0 IOpClX= 0 NMat=1 NMatS=1 NMatT=0.
 Full mass-weighted force constant matrix:
 Low frequencies ---  -11.8738   -6.5465   -0.0007    0.0006    0.0008    5.4458
 Low frequencies ---   35.1636   42.2473   54.4364
 Diagonal vibrational polarizability:
      154.4059944     107.7941296     117.1991262
 Harmonic frequencies (cm**-1), IR intensities (KM/Mole), Raman scattering
 activities (A**4/AMU), depolarization ratios for plane and unpolarized
 incident light, reduced masses (AMU), force constants (mDyne/A),
 and normal coordinates:
                      1                      2                      3
                      A                      A                      A
 Frequencies --     35.0121                42.0064                54.3837
 Red. masses --      3.8473                 4.2858                 3.9277
 Frc consts  --      0.0028                 0.0045                 0.0068
 IR Inten    --      0.7993                 0.6741                 1.7725
  Atom  AN      X      Y      Z        X      Y      Z        X      Y      Z
     1   7     0.01  -0.03  -0.06    -0.03  -0.02  -0.00    -0.01   0.08   0.05
     2   6    -0.02  -0.03  -0.05    -0.00  -0.00   0.01    -0.03  -0.02  -0.04
     3   6    -0.07  -0.05  -0.05     0.00   0.00   0.01    -0.09  -0.16   0.02
     4   6    -0.02   0.01  -0.11     0.02   0.02   0.01    -0.10  -0.15   0.04
     5   6     0.13   0.07  -0.03     0.05   0.04   0.03    -0.05   0.01   0.12
     6   6    -0.01  -0.01  -0.00     0.00   0.02  -0.02    -0.02   0.01  -0.01
     7   6    -0.03   0.01   0.01    -0.01   0.02   0.04    -0.04   0.02   0.03
     8   7    -0.02   0.03   0.04    -0.00   0.04   0.02    -0.03   0.04   0.08
     9   6     0.01   0.03   0.08     0.01   0.07  -0.06    -0.00   0.04   0.09
    10   6     0.03   0.00   0.08     0.03   0.07  -0.14     0.02   0.03   0.05
    11   6     0.02  -0.02   0.04     0.02   0.05  -0.11     0.01   0.01  -0.01
    12   8    -0.01  -0.01  -0.03     0.02  -0.17  -0.06     0.03  -0.02  -0.02
    13   8    -0.07   0.03  -0.01     0.01  -0.10  -0.13     0.07   0.03  -0.14
    14   8    -0.01   0.02  -0.15    -0.05   0.06   0.27     0.01   0.02  -0.03
    15   1     0.20   0.27  -0.07     0.07   0.14   0.03    -0.02   0.06   0.10
    16   1    -0.03   0.04  -0.22     0.01   0.03  -0.02    -0.07  -0.17  -0.07
    17   1    -0.05  -0.02  -0.08     0.01   0.01   0.02    -0.16  -0.23   0.12
    18   1    -0.07  -0.08   0.01     0.01  -0.01   0.01    -0.12  -0.17   0.11
    19   1    -0.14  -0.06  -0.08    -0.00   0.00   0.01    -0.10  -0.24  -0.06
    20   1     0.28  -0.02   0.10     0.14  -0.01   0.07    -0.06   0.00   0.24
    21   1     0.00  -0.04  -0.08     0.01  -0.02   0.03    -0.01  -0.01  -0.15
    22   1    -0.05   0.01  -0.01    -0.02  -0.00   0.10    -0.07   0.02   0.03
    23   1     0.02   0.05   0.11     0.02   0.09  -0.08     0.00   0.05   0.14
    24   1     0.06   0.00   0.11     0.04   0.10  -0.21     0.04   0.03   0.05
    25   1     0.04  -0.03   0.03     0.03   0.05  -0.15     0.03   0.00  -0.05
    26   6    -0.13  -0.02  -0.01    -0.16  -0.04   0.06     0.04   0.20  -0.03
    27   1     0.03  -0.10  -0.13    -0.03  -0.08  -0.08    -0.00   0.11   0.12
    28   1     0.05  -0.00  -0.01     0.04  -0.24  -0.02     0.01  -0.10   0.01
    29   1    -0.04   0.01  -0.00     0.03  -0.17  -0.07     0.05   0.00  -0.08
    30   1    -0.02   0.04  -0.07    -0.03   0.05   0.19    -0.03   0.04   0.03
    31   1     0.07   0.05  -0.21    -0.21   0.10   0.38     0.02   0.04  -0.04
    32   1    -0.04   0.03  -0.07    -0.01  -0.04   0.00     0.06   0.03  -0.11
    33   1    -0.11   0.05  -0.01     0.02  -0.14  -0.19     0.08   0.03  -0.14
    34   1     0.07  -0.01   0.17     0.05  -0.00  -0.06     0.08  -0.05  -0.14
    35   8     0.14  -0.04   0.26     0.09   0.03   0.02     0.11  -0.12  -0.12
    36   1     0.25  -0.09   0.31     0.15   0.07  -0.01     0.14  -0.19  -0.07
    37   1    -0.17   0.09   0.07    -0.18   0.03   0.14     0.04   0.17  -0.10
    38   1    -0.09  -0.05  -0.03    -0.17  -0.07   0.03     0.06   0.27   0.04
    39   1    -0.23  -0.12  -0.02    -0.23  -0.10   0.03     0.06   0.24  -0.07
                      4                      5                      6
                      A                      A                      A
 Frequencies --     58.5834                64.8111                86.6988
 Red. masses --      4.8133                 4.5074                 4.4650
 Frc consts  --      0.0097                 0.0112                 0.0198
 IR Inten    --      0.1166                 3.2254                 3.1782
  Atom  AN      X      Y      Z        X      Y      Z        X      Y      Z
     1   7     0.03   0.02  -0.01     0.06   0.02   0.04     0.02  -0.08   0.01
     2   6     0.03  -0.01  -0.04    -0.00   0.00   0.04    -0.03  -0.01   0.09
     3   6     0.08  -0.02  -0.02     0.01   0.02   0.03    -0.06   0.08   0.03
     4   6     0.09   0.02   0.03     0.04   0.06   0.02    -0.06   0.04  -0.07
     5   6     0.06   0.02   0.02     0.04   0.03   0.00    -0.02  -0.06  -0.10
     6   6     0.02  -0.04  -0.05    -0.02  -0.04   0.03    -0.03  -0.02   0.10
     7   6     0.04  -0.04  -0.14     0.00  -0.06   0.04    -0.03  -0.02   0.12
     8   7     0.03  -0.07  -0.10    -0.01  -0.07  -0.01    -0.03  -0.00   0.04
     9   6     0.00  -0.12   0.04    -0.03  -0.06  -0.07    -0.03   0.03  -0.08
    10   6    -0.02  -0.12   0.15    -0.05  -0.04  -0.07    -0.03   0.04  -0.12
    11   6    -0.01  -0.09   0.10    -0.04  -0.03  -0.02    -0.03   0.01  -0.02
    12   8    -0.11   0.16  -0.08     0.20  -0.19   0.03    -0.09   0.14   0.11
    13   8    -0.03   0.08  -0.10    -0.11   0.20  -0.03     0.09   0.11  -0.09
    14   8    -0.19   0.07   0.19    -0.20   0.08  -0.05    -0.04   0.01   0.01
    15   1     0.04   0.03   0.05     0.04  -0.01  -0.00    -0.01  -0.12  -0.13
    16   1     0.07   0.04   0.06     0.01   0.10   0.04    -0.05   0.03  -0.04
    17   1     0.14   0.02   0.05     0.08   0.09   0.01    -0.08   0.09  -0.13
    18   1     0.11  -0.05  -0.03     0.03  -0.01   0.04    -0.08   0.10   0.00
    19   1     0.08  -0.03  -0.02    -0.03   0.03   0.03    -0.09   0.13   0.07
    20   1     0.07   0.02   0.01     0.02   0.04  -0.03    -0.04  -0.04  -0.16
    21   1     0.01   0.01  -0.04    -0.03   0.03   0.02    -0.03  -0.02   0.12
    22   1     0.06  -0.01  -0.23     0.02  -0.07   0.08    -0.03  -0.04   0.19
    23   1    -0.00  -0.15   0.08    -0.04  -0.07  -0.11    -0.03   0.05  -0.16
    24   1    -0.04  -0.16   0.26    -0.07  -0.03  -0.11    -0.03   0.06  -0.22
    25   1    -0.02  -0.09   0.17    -0.06  -0.01  -0.03    -0.03   0.02  -0.05
    26   6    -0.00   0.05  -0.02     0.12   0.05  -0.00     0.11  -0.16   0.02
    27   1     0.02   0.02  -0.03     0.09   0.00   0.09     0.02  -0.06   0.04
    28   1    -0.19   0.25  -0.17     0.41  -0.41   0.26    -0.22   0.29  -0.04
    29   1    -0.08   0.13  -0.09     0.07  -0.00  -0.01    -0.04   0.12   0.06
    30   1    -0.08   0.01   0.04    -0.11   0.04  -0.06    -0.05   0.02   0.02
    31   1    -0.31   0.07   0.28    -0.08   0.06  -0.14    -0.04   0.01   0.02
    32   1    -0.09   0.06  -0.01    -0.13   0.18  -0.03     0.06   0.07  -0.08
    33   1     0.02   0.07  -0.07    -0.11   0.20  -0.03     0.13   0.09  -0.09
    34   1     0.02   0.04  -0.04    -0.06   0.05  -0.00     0.13  -0.02  -0.03
    35   8     0.08  -0.04   0.00    -0.01  -0.03   0.02     0.20  -0.14  -0.01
    36   1     0.12  -0.11   0.06    -0.02  -0.07   0.05     0.16  -0.17   0.01
    37   1    -0.00   0.06  -0.01     0.11   0.05  -0.06     0.11  -0.18  -0.02
    38   1    -0.01   0.07   0.00     0.17   0.06   0.01     0.13  -0.21  -0.03
    39   1    -0.02   0.05  -0.05     0.13   0.05   0.02     0.15  -0.16   0.10
                      7                      8                      9
                      A                      A                      A
 Frequencies --     94.6388               101.0471               117.9702
 Red. masses --      5.0885                 5.1394                 4.1203
 Frc consts  --      0.0269                 0.0309                 0.0338
 IR Inten    --      6.9778                 1.9645                 2.1667
  Atom  AN      X      Y      Z        X      Y      Z        X      Y      Z
     1   7     0.03   0.02  -0.01    -0.03  -0.07  -0.03     0.07   0.01   0.05
     2   6     0.04   0.02  -0.02    -0.01  -0.07  -0.03     0.00  -0.01   0.05
     3   6     0.08   0.01  -0.01    -0.01  -0.08  -0.03    -0.09  -0.03   0.03
     4   6     0.07   0.02   0.03    -0.01  -0.08  -0.02    -0.11  -0.12  -0.06
     5   6     0.02   0.01   0.01     0.06  -0.01   0.03     0.01  -0.02   0.02
     6   6     0.04   0.00  -0.03    -0.01  -0.06  -0.03    -0.00  -0.02   0.07
     7   6     0.05  -0.07   0.19    -0.03  -0.05  -0.00     0.01  -0.02   0.01
     8   7     0.05  -0.12   0.29    -0.02  -0.04   0.03     0.00  -0.01  -0.08
     9   6     0.03  -0.09   0.16    -0.00  -0.04   0.03    -0.01  -0.01  -0.11
    10   6     0.01  -0.00  -0.11     0.01  -0.05  -0.01    -0.02  -0.02  -0.02
    11   6     0.02   0.04  -0.20     0.01  -0.06  -0.04    -0.02  -0.02   0.07
    12   8    -0.12   0.08  -0.08     0.05   0.04   0.20    -0.05   0.01  -0.06
    13   8    -0.09  -0.04  -0.08     0.14   0.20  -0.01    -0.01  -0.09  -0.10
    14   8    -0.10  -0.05  -0.07    -0.03  -0.02  -0.01    -0.01  -0.02   0.02
    15   1     0.00  -0.02   0.03     0.09   0.14   0.03     0.08   0.02  -0.06
    16   1     0.06   0.03   0.06     0.01  -0.09  -0.09    -0.04  -0.20  -0.19
    17   1     0.10   0.03   0.03    -0.05  -0.12   0.01    -0.27  -0.18  -0.05
    18   1     0.08   0.02  -0.02    -0.01  -0.08  -0.03    -0.15   0.04   0.05
    19   1     0.09   0.01  -0.01     0.01  -0.09  -0.02    -0.07  -0.03   0.03
    20   1     0.00   0.02  -0.02     0.17  -0.08   0.13     0.00  -0.03   0.14
    21   1     0.03   0.02  -0.01    -0.01  -0.08  -0.03     0.01   0.00  -0.01
    22   1     0.07  -0.09   0.27    -0.04  -0.05  -0.01     0.03  -0.02   0.03
    23   1     0.02  -0.13   0.27     0.00  -0.03   0.06    -0.02   0.00  -0.20
    24   1    -0.00   0.02  -0.24     0.03  -0.04  -0.01    -0.04  -0.02  -0.04
    25   1     0.01   0.10  -0.39     0.02  -0.06  -0.06    -0.03  -0.02   0.12
    26   6     0.03   0.04  -0.01    -0.18  -0.06   0.03     0.20   0.04  -0.01
    27   1     0.02   0.04  -0.01    -0.02  -0.10  -0.07     0.07   0.04   0.10
    28   1    -0.18   0.15  -0.15     0.04   0.14   0.15    -0.05  -0.05  -0.04
    29   1    -0.09   0.05  -0.08     0.01   0.11   0.17    -0.01  -0.02  -0.06
    30   1    -0.02  -0.06   0.11    -0.04  -0.01  -0.01     0.00  -0.03  -0.03
    31   1     0.07   0.06  -0.21     0.03  -0.05  -0.05    -0.10  -0.01   0.08
    32   1    -0.10  -0.06  -0.09     0.09   0.13  -0.01    -0.02  -0.08  -0.06
    33   1    -0.06  -0.04  -0.06     0.21   0.13  -0.08     0.01  -0.12  -0.14
    34   1    -0.06   0.03  -0.02     0.06   0.26  -0.07     0.01   0.13   0.05
    35   8    -0.06   0.08   0.02     0.01   0.29  -0.13     0.02   0.26   0.15
    36   1    -0.04   0.15  -0.03     0.01   0.28  -0.11     0.12   0.36   0.08
    37   1     0.04   0.01  -0.01    -0.20   0.03   0.12     0.19   0.02  -0.12
    38   1     0.01   0.05   0.00    -0.18  -0.07   0.01     0.26   0.07   0.00
    39   1     0.04   0.06  -0.04    -0.27  -0.13  -0.01     0.25   0.07   0.03
                     10                     11                     12
                      A                      A                      A
 Frequencies --    135.8056               145.7973               179.8614
 Red. masses --      3.2303                 3.0908                 5.3082
 Frc consts  --      0.0351                 0.0387                 0.1012
 IR Inten    --      0.9313                 0.3757                 3.2640
  Atom  AN      X      Y      Z        X      Y      Z        X      Y      Z
     1   7     0.09  -0.01   0.04     0.00  -0.05   0.00    -0.02  -0.03   0.01
     2   6    -0.01  -0.05   0.05    -0.07  -0.09  -0.03    -0.04  -0.04   0.01
     3   6    -0.10  -0.08   0.04     0.04  -0.07  -0.01    -0.01  -0.03   0.01
     4   6     0.02   0.06  -0.04     0.14   0.14   0.08     0.01   0.01   0.04
     5   6     0.20   0.09   0.03     0.02  -0.02  -0.02    -0.02  -0.03   0.01
     6   6    -0.01  -0.05   0.09    -0.07  -0.09  -0.03    -0.05  -0.07   0.00
     7   6    -0.03  -0.03   0.07    -0.13  -0.01  -0.02    -0.04  -0.08   0.03
     8   7    -0.02   0.02  -0.01    -0.10   0.08   0.01    -0.03  -0.07   0.04
     9   6     0.01   0.04  -0.08    -0.01   0.10   0.02    -0.07  -0.08   0.02
    10   6     0.02   0.01  -0.04     0.06   0.03   0.01    -0.08  -0.07  -0.03
    11   6     0.01  -0.04   0.05     0.02  -0.07  -0.01    -0.08  -0.06  -0.04
    12   8    -0.01   0.07  -0.10    -0.05  -0.02   0.09    -0.02   0.04  -0.19
    13   8    -0.02  -0.01   0.05     0.01  -0.05  -0.05     0.01   0.11   0.00
    14   8    -0.00  -0.01  -0.00     0.02  -0.01  -0.01     0.33   0.26   0.05
    15   1     0.27   0.26  -0.03    -0.05  -0.13   0.05    -0.04  -0.07   0.02
    16   1    -0.04   0.16  -0.15    -0.00   0.30   0.25    -0.02   0.05   0.08
    17   1     0.04   0.05  -0.02     0.39   0.23   0.06     0.07   0.04   0.02
    18   1    -0.07  -0.19   0.19     0.14  -0.20  -0.00     0.02  -0.06   0.01
    19   1    -0.26  -0.12  -0.02    -0.05  -0.07  -0.02    -0.02  -0.03   0.02
    20   1     0.34   0.00   0.13    -0.00   0.01  -0.19    -0.04  -0.02  -0.04
    21   1    -0.01  -0.03  -0.03    -0.11  -0.06  -0.04    -0.07  -0.02   0.01
    22   1    -0.05  -0.04   0.09    -0.20  -0.02  -0.03    -0.05  -0.09   0.04
    23   1     0.01   0.08  -0.17     0.01   0.17   0.04    -0.08  -0.12   0.04
    24   1     0.04   0.03  -0.10     0.14   0.05   0.03    -0.08  -0.06  -0.05
    25   1     0.03  -0.06   0.06     0.08  -0.13  -0.02    -0.09  -0.04  -0.08
[...]
 98531,0.00023818,-0.00097085,-0.00033961,-0.00002485,0.00181926,0.0003
 2022,0.00114189,-0.00094668,-0.00043415,-0.00003576,-0.00028446,-0.000
 05281,0.00036127,-0.00005066,0.00000138,-0.00044822,0.00014246,0.00001
 956,0.00069726,0.00096728,-0.00046809,-0.00290395,0.00526127,0.0013559
 6,0.00015551,0.00130993,-0.00053535,-0.00021363,-0.00035073,-0.0000851
 8,-0.00016117,0.00013105,-0.00015152,0.00001332,0.00001509,0.00010746,
 -0.00116320,-0.00163059,-0.00032394,-0.00051201,-0.00036752,-0.0002985
 6,-0.00061192,-0.00123414,-0.00047229,-0.00005398,-0.00006463,-0.00021
 889,-0.00022371,-0.00125166,0.00007387,0.00003106,-0.00012394,-0.00002
 658,-0.00000104,-0.00001769,-0.00000026,-0.00000573,-0.00011440,-0.000
 01687,-0.00004597,0.00012740,0.00023265,-0.00025880,-0.00016267,0.0009
 5232,-0.00000592,-0.00009050,-0.00001897,-0.00088821,-0.00144411,-0.00
 012520,-0.00090798,-0.00084276,0.00007581,-0.00012757,-0.00006394,-0.0
 0001688,0.00075664,-0.00173092,0.00183248,0.00108048,0.00009611,-0.000
 73059,-0.12324934,-0.09374433,0.04824628,0.13570370,0.30534401,-0.0005
 8869,-0.00000963,0.00049090,0.00055754,0.00080851,-0.00092455,-0.00097
 763,0.00002268,-0.00052287,-0.00039207,-0.00013930,-0.00039377,-0.0005
 2236,0.00041688,-0.00060681,0.00020001,-0.00029949,0.00013593,0.000462
 09,-0.00014810,0.00067942,0.00009610,-0.00061327,0.00024440,-0.0000221
 4,0.00003785,-0.00015044,0.00003438,-0.00001862,-0.00004141,-0.0001301
 7,0.00005178,-0.00005088,-0.00033630,-0.00186226,-0.00131188,0.0107186
 1,0.00145493,-0.00377311,0.00064989,-0.00093700,0.00121403,-0.00016135
 ,-0.00032358,0.00016160,0.00016986,-0.00008849,0.00042904,-0.00048705,
 -0.00009174,0.00011585,0.00058054,-0.00066677,0.00022134,0.00032559,0.
 00025684,0.00025288,-0.00017092,-0.00063553,-0.00150328,-0.00007706,0.
 00001652,0.00039732,-0.00041074,0.00003484,-0.00193075,0.00001431,-0.0
 0001352,-0.00003487,-0.00001210,-0.00000647,0.00000350,-0.00000300,-0.
 00003473,-0.00003356,-0.00010936,-0.00008970,0.00019774,0.00114134,0.0
 0177589,0.00046576,0.00002023,0.00020540,0.00006873,-0.00018514,0.0012
 4595,0.00183742,0.00022606,0.00022877,-0.00018960,0.00024614,-0.000249
 71,-0.00021168,-0.00137587,0.00236142,-0.00290477,0.00109575,-0.001404
 84,-0.00060807,0.19427392,0.08191084,-0.14628792,-0.23008524,0.1843215
 0,0.50342710,-0.00022754,0.00031674,0.00022628,0.00009314,0.00015915,-
 0.00006175,-0.00001605,-0.00008255,0.00014868,0.00011549,-0.00025379,-
 0.00024390,-0.00036188,-0.00022514,-0.00044699,0.00003670,-0.00002713,
 0.00003947,0.00010486,0.00030122,-0.00001622,-0.00014187,-0.00010538,-
 0.00005057,-0.00004991,0.00005969,0.00001781,-0.00002299,-0.00002877,-
 0.00001299,-0.00002711,-0.00000252,0.00001019,-0.00013457,-0.00021599,
 -0.00023703,-0.00144496,-0.00131200,0.00021538,0.00010049,-0.00030051,
 -0.00029479,-0.00010127,-0.00013025,-0.00000154,-0.00002571,0.00013741
 ,0.00013583,-0.00034016,-0.00005564,0.00016581,0.00033190,-0.00019400,
 -0.00009692,-0.00001757,-0.00000873,0.00001103,0.00046539,-0.00044136,
 -0.00055122,-0.00001506,-0.00001051,0.00003020,-0.00006973,-0.00006317
 ,0.00018829,0.00000461,0.00000428,0.00000340,-0.00000830,-0.00000338,-
 0.00000190,-0.00000098,-0.00001564,-0.00000258,-0.00009220,0.00000712,
 0.00003663,0.00027102,0.00046118,0.00027102,0.00007613,0.00000410,0.00
 000531,-0.00001949,0.00007332,0.00004791,0.00011237,0.00029709,0.00007
 665,-0.00019000,0.00011512,0.00008020,-0.00001511,0.00006089,0.0003784
 6,-0.00039559,0.00009535,0.00043371,-0.00059855,0.02372665,0.02940221,
 -0.03152659,-0.00820189,0.02515077,0.03409398,-0.00001179,0.00005562,0
 .00007305,0.00032848,0.00028797,-0.00016202,-0.00040757,-0.00024363,0.
 00015352,0.00001599,0.00008516,-0.00008363,0.00018370,0.00022854,-0.00
 019658,0.00006378,-0.00013854,0.00000444,0.00012648,0.00015084,0.00028
 061,0.00014772,-0.00023614,0.00002004,0.00005431,-0.00002488,-0.000039
 63,0.00000338,-0.00000728,-0.00002069,-0.00005278,-0.00001529,-0.00002
 278,0.00002626,0.00002145,0.00010953,-0.00123492,-0.00042980,0.0007701
 1,-0.00017133,0.00006555,0.00013859,-0.00001590,-0.00000489,0.00006032
 ,0.00005838,0.00002632,0.00010786,-0.00018646,0.00004647,-0.00000416,-
 0.00002606,-0.00081392,-0.00034700,-0.00000495,-0.00001158,0.00003160,
 -0.00016033,-0.00016483,-0.00007448,-0.00002390,0.00004732,0.00013220,
 -0.00037428,0.00004310,-0.00050553,0.00000027,-0.00001396,-0.00001128,
 -0.00000282,0.00000067,0.00000657,0.00000534,-0.00002040,-0.00001029,-
 0.00004780,-0.00004775,0.00001030,0.00011777,0.00012840,0.00021354,-0.
 00001316,0.00007094,-0.00003223,-0.00006378,-0.00024826,-0.00015384,0.
 00000746,-0.00010166,-0.00006934,0.00010979,0.00002683,-0.00003712,-0.
 00001101,-0.00006313,-0.00007924,-0.00026109,0.00021046,0.00021042,-0.
 00374870,0.00811275,0.01382620,0.01970622,-0.20932267,-0.26753458,-0.0
 1413192,0.20230334,0.00007433,0.00016911,-0.00000372,-0.00014887,-0.00
 014222,0.00009576,0.00027955,0.00014215,-0.00010256,-0.00003386,-0.000
 03403,0.00006035,-0.00015998,-0.00005935,0.00003286,-0.00008373,0.0001
 7998,0.00001994,-0.00008575,0.00017577,-0.00002221,-0.00011951,0.00019
 920,-0.00001394,-0.00000498,0.00003161,0.00002183,-0.00003714,0.000014
 98,0.00000721,0.00006923,-0.00001224,-0.00000339,0.00013239,0.00011186
 ,-0.00000941,-0.00007202,0.00080352,0.00043906,-0.00020420,0.00013666,
 -0.00013721,0.00000605,0.00001367,-0.00001518,-0.00001213,0.00003208,-
 0.00003784,0.00006552,-0.00003319,0.00008350,-0.00014496,0.00000175,0.
 00029520,0.00004067,0.00009586,0.00000215,-0.00010029,-0.00047323,-0.0
 0036579,0.00001945,-0.00000394,-0.00004777,0.00027582,-0.00061475,0.00
 007480,-0.00000939,0.00001775,0.00001044,0.00000227,0.00000344,0.00000
 483,0.00000311,0.00001868,0.00001091,-0.00002823,0.00001586,-0.0000390
 8,-0.00003765,0.00003398,-0.00000642,0.00000456,-0.00001193,-0.0000252
 2,-0.00022847,-0.00015275,-0.00001894,0.00002609,-0.00003983,0.0000258
 4,-0.00000275,0.00002383,0.00006108,0.00045442,-0.00022221,0.00011591,
 0.00033888,-0.00012992,-0.00018763,-0.00320467,-0.01928695,-0.01872189
 ,0.05796490,-0.23424794,-0.34887398,-0.05504047,0.25324798,0.36727631,
 -0.01046039,-0.00553775,0.00002213,-0.00012480,-0.00120573,0.00108066,
 0.00036659,0.00028341,0.00005802,0.00011288,-0.00029146,-0.00020912,0.
 00056868,0.00122073,0.00040974,0.00003288,0.00033078,0.00014027,0.0001
 4003,-0.00008725,-0.00006214,0.00007094,0.00008501,0.00000336,0.000008
 19,-0.00002567,0.00001302,0.00005893,0.00004377,-0.00001089,-0.0000821
 3,-0.00020932,-0.00002835,-0.00017048,-0.00013724,0.00016698,-0.000052
 24,-0.00003640,-0.00006311,-0.00001294,0.00002616,-0.00001451,0.000375
 18,-0.00011238,-0.00010679,0.00006346,0.00004286,-0.00005379,0.0000270
 9,0.00006124,-0.00007274,-0.00006741,0.00006993,0.00017630,0.00001100,
 -0.00003074,-0.00008283,0.00009654,0.00001159,0.00015023,0.00003621,0.
 00084352,-0.00076465,0.00001708,0.00002346,0.00003023,0.00000847,0.000
 00459,0.00000187,-0.00000452,-0.00000265,0.00000463,-0.00003898,0.0000
 7108,-0.00001593,-0.26535095,-0.10568909,0.04706993,0.00116826,0.00020
 725,-0.00202178,0.00006342,0.00006617,-0.00004076,0.00011341,0.0000740
 5,0.00008334,-0.00000915,-0.00002426,0.00000923,0.00000176,0.00000132,
 0.00000157,0.00003049,-0.00002596,0.00002827,-0.00000058,0.00000872,-0
 .00000095,-0.00000563,0.00001902,0.00004165,0.00003090,0.00000836,-0.0
 0007034,0.00000440,-0.00001439,0.00001054,0.28239105,-0.01579108,-0.00
 983095,-0.00006083,0.00149531,0.00010154,0.00092500,-0.00005972,0.0001
 1158,0.00008783,-0.00004398,-0.00010632,-0.00017122,-0.00161931,0.0009
 6358,0.00050220,0.00017725,-0.00003412,0.00009773,-0.00008030,-0.00010
 206,0.00006894,0.00003150,-0.00002276,-0.00006620,0.00000494,0.0000664
 1,0.00002347,-0.00010146,-0.00003265,0.00000989,0.00008397,0.00011348,
 0.00005038,-0.00034333,-0.00004652,0.00022273,-0.00003595,-0.00004386,
 -0.00005360,-0.00001474,0.00000595,-0.00000586,0.00041225,-0.00084440,
 0.00003940,0.00004426,0.00009306,-0.00007423,0.00004651,0.00001401,0.0
 0001240,0.00004453,-0.00004492,0.00004446,0.00004971,-0.00004969,-0.00
 002312,0.00028459,-0.00005754,0.00026963,0.00026542,0.00031272,0.00024
 877,0.00001885,0.00001710,0.00003031,-0.00000529,-0.00000203,0.0000021
 8,0.00000584,0.00000403,-0.00000640,0.00002132,-0.00002484,0.00001513,
 -0.10220279,-0.09908573,0.02283867,0.00043057,-0.00014153,-0.00317107,
 0.00001384,-0.00023562,0.00005619,0.00003451,0.00016562,0.00005106,0.0
 0000412,-0.00000168,0.00000016,0.00000135,0.00000239,0.00000177,0.0000
 2127,-0.00001383,0.00001447,-0.00000123,0.00000769,-0.00000034,-0.0000
 1288,0.00001977,0.00004276,0.00010865,-0.00002690,-0.00006092,-0.00003
 266,-0.00001207,-0.00000441,0.11638518,0.10480406,-0.03313162,-0.01802
 223,-0.00114718,-0.00088164,-0.00259962,0.00207119,0.00004759,0.000090
 95,0.00000346,-0.00031735,0.00006563,0.00015592,-0.00125352,0.00109944
 ,0.00129894,0.00013363,0.00022437,0.00001786,-0.00008026,-0.00009591,-
 0.00005673,0.00007866,-0.00000026,0.00000513,-0.00000608,0.00007481,0.
 00000868,-0.00008337,0.00001549,0.00002841,0.00004620,-0.00002211,0.00
 000417,-0.00008423,0.00021503,0.00110877,0.00004572,0.00004973,0.00009
 106,0.00001246,0.00000244,0.00001391,0.00036022,-0.00000278,0.00027614
 ,0.00017154,0.00006911,-0.00013318,0.00010293,0.00005416,0.00005743,0.
 00002514,0.00007411,0.00004792,0.00004976,0.00000916,-0.00000524,0.000
 09531,0.00004367,0.00010705,0.00010394,0.00070279,-0.00028867,0.000058
 18,0.00002127,0.00003482,0.00000111,0.00000658,0.00000190,-0.00000116,
 0.00000127,0.00000335,-0.00000279,0.00002716,0.00000149,0.05753832,0.0
 2841157,-0.06072434,-0.00027442,-0.00128692,-0.00611405,-0.00042259,-0
 .00028740,-0.00001175,-0.00006275,-0.00012450,-0.00009880,-0.00000247,
 -0.00000898,-0.00000618,-0.00000248,-0.00000328,-0.00000194,-0.0000141
 3,0.00001492,-0.00001952,-0.00000527,-0.00000708,-0.00000351,0.0000438
 7,0.00001677,-0.00004044,0.00001495,-0.00004330,-0.00005511,-0.0000324
 2,-0.00002351,0.00000236,-0.04853842,-0.02106839,0.06683173,-0.0033396
 4,0.00879387,-0.01070539,0.00005492,-0.00238943,-0.00147819,-0.0000442
 2,0.00077468,-0.00040514,-0.00028914,0.00004680,0.00009806,0.00003107,
 -0.00014817,0.00069416,0.00044034,0.00013539,0.00014446,0.00009246,0.0
 0004808,0.00002304,-0.00005811,-0.00006277,0.00001263,-0.00000913,0.00
 005890,0.00000082,-0.00003561,-0.00001918,-0.00001141,-0.00002851,-0.0
 0005982,0.00003522,0.00048355,0.00032873,0.00091258,0.00018036,0.00014
 353,0.00025879,0.00002833,-0.00008786,0.00005068,-0.00025215,0.0000790
 5,0.00062435,0.00009604,0.00005065,-0.00005058,0.00007619,0.00001032,0
 .00002354,0.00001009,0.00000486,0.00000357,0.00005506,-0.00013467,-0.0
 0018832,0.00000477,-0.00002553,-0.00007744,0.00008914,0.00026693,-0.00
 002937,-0.00000246,0.00000468,-0.00003794,-0.00000060,-0.00000015,-0.0
 0000115,-0.00000882,0.00000082,0.00000146,-0.00002864,-0.00004091,-0.0
 0001090,-0.05187725,0.01627539,-0.01668216,0.00038544,0.00089645,-0.00
 104473,-0.00057241,-0.00009773,-0.00013048,-0.00020571,-0.00036237,-0.
 00034879,0.00004310,0.00008079,-0.00001520,-0.00000054,-0.00000425,-0.
 00000427,-0.00009472,0.00009145,-0.00008198,-0.00000255,-0.00002732,-0
 .00000303,0.00006606,-0.00001720,-0.00013780,-0.00012290,-0.00003795,0
 .00011317,0.00002288,0.00000507,-0.00000360,0.00504193,-0.01907587,0.0
 1989456,0.05090964,-0.00330228,0.01198381,-0.01766003,-0.00090541,-0.0
 0238236,-0.00154753,0.00025917,0.00089899,-0.00092723,-0.00025297,0.00
 002333,0.00005318,-0.00022378,0.00126564,-0.00021672,0.00002109,0.0002
 1795,-0.00024586,-0.00008769,-0.00004625,0.00000637,0.00008692,0.00002
 597,0.00001106,-0.00002904,0.00002209,0.00002198,-0.00003779,0.0000543
 2,0.00002829,-0.00009982,-0.00012521,0.00000032,-0.00008055,-0.0003352
 4,-0.00013948,0.00000525,-0.00001310,-0.00001029,0.00001376,0.00001501
 ,-0.00000098,0.00003478,0.00006969,-0.00023396,0.00006202,-0.00002869,
 0.00001091,0.00001787,0.00000568,-0.00002701,-0.00007321,0.00002931,0.
 00012502,0.00003180,-0.00015022,-0.00030716,-0.00022445,0.00001743,0.0
 0002508,0.00028999,0.00035781,-0.00014843,0.00000604,0.00000876,-0.000
 00107,0.00000735,0.00000560,-0.00000194,-0.00000880,0.00000044,0.00000
 340,-0.00000269,0.00011497,-0.00004513,0.02057923,-0.19663694,0.146412
 10,0.00038712,0.00102209,0.00033588,0.00019402,0.00015123,0.00006370,0
 .00001838,0.00002751,-0.00003252,-0.00001998,-0.00002444,-0.00000376,-
 0.00000389,-0.00000201,-0.00000039,-0.00000490,0.00000298,-0.00000008,
 -0.00000982,0.00000065,-0.00000039,-0.00001500,-0.00000169,-0.00000629
 ,0.00002395,-0.00000417,0.00002872,-0.00000713,0.00000025,-0.00000573,
 0.00354801,-0.00744216,0.00688785,-0.01959956,0.20305443,-0.00541881,0
 .01916701,-0.02574471,-0.00051047,-0.00416883,-0.00195985,-0.00042241,
 0.00116733,-0.00071546,0.00016226,0.00014962,0.00001027,-0.00140307,0.
 00160558,0.00061375,0.00026625,0.00004779,-0.00026323,-0.00012872,0.00
 005197,0.00002532,-0.00002087,-0.00004527,0.00003791,-0.00003202,0.000
 06111,-0.00003112,-0.00007497,0.00002026,0.00009199,-0.00012649,-0.000
 11126,-0.00001255,0.00026921,0.00002312,0.00041095,0.00008819,0.000031
 57,0.00007604,0.00001160,-0.00005356,0.00001863,0.00081017,-0.00038058
 ,-0.00015197,0.00003057,-0.00006070,-0.00000059,0.00002505,-0.00002934
 ,0.00003171,0.00000791,-0.00003305,-0.00007211,0.00013772,-0.00027012,
 -0.00033654,0.00005237,-0.00011920,-0.00000769,-0.00009083,-0.00023894
 ,0.00001850,0.00001628,0.00003109,-0.00000864,0.00000460,0.00000732,-0
 .00000407,-0.00001889,0.00000543,-0.00000013,0.00003025,0.00004290,-0.
 00004703,-0.01813490,0.13384468,-0.18216879,0.00060188,0.00100212,-0.0
 0028939,-0.00007946,-0.00002055,0.00011096,-0.00004763,-0.00013854,-0.
 00010676,0.00002647,0.00004681,0.00000008,0.00000067,0.00000083,-0.000
 00036,-0.00004551,0.00005109,-0.00003340,-0.00000730,-0.00000461,0.000
 00609,-0.00000712,0.00000331,-0.00003420,0.00004395,-0.00005811,0.0000
 9935,-0.00000057,0.00001414,-0.00001577,-0.00086415,0.00263284,-0.0020
 0919,0.02392018,-0.14677253,0.20356525,0.01002017,-0.01215178,-0.00657
 545,0.00068056,0.00009409,-0.00020095,-0.00023505,-0.00015930,0.000196
 65,0.00033033,-0.00053926,-0.00035180,-0.00127676,0.00021450,-0.002145
 61,0.00026942,-0.00033222,-0.00010014,-0.00003065,-0.00009154,0.000041
 64,-0.00003875,-0.00004222,-0.00002457,-0.00000838,0.00002478,0.000021
 66,-0.00009148,0.00000069,-0.00001230,-0.00001909,0.00036723,0.0000113
 9,-0.00002220,0.00019033,0.00012808,0.00002202,0.00003391,0.00004199,0
 .00001849,0.00001307,0.00001143,0.00034431,-0.00023239,0.00018221,0.00
 004730,0.00003607,-0.00008884,0.00008205,0.00013092,-0.00014725,0.0000
 7390,-0.00004970,-0.00008664,0.00000401,0.00000493,0.00002435,0.000346
 96,-0.00032359,0.00004297,-0.00029537,-0.00007468,0.00030602,0.0000033
 9,0.00000338,-0.00001211,-0.00000552,-0.00000372,-0.00000098,0.0000090
 2,0.00000633,-0.00000425,-0.00001474,-0.00009902,0.00002856,-0.1794594
 8,0.13114302,0.05597732,0.00075201,-0.00004250,0.00033769,-0.00002854,
 -0.00015046,0.00002269,-0.00005239,-0.00003908,-0.00008647,-0.00001672
 ,-0.00001889,-0.00001149,-0.00000394,-0.00000363,-0.00000269,-0.000009
 42,0.00000300,-0.00001189,-0.00000046,-0.00000686,0.00000116,0.0000167
 9,-0.00000691,-0.00002174,-0.00002038,0.00000451,0.00004125,0.00000984
 ,0.00000455,-0.00000513,-0.01445956,0.01943488,0.00637286,-0.00113825,
 -0.00059802,0.00092859,0.18419659,0.00911889,-0.01151780,-0.00598356,0
 .00019806,-0.00001281,0.00122916,0.00022248,-0.00003616,-0.00010904,-0
 .00005125,-0.00068984,-0.00018563,-0.00147813,0.00062783,-0.00129852,-
 0.00013269,0.00018474,0.00014890,-0.00005280,-0.00002283,0.00000181,-0
 .00007705,-0.00003905,0.00002140,-0.00001847,0.00002552,-0.00000814,-0
 .00000856,-0.00005582,-0.00001914,0.00013784,0.00017125,0.00004246,0.0
 0014990,0.00062128,0.00064194,0.00008309,0.00010189,0.00017439,0.00001
 490,-0.00003000,0.00003371,-0.00031953,0.00013378,-0.00004182,0.000040
 83,0.00004650,-0.00006303,0.00003088,0.00014237,-0.00018934,-0.0000050
 7,0.00002032,0.00001589,-0.00005315,0.00002758,-0.00001428,0.00034285,
 -0.00020633,-0.00020542,-0.00017320,0.00022326,0.00002463,0.00001587,-
 0.00002040,-0.00001587,-0.00000980,-0.00000312,-0.00000400,0.00000955,
 0.00000099,-0.00000366,-0.00002167,-0.00010978,0.00012926,0.12444158,-
 0.17628515,-0.05441596,0.00099029,-0.00027725,-0.00060216,-0.00044532,
 -0.00047482,0.00003809,-0.00022903,-0.00016386,-0.00024348,0.00001579,
 0.00003097,-0.00001712,0.00000063,-0.00000488,-0.00000410,-0.00004162,
 0.00003521,-0.00004380,0.00000573,-0.00001826,-0.00000344,0.00007822,-
 0.00000970,-0.00009981,-0.00015472,-0.00002152,0.00004892,0.00003075,0
 .00000869,0.00000490,-0.01000594,0.01139920,0.00541800,0.01409430,-0.0
 1218342,-0.00750272,-0.13674443,0.18838144,0.02041504,-0.02402934,-0.0
 1494316,0.00091633,-0.00136445,0.00093550,0.00026204,0.00001717,0.0001
 6682,0.00044174,-0.00067173,-0.00015245,-0.00439833,-0.00099309,-0.002
 27576,-0.00004005,0.00007360,-0.00020414,-0.00038633,-0.00026775,-0.00
 003229,0.00031405,0.00000112,-0.00003103,0.00002906,0.00009861,0.00000
 800,-0.00008880,0.00013207,0.00006356,-0.00020873,0.00001457,-0.000036
 44,-0.00019903,-0.00004171,-0.00002367,-0.00008547,0.00003275,-0.00003
 450,0.00004491,0.00015622,-0.00001556,0.00004613,0.00012815,-0.0000341
 5,0.00001432,0.00006072,-0.00007472,0.00011778,0.00022203,-0.00023623,
 -0.00001217,0.00002241,0.00009966,-0.00004372,0.00003893,-0.00001774,0
 .00086018,-0.00062110,-0.00075176,0.00028370,0.00031588,-0.00024916,0.
 00004902,-0.00000395,0.00001659,0.00001977,0.00000961,0.00000832,0.000
 01170,-0.00001038,0.00001201,0.00001638,0.00020049,-0.00007928,0.04746
 309,-0.04776379,-0.07020023,0.00087262,0.00051593,0.00031032,0.0000736
 6,0.00006662,0.00015790,0.00005247,-0.00000311,0.00005515,-0.00011721,
 -0.00017835,-0.00000169,-0.00000941,-0.00000761,-0.00000730,0.00006121
 ,-0.00008222,0.00004649,0.00000242,-0.00000206,0.00000285,0.00004756,-
 0.00001577,-0.00002509,-0.00017016,0.00005310,-0.00003301,0.00001664,-
 0.00000309,0.00000762,0.00351926,-0.00352180,-0.00145586,-0.01536342,0
 .01432065,0.00889675,-0.05482824,0.06310063,0.08012767\\0.00000493,0.0
 0000170,-0.00000906,0.00000255,0.00000828,0.00000120,0.00000431,0.0000
 0132,0.00000153,-0.00000076,-0.00000196,0.00000013,-0.00000009,0.00000
 157,0.00000116,-0.00000276,-0.00000281,-0.00000380,0.00000034,0.000000
 30,-0.00000087,-0.00000141,0.00000097,-0.00000049,0.00000154,0.0000007
 6,-0.00000028,0.,-0.00000229,-0.00000077,-0.00000134,-0.00000028,-0.00
 000058,0.00000394,0.00000083,0.00000201,-0.00000307,0.00000108,-0.0000
 0130,0.00000302,0.00000271,-0.00000155,-0.00000085,0.00000064,0.000000
 83,0.00000051,-0.00000037,0.00000112,-0.00000030,0.00000032,0.00000139
 ,0.00000036,-0.00000055,0.00000047,0.00000131,-0.00000016,0.00000116,-
 0.00000034,-0.00000099,-0.00000022,-0.00000274,0.00000187,0.00000100,-
 0.00000030,-0.00000122,-0.00000099,0.00000010,-0.00000031,-0.00000115,
 -0.00000057,-0.00000021,-0.00000044,-0.00000065,0.,0.00000045,0.000000
 43,-0.00000153,0.00000085,-0.00000509,-0.00000720,0.00000793,-0.000002
 68,-0.00000090,-0.00000139,-0.00000283,0.00000149,0.00000110,-0.000002
 60,-0.00000263,-0.00000096,0.00000016,-0.00000077,-0.00000183,0.000002
 79,-0.00000099,-0.00000007,0.00000032,-0.00000059,-0.00000111,0.000000
 49,0.00000028,-0.00000236,0.00000146,-0.00000006,-0.00000110,0.0000015
 5,-0.00000014,-0.00000006,-0.00000015,0.00000045,0.00000370,-0.0000003
 4,0.00000059,0.00000245,-0.00000123,0.00000079,0.00000189\\\@


 THOSE WHO TRY TO PASS CHEMISTRY OFF AS A NEW SCIENCE
 SHOW HOW LITTLE KNOWLEDGE THEY HAVE OF THE CHARACTER
 AND LITERATURE OF THE ANCIENTS.
   -- NICOLAS LEFEVRE
 "COURS DE CHYMIE" J.-N.LELOUP, PARIS, 1751
 Job cpu time:       1 days 13 hours 32 minutes 16.5 seconds.
 Elapsed time:       0 days  1 hours 20 minutes 31.3 seconds.
 File lengths (MBytes):  RWF=   1232 Int=      0 D2E=      0 Chk=     28 Scr=      8
 Normal termination of Gaussian 16 at Thu Aug 27 13:59:49 2020.
