 Entering Gaussian System, Link 0=g16
 Input=NicPySs4hYaaa.gjf
 Output=NicPySs4hYaaa.log
 Initial command:
 /sw/contrib/gaussian/g16/A03/g16/l1.exe "/gscratch/scrubbed/gds001/Gau-13924.inp" -scrdir="/gscratch/scrubbed/gds001/"
 Entering Link 1 = /sw/contrib/gaussian/g16/A03/g16/l1.exe PID=     13925.
  
 Copyright (c) 1988,1990,1992,1993,1995,1998,2003,2009,2016,
            Gaussian, Inc.  All Rights Reserved.
  
 This is part of the Gaussian(R) 16 program.  It is based on
 the Gaussian(R) 09 system (copyright 2009, Gaussian, Inc.),
 the Gaussian(R) 03 system (copyright 2003, Gaussian, Inc.),
 the Gaussian(R) 98 system (copyright 1998, Gaussian, Inc.),
 the Gaussian(R) 94 system (copyright 1995, Gaussian, Inc.),
 the Gaussian 92(TM) system (copyright 1992, Gaussian, Inc.),
 the Gaussian 90(TM) system (copyright 1990, Gaussian, Inc.),
 the Gaussian 88(TM) system (copyright 1988, Gaussian, Inc.),
 the Gaussian 86(TM) system (copyright 1986, Carnegie Mellon
 University), and the Gaussian 82(TM) system (copyright 1983,
 Carnegie Mellon University). Gaussian is a federally registered
 trademark of Gaussian, Inc.
  
 This software contains proprietary and confidential information,
 including trade secrets, belonging to Gaussian, Inc.
  
 This software is provided under written license and may be
 used, copied, transmitted, or stored only in accord with that
 written license.
  
 The following legend is applicable only to US Government
 contracts under FAR:
  
                    RESTRICTED RIGHTS LEGEND
  
 Use, reproduction and disclosure by the US Government is
 subject to restrictions as set forth in subparagraphs (a)
 and (c) of the Commercial Computer Software - Restricted
 Rights clause in FAR 52.227-19.
  
 Gaussian, Inc.
 340 Quinnipiac St., Bldg. 40, Wallingford CT 06492
  
  
 ---------------------------------------------------------------
 Warning -- This program may not be used in any manner that
 competes with the business of Gaussian, Inc. or will provide
 assistance to any competitor of Gaussian, Inc.  The licensee
 of this program is prohibited from giving any competitor of
 Gaussian, Inc. access to this program.  By using this program,
 the user acknowledges that Gaussian, Inc. is engaged in the
 business of creating and licensing software in the field of
 computational chemistry and represents and warrants to the
 licensee that it is not a competitor of Gaussian, Inc. and that
 it will not use this program in any manner prohibited above.
 ---------------------------------------------------------------
  

 Cite this work as:
 Gaussian 16, Revision A.03,
 M. J. Frisch, G. W. Trucks, H. B. Schlegel, G. E. Scuseria, 
 M. A. Robb, J. R. Cheeseman, G. Scalmani, V. Barone, 
 G. A. Petersson, H. Nakatsuji, X. Li, M. Caricato, A. V. Marenich, 
 J. Bloino, B. G. Janesko, R. Gomperts, B. Mennucci, H. P. Hratchian, 
 J. V. Ortiz, A. F. Izmaylov, J. L. Sonnenberg, D. Williams-Young, 
 F. Ding, F. Lipparini, F. Egidi, J. Goings, B. Peng, A. Petrone, 
 T. Henderson, D. Ranasinghe, V. G. Zakrzewski, J. Gao, N. Rega, 
 G. Zheng, W. Liang, M. Hada, M. Ehara, K. Toyota, R. Fukuda, 
 J. Hasegawa, M. Ishida, T. Nakajima, Y. Honda, O. Kitao, H. Nakai, 
 T. Vreven, K. Throssell, J. A. Montgomery, Jr., J. E. Peralta, 
 F. Ogliaro, M. J. Bearpark, J. J. Heyd, E. N. Brothers, K. N. Kudin, 
 V. N. Staroverov, T. A. Keith, R. Kobayashi, J. Normand, 
 K. Raghavachari, A. P. Rendell, J. C. Burant, S. S. Iyengar, 
 J. Tomasi, M. Cossi, J. M. Millam, M. Klene, C. Adamo, R. Cammi, 
 J. W. Ochterski, R. L. Martin, K. Morokuma, O. Farkas, 
 J. B. Foresman, and D. J. Fox, Gaussian, Inc., Wallingford CT, 2016.
 
 ******************************************
 Gaussian 16:  ES64L-G16RevA.03 25-Dec-2016
                27-Jan-2023 
 ******************************************
 %nprocshared=28
 Will use up to   28 processors via shared memory.
 %mem=41GB
 -----------------------------
 # wB97XD/aug-cc-pVDZ opt freq
 -----------------------------
 1/18=20,19=15,26=3,38=1/1,3;
 2/9=110,12=2,17=6,18=5,40=1/2;
 3/5=16,7=10,11=2,25=1,30=1,71=1,74=-58/1,2,3;
 4//1;
 5/5=2,38=5/2;
 6/7=2,8=2,9=2,10=2,28=1/1;
 7//1,2,3,16;
 1/18=20,19=15,26=3/3(2);
 2/9=110/2;
 99//99;
 2/9=110/2;
 3/5=16,7=10,11=2,25=1,30=1,71=1,74=-58/1,2,3;
 4/5=5,16=3,69=1/1;
 5/5=2,38=5/2;
 7//1,2,3,16;
 1/18=20,19=15,26=3/3(-5);
 2/9=110/2;
 6/7=2,8=2,9=2,10=2,19=2,28=1/1;
 99/9=1/99;
 ----
 blah
 ----
 Symbolic Z-matrix:
 Charge =  1 Multiplicity = 1
 C                     2.31929   1.63253  -1.05988 
 C                     2.08824   0.73804   0.18531 
 N                     3.40902   0.22244   0.50884 
 C                     4.32583   1.33374   0.26763 
 C                     3.83829   1.92221  -1.05563 
 C                     1.10708  -0.38114  -0.0697 
 C                    -0.20364  -0.30742   0.37116 
 N                    -1.07669  -1.2938    0.10413 
 C                    -0.73605  -2.39116  -0.5851 
 C                     0.56162  -2.53435  -1.04712 
 C                     1.48344  -1.5244   -0.78658 
 C                     3.51284  -0.34296   1.84121 
 H                     1.69163   1.36254   1.01402 
 H                     2.01707   1.11103  -1.97589 
 H                     1.7146    2.54381  -0.99124 
 H                     4.32516   1.41729  -1.89742 
 H                     4.05834   2.99184  -1.1346 
 H                     4.25569   2.08608   1.07961 
 H                     5.36016   0.97203   0.23222 
 H                     2.51742  -1.60817  -1.12112 
 H                    -1.52029  -3.1277   -0.74187 
 H                    -2.06632  -1.20401   0.45731 
 H                    -0.59111   0.53086   0.94684 
 H                     2.83367  -1.1993    1.94802 
 H                     3.27028   0.39676   2.63031 
 H                     4.53448  -0.70331   2.00761 
 H                     0.84067  -3.42743  -1.60135 
 O                    -3.57137  -1.07192   0.96376 
 H                    -3.93824  -1.36658   1.79941 
 H                    -4.30218  -0.64394   0.45459 
 O                    -5.4604    0.08529  -0.48167 
 H                    -5.88303   0.93577  -0.256 
 H                    -6.10974  -0.41417  -0.98135 
 O                    -6.60943   2.50019   0.15955 
 H                    -7.31861   2.63077   0.79457 
 H                    -6.66798   3.23618  -0.45541 
 O                    -6.82349   4.61799  -1.57025 
 H                    -6.21302   5.37416  -1.51496 
 H                    -7.07036   4.61579  -2.51148 
 
 Add virtual bond connecting atoms O28        and H22        Dist= 3.01D+00.
 Add virtual bond connecting atoms O31        and H30        Dist= 3.13D+00.
 Add virtual bond connecting atoms O34        and H32        Dist= 3.35D+00.
 Add virtual bond connecting atoms O37        and H36        Dist= 3.37D+00.

 GradGradGradGradGradGradGradGradGradGradGradGradGradGradGradGradGradGrad
 Berny optimization.
 Initialization pass.
                           ----------------------------
                           !    Initial Parameters    !
                           ! (Angstroms and Degrees)  !
 --------------------------                            --------------------------
 ! Name  Definition              Value          Derivative Info.                !
 --------------------------------------------------------------------------------
 ! R1    R(1,2)                  1.5505         estimate D2E/DX2                !
 ! R2    R(1,5)                  1.5464         estimate D2E/DX2                !
 ! R3    R(1,14)                 1.0965         estimate D2E/DX2                !
 ! R4    R(1,15)                 1.0958         estimate D2E/DX2                !
 ! R5    R(2,3)                  1.4543         estimate D2E/DX2                !
 ! R6    R(2,6)                  1.5101         estimate D2E/DX2                !
 ! R7    R(2,13)                 1.1109         estimate D2E/DX2                !
 ! R8    R(3,4)                  1.4607         estimate D2E/DX2                !
 ! R9    R(3,12)                 1.4511         estimate D2E/DX2                !
 ! R10   R(4,5)                  1.5281         estimate D2E/DX2                !
 ! R11   R(4,18)                 1.1092         estimate D2E/DX2                !
 ! R12   R(4,19)                 1.0963         estimate D2E/DX2                !
 ! R13   R(5,16)                 1.0957         estimate D2E/DX2                !
 ! R14   R(5,17)                 1.0949         estimate D2E/DX2                !
 ! R15   R(6,7)                  1.3848         estimate D2E/DX2                !
 ! R16   R(6,11)                 1.4009         estimate D2E/DX2                !
 ! R17   R(7,8)                  1.344          estimate D2E/DX2                !
 ! R18   R(7,23)                 1.0882         estimate D2E/DX2                !
 ! R19   R(8,9)                  1.3399         estimate D2E/DX2                !
 ! R20   R(8,22)                 1.0546         estimate D2E/DX2                !
 ! R21   R(9,10)                 1.3849         estimate D2E/DX2                !
 ! R22   R(9,21)                 1.0872         estimate D2E/DX2                !
 ! R23   R(10,11)                1.392          estimate D2E/DX2                !
 ! R24   R(10,27)                1.0875         estimate D2E/DX2                !
 ! R25   R(11,20)                1.09           estimate D2E/DX2                !
 ! R26   R(12,24)                1.0982         estimate D2E/DX2                !
 ! R27   R(12,25)                1.1085         estimate D2E/DX2                !
 ! R28   R(12,26)                1.096          estimate D2E/DX2                !
 ! R29   R(22,28)                1.5935         estimate D2E/DX2                !
 ! R30   R(28,29)                0.959          estimate D2E/DX2                !
 ! R31   R(28,30)                0.9882         estimate D2E/DX2                !
 ! R32   R(30,31)                1.6583         estimate D2E/DX2                !
 ! R33   R(31,32)                0.9761         estimate D2E/DX2                !
 ! R34   R(31,33)                0.9596         estimate D2E/DX2                !
 ! R35   R(32,34)                1.7742         estimate D2E/DX2                !
 ! R36   R(34,35)                0.9609         estimate D2E/DX2                !
 ! R37   R(34,36)                0.9609         estimate D2E/DX2                !
 ! R38   R(36,37)                1.7823         estimate D2E/DX2                !
 ! R39   R(37,38)                0.9734         estimate D2E/DX2                !
 ! R40   R(37,39)                0.9731         estimate D2E/DX2                !
 ! A1    A(2,1,5)              104.6107         estimate D2E/DX2                !
 ! A2    A(2,1,14)             110.8201         estimate D2E/DX2                !
 ! A3    A(2,1,15)             110.3176         estimate D2E/DX2                !
 ! A4    A(5,1,14)             111.2308         estimate D2E/DX2                !
 ! A5    A(5,1,15)             112.7122         estimate D2E/DX2                !
 ! A6    A(14,1,15)            107.2016         estimate D2E/DX2                !
 ! A7    A(1,2,3)              104.3507         estimate D2E/DX2                !
 ! A8    A(1,2,6)              112.8791         estimate D2E/DX2                !
 ! A9    A(1,2,13)             109.1471         estimate D2E/DX2                !
 ! A10   A(3,2,6)              111.4015         estimate D2E/DX2                !
 ! A11   A(3,2,13)             110.9524         estimate D2E/DX2                !
 ! A12   A(6,2,13)             108.0985         estimate D2E/DX2                !
 ! A13   A(2,3,4)              105.2812         estimate D2E/DX2                !
 ! A14   A(2,3,12)             114.0404         estimate D2E/DX2                !
 ! A15   A(4,3,12)             113.775          estimate D2E/DX2                !
 ! A16   A(3,4,5)              103.6344         estimate D2E/DX2                !
 ! A17   A(3,4,18)             110.8218         estimate D2E/DX2                !
 ! A18   A(3,4,19)             110.2714         estimate D2E/DX2                !
 ! A19   A(5,4,18)             110.6435         estimate D2E/DX2                !
 ! A20   A(5,4,19)             113.5848         estimate D2E/DX2                !
 ! A21   A(18,4,19)            107.8847         estimate D2E/DX2                !
 ! A22   A(1,5,4)              104.1019         estimate D2E/DX2                !
 ! A23   A(1,5,16)             110.3675         estimate D2E/DX2                !
 ! A24   A(1,5,17)             112.3481         estimate D2E/DX2                !
 ! A25   A(4,5,16)             110.2459         estimate D2E/DX2                !
 ! A26   A(4,5,17)             111.9967         estimate D2E/DX2                !
 ! A27   A(16,5,17)            107.7865         estimate D2E/DX2                !
 ! A28   A(2,6,7)              121.4501         estimate D2E/DX2                !
 ! A29   A(2,6,11)             121.1106         estimate D2E/DX2                !
 ! A30   A(7,6,11)             117.4273         estimate D2E/DX2                !
 ! A31   A(6,7,8)              120.8294         estimate D2E/DX2                !
 ! A32   A(6,7,23)             123.1217         estimate D2E/DX2                !
 ! A33   A(8,7,23)             116.0486         estimate D2E/DX2                !
 ! A34   A(7,8,9)              122.5554         estimate D2E/DX2                !
 ! A35   A(7,8,22)             118.7207         estimate D2E/DX2                !
 ! A36   A(9,8,22)             118.7221         estimate D2E/DX2                !
 ! A37   A(8,9,10)             119.6369         estimate D2E/DX2                !
 ! A38   A(8,9,21)             116.4626         estimate D2E/DX2                !
 ! A39   A(10,9,21)            123.8999         estimate D2E/DX2                !
 ! A40   A(9,10,11)            118.8864         estimate D2E/DX2                !
 ! A41   A(9,10,27)            119.6939         estimate D2E/DX2                !
 ! A42   A(11,10,27)           121.4196         estimate D2E/DX2                !
 ! A43   A(6,11,10)            120.6612         estimate D2E/DX2                !
 ! A44   A(6,11,20)            118.3353         estimate D2E/DX2                !
 ! A45   A(10,11,20)           120.9976         estimate D2E/DX2                !
 ! A46   A(3,12,24)            110.4194         estimate D2E/DX2                !
 ! A47   A(3,12,25)            112.2079         estimate D2E/DX2                !
 ! A48   A(3,12,26)            109.5231         estimate D2E/DX2                !
 ! A49   A(24,12,25)           108.4092         estimate D2E/DX2                !
 ! A50   A(24,12,26)           107.7787         estimate D2E/DX2                !
 ! A51   A(25,12,26)           108.3787         estimate D2E/DX2                !
 ! A52   A(22,28,29)           127.792          estimate D2E/DX2                !
 ! A53   A(22,28,30)           124.7954         estimate D2E/DX2                !
 ! A54   A(29,28,30)           107.4056         estimate D2E/DX2                !
 ! A55   A(30,31,32)           123.7119         estimate D2E/DX2                !
 ! A56   A(30,31,33)           122.531          estimate D2E/DX2                !
 ! A57   A(32,31,33)           106.314          estimate D2E/DX2                !
 ! A58   A(32,34,35)           125.2261         estimate D2E/DX2                !
 ! A59   A(32,34,36)           123.3975         estimate D2E/DX2                !
 ! A60   A(35,34,36)           105.8969         estimate D2E/DX2                !
 ! A61   A(36,37,38)           120.7993         estimate D2E/DX2                !
 ! A62   A(36,37,39)           128.7147         estimate D2E/DX2                !
 ! A63   A(38,37,39)           102.4628         estimate D2E/DX2                !
 ! A64   L(8,22,28,21,-1)      179.4078         estimate D2E/DX2                !
 ! A65   L(28,30,31,14,-1)     176.5742         estimate D2E/DX2                !
 ! A66   L(31,32,34,1,-1)      178.5269         estimate D2E/DX2                !
 ! A67   L(34,36,37,1,-1)      181.6527         estimate D2E/DX2                !
 ! A68   L(8,22,28,21,-2)      180.9699         estimate D2E/DX2                !
 ! A69   L(28,30,31,14,-2)     178.5076         estimate D2E/DX2                !
 ! A70   L(31,32,34,1,-2)      180.2133         estimate D2E/DX2                !
 ! A71   L(34,36,37,1,-2)      180.7293         estimate D2E/DX2                !
 ! D1    D(5,1,2,3)            -18.5371         estimate D2E/DX2                !
 ! D2    D(5,1,2,6)           -139.6533         estimate D2E/DX2                !
 ! D3    D(5,1,2,13)           100.1191         estimate D2E/DX2                !
 ! D4    D(14,1,2,3)           101.4297         estimate D2E/DX2                !
 ! D5    D(14,1,2,6)           -19.6865         estimate D2E/DX2                !
 ! D6    D(14,1,2,13)         -139.9141         estimate D2E/DX2                !
 ! D7    D(15,1,2,3)          -140.0034         estimate D2E/DX2                !
 ! D8    D(15,1,2,6)            98.8804         estimate D2E/DX2                !
 ! D9    D(15,1,2,13)          -21.3473         estimate D2E/DX2                !
 ! D10   D(2,1,5,4)             -6.9834         estimate D2E/DX2                !
 ! D11   D(2,1,5,16)           111.3019         estimate D2E/DX2                !
 ! D12   D(2,1,5,17)          -128.3715         estimate D2E/DX2                !
 ! D13   D(14,1,5,4)          -126.6749         estimate D2E/DX2                !
 ! D14   D(14,1,5,16)           -8.3897         estimate D2E/DX2                !
 ! D15   D(14,1,5,17)          111.9369         estimate D2E/DX2                !
 ! D16   D(15,1,5,4)           112.8911         estimate D2E/DX2                !
 ! D17   D(15,1,5,16)         -128.8236         estimate D2E/DX2                !
 ! D18   D(15,1,5,17)           -8.497          estimate D2E/DX2                !
 ! D19   D(1,2,3,4)             38.5986         estimate D2E/DX2                !
 ! D20   D(1,2,3,12)           164.0134         estimate D2E/DX2                !
 ! D21   D(6,2,3,4)            160.6919         estimate D2E/DX2                !
 ! D22   D(6,2,3,12)           -73.8933         estimate D2E/DX2                !
 ! D23   D(13,2,3,4)           -78.8203         estimate D2E/DX2                !
 ! D24   D(13,2,3,12)           46.5945         estimate D2E/DX2                !
 ! D25   D(1,2,6,7)           -101.9803         estimate D2E/DX2                !
 ! D26   D(1,2,6,11)            76.7296         estimate D2E/DX2                !
 ! D27   D(3,2,6,7)            140.9979         estimate D2E/DX2                !
 ! D28   D(3,2,6,11)           -40.2923         estimate D2E/DX2                !
 ! D29   D(13,2,6,7)            18.8466         estimate D2E/DX2                !
 ! D30   D(13,2,6,11)         -162.4435         estimate D2E/DX2                !
 ! D31   D(2,3,4,5)            -43.4055         estimate D2E/DX2                !
 ! D32   D(2,3,4,18)            75.304          estimate D2E/DX2                !
 ! D33   D(2,3,4,19)          -165.3083         estimate D2E/DX2                !
 ! D34   D(12,3,4,5)          -168.9852         estimate D2E/DX2                !
 ! D35   D(12,3,4,18)          -50.2757         estimate D2E/DX2                !
 ! D36   D(12,3,4,19)           69.1119         estimate D2E/DX2                !
 ! D37   D(2,3,12,24)           61.7037         estimate D2E/DX2                !
 ! D38   D(2,3,12,25)          -59.3579         estimate D2E/DX2                !
 ! D39   D(2,3,12,26)         -179.7616         estimate D2E/DX2                !
 ! D40   D(4,3,12,24)         -177.5084         estimate D2E/DX2                !
 ! D41   D(4,3,12,25)           61.4299         estimate D2E/DX2                !
 ! D42   D(4,3,12,26)          -58.9738         estimate D2E/DX2                !
 ! D43   D(3,4,5,1)             30.0285         estimate D2E/DX2                !
 ! D44   D(3,4,5,16)           -88.3403         estimate D2E/DX2                !
 ! D45   D(3,4,5,17)           151.6502         estimate D2E/DX2                !
 ! D46   D(18,4,5,1)           -88.8039         estimate D2E/DX2                !
 ! D47   D(18,4,5,16)          152.8273         estimate D2E/DX2                !
 ! D48   D(18,4,5,17)           32.8178         estimate D2E/DX2                !
 ! D49   D(19,4,5,1)           149.6919         estimate D2E/DX2                !
 ! D50   D(19,4,5,16)           31.3232         estimate D2E/DX2                !
 ! D51   D(19,4,5,17)          -88.6864         estimate D2E/DX2                !
 ! D52   D(2,6,7,8)            178.0786         estimate D2E/DX2                !
 ! D53   D(2,6,7,23)            -2.0947         estimate D2E/DX2                !
 ! D54   D(11,6,7,8)            -0.6769         estimate D2E/DX2                !
 ! D55   D(11,6,7,23)          179.1498         estimate D2E/DX2                !
 ! D56   D(2,6,11,10)         -178.268          estimate D2E/DX2                !
 ! D57   D(2,6,11,20)            2.6029         estimate D2E/DX2                !
 ! D58   D(7,6,11,10)            0.492          estimate D2E/DX2                !
 ! D59   D(7,6,11,20)         -178.6371         estimate D2E/DX2                !
 ! D60   D(6,7,8,9)              0.395          estimate D2E/DX2                !
 ! D61   D(6,7,8,22)           179.9036         estimate D2E/DX2                !
 ! D62   D(23,7,8,9)          -179.4435         estimate D2E/DX2                !
 ! D63   D(23,7,8,22)            0.0652         estimate D2E/DX2                !
 ! D64   D(7,8,9,10)             0.1019         estimate D2E/DX2                !
 ! D65   D(7,8,9,21)           179.8461         estimate D2E/DX2                !
 ! D66   D(22,8,9,10)         -179.4068         estimate D2E/DX2                !
 ! D67   D(22,8,9,21)            0.3375         estimate D2E/DX2                !
 ! D68   D(7,8,28,29)          -90.0627         estimate D2E/DX2                !
 ! D69   D(7,8,28,30)           89.2023         estimate D2E/DX2                !
 ! D70   D(9,8,28,29)           90.0347         estimate D2E/DX2                !
 ! D71   D(9,8,28,30)          -90.7003         estimate D2E/DX2                !
 ! D72   D(8,9,10,11)           -0.2806         estimate D2E/DX2                !
 ! D73   D(8,9,10,27)          179.626          estimate D2E/DX2                !
 ! D74   D(21,9,10,11)         179.9952         estimate D2E/DX2                !
 ! D75   D(21,9,10,27)          -0.0982         estimate D2E/DX2                !
 ! D76   D(9,10,11,6)           -0.0251         estimate D2E/DX2                !
 ! D77   D(9,10,11,20)         179.0807         estimate D2E/DX2                !
 ! D78   D(27,10,11,6)        -179.93           estimate D2E/DX2                !
 ! D79   D(27,10,11,20)         -0.8242         estimate D2E/DX2                !
 ! D80   D(22,28,31,32)       -111.1827         estimate D2E/DX2                !
 ! D81   D(22,28,31,33)        101.4069         estimate D2E/DX2                !
 ! D82   D(29,28,31,32)         68.1229         estimate D2E/DX2                !
 ! D83   D(29,28,31,33)        -79.2875         estimate D2E/DX2                !
 ! D84   D(30,31,34,35)        -80.2193         estimate D2E/DX2                !
 ! D85   D(30,31,34,36)        129.0292         estimate D2E/DX2                !
 ! D86   D(33,31,34,35)         70.7129         estimate D2E/DX2                !
 ! D87   D(33,31,34,36)        -80.0386         estimate D2E/DX2                !
 ! D88   D(32,34,37,38)       -102.2854         estimate D2E/DX2                !
 ! D89   D(32,34,37,39)         41.6679         estimate D2E/DX2                !
 ! D90   D(35,34,37,38)        103.1656         estimate D2E/DX2                !
 ! D91   D(35,34,37,39)       -112.8811         estimate D2E/DX2                !
 --------------------------------------------------------------------------------
 Trust Radius=3.00D-01 FncErr=1.00D-07 GrdErr=1.00D-06 EigMax=2.50D+02 EigMin=1.00D-04
 Number of steps in this run=    212 maximum allowed number of steps=    234.
 GradGradGradGradGradGradGradGradGradGradGradGradGradGradGradGradGradGrad

                          Input orientation:                          
 ---------------------------------------------------------------------
 Center     Atomic      Atomic             Coordinates (Angstroms)
 Number     Number       Type             X           Y           Z
 ---------------------------------------------------------------------
      1          6           0        2.319292    1.632534   -1.059877
      2          6           0        2.088235    0.738044    0.185305
      3          7           0        3.409023    0.222442    0.508838
      4          6           0        4.325830    1.333743    0.267632
      5          6           0        3.838286    1.922211   -1.055629
      6          6           0        1.107078   -0.381139   -0.069703
      7          6           0       -0.203636   -0.307418    0.371160
      8          7           0       -1.076686   -1.293796    0.104129
      9          6           0       -0.736049   -2.391165   -0.585097
     10          6           0        0.561622   -2.534345   -1.047116
     11          6           0        1.483444   -1.524401   -0.786576
     12          6           0        3.512840   -0.342960    1.841212
     13          1           0        1.691625    1.362538    1.014020
     14          1           0        2.017065    1.111030   -1.975894
     15          1           0        1.714596    2.543811   -0.991239
     16          1           0        4.325159    1.417289   -1.897419
     17          1           0        4.058338    2.991838   -1.134596
     18          1           0        4.255686    2.086081    1.079611
     19          1           0        5.360155    0.972026    0.232223
     20          1           0        2.517415   -1.608173   -1.121115
     21          1           0       -1.520290   -3.127698   -0.741869
     22          1           0       -2.066323   -1.204011    0.457305
     23          1           0       -0.591113    0.530855    0.946835
     24          1           0        2.833666   -1.199296    1.948023
     25          1           0        3.270281    0.396758    2.630314
     26          1           0        4.534484   -0.703307    2.007609
     27          1           0        0.840669   -3.427429   -1.601345
     28          8           0       -3.571373   -1.071919    0.963763
     29          1           0       -3.938244   -1.366582    1.799411
     30          1           0       -4.302180   -0.643939    0.454591
     31          8           0       -5.460402    0.085289   -0.481670
     32          1           0       -5.883028    0.935774   -0.256004
     33          1           0       -6.109743   -0.414171   -0.981352
     34          8           0       -6.609428    2.500194    0.159545
     35          1           0       -7.318610    2.630766    0.794569
     36          1           0       -6.667982    3.236175   -0.455408
     37          8           0       -6.823489    4.617987   -1.570254
     38          1           0       -6.213016    5.374159   -1.514964
     39          1           0       -7.070363    4.615794   -2.511476
 ---------------------------------------------------------------------
                    Distance matrix (angstroms):
                    1          2          3          4          5
     1  C    0.000000
     2  C    1.550477   0.000000
     3  N    2.374182   1.454304   0.000000
     4  C    2.424407   2.316995   1.460721   0.000000
     5  C    1.546374   2.450479   2.349689   1.528075   0.000000
     6  C    2.550448   1.510056   2.449075   3.662647   3.706342
     7  C    3.489477   2.525907   3.653904   4.818733   4.831574
     8  N    4.631521   3.761873   4.752300   6.009815   5.987043
     9  C    5.074513   4.285096   5.020882   6.342295   6.304852
    10  C    4.522438   3.815487   4.257765   5.555171   5.531500
    11  C    3.277129   2.535544   2.904722   4.166473   4.182918
    12  C    3.707216   2.437231   1.451095   2.438942   3.691694
    13  H    2.183555   1.110883   2.122377   2.738058   3.033947
    14  H    1.096538   2.194303   2.983459   3.226981   2.195848
    15  H    1.095808   2.187386   3.241923   3.141268   2.213728
    16  H    2.184333   3.130965   2.838492   2.166662   1.095720
    17  H    2.208522   3.271549   3.285124   2.187938   1.094879
    18  H    2.921085   2.704594   2.125034   1.109163   2.181817
    19  H    3.369368   3.280611   2.108390   1.096322   2.208506
    20  H    3.247335   2.719497   2.608230   3.722076   3.769960
    21  H    6.123996   5.368898   6.089814   7.422982   7.369828
    22  H    5.438883   4.594117   5.658342   6.880101   6.850302
    23  H    3.702843   2.793163   4.035845   5.028148   5.056215
    24  H    4.163088   2.723257   2.103242   3.386230   4.446908
    25  H    4.006124   2.737111   2.133142   2.752161   4.029369
    26  H    4.446650   3.373784   2.090452   2.687123   4.094077
    27  H    5.299315   4.701032   4.936686   6.189360   6.156473
    28  O    6.790370   5.992756   7.113948   8.284783   8.242925
    29  H    7.505130   6.584318   7.627117   8.827968   8.913015
    30  H    7.163786   6.543684   7.759910   8.853741   8.667934
    31  O    7.953108   7.606107   8.925616   9.893959   9.495752
    32  H    8.271018   7.985918   9.350724  10.230022   9.803897
    33  H    8.674318   8.360355   9.655716  10.654405  10.218976
    34  O    9.053279   8.874411  10.280054  10.997825  10.534013
    35  H    9.865323   9.614694  10.998353  11.728295  11.331443
    36  H    9.149215   9.128116  10.562120  11.180605  10.605114
    37  O    9.631400   9.876982  11.329066  11.767387  11.009337
    38  H    9.327762   9.658946  11.100432  11.426718  10.637462
    39  H    9.958544  10.304829  11.757609  12.180662  11.330203
                    6          7          8          9         10
     6  C    0.000000
     7  C    1.384834   0.000000
     8  N    2.373180   1.344047   0.000000
     9  C    2.775419   2.353698   1.339882   0.000000
    10  C    2.426758   2.748878   2.355500   1.384887   0.000000
    11  C    1.400930   2.380680   2.720441   2.391239   1.391986
    12  C    3.072579   3.996812   4.998529   5.304260   4.674858
    13  H    2.134610   2.606537   3.943039   4.747743   4.550921
    14  H    2.586157   3.528763   4.436325   4.666832   4.033572
    15  H    3.126282   3.696654   4.870145   5.524907   5.207700
    16  H    4.114722   5.350799   6.366797   6.468565   5.522919
    17  H    4.606616   5.596143   6.802174   7.229441   6.540136
    18  H    4.161950   5.110410   6.388218   6.909009   6.286288
    19  H    4.473352   5.710696   6.825194   7.010190   6.079249
    20  H    2.144791   3.364962   3.810199   3.389015   2.165271
    21  H    3.859852   3.305509   2.067775   1.087241   2.186230
    22  H    3.320441   2.069034   1.054598   2.065325   3.307441
    23  H    2.179205   1.088229   2.067676   3.302427   3.834070
    24  H    2.778796   3.536544   4.324318   4.536531   3.989411
    25  H    3.546077   4.203301   5.304310   5.844832   5.426941
    26  H    4.020713   5.028367   5.954590   6.111424   5.335511
    27  H    3.420056   3.836120   3.337257   2.143045   1.087491
    28  O    4.840778   3.503897   2.647955   3.489762   4.823274
    29  H    5.469914   4.136306   3.326829   4.121857   5.451163
    30  H    5.440958   4.113182   3.308920   4.105002   5.430039
    31  O    6.596898   5.339956   4.632710   5.335076   6.591433
    32  H    7.115515   5.847594   5.310518   6.137444   7.362139
    33  H    7.274249   6.059933   5.223377   5.739522   7.000470
    34  O    8.240091   6.997259   6.708850   7.679614   8.844579
    35  H    8.989480   7.709413   7.405438   8.393651   9.600429
    36  H    8.584013   7.418088   7.217777   8.177506   9.269099
    37  O    9.494041   8.476506   8.412995   9.335720  10.294143
    38  H    9.423163   8.482359   8.571171   9.547883  10.423964
    39  H    9.889496   8.927460   8.814125   9.640122  10.560115
                   11         12         13         14         15
    11  C    0.000000
    12  C    3.524134   0.000000
    13  H    3.408798   2.628649   0.000000
    14  H    2.940191   4.349911   3.018071   0.000000
    15  H    4.079910   4.426049   2.327444   1.764623   0.000000
    16  H    4.238261   4.211378   3.926191   2.329646   2.984167
    17  H    5.210337   4.502652   3.587827   2.900348   2.390482
    18  H    4.919711   2.651810   2.665000   3.911299   3.309845
    19  H    4.722180   2.780397   3.771183   4.008909   4.154211
    20  H    1.089968   3.371501   3.750447   2.893970   4.230881
    21  H    3.405140   6.305511   5.793252   5.657076   6.533964
    22  H    3.775015   5.812372   4.584679   5.287148   5.517227
    23  H    3.395965   4.290209   2.430453   3.959992   3.622764
    24  H    3.067055   1.098179   2.956284   4.626183   4.889011
    25  H    4.307990   1.108467   2.457090   4.826788   4.488389
    26  H    4.217880   1.096036   3.651956   5.049506   5.242960
    27  H    2.167608   5.339068   5.523409   4.703382   6.065615
    28  O    5.368389   7.175470   5.798987   6.681129   6.696044
    29  H    6.008905   7.521184   6.305582   7.473767   7.418457
    30  H    5.982404   7.942786   6.345440   6.994286   6.960874
    31  O    7.134498   9.278914   7.417543   7.693982   7.601617
    32  H    7.784528   9.711633   7.692234   8.087039   7.800657
    33  H    7.676395  10.028262   8.246184   8.328287   8.364809
    34  O    9.087744  10.647621   8.422106   8.994791   8.403308
    35  H    9.861115  11.280905   9.101697   9.855957   9.208446
    36  H    9.445555  11.033304   8.692109   9.069628   8.428173
    37  O   10.360898  11.961973   9.475420   9.519385   8.805473
    38  H   10.361282  11.770371   9.218037   9.280138   8.433990
    39  H   10.669812  12.471541   9.989256   9.754567   9.153127
                   16         17         18         19         20
    16  H    0.000000
    17  H    1.769830   0.000000
    18  H    3.052018   2.400428   0.000000
    19  H    2.409326   2.764518   1.782985   0.000000
    20  H    3.608879   4.851260   4.638135   4.070641   0.000000
    21  H    7.494096   8.289997   7.991444   8.068278   4.330802
    22  H    7.298423   7.592810   7.154004   7.741988   4.864711
    23  H    5.748502   5.657401   5.091937   6.010232   4.302883
    24  H    4.884516   5.344901   3.683746   3.747233   3.112363
    25  H    4.759687   4.640045   2.495900   3.232545   4.319696
    26  H    4.448594   4.873835   2.952896   2.576911   3.830961
    27  H    5.975000   7.195710   7.017739   6.568328   2.520276
    28  O    8.760008   8.895489   8.440926   9.191575   6.458144
    29  H    9.471025   9.568153   8.920733   9.715214   7.089667
    30  H    9.176687   9.254331   9.004484   9.799056   7.065371
    31  O    9.976762   9.974004  10.042068  10.880276   8.180603
    32  H   10.350516  10.189705  10.290801  11.253837   8.819724
    33  H   10.633936  10.724470  10.860062  11.616922   8.710513
    34  O   11.178952  10.757218  10.911861  12.066959  10.090492
    35  H   12.012355  11.544999  11.590611  12.799169  10.880526
    36  H   11.235519  10.750578  11.090785  12.258682  10.405883
    37  O   11.603614  11.011281  11.669638  12.844576  11.234735
    38  H   11.263047  10.550869  11.275504  12.504788  11.186085
    39  H   11.851811  11.330535  12.148035  13.240948  11.515049
                   21         22         23         24         25
    21  H    0.000000
    22  H    2.331682   0.000000
    23  H    4.135227   2.329301   0.000000
    24  H    5.469112   5.121734   3.965465   0.000000
    25  H    6.836884   5.980282   4.214552   1.789844   0.000000
    26  H    7.077965   6.798882   5.377745   1.772664   1.787768
    27  H    2.530349   4.199075   4.920491   4.640542   6.199545
    28  O    3.367840   1.593463   3.383950   6.481475   7.193235
    29  H    3.925065   2.309062   3.940868   6.775606   7.467436
    30  H    3.916566   2.304939   3.923578   7.311570   7.947263
    31  O    5.090724   3.750165   5.094029   8.737570   9.273957
    32  H    5.981752   4.433365   5.441980   9.241050   9.612723
    33  H    5.337008   4.363809   5.921677   9.443634  10.083977
    34  O    7.641010   5.869378   6.381084  10.298393  10.398932
    35  H    8.315111   6.511972   7.049257  10.911853  10.976583
    36  H    8.190218   6.459378   6.798042  10.757844  10.786707
    37  O    9.423682   7.786994   7.866568  11.810152  11.719545
    38  H    9.741710   8.022295   7.818173  11.706624  11.484370
    39  H    9.690020   8.229472   8.404006  12.320398  12.295007
                   26         27         28         29         30
    26  H    0.000000
    27  H    5.838635   0.000000
    28  O    8.181101   5.620883   0.000000
    29  H    8.501200   6.216932   0.959025   0.000000
    30  H    8.972292   6.198676   0.988181   1.569460   0.000000
    31  O   10.330350   7.300435   2.645154   3.102938   1.658263
    32  H   10.785874   8.127459   3.295817   3.647980   2.345105
    33  H   11.059704   7.600812   3.264878   3.654468   2.319916
    34  O   11.741573   9.682014   4.757787   4.977584   3.911012
    35  H   12.372685  10.441071   5.270701   5.330607   4.465213
    36  H   12.127704  10.104288   5.492059   5.806983   4.634695
    37  O   13.043037  11.111661   7.026559   7.449453   6.176152
    38  H   12.839504  11.279622   7.394206   7.848392   6.614222
    39  H   13.542062  11.318401   7.527968   8.011413   6.642679
                   31         32         33         34         35
    31  O    0.000000
    32  H    0.976147   0.000000
    33  H    0.959576   1.549155   0.000000
    34  O    2.750124   1.774189   3.169362   0.000000
    35  H    3.400173   2.457152   3.726513   0.960856   0.000000
    36  H    3.374466   2.438803   3.730050   0.960866   1.533714
    37  O    4.856786   4.021245   5.116527   2.742822   3.128351
    38  H    5.441164   4.625271   5.813791   3.349745   3.752663
    39  H    5.218962   4.476546   5.344588   3.438398   3.864181
                   36         37         38         39
    36  H    0.000000
    37  O    1.782265   0.000000
    38  H    2.429120   0.973412   0.000000
    39  H    2.508521   0.973063   1.517629   0.000000
 Stoichiometry    C10H23N2O4(1+)
 Framework group  C1[X(C10H23N2O4)]
 Deg. of freedom   111
 Full point group                 C1      NOp   1
 Largest Abelian subgroup         C1      NOp   1
 Largest concise Abelian subgroup C1      NOp   1
                         Standard orientation:                         
 ---------------------------------------------------------------------
 Center     Atomic      Atomic             Coordinates (Angstroms)
 Number     Number       Type             X           Y           Z
 ---------------------------------------------------------------------
      1          6           0        2.477713    1.947311   -0.801419
      2          6           0        2.504730    0.846099    0.289718
      3          7           0        3.918543    0.566929    0.485163
      4          6           0        4.582864    1.864942    0.398291
      5          6           0        3.907711    2.535835   -0.797152
      6          6           0        1.747967   -0.397303   -0.112188
      7          6           0        0.478391   -0.659528    0.374825
      8          7           0       -0.199357   -1.750659   -0.020843
      9          6           0        0.305991   -2.638185   -0.888141
     10          6           0        1.575093   -2.442587   -1.406824
     11          6           0        2.295546   -1.317756   -1.015256
     12          6           0        4.214224   -0.161090    1.705097
     13          1           0        2.046003    1.243675    1.220075
     14          1           0        2.226908    1.520455   -1.779829
     15          1           0        1.711639    2.695330   -0.568192
     16          1           0        4.430519    2.274260   -1.723895
     17          1           0        3.908487    3.627185   -0.709314
     18          1           0        4.417518    2.455122    1.322732
     19          1           0        5.663746    1.730834    0.273275
     20          1           0        3.302913   -1.137685   -1.390511
     21          1           0       -0.326923   -3.486325   -1.137483
     22          1           0       -1.163351   -1.918725    0.372405
     23          1           0       -0.029111   -0.014905    1.089769
     24          1           0        3.724084   -1.143749    1.693217
     25          1           0        3.881195    0.385286    2.610230
     26          1           0        5.295041   -0.327085    1.779759
     27          1           0        1.988568   -3.165538   -2.106122
     28          8           0       -2.630447   -2.173977    0.939503
     29          1           0       -2.879494   -2.660463    1.727560
     30          1           0       -3.461326   -1.831373    0.528693
     31          8           0       -4.796213   -1.219496   -0.241710
     32          1           0       -5.362381   -0.517080    0.131021
     33          1           0       -5.365007   -1.758833   -0.795221
     34          8           0       -6.353882    0.785279    0.815516
     35          1           0       -7.033799    0.670928    1.484756
     36          1           0       -6.593862    1.578597    0.329389
     37          8           0       -7.086540    3.052759   -0.542725
     38          1           0       -6.633869    3.899953   -0.384986
     39          1           0       -7.386530    3.143295   -1.463953
 ---------------------------------------------------------------------
 Rotational constants (GHZ):           0.5337242           0.1368173           0.1177914
 Standard basis: Aug-CC-pVDZ (5D, 7F)
 There are   607 symmetry adapted cartesian basis functions of A   symmetry.
 There are   575 symmetry adapted basis functions of A   symmetry.
   575 basis functions,   941 primitive gaussians,   607 cartesian basis functions
    64 alpha electrons       64 beta electrons
       nuclear repulsion energy      1093.9172228769 Hartrees.
 NAtoms=   39 NActive=   39 NUniq=   39 SFac= 1.00D+00 NAtFMM=   60 NAOKFM=F Big=F
 Integral buffers will be    131072 words long.
 Raffenetti 2 integral format.
 Two-electron integral symmetry is turned on.
 Nuclear repulsion after empirical dispersion term =     1093.8937356447 Hartrees.
 One-electron integrals computed using PRISM.
 NBasis=   575 RedAO= T EigKep=  2.36D-06  NBF=   575
 NBsUse=   575 1.00D-06 EigRej= -1.00D+00 NBFU=   575
 ExpMin= 2.97D-02 ExpMax= 1.17D+04 ExpMxC= 4.01D+02 IAcc=3 IRadAn=         5 AccDes= 0.00D+00
 Harris functional with IExCor= 4639 and IRadAn=       5 diagonalized for initial guess.
 HarFok:  IExCor= 4639 AccDes= 0.00D+00 IRadAn=         5 IDoV= 1 UseB2=F ITyADJ=14
 ICtDFT=  3500011 ScaDFX=  1.000000  1.000000  1.000000  1.000000
 FoFCou: FMM=F IPFlag=           0 FMFlag=      100000 FMFlg1=           0
         NFxFlg=           0 DoJE=T BraDBF=F KetDBF=T FulRan=T
         wScrn=  0.000000 ICntrl=       500 IOpCl=  0 I1Cent=   200000004 NGrid=           0
         NMat0=    1 NMatS0=      1 NMatT0=    0 NMatD0=    1 NMtDS0=    0 NMtDT0=    0
 Petite list used in FoFCou.
 Requested convergence on RMS density matrix=1.00D-08 within 128 cycles.
 Requested convergence on MAX density matrix=1.00D-06.
 Requested convergence on             energy=1.00D-06.
 No special actions if energy rises.
 SCF Done:  E(RwB97XD) =  -805.020791220     A.U. after   14 cycles
            NFock= 14  Conv=0.73D-08     -V/T= 2.0063

 **********************************************************************

            Population analysis using the SCF density.

 **********************************************************************

 Orbital symmetries:
       Occupied  (A) (A) (A) (A) (A) (A) (A) (A) (A) (A) (A) (A)
                 (A) (A) (A) (A) (A) (A) (A) (A) (A) (A) (A) (A)
                 (A) (A) (A) (A) (A) (A) (A) (A) (A) (A) (A) (A)
                 (A) (A) (A) (A) (A) (A) (A) (A) (A) (A) (A) (A)
                 (A) (A) (A) (A) (A) (A) (A) (A) (A) (A) (A) (A)
                 (A) (A) (A) (A)
       Virtual   (A) (A) (A) (A) (A) (A) (A) (A) (A) (A) (A) (A)
                 (A) (A) (A) (A) (A) (A) (A) (A) (A) (A) (A) (A)
                 (A) (A) (A) (A) (A) (A) (A) (A) (A) (A) (A) (A)
                 (A) (A) (A) (A) (A) (A) (A) (A) (A) (A) (A) (A)
                 (A) (A) (A) (A) (A) (A) (A) (A) (A) (A) (A) (A)
                 (A) (A) (A) (A) (A) (A) (A) (A) (A) (A) (A) (A)
                 (A) (A) (A) (A) (A) (A) (A) (A) (A) (A) (A) (A)
                 (A) (A) (A) (A) (A) (A) (A) (A) (A) (A) (A) (A)
                 (A) (A) (A) (A) (A) (A) (A) (A) (A) (A) (A) (A)
                 (A) (A) (A) (A) (A) (A) (A) (A) (A) (A) (A) (A)
                 (A) (A) (A) (A) (A) (A) (A) (A) (A) (A) (A) (A)
                 (A) (A) (A) (A) (A) (A) (A) (A) (A) (A) (A) (A)
                 (A) (A) (A) (A) (A) (A) (A) (A) (A) (A) (A) (A)
                 (A) (A) (A) (A) (A) (A) (A) (A) (A) (A) (A) (A)
                 (A) (A) (A) (A) (A) (A) (A) (A) (A) (A) (A) (A)
                 (A) (A) (A) (A) (A) (A) (A) (A) (A) (A) (A) (A)
                 (A) (A) (A) (A) (A) (A) (A) (A) (A) (A) (A) (A)
                 (A) (A) (A) (A) (A) (A) (A) (A) (A) (A) (A) (A)
                 (A) (A) (A) (A) (A) (A) (A) (A) (A) (A) (A) (A)
                 (A) (A) (A) (A) (A) (A) (A) (A) (A) (A) (A) (A)
                 (A) (A) (A) (A) (A) (A) (A) (A) (A) (A) (A) (A)
                 (A) (A) (A) (A) (A) (A) (A) (A) (A) (A) (A) (A)
                 (A) (A) (A) (A) (A) (A) (A) (A) (A) (A) (A) (A)
                 (A) (A) (A) (A) (A) (A) (A) (A) (A) (A) (A) (A)
                 (A) (A) (A) (A) (A) (A) (A) (A) (A) (A) (A) (A)
                 (A) (A) (A) (A) (A) (A) (A) (A) (A) (A) (A) (A)
                 (A) (A) (A) (A) (A) (A) (A) (A) (A) (A) (A) (A)
                 (A) (A) (A) (A) (A) (A) (A) (A) (A) (A) (A) (A)
                 (A) (A) (A) (A) (A) (A) (A) (A) (A) (A) (A) (A)
                 (A) (A) (A) (A) (A) (A) (A) (A) (A) (A) (A) (A)
                 (A) (A) (A) (A) (A) (A) (A) (A) (A) (A) (A) (A)
                 (A) (A) (A) (A) (A) (A) (A) (A) (A) (A) (A) (A)
                 (A) (A) (A) (A) (A) (A) (A) (A) (A) (A) (A) (A)
                 (A) (A) (A) (A) (A) (A) (A) (A) (A) (A) (A) (A)
                 (A) (A) (A) (A) (A) (A) (A) (A) (A) (A) (A) (A)
                 (A) (A) (A) (A) (A) (A) (A) (A) (A) (A) (A) (A)
                 (A) (A) (A) (A) (A) (A) (A) (A) (A) (A) (A) (A)
                 (A) (A) (A) (A) (A) (A) (A) (A) (A) (A) (A) (A)
                 (A) (A) (A) (A) (A) (A) (A) (A) (A) (A) (A) (A)
                 (A) (A) (A) (A) (A) (A) (A) (A) (A) (A) (A) (A)
                 (A) (A) (A) (A) (A) (A) (A) (A) (A) (A) (A) (A)
                 (A) (A) (A) (A) (A) (A) (A) (A) (A) (A) (A) (A)
                 (A) (A) (A) (A) (A) (A) (A)
 The electronic state is 1-A.
 Alpha  occ. eigenvalues --  -19.38986 -19.38632 -19.36901 -19.35899 -14.66864
 Alpha  occ. eigenvalues --  -14.54659 -10.50381 -10.50024 -10.46565 -10.46160
 Alpha  occ. eigenvalues --  -10.46063 -10.44610 -10.40939 -10.40922 -10.40039
 Alpha  occ. eigenvalues --  -10.38661  -1.25198  -1.23121  -1.22816  -1.21217
 Alpha  occ. eigenvalues --   -1.19992  -1.15166  -1.07134  -1.03877  -0.98530
 Alpha  occ. eigenvalues --   -0.94420  -0.89710  -0.88143  -0.86952  -0.82001
 Alpha  occ. eigenvalues --   -0.77905  -0.76672  -0.74405  -0.74130  -0.72742
 Alpha  occ. eigenvalues --   -0.72406  -0.72283  -0.71693  -0.69980  -0.68124
 Alpha  occ. eigenvalues --   -0.67873  -0.67048  -0.63954  -0.62908  -0.62562
 Alpha  occ. eigenvalues --   -0.61809  -0.61327  -0.59649  -0.59148  -0.57573
 Alpha  occ. eigenvalues --   -0.56511  -0.55586  -0.55139  -0.54595  -0.53760
 Alpha  occ. eigenvalues --   -0.52510  -0.52100  -0.51861  -0.51624  -0.50447
 Alpha  occ. eigenvalues --   -0.50250  -0.49427  -0.48288  -0.40720
 Alpha virt. eigenvalues --   -0.13310  -0.09810  -0.06064  -0.04835  -0.04247
 Alpha virt. eigenvalues --   -0.04165  -0.03323  -0.02809  -0.02429  -0.02306
 Alpha virt. eigenvalues --   -0.01983  -0.01250  -0.01074  -0.00809  -0.00382
 Alpha virt. eigenvalues --   -0.00118   0.00249   0.00354   0.01322   0.01685
 Alpha virt. eigenvalues --    0.01998   0.02283   0.02841   0.03024   0.03437
 Alpha virt. eigenvalues --    0.03602   0.03872   0.04023   0.04147   0.04540
 Alpha virt. eigenvalues --    0.04601   0.04988   0.05719   0.06010   0.06174
 Alpha virt. eigenvalues --    0.06479   0.06595   0.07117   0.07622   0.08034
 Alpha virt. eigenvalues --    0.08098   0.08347   0.08487   0.08640   0.08813
 Alpha virt. eigenvalues --    0.09343   0.09726   0.10159   0.10241   0.10551
 Alpha virt. eigenvalues --    0.10850   0.11137   0.11546   0.11717   0.11987
 Alpha virt. eigenvalues --    0.12362   0.12526   0.12816   0.13107   0.13275
 Alpha virt. eigenvalues --    0.13420   0.13728   0.14192   0.14445   0.14767
 Alpha virt. eigenvalues --    0.15014   0.15230   0.15616   0.16122   0.16272
 Alpha virt. eigenvalues --    0.16677   0.16870   0.17021   0.17375   0.17424
 Alpha virt. eigenvalues --    0.17872   0.18397   0.18625   0.18803   0.18819
 Alpha virt. eigenvalues --    0.19324   0.19537   0.19964   0.20336   0.20455
 Alpha virt. eigenvalues --    0.20836   0.20906   0.21252   0.21393   0.21942
 Alpha virt. eigenvalues --    0.22081   0.22528   0.22834   0.22967   0.23130
 Alpha virt. eigenvalues --    0.23574   0.23912   0.24464   0.25014   0.25120
 Alpha virt. eigenvalues --    0.25286   0.25493   0.26088   0.26570   0.26838
 Alpha virt. eigenvalues --    0.27012   0.27163   0.27418   0.27638   0.28056
 Alpha virt. eigenvalues --    0.28643   0.28936   0.29404   0.29755   0.30270
 Alpha virt. eigenvalues --    0.30623   0.31403   0.31753   0.31929   0.32061
 Alpha virt. eigenvalues --    0.32637   0.33032   0.33288   0.33477   0.33993
 Alpha virt. eigenvalues --    0.34527   0.34728   0.35083   0.35629   0.36203
 Alpha virt. eigenvalues --    0.36307   0.36382   0.37271   0.37656   0.38114
 Alpha virt. eigenvalues --    0.38514   0.38619   0.38852   0.39289   0.39440
 Alpha virt. eigenvalues --    0.40173   0.40622   0.41665   0.42135   0.42367
 Alpha virt. eigenvalues --    0.42698   0.42881   0.43285   0.43474   0.43875
 Alpha virt. eigenvalues --    0.44430   0.45007   0.45037   0.45211   0.45577
 Alpha virt. eigenvalues --    0.46010   0.46303   0.46359   0.46708   0.47053
 Alpha virt. eigenvalues --    0.47505   0.48069   0.48402   0.48689   0.49060
 Alpha virt. eigenvalues --    0.49486   0.50226   0.50306   0.50534   0.50666
 Alpha virt. eigenvalues --    0.51074   0.51556   0.52050   0.52133   0.52412
 Alpha virt. eigenvalues --    0.52475   0.52761   0.53122   0.53353   0.53796
 Alpha virt. eigenvalues --    0.54420   0.54616   0.54648   0.55200   0.55401
 Alpha virt. eigenvalues --    0.55961   0.56578   0.56719   0.56943   0.57772
 Alpha virt. eigenvalues --    0.58140   0.58398   0.58490   0.59715   0.60082
 Alpha virt. eigenvalues --    0.60668   0.60765   0.61850   0.62450   0.62998
 Alpha virt. eigenvalues --    0.63503   0.63803   0.64377   0.64461   0.65004
 Alpha virt. eigenvalues --    0.65175   0.65619   0.65803   0.66096   0.66718
 Alpha virt. eigenvalues --    0.67553   0.68177   0.68690   0.69107   0.69473
 Alpha virt. eigenvalues --    0.70080   0.70722   0.70844   0.71144   0.71574
 Alpha virt. eigenvalues --    0.72265   0.72560   0.72833   0.73464   0.74211
 Alpha virt. eigenvalues --    0.74626   0.74895   0.75264   0.75759   0.76204
 Alpha virt. eigenvalues --    0.76796   0.77281   0.77580   0.77964   0.78386
 Alpha virt. eigenvalues --    0.79378   0.79490   0.80001   0.80737   0.81101
 Alpha virt. eigenvalues --    0.81694   0.82438   0.83141   0.83382   0.84224
 Alpha virt. eigenvalues --    0.84580   0.85345   0.86075   0.86493   0.86990
 Alpha virt. eigenvalues --    0.87801   0.88536   0.89205   0.90153   0.91046
 Alpha virt. eigenvalues --    0.92077   0.92876   0.93354   0.93620   0.94280
 Alpha virt. eigenvalues --    0.95587   0.96017   0.96932   0.97918   0.98290
 Alpha virt. eigenvalues --    0.98664   0.99383   0.99685   0.99969   1.01193
 Alpha virt. eigenvalues --    1.01535   1.02062   1.03253   1.04381   1.04687
 Alpha virt. eigenvalues --    1.05350   1.06058   1.06514   1.07121   1.07393
 Alpha virt. eigenvalues --    1.08480   1.08953   1.09907   1.11468   1.12703
 Alpha virt. eigenvalues --    1.13507   1.14015   1.15567   1.16294   1.16512
 Alpha virt. eigenvalues --    1.17516   1.18006   1.18481   1.19319   1.20756
 Alpha virt. eigenvalues --    1.22321   1.22808   1.24367   1.24739   1.25170
 Alpha virt. eigenvalues --    1.25695   1.26994   1.27245   1.29288   1.29571
 Alpha virt. eigenvalues --    1.30520   1.31399   1.31896   1.33140   1.33921
 Alpha virt. eigenvalues --    1.34563   1.35168   1.36229   1.36299   1.36967
 Alpha virt. eigenvalues --    1.38043   1.39233   1.39782   1.41343   1.42732
 Alpha virt. eigenvalues --    1.43128   1.43477   1.44192   1.45147   1.45838
 Alpha virt. eigenvalues --    1.47514   1.48160   1.48727   1.49561   1.51083
 Alpha virt. eigenvalues --    1.52151   1.53003   1.53658   1.55060   1.55531
 Alpha virt. eigenvalues --    1.57185   1.57909   1.59035   1.60765   1.60942
 Alpha virt. eigenvalues --    1.62361   1.62985   1.64226   1.65179   1.65347
 Alpha virt. eigenvalues --    1.66722   1.67018   1.68546   1.69464   1.70044
 Alpha virt. eigenvalues --    1.70744   1.71277   1.72458   1.72667   1.73246
 Alpha virt. eigenvalues --    1.73558   1.74130   1.74500   1.74696   1.76216
 Alpha virt. eigenvalues --    1.77374   1.78768   1.79153   1.79749   1.80313
 Alpha virt. eigenvalues --    1.80922   1.81967   1.82479   1.83110   1.83738
 Alpha virt. eigenvalues --    1.83875   1.84984   1.86170   1.86654   1.86770
 Alpha virt. eigenvalues --    1.88291   1.88873   1.89490   1.90213   1.90982
 Alpha virt. eigenvalues --    1.91922   1.93426   1.94444   1.94651   1.96236
 Alpha virt. eigenvalues --    1.96326   1.97628   1.98028   1.99968   2.00537
 Alpha virt. eigenvalues --    2.00591   2.01577   2.02976   2.03953   2.05127
 Alpha virt. eigenvalues --    2.06284   2.06870   2.07180   2.08434   2.09273
 Alpha virt. eigenvalues --    2.09679   2.12162   2.12447   2.12798   2.14391
 Alpha virt. eigenvalues --    2.14967   2.16059   2.16746   2.17270   2.17780
 Alpha virt. eigenvalues --    2.18315   2.20277   2.21040   2.21978   2.22330
 Alpha virt. eigenvalues --    2.23451   2.23573   2.24895   2.25186   2.26693
 Alpha virt. eigenvalues --    2.27793   2.28169   2.28834   2.29891   2.31377
 Alpha virt. eigenvalues --    2.33239   2.33648   2.34136   2.36277   2.37766
 Alpha virt. eigenvalues --    2.38973   2.40874   2.41706   2.42050   2.44430
 Alpha virt. eigenvalues --    2.45188   2.45892   2.47765   2.49547   2.49718
 Alpha virt. eigenvalues --    2.49920   2.51919   2.52972   2.55015   2.55850
 Alpha virt. eigenvalues --    2.55880   2.56545   2.57755   2.58372   2.59239
 Alpha virt. eigenvalues --    2.61077   2.61701   2.63918   2.65621   2.66530
 Alpha virt. eigenvalues --    2.67954   2.68364   2.68929   2.69477   2.70911
 Alpha virt. eigenvalues --    2.71602   2.72172   2.73879   2.74388   2.75345
 Alpha virt. eigenvalues --    2.75811   2.78259   2.79127   2.79623   2.82679
 Alpha virt. eigenvalues --    2.83503   2.84758   2.86009   2.87334   2.88538
 Alpha virt. eigenvalues --    2.91098   2.93399   2.96408   3.02581   3.04777
 Alpha virt. eigenvalues --    3.13781   3.14244   3.16390   3.21353   3.27837
 Alpha virt. eigenvalues --    3.29990   3.32588   3.33630   3.35559   3.36018
 Alpha virt. eigenvalues --    3.36950   3.40538   3.41910   3.43318   3.44073
 Alpha virt. eigenvalues --    3.47554   3.49599   3.50805   3.52024   3.62302
 Alpha virt. eigenvalues --    3.65186   3.71637   3.77254   3.81240   3.83463
 Alpha virt. eigenvalues --    3.88950   4.04021   4.06321   4.07619   4.27172
 Alpha virt. eigenvalues --    4.90147
          Condensed to atoms (all electrons):
               1          2          3          4          5          6
     1  C    7.196953  -0.960340  -0.404162   0.364190  -0.697447   0.399235
     2  C   -0.960340  19.788516  -2.162868  -0.246702  -0.861370  -5.420942
     3  N   -0.404162  -2.162868   8.814205   0.120278   0.135955   0.751545
     4  C    0.364190  -0.246702   0.120278   5.679625   0.091509  -0.208736
     5  C   -0.697447  -0.861370   0.135955   0.091509   6.122612   0.577034
     6  C    0.399235  -5.420942   0.751545  -0.208736   0.577034  23.177604
     7  C   -0.727782  -1.760514   0.030097  -0.242443   0.150069  -7.074119
     8  N    0.025160   0.490512  -0.059095   0.020009  -0.014109   0.324541
     9  C   -0.155966  -0.906238   0.053463  -0.059669  -0.008189  -0.706873
    10  C    0.329285   0.196543  -0.155008   0.081670   0.054584   1.579527
    11  C   -0.234474  -0.771342   0.360341  -0.109542  -0.356329  -8.577080
    12  C   -0.067674  -0.386238   0.433169  -0.212282   0.007660   0.213113
    13  H    0.362601  -2.204867  -0.126212  -0.120230   0.068134   0.478456
    14  H   -0.362819   0.037420   0.043773   0.064566   0.281142  -0.489463
    15  H   -0.687566   0.206712   0.143480  -0.150302   0.235721   0.185781
    16  H    0.120409  -0.039497   0.085915  -0.026845  -0.222009   0.050844
    17  H    0.316312  -0.006910  -0.029634   0.125655  -0.320642  -0.043023
    18  H   -0.122224  -0.263958   0.450511  -0.279845   0.068061   0.172234
    19  H    0.125517   0.523255  -0.686831  -0.097829  -0.039582  -0.209589
    20  H    0.067576   0.096887  -0.214334   0.031462   0.007507   0.189196
    21  H    0.004614   0.015307   0.003570  -0.001120  -0.000337   0.227400
    22  H   -0.022962  -0.020857   0.000635  -0.004018   0.003315  -0.680694
    23  H    0.159641   0.034390   0.062508   0.015139  -0.001031   0.177862
    24  H    0.124947   0.152717  -0.160346  -0.072946  -0.067858   0.053127
    25  H   -0.024100  -0.280792   0.223416   0.013371   0.058264   0.004720
    26  H   -0.056028  -0.062352  -0.265940   0.028659   0.049190   0.124451
    27  H   -0.010973   0.010960  -0.003591   0.001205   0.005410  -0.408484
    28  O   -0.002003  -0.001570   0.000350   0.000136  -0.000159  -0.103609
    29  H    0.000500   0.003253  -0.000039   0.000115  -0.000076   0.012978
    30  H   -0.000473   0.001394   0.000165   0.000070  -0.000034  -0.012966
    31  O    0.000104  -0.000243  -0.000001  -0.000005   0.000015   0.002131
    32  H   -0.000113   0.000140  -0.000047  -0.000018   0.000031  -0.000374
    33  H    0.000054  -0.000022   0.000009   0.000001   0.000000   0.000874
    34  O    0.000003   0.000013  -0.000000   0.000000  -0.000001   0.000430
    35  H    0.000005  -0.000026   0.000001  -0.000000   0.000000   0.000078
    36  H   -0.000001   0.000090  -0.000003   0.000003  -0.000005  -0.000072
    37  O    0.000001   0.000003   0.000000   0.000000   0.000000   0.000000
    38  H    0.000003  -0.000007  -0.000000  -0.000000   0.000002  -0.000009
    39  H   -0.000001  -0.000002   0.000000  -0.000000  -0.000000   0.000004
               7          8          9         10         11         12
     1  C   -0.727782   0.025160  -0.155966   0.329285  -0.234474  -0.067674
     2  C   -1.760514   0.490512  -0.906238   0.196543  -0.771342  -0.386238
     3  N    0.030097  -0.059095   0.053463  -0.155008   0.360341   0.433169
     4  C   -0.242443   0.020009  -0.059669   0.081670  -0.109542  -0.212282
     5  C    0.150069  -0.014109  -0.008189   0.054584  -0.356329   0.007660
     6  C   -7.074119   0.324541  -0.706873   1.579527  -8.577080   0.213113
     7  C   18.676258  -0.979296  -0.444350  -1.591748  -0.879854  -0.021507
     8  N   -0.979296   7.414327  -0.012729   0.400047  -0.433630  -0.019256
     9  C   -0.444350  -0.012729  10.359369  -3.172821   1.192583   0.012913
    10  C   -1.591748   0.400047  -3.172821  13.744699  -5.553083  -0.007708
    11  C   -0.879854  -0.433630   1.192583  -5.553083  21.612747  -0.055954
    12  C   -0.021507  -0.019256   0.012913  -0.007708  -0.055954   4.475781
    13  H    0.417616  -0.013575   0.040046  -0.075091  -0.032937   0.053876
    14  H    0.123754   0.020146  -0.022474  -0.004176   0.093752   0.019419
    15  H   -0.024046  -0.012540   0.004059   0.028707  -0.047350   0.015873
    16  H    0.018355  -0.002210   0.001917   0.008919   0.010523  -0.015068
    17  H    0.004184  -0.000396   0.000819  -0.004966   0.000772   0.014092
    18  H    0.016771  -0.000325  -0.000644   0.003647   0.020970  -0.014950
    19  H   -0.016195   0.002076  -0.003070   0.003529  -0.006168  -0.013636
    20  H    0.141005  -0.029842  -0.215893   1.079727  -2.352678  -0.026796
    21  H    0.035676   0.019706  -0.923617   0.339590   0.031084   0.002956
    22  H    0.543962   0.033091  -0.325204  -0.191663   0.077921  -0.003298
    23  H   -1.090885   0.092509  -0.019867   0.043864   0.003558   0.007878
    24  H   -0.205281   0.024929  -0.011572   0.061866  -0.039534   0.256374
    25  H    0.076071  -0.009373   0.003396  -0.001789   0.021904   0.145465
    26  H    0.025303  -0.003683   0.004682  -0.002637  -0.042551   0.353659
    27  H    0.079828  -0.035201   0.540994  -1.318798   0.853770  -0.007633
    28  O    0.079086  -0.184318   0.025485  -0.055029   0.051159  -0.000507
    29  H   -0.012386   0.006754  -0.010493   0.011853  -0.004391  -0.000042
    30  H    0.003547   0.003124  -0.005581  -0.003895   0.012969  -0.000085
    31  O   -0.004322  -0.000240   0.006063   0.001448  -0.000627   0.000005
    32  H   -0.000903   0.001385   0.001174   0.000292  -0.001014   0.000014
    33  H    0.000816  -0.000045  -0.001328   0.000174  -0.000394   0.000001
    34  O    0.000210   0.000334   0.000148   0.000053  -0.000018  -0.000000
    35  H   -0.000090   0.000093  -0.000017   0.000000  -0.000012   0.000000
    36  H   -0.000004  -0.000188  -0.000040   0.000013   0.000090  -0.000002
    37  O    0.000051  -0.000004  -0.000012   0.000002  -0.000002   0.000000
    38  H    0.000017   0.000007  -0.000001  -0.000002  -0.000006   0.000000
    39  H   -0.000004   0.000001   0.000001   0.000000   0.000001   0.000000
              13         14         15         16         17         18
     1  C    0.362601  -0.362819  -0.687566   0.120409   0.316312  -0.122224
     2  C   -2.204867   0.037420   0.206712  -0.039497  -0.006910  -0.263958
     3  N   -0.126212   0.043773   0.143480   0.085915  -0.029634   0.450511
     4  C   -0.120230   0.064566  -0.150302  -0.026845   0.125655  -0.279845
     5  C    0.068134   0.281142   0.235721  -0.222009  -0.320642   0.068061
     6  C    0.478456  -0.489463   0.185781   0.050844  -0.043023   0.172234
     7  C    0.417616   0.123754  -0.024046   0.018355   0.004184   0.016771
     8  N   -0.013575   0.020146  -0.012540  -0.002210  -0.000396  -0.000325
     9  C    0.040046  -0.022474   0.004059   0.001917   0.000819  -0.000644
    10  C   -0.075091  -0.004176   0.028707   0.008919  -0.004966   0.003647
    11  C   -0.032937   0.093752  -0.047350   0.010523   0.000772   0.020970
    12  C    0.053876   0.019419   0.015873  -0.015068   0.014092  -0.014950
    13  H    3.138641   0.139817  -0.294819  -0.048966   0.043852  -0.076498
    14  H    0.139817   2.213683  -0.488403  -0.345476   0.138901  -0.039360
    15  H   -0.294819  -0.488403   2.334349   0.190863  -0.303683   0.060194
    16  H   -0.048966  -0.345476   0.190863   2.070654  -0.451373   0.169984
    17  H    0.043852   0.138901  -0.303683  -0.451373   1.919055  -0.200497
    18  H   -0.076498  -0.039360   0.060194   0.169984  -0.200497   1.847578
    19  H    0.050402   0.017886  -0.024935  -0.256953   0.072050  -0.437930
    20  H    0.006983  -0.019763   0.000870   0.009413   0.004389   0.002147
    21  H   -0.000080  -0.001891   0.001450   0.000275  -0.000009   0.000149
    22  H    0.005330   0.001170   0.000790   0.000194   0.000214  -0.000396
    23  H   -0.086498   0.015311   0.007628   0.001344  -0.000160   0.005111
    24  H    0.026944   0.007891  -0.003131  -0.007325  -0.000827  -0.002688
    25  H    0.047172   0.001279   0.001062  -0.000916   0.007308   0.002168
    26  H    0.001080  -0.002076   0.001042   0.007206  -0.002490  -0.000840
    27  H    0.003747  -0.002277  -0.001405   0.000396  -0.000378  -0.000098
    28  O    0.001878   0.000149  -0.000131  -0.000017   0.000001  -0.000039
    29  H   -0.000170   0.000052   0.000011  -0.000010   0.000000   0.000005
    30  H    0.000162   0.000124  -0.000060  -0.000006   0.000000  -0.000012
    31  O   -0.000115  -0.000020  -0.000033   0.000001   0.000001   0.000001
    32  H    0.000055  -0.000066  -0.000008   0.000004   0.000000  -0.000000
    33  H   -0.000033   0.000014   0.000003  -0.000000   0.000000   0.000001
    34  O    0.000029   0.000011   0.000019  -0.000000  -0.000000  -0.000000
    35  H   -0.000015  -0.000000   0.000004   0.000000  -0.000000   0.000000
    36  H    0.000047   0.000015  -0.000021  -0.000001   0.000001  -0.000001
    37  O   -0.000006   0.000001   0.000001   0.000000   0.000000   0.000000
    38  H   -0.000002  -0.000000  -0.000008  -0.000000   0.000001  -0.000000
    39  H   -0.000001  -0.000001   0.000003   0.000000  -0.000000   0.000000
              19         20         21         22         23         24
     1  C    0.125517   0.067576   0.004614  -0.022962   0.159641   0.124947
     2  C    0.523255   0.096887   0.015307  -0.020857   0.034390   0.152717
     3  N   -0.686831  -0.214334   0.003570   0.000635   0.062508  -0.160346
     4  C   -0.097829   0.031462  -0.001120  -0.004018   0.015139  -0.072946
     5  C   -0.039582   0.007507  -0.000337   0.003315  -0.001031  -0.067858
     6  C   -0.209589   0.189196   0.227400  -0.680694   0.177862   0.053127
     7  C   -0.016195   0.141005   0.035676   0.543962  -1.090885  -0.205281
     8  N    0.002076  -0.029842   0.019706   0.033091   0.092509   0.024929
     9  C   -0.003070  -0.215893  -0.923617  -0.325204  -0.019867  -0.011572
    10  C    0.003529   1.079727   0.339590  -0.191663   0.043864   0.061866
    11  C   -0.006168  -2.352678   0.031084   0.077921   0.003558  -0.039534
    12  C   -0.013636  -0.026796   0.002956  -0.003298   0.007878   0.256374
    13  H    0.050402   0.006983  -0.000080   0.005330  -0.086498   0.026944
    14  H    0.017886  -0.019763  -0.001891   0.001170   0.015311   0.007891
    15  H   -0.024935   0.000870   0.001450   0.000790   0.007628  -0.003131
    16  H   -0.256953   0.009413   0.000275   0.000194   0.001344  -0.007325
    17  H    0.072050   0.004389  -0.000009   0.000214  -0.000160  -0.000827
    18  H   -0.437930   0.002147   0.000149  -0.000396   0.005111  -0.002688
    19  H    2.490641   0.011465  -0.000159  -0.000112  -0.001521   0.006525
    20  H    0.011465   3.300783  -0.014701   0.018109  -0.022520   0.021880
    21  H   -0.000159  -0.014701   2.164624  -0.145879   0.006093  -0.000688
    22  H   -0.000112   0.018109  -0.145879   1.675023  -0.092753  -0.003357
    23  H   -0.001521  -0.022520   0.006093  -0.092753   2.505373   0.008769
    24  H    0.006525   0.021880  -0.000688  -0.003357   0.008769   2.123848
    25  H    0.006088   0.003330   0.000143   0.002083   0.000810  -0.404637
    26  H    0.015183  -0.002948   0.000368  -0.000213   0.002061  -0.550299
    27  H   -0.000643  -0.131771  -0.125816   0.016478  -0.000717   0.000506
    28  O    0.000010   0.000997  -0.000784   0.047168  -0.002793   0.000071
    29  H    0.000008  -0.000078   0.007428  -0.018393   0.002134   0.000113
    30  H    0.000004  -0.000222  -0.001780  -0.001848   0.005473  -0.000029
    31  O   -0.000000  -0.000013   0.002080  -0.014694   0.002596   0.000006
    32  H   -0.000001   0.000000   0.000470   0.001169  -0.001351  -0.000007
    33  H   -0.000000  -0.000009  -0.000009   0.001099   0.000117   0.000001
    34  O    0.000000  -0.000000  -0.000006  -0.001024  -0.000345   0.000001
    35  H   -0.000000  -0.000000   0.000001   0.000167   0.000036   0.000000
    36  H    0.000000   0.000002  -0.000038  -0.000077  -0.000005  -0.000000
    37  O    0.000000  -0.000000  -0.000004   0.000031   0.000043   0.000000
    38  H   -0.000000  -0.000000   0.000001   0.000005  -0.000007   0.000000
    39  H   -0.000000   0.000000  -0.000000   0.000004   0.000003   0.000000
              25         26         27         28         29         30
     1  C   -0.024100  -0.056028  -0.010973  -0.002003   0.000500  -0.000473
     2  C   -0.280792  -0.062352   0.010960  -0.001570   0.003253   0.001394
     3  N    0.223416  -0.265940  -0.003591   0.000350  -0.000039   0.000165
     4  C    0.013371   0.028659   0.001205   0.000136   0.000115   0.000070
     5  C    0.058264   0.049190   0.005410  -0.000159  -0.000076  -0.000034
     6  C    0.004720   0.124451  -0.408484  -0.103609   0.012978  -0.012966
     7  C    0.076071   0.025303   0.079828   0.079086  -0.012386   0.003547
     8  N   -0.009373  -0.003683  -0.035201  -0.184318   0.006754   0.003124
     9  C    0.003396   0.004682   0.540994   0.025485  -0.010493  -0.005581
    10  C   -0.001789  -0.002637  -1.318798  -0.055029   0.011853  -0.003895
    11  C    0.021904  -0.042551   0.853770   0.051159  -0.004391   0.012969
    12  C    0.145465   0.353659  -0.007633  -0.000507  -0.000042  -0.000085
    13  H    0.047172   0.001080   0.003747   0.001878  -0.000170   0.000162
    14  H    0.001279  -0.002076  -0.002277   0.000149   0.000052   0.000124
    15  H    0.001062   0.001042  -0.001405  -0.000131   0.000011  -0.000060
    16  H   -0.000916   0.007206   0.000396  -0.000017  -0.000010  -0.000006
    17  H    0.007308  -0.002490  -0.000378   0.000001   0.000000   0.000000
    18  H    0.002168  -0.000840  -0.000098  -0.000039   0.000005  -0.000012
    19  H    0.006088   0.015183  -0.000643   0.000010   0.000008   0.000004
    20  H    0.003330  -0.002948  -0.131771   0.000997  -0.000078  -0.000222
    21  H    0.000143   0.000368  -0.125816  -0.000784   0.007428  -0.001780
    22  H    0.002083  -0.000213   0.016478   0.047168  -0.018393  -0.001848
    23  H    0.000810   0.002061  -0.000717  -0.002793   0.002134   0.005473
    24  H   -0.404637  -0.550299   0.000506   0.000071   0.000113  -0.000029
    25  H    1.544848  -0.273740  -0.001421   0.000021  -0.000038   0.000025
    26  H   -0.273740   1.890479   0.000354  -0.000049  -0.000006  -0.000021
    27  H   -0.001421   0.000354   2.119862  -0.001067  -0.000392   0.000272
    28  O    0.000021  -0.000049  -0.001067   7.980405   0.363553   0.320641
    29  H   -0.000038  -0.000006  -0.000392   0.363553   0.610052  -0.111361
    30  H    0.000025  -0.000021   0.000272   0.320641  -0.111361   0.509399
    31  O    0.000001   0.000001  -0.000013  -0.049324   0.004865  -0.000087
    32  H    0.000001   0.000002  -0.000007   0.002714  -0.000017  -0.004692
    33  H    0.000000   0.000000   0.000002   0.001516  -0.000268  -0.004953
    34  O   -0.000000  -0.000000   0.000002   0.000467   0.000787  -0.003825
    35  H    0.000000  -0.000000   0.000000   0.000164  -0.000082   0.000062
    36  H   -0.000000  -0.000000  -0.000000  -0.000070  -0.000080   0.001120
    37  O   -0.000000   0.000000   0.000000   0.000021  -0.000012   0.000005
    38  H    0.000000   0.000000   0.000000  -0.000000   0.000002  -0.000013
    39  H   -0.000000   0.000000  -0.000000   0.000002  -0.000005   0.000086
              31         32         33         34         35         36
     1  C    0.000104  -0.000113   0.000054   0.000003   0.000005  -0.000001
     2  C   -0.000243   0.000140  -0.000022   0.000013  -0.000026   0.000090
     3  N   -0.000001  -0.000047   0.000009  -0.000000   0.000001  -0.000003
     4  C   -0.000005  -0.000018   0.000001   0.000000  -0.000000   0.000003
     5  C    0.000015   0.000031   0.000000  -0.000001   0.000000  -0.000005
     6  C    0.002131  -0.000374   0.000874   0.000430   0.000078  -0.000072
     7  C   -0.004322  -0.000903   0.000816   0.000210  -0.000090  -0.000004
     8  N   -0.000240   0.001385  -0.000045   0.000334   0.000093  -0.000188
     9  C    0.006063   0.001174  -0.001328   0.000148  -0.000017  -0.000040
    10  C    0.001448   0.000292   0.000174   0.000053   0.000000   0.000013
    11  C   -0.000627  -0.001014  -0.000394  -0.000018  -0.000012   0.000090
    12  C    0.000005   0.000014   0.000001  -0.000000   0.000000  -0.000002
    13  H   -0.000115   0.000055  -0.000033   0.000029  -0.000015   0.000047
    14  H   -0.000020  -0.000066   0.000014   0.000011  -0.000000   0.000015
    15  H   -0.000033  -0.000008   0.000003   0.000019   0.000004  -0.000021
    16  H    0.000001   0.000004  -0.000000  -0.000000   0.000000  -0.000001
    17  H    0.000001   0.000000   0.000000  -0.000000  -0.000000   0.000001
    18  H    0.000001  -0.000000   0.000001  -0.000000   0.000000  -0.000001
    19  H   -0.000000  -0.000001  -0.000000   0.000000  -0.000000   0.000000
    20  H   -0.000013   0.000000  -0.000009  -0.000000  -0.000000   0.000002
    21  H    0.002080   0.000470  -0.000009  -0.000006   0.000001  -0.000038
    22  H   -0.014694   0.001169   0.001099  -0.001024   0.000167  -0.000077
    23  H    0.002596  -0.001351   0.000117  -0.000345   0.000036  -0.000005
    24  H    0.000006  -0.000007   0.000001   0.000001   0.000000  -0.000000
    25  H    0.000001   0.000001   0.000000  -0.000000   0.000000  -0.000000
    26  H    0.000001   0.000002   0.000000  -0.000000  -0.000000  -0.000000
    27  H   -0.000013  -0.000007   0.000002   0.000002   0.000000  -0.000000
    28  O   -0.049324   0.002714   0.001516   0.000467   0.000164  -0.000070
    29  H    0.004865  -0.000017  -0.000268   0.000787  -0.000082  -0.000080
    30  H   -0.000087  -0.004692  -0.004953  -0.003825   0.000062   0.001120
    31  O    7.792133   0.315543   0.364183  -0.039503   0.000729   0.002559
    32  H    0.315543   0.535902  -0.108323   0.025083  -0.002493  -0.008024
    33  H    0.364183  -0.108323   0.617308   0.000541  -0.000026  -0.000329
    34  O   -0.039503   0.025083   0.000541   7.679022   0.367129   0.333927
    35  H    0.000729  -0.002493  -0.000026   0.367129   0.615633  -0.107245
    36  H    0.002559  -0.008024  -0.000329   0.333927  -0.107245   0.569933
    37  O    0.000547  -0.003394   0.000489  -0.035257   0.003960   0.007613
    38  H   -0.000087  -0.000064   0.000004   0.000469  -0.000709  -0.003689
    39  H    0.000282  -0.000894   0.000020   0.001509  -0.000172  -0.001328
              37         38         39
     1  C    0.000001   0.000003  -0.000001
     2  C    0.000003  -0.000007  -0.000002
     3  N    0.000000  -0.000000   0.000000
     4  C    0.000000  -0.000000  -0.000000
     5  C    0.000000   0.000002  -0.000000
     6  C    0.000000  -0.000009   0.000004
     7  C    0.000051   0.000017  -0.000004
     8  N   -0.000004   0.000007   0.000001
     9  C   -0.000012  -0.000001   0.000001
    10  C    0.000002  -0.000002   0.000000
    11  C   -0.000002  -0.000006   0.000001
    12  C    0.000000   0.000000   0.000000
    13  H   -0.000006  -0.000002  -0.000001
    14  H    0.000001  -0.000000  -0.000001
    15  H    0.000001  -0.000008   0.000003
    16  H    0.000000  -0.000000   0.000000
    17  H    0.000000   0.000001  -0.000000
    18  H    0.000000  -0.000000   0.000000
    19  H    0.000000  -0.000000  -0.000000
    20  H   -0.000000  -0.000000   0.000000
    21  H   -0.000004   0.000001  -0.000000
    22  H    0.000031   0.000005   0.000004
    23  H    0.000043  -0.000007   0.000003
    24  H    0.000000   0.000000   0.000000
    25  H   -0.000000   0.000000  -0.000000
    26  H    0.000000   0.000000   0.000000
    27  H    0.000000   0.000000  -0.000000
    28  O    0.000021  -0.000000   0.000002
    29  H   -0.000012   0.000002  -0.000005
    30  H    0.000005  -0.000013   0.000086
    31  O    0.000547  -0.000087   0.000282
    32  H   -0.003394  -0.000064  -0.000894
    33  H    0.000489   0.000004   0.000020
    34  O   -0.035257   0.000469   0.001509
    35  H    0.003960  -0.000709  -0.000172
    36  H    0.007613  -0.003689  -0.001328
    37  O    7.662493   0.347726   0.347322
    38  H    0.347726   0.573069  -0.069370
    39  H    0.347322  -0.069370   0.561062
 Mulliken charges:
               1
     1  C    0.939998
     2  C    0.799549
     3  N   -0.445275
     4  C    1.194869
     5  C    0.672965
     6  C    1.232866
     7  C    0.653053
     8  N   -0.068696
     9  C    0.759536
    10  C    0.168374
    11  C    1.154827
    12  C    0.840389
    13  H   -0.806753
    14  H   -0.442009
    15  H   -0.380181
    16  H   -0.330543
    17  H   -0.282618
    18  H   -0.379227
    19  H   -0.529484
    20  H   -0.962158
    21  H   -0.646068
    22  H    0.099482
    23  H   -0.839795
    24  H   -0.339992
    25  H   -0.166137
    26  H   -0.237849
    27  H   -0.583106
    28  O   -0.474526
    29  H    0.133875
    30  H    0.293301
    31  O   -0.385967
    32  H    0.247831
    33  H    0.128513
    34  O   -0.330208
    35  H    0.122823
    36  H    0.205807
    37  O   -0.331618
    38  H    0.152671
    39  H    0.161478
 Sum of Mulliken charges =   1.00000
 Mulliken charges with hydrogens summed into heavy atoms:
               1
     1  C    0.117807
     2  C   -0.007204
     3  N   -0.445275
     4  C    0.286158
     5  C    0.059804
     6  C    1.232866
     7  C   -0.186742
     8  N    0.030787
     9  C    0.113468
    10  C   -0.414731
    11  C    0.192669
    12  C    0.096411
    28  O   -0.047350
    31  O   -0.009623
    34  O   -0.001578
    37  O   -0.017468
 Electronic spatial extent (au):  <R**2>=           9131.1853
 Charge=              1.0000 electrons
 Dipole moment (field-independent basis, Debye):
    X=             -4.8338    Y=             -1.3042    Z=             -1.2500  Tot=              5.1603
 Quadrupole moment (field-independent basis, Debye-Ang):
   XX=             -6.1074   YY=            -56.6485   ZZ=            -84.2673
   XY=            -13.0169   XZ=              3.3058   YZ=             -0.8115
 Traceless Quadrupole moment (field-independent basis, Debye-Ang):
   XX=             42.9003   YY=             -7.6408   ZZ=            -35.2595
   XY=            -13.0169   XZ=              3.3058   YZ=             -0.8115
 Octapole moment (field-independent basis, Debye-Ang**2):
  XXX=           -511.0678  YYY=             23.9018  ZZZ=              4.4116  XYY=           -138.9156
  XXY=            140.6505  XXZ=            -37.9998  XZZ=            -64.8191  YZZ=            -11.2265
  YYZ=            -32.9950  XYZ=             46.9561
 Hexadecapole moment (field-independent basis, Debye-Ang**3):
 XXXX=          -4569.6805 YYYY=          -1517.6102 ZZZZ=           -548.7719 XXXY=           -878.1431
 XXXZ=            349.1051 YYYX=           -438.5172 YYYZ=            -34.2871 ZZZX=            -24.9783
 ZZZY=            -31.4377 XXYY=           -861.0355 XXZZ=          -1133.3865 YYZZ=           -337.6224
 XXYZ=           -248.1168 YYXZ=             84.7838 ZZXY=            -81.8476
 N-N= 1.093893735645D+03 E-N=-4.052666383550D+03  KE= 7.999777485282D+02
 Calling FoFJK, ICntrl=      2127 FMM=F ISym2X=0 I1Cent= 0 IOpClX= 0 NMat=1 NMatS=1 NMatT=0.
 ***** Axes restored to original set *****
 -------------------------------------------------------------------
 Center     Atomic                   Forces (Hartrees/Bohr)
 Number     Number              X              Y              Z
 -------------------------------------------------------------------
      1        6          -0.000000500   -0.000031903    0.000048085
[...]
 00001533,0.00001574,-0.00000668,-0.00002411,-0.00000003,0.00000529,0.0
 0001386,-0.00000065,0.00000199,-0.00000183,0.00000280,0.00001269,0.000
 00534,-0.00000411,0.00000027,0.00002713,0.00001330,-0.00008979,0.00000
 610,0.00003112,0.00001733,-0.00002191,-0.00001616,-0.00002150,-0.00000
 763,0.00000376,0.00000266,0.00000501,0.00000154,0.00000080,0.00000968,
 0.00000215,-0.00000108,-0.00000255,-0.00000567,0.00000009,0.00000008,-
 0.00000258,0.00000125,-0.00000397,0.00000028,0.00000005,-0.00000036,-0
 .00000033,-0.00000373,-0.00000236,0.00000084,-0.00000029,-0.00000385,-
 0.00000388,-0.00000078,-0.00000130,-0.00000024,0.00000107,0.00000298,0
 .00000050,0.00000710,-0.00000111,-0.00000604,0.00019492,-0.00000148,-0
 .00006492,0.00000468,0.00001154,-0.00000750,-0.00000144,-0.00000439,0.
 00000053,0.00000105,-0.00000170,-0.00000034,-0.00000039,-0.00000004,0.
 00000023,-0.00000038,0.00000015,-0.00000116,-0.00010512,-0.00004087,0.
 00024897,0.00014589,-0.00008880,-0.00000503,-0.00005982,0.00006023,-0.
 00037257,0.00031513,-0.00422590,0.00030308,0.00087270,0.00667245,-0.00
 173276,0.00039726,-0.00025712,-0.00036420,0.05435864,-0.03994987,-0.02
 831822,-0.03097506,0.03461218,0.00000131,-0.00000427,0.00000121,-0.000
 00075,0.00001152,0.00001868,0.00000056,-0.00000280,-0.00002475,-0.0000
 0400,0.00000445,0.00000750,0.00000145,0.00000188,-0.00000164,0.0000084
 3,-0.00000466,-0.00000765,-0.00000474,0.00001349,0.00001099,-0.0000072
 1,0.00000551,-0.00000658,0.00001044,-0.00000649,-0.00000085,-0.0000093
 1,-0.00000413,-0.00000308,0.00000344,0.00000429,0.00000292,-0.00000302
 ,0.00000267,0.00002154,0.00000004,-0.00000445,-0.00000514,0.00000229,-
 0.00000484,-0.00000452,0.00000079,0.00000529,0.00000465,0.,-0.00000107
 ,-0.00000110,0.00000019,0.00000077,0.00000084,0.00000119,-0.00000249,-
 0.00000373,-0.00000119,0.00000019,-0.00000099,0.00000203,0.,0.00000272
 ,0.00000344,-0.00000513,0.00000787,0.00001156,-0.00000710,0.00002772,0
 .,-0.00000296,0.00002217,0.00000097,0.00000166,0.00000199,0.00000078,-
 0.00000784,-0.00000490,-0.00000098,-0.00000038,-0.00000200,0.00000144,
 -0.00000181,0.00000280,-0.00015971,0.00007796,-0.00031114,-0.00003832,
 0.00008885,0.00008885,0.00031017,-0.00025391,0.00041028,-0.00068407,0.
 00106520,0.00028772,0.00112244,-0.00179076,-0.00119150,0.00018723,-0.0
 0012004,-0.00014417,0.24861351,0.00308856,-0.28914375,-0.27163307,0.00
 465427,0.30808894,-0.00000896,0.00002042,0.00000112,-0.00003281,0.0000
 2222,0.00000538,0.00003159,-0.00001994,0.00000804,-0.00000511,-0.00000
 398,0.00000323,-0.00000820,-0.00000501,0.00000431,0.00002684,-0.000036
 08,-0.00002452,-0.00004661,0.00002296,0.00002870,0.00001810,0.00000641
 ,0.00001218,0.00001786,0.00000637,-0.00000708,-0.00002401,-0.00000864,
 0.00000265,-0.00000025,0.00002825,0.00001108,-0.00000018,0.00001196,-0
 .00000927,0.00000375,-0.00000707,-0.00001547,-0.00000227,0.00000126,0.
 00000264,-0.00000191,-0.00001509,-0.00000009,0.00000619,-0.00000331,-0
 .00000171,-0.00000247,0.00000208,0.00000174,-0.00000160,0.00000210,-0.
 00000123,0.00000606,-0.00000293,0.00000181,-0.00000152,0.00000089,-0.0
 0000060,0.00000182,0.00000376,-0.00000144,0.00001251,0.00003304,-0.000
 01386,-0.00001760,0.00001818,-0.00002305,-0.00000331,0.00000153,-0.000
 00108,-0.00000220,-0.00000111,0.00000147,0.00000565,-0.00000110,0.0000
 0079,-0.00000002,0.00000097,-0.00000019,-0.00005124,-0.00004898,0.0000
 0225,0.00001005,0.00001299,0.00000035,0.00005340,0.00000383,-0.0000076
 6,-0.00001148,0.00055497,0.00066762,0.00001120,-0.00101346,-0.00209235
 ,-0.00002837,0.00011547,0.00017510,-0.04884068,0.09051838,-0.04574886,
 0.00351421,-0.02601516,0.02286945,0.05106974,-0.00003182,0.00001706,-0
 .00002075,0.00005826,0.00002862,0.00003771,-0.00006382,-0.00006240,0.0
 0000585,0.00002503,0.00004975,-0.00001688,0.00001535,-0.00000352,0.000
 00730,0.00001157,0.00007870,0.00002412,0.00007984,0.00007036,0.0000106
 4,-0.00035158,0.00002155,0.00010166,0.00004265,-0.00010604,-0.00006126
 ,-0.00004688,-0.00001495,0.00000824,0.00000578,-0.00002187,-0.00000698
 ,0.00000301,0.00001322,0.00000874,-0.00000964,0.00000150,0.00000169,0.
 00000251,0.00000275,-0.00001191,0.00000521,-0.00000257,-0.00000571,-0.
 00000582,0.00000320,0.00000144,-0.00001323,-0.00001197,-0.00000082,-0.
 00000030,-0.00001495,-0.00000880,-0.00000921,-0.00000241,-0.00000146,0
 .00000555,0.00001090,0.00000243,0.00002557,-0.00002105,-0.00000886,0.0
 0071084,-0.00007982,-0.00019634,0.00005541,0.00001584,0.00000060,-0.00
 000068,-0.00001704,0.00000576,0.00000540,-0.00000135,-0.00000069,-0.00
 000804,0.00000076,0.00000100,-0.00000324,-0.00000153,-0.00000214,-0.00
 086640,0.00055569,-0.00027035,0.00004980,-0.00014442,0.00006815,0.0008
 3941,-0.00073382,0.00058971,-0.00081889,0.00147322,-0.00048055,0.00114
 546,-0.00349516,0.00131835,0.00012635,-0.00060300,-0.00022121,0.061498
 02,-0.29202183,0.22374150,0.00246971,0.00466753,-0.00698496,-0.0617232
 0,0.29164207,0.00002077,-0.00000760,0.00001947,-0.00005325,-0.00000533
 ,-0.00000476,0.00005445,0.00003315,-0.00002552,-0.00002152,-0.00002898
 ,0.00002259,-0.00001099,0.00000543,-0.00000726,0.00001179,-0.00006899,
 -0.00003167,-0.00007884,-0.00004187,0.00000749,0.00029011,-0.00001384,
 -0.00009232,-0.00002235,0.00008013,0.00004704,0.00002514,0.00000501,-0
 .00000895,0.00000068,0.00002636,0.00000876,-0.00000512,-0.00000193,0.0
 0000938,0.00000818,-0.00000601,-0.00001291,0.00000184,-0.00001097,0.00
 000385,-0.00000235,0.00000532,0.00001222,0.00000633,-0.00000497,-0.000
 00260,0.00000839,0.00000920,0.00000263,0.00000104,0.00000834,0.0000004
 1,0.00000681,0.00000137,-0.00000020,-0.00000205,-0.00000771,0.00000125
 ,-0.00001949,0.00001426,0.00001470,-0.00059667,0.00006938,0.00018666,-
 0.00004922,-0.00000447,0.00000972,0.00000005,0.00001293,-0.00000361,-0
 .00000329,-0.00000546,-0.00000340,0.00000652,-0.00000097,-0.00000221,0
 .00000508,-0.00000127,0.00000413,0.00069376,-0.00048217,0.00017948,-0.
 00003902,0.00014827,-0.00004093,-0.00064828,0.00058525,-0.00048007,0.0
 0255756,-0.00442649,-0.00301333,-0.00367348,0.00567728,0.00562550,0.00
 015668,-0.00026113,0.00046453,-0.01621804,0.19186281,-0.19676991,-0.00
 733755,0.02525503,-0.01851694,0.02477358,-0.21378909,0.21551478,0.0000
 2105,-0.00003395,0.00000089,0.00003475,-0.00002681,0.00000007,-0.00003
 651,0.00003714,-0.00002722,0.00000418,-0.00000048,0.00000321,0.0000092
 3,0.00000552,-0.00000876,-0.00003752,0.00002995,0.00002409,0.00004948,
 -0.00001871,-0.00002319,-0.00002119,-0.00000589,-0.00001154,-0.0000202
 5,-0.00000930,0.00001002,0.00002814,0.00000903,-0.00000713,0.00000235,
 -0.00003028,-0.00001242,-0.00000032,-0.00001775,0.00002183,-0.00000464
 ,0.00000778,0.00001699,0.00000357,-0.00000665,-0.00000455,-0.00000151,
 0.00002317,0.00000806,-0.00000649,0.00000352,0.00000180,0.00000756,0.0
 0000003,-0.00000084,0.00000301,-0.00000192,0.00000118,-0.00000860,0.00
 000540,-0.00000311,0.00000243,-0.00000415,0.00000166,-0.00000151,-0.00
 000731,0.00000324,-0.00000563,-0.00003349,0.00001820,0.00001409,-0.000
 01905,0.00002776,0.00000564,0.00000025,0.00000101,0.00000288,-0.000001
 03,-0.00000425,-0.00000799,0.00000102,-0.00000196,0.00000048,-0.000002
 58,0.00000220,0.00001217,0.00011175,-0.00004428,-0.00002108,-0.0000356
 0,0.00001759,0.00001191,-0.00009696,0.00005702,0.00011686,0.00030819,0
 .00000164,-0.00008473,-0.00031066,-0.00007876,-0.00012522,0.00000543,-
 0.00001066,0.00365957,0.00366776,-0.00152425,-0.00060362,0.00087879,-0
 .00061101,-0.00623772,-0.00389055,-0.00165234,0.37744850,0.00002160,-0
 .00001089,0.00001230,-0.00004394,-0.00002198,-0.00003582,0.00004932,0.
 00004699,0.00000718,-0.00001768,-0.00004040,0.00000849,-0.00001306,-0.
 00000056,-0.00000368,-0.00001376,-0.00005540,-0.00001469,-0.00005266,-
 0.00005258,-0.00000988,0.00023959,-0.00001622,-0.00006366,-0.00003457,
 0.00007463,0.00004084,0.00003597,0.00001271,-0.00000329,-0.00000717,0.
 00001415,0.00000505,-0.00000079,-0.00001035,-0.00001547,0.00000716,-0.
 00000006,0.00000064,-0.00000384,0.00000253,0.00001151,-0.00000475,-0.0
 0000285,0.00000099,0.00000436,-0.00000183,-0.00000074,0.00000979,0.000
 00915,0.00000024,-0.00000062,0.00001254,0.00000905,0.00000791,0.000001
 13,0.00000192,-0.00000585,-0.00000792,-0.00000337,-0.00001897,0.000017
 25,0.00000099,-0.00047001,0.00005464,0.00011541,-0.00003657,-0.0000100
 1,-0.00000853,0.00000020,0.00001225,-0.00000479,-0.00000464,0.00000383
 ,0.00000263,0.00000655,-0.00000069,0.00000012,0.00000053,0.00000253,-0
 .00000029,0.00059573,-0.00036635,0.00024778,-0.00002882,0.00007751,-0.
 00006442,-0.00059501,0.00050873,-0.00048080,0.00075143,-0.00142531,-0.
 00017880,-0.00085721,0.00186131,0.00069176,0.00002432,0.00024629,0.000
 05228,0.00308727,-0.00772565,0.00928033,0.00075641,-0.00105815,-0.0002
 2052,-0.00362180,-0.00494347,-0.00142253,0.12050621,0.54766430,-0.0000
 1054,0.00000064,-0.00001324,0.00003497,-0.00001047,-0.00001715,-0.0000
 3236,-0.00001007,0.00003686,0.00001315,0.00000883,-0.00002245,0.000005
 79,-0.00000428,0.00000593,-0.00001720,0.00004551,0.00002727,0.00005405
 ,0.00000830,-0.00001926,-0.00015396,0.00000447,0.00005250,0.00000563,-
 0.00003799,-0.00002337,-0.00000390,0.00000158,0.00000799,-0.00000347,-
 0.00002123,-0.00000809,0.00000491,-0.00000387,-0.00002235,-0.00000509,
 0.00000646,0.00001643,-0.00000356,0.00001483,0.00000193,0.00000132,-0.
 00000595,-0.00001498,-0.00000549,0.00000537,0.00000242,-0.00000428,-0.
 00000603,-0.00000415,-0.00000171,-0.00000186,0.00000567,-0.00000291,-0
 .00000078,0.00000121,-0.00000118,0.00000410,-0.00000356,0.00000843,-0.
 00000381,-0.00001363,0.00031324,-0.00004023,-0.00011269,0.00002942,-0.
 00000194,-0.00001179,-0.00000057,-0.00000713,0.00000129,0.00000046,0.0
 0000896,0.00000593,-0.00000263,0.00000065,0.00000242,-0.00000402,0.000
 00297,-0.00000537,-0.00031449,0.00024346,-0.00000787,0.00002097,-0.000
 09086,-0.00000036,0.00026806,-0.00026902,0.00014027,-0.00065664,0.0012
 3409,0.00089205,0.00097864,-0.00202309,-0.00131267,-0.00003439,0.00005
 186,-0.00027830,-0.00109596,0.00965573,-0.00257271,-0.00049925,-0.0002
 3121,0.00048486,-0.00184638,-0.00183235,-0.00634112,0.31926025,0.02759
 103,0.28714003,-0.00001913,0.00002624,-0.00000209,-0.00001522,0.000023
 59,0.00000939,0.00001531,-0.00003533,0.00001479,0.00000026,0.00000918,
 -0.00000258,-0.00000329,-0.00000266,0.00000599,0.00002837,-0.00000738,
 -0.00001308,-0.00002095,0.00002253,0.00001839,-0.00002987,0.00000636,0
 .00001631,0.00001807,-0.00001062,-0.00001306,-0.00002402,-0.00000769,0
 .00000466,-0.00000037,0.00001589,0.00000641,-0.00000019,0.00001434,-0.
 00001011,0.00000196,-0.00000520,-0.00001297,-0.00000059,0.00000170,-0.
 00000006,0.00000249,-0.00001351,-0.00000387,0.00000379,-0.00000262,-0.
 00000115,-0.00000767,-0.00000174,0.00000092,-0.00000188,-0.00000143,-0
 .00000354,0.00000418,-0.00000403,0.00000142,-0.00000016,0.00000431,0.0
 0000012,0.00000377,0.00000078,-0.00000193,0.00008626,0.00000869,-0.000
 02889,-0.00000118,0.00001515,-0.00001422,-0.00000367,-0.00000251,0.000
 00034,-0.00000095,-0.00000053,0.00000195,0.00000412,-0.00000071,0.0000
 0115,-0.00000066,0.00000079,-0.00000109,-0.00011257,0.00000497,-0.0000
 2270,0.00001522,0.00000580,0.00000079,0.00010151,-0.00004077,0.0000612
 3,-0.00018414,0.00015414,0.00002732,0.00020014,-0.00023693,-0.00007818
 ,0.00002261,-0.00003624,-0.00000710,-0.00048384,0.00099628,-0.00122698
 ,-0.00002928,-0.00006185,-0.00005620,0.00088898,-0.00142557,0.00262587
 ,-0.07476901,-0.12623523,-0.05096033,0.08488989,-0.00000211,-0.0000022
 6,-0.00000182,0.00001477,0.00000128,0.00000967,-0.00001685,-0.00000809
 ,-0.00000731,0.00000460,0.00001208,-0.00000005,0.00000490,0.00000323,-
 0.00000059,0.00000046,0.00001744,0.00000621,0.00001671,0.00000441,-0.0
 0000295,-0.00004298,0.00000141,0.00000766,0.00000406,-0.00001344,-0.00
 000529,-0.00000301,-0.00000096,-0.00000058,0.00000222,-0.00000789,-0.0
 0000305,-0.00000062,0.00000106,0.00000811,-0.00000206,0.00000100,0.000
 00174,0.00000188,-0.00000316,-0.00000396,0.00000210,0.00000571,0.00000
 196,-0.00000196,0.00000042,0.00000018,-0.00000178,-0.00000258,0.000000
 11,0.00000086,-0.00000382,-0.00000340,-0.00000309,0.00000050,-0.000001
 23,0.00000191,0.00000171,0.00000149,0.00000297,-0.00000381,0.00000148,
 0.00007007,-0.00001494,-0.00001235,0.00000958,-0.00000159,0.00000701,0
 .00000043,-0.00000311,0.00000123,0.00000188,-0.00000166,-0.00000157,-0
 .00000259,0.00000059,-0.00000048,0.00000055,-0.00000107,0.00000067,-0.
 00007945,0.00006251,-0.00004039,0.00000295,-0.00001264,0.00001250,0.00
 007148,-0.00007741,0.00007125,-0.00005000,0.00015378,-0.00003484,0.000
 02682,-0.00014224,-0.00000877,-0.00000308,-0.00003079,0.00000330,0.000
 09786,0.00040688,0.00053343,0.00008550,-0.00023993,0.00015771,-0.00078
 766,-0.00117404,-0.00153706,-0.16934706,-0.48207154,-0.08642462,0.1619
 8610,0.48172223,0.00000079,0.00000037,0.00000210,-0.00000851,0.0000124
 5,0.00001855,0.00000510,-0.00000590,-0.00002156,-0.00000247,0.00000536
 ,0.00001046,-0.00000021,0.00000142,-0.00000211,0.00000897,-0.00000871,
 -0.00000954,-0.00001105,0.00001151,0.00001196,0.00000511,0.00000149,-0
 .00000551,0.00000435,-0.00000322,0.00000025,-0.00000633,-0.00000309,-0
 .00000238,0.00000198,0.00000571,0.00000271,-0.00000232,0.00000505,0.00
 001595,0.00000116,-0.00000329,-0.00000881,0.00000236,-0.00000769,-0.00
 000347,0.00000006,0.00000353,0.00000837,0.00000162,-0.00000247,-0.0000
 0117,0.00000031,0.00000137,0.00000263,0.00000104,-0.00000209,-0.000005
 17,-0.00000036,-0.00000003,-0.00000117,0.00000172,-0.00000022,0.000002
 30,0.00000072,-0.00000221,0.00000392,-0.00000740,0.00000311,0.00001429
 ,-0.00000342,0.00000438,0.00000818,0.00000038,0.00000062,0.00000027,0.
 00000096,-0.00000569,-0.00000383,-0.00000028,-0.00000032,-0.00000135,0
 .00000084,-0.00000168,0.00000221,-0.00002720,-0.00000060,-0.00005589,0
 .00000198,0.00001298,0.00001657,0.00004711,-0.00002618,0.00006016,-0.0
 0001314,0.00005471,-0.00007792,-0.00000922,-0.00002413,0.00000804,-0.0
 0000891,-0.00002344,0.00003023,-0.00112890,0.00120188,-0.00246095,0.00
 008511,0.00044157,0.00012714,0.00230526,-0.00123484,0.00394976,-0.0457
 1821,-0.04983774,-0.03630071,0.05457334,0.08080081,0.03959532,-0.00000
 679,0.00000975,-0.00000112,-0.00001136,0.00000670,-0.00000393,0.000012
 59,-0.00001211,0.00001388,-0.00000159,-0.00000026,-0.00000267,-0.00000
 313,-0.00000140,0.00000370,0.00001147,-0.00000891,-0.00000648,-0.00001
 574,0.00000094,0.00000359,0.00001286,0.00000045,0.00000251,0.00000513,
 0.00000695,-0.00000189,-0.00000736,-0.00000169,0.00000371,-0.00000176,
 0.00000886,0.00000342,0.00000001,0.00000595,-0.00001048,0.00000178,-0.
 00000218,-0.00000388,-0.00000194,0.00000457,0.00000245,0.00000130,-0.0
 0000824,-0.00000479,0.00000154,-0.00000074,-0.00000064,-0.00000262,-0.
 00000034,-0.00000028,-0.00000116,0.00000098,0.00000044,0.00000333,-0.0
 0000199,0.00000124,-0.00000142,0.00000176,-0.00000112,-0.00000006,0.00
 000436,-0.00000231,-0.00001020,0.00001189,-0.00000609,-0.00000407,0.00
 000434,-0.00000917,-0.00000230,0.,-0.00000053,-0.00000122,0.00000111,0
 .00000216,0.00000339,-0.00000032,0.00000084,-0.00000035,0.00000170,-0.
 00000159,0.00002531,-0.00005618,0.00004031,0.00000867,0.00001476,-0.00
 001036,-0.00004319,0.00006185,-0.00005808,-0.00001386,-0.00018708,0.00
 008064,-0.00000468,0.00016443,-0.00001858,0.00006291,0.00004777,-0.000
 03375,0.00003872,-0.00160684,0.00067986,0.00020673,0.00013056,0.000060
 43,-0.00034942,0.00208816,-0.00082077,-0.29944432,0.00596260,-0.265338
 95,-0.01057829,0.00793365,-0.01010231,0.31011108,-0.00000497,0.0000046
 1,-0.00000091,0.00000536,0.00000775,0.00001174,-0.00000711,-0.00001296
 ,-0.00000575,0.00000291,0.00000940,0.00000030,0.00000249,0.00000073,0.
 00000058,0.00001057,0.00000427,-0.00000267,-0.00000118,0.00001303,0.00
 000698,-0.00003174,0.00000513,0.00000754,0.00001248,-0.00001010,-0.000
 00666,-0.00001252,-0.00000556,-0.00000075,0.00000369,0.00000333,0.0000
 0128,-0.00000038,0.00000395,0.00000600,-0.00000118,-0.00000154,-0.0000
 0315,0.00000130,-0.00000226,-0.00000321,0.00000116,0.00000030,0.000001
 03,-0.00000011,-0.00000009,-0.00000011,-0.00000226,-0.00000187,0.00000
 021,0.00000031,-0.00000300,-0.00000314,-0.00000139,-0.00000020,-0.0000
 0049,0.00000182,0.00000169,0.00000144,0.00000419,-0.00000335,0.0000031
 7,0.00005927,-0.00000216,-0.00000729,0.00000195,0.00000326,0.00000209,
 -0.00000039,-0.00000223,0.00000110,0.00000099,-0.00000225,-0.00000130,
 -0.00000099,0.00000016,-0.00000027,0.00000144,-0.00000108,0.00000107,-
 0.00009218,0.00002381,-0.00006369,0.00000567,0.00000850,0.00001600,0.0
 0009770,-0.00005653,0.00009524,-0.00005802,-0.00010061,-0.00030093,-0.
 00004973,0.00031964,0.00034026,0.00006888,-0.00012543,0.00009901,-0.00
 071063,-0.00273855,0.00109122,0.00021704,-0.00017877,0.00024635,0.0019
 2646,0.00482449,-0.00167068,0.04829924,-0.05280025,0.05213794,-0.03516
 428,0.00142075,-0.03137477,-0.01458584,0.04939401,0.00000018,0.0000034
 8,0.00000345,-0.00000734,0.00000656,0.00000921,0.00000633,-0.00000315,
 -0.00001270,-0.00000243,0.00000163,0.00000657,-0.00000114,0.00000123,-
 0.00000095,0.00000892,-0.00000971,-0.00000820,-0.00001446,0.00000223,0
 .00000802,0.00002626,0.00000098,-0.00001009,0.00000238,0.00000474,0.00
 000334,-0.00000394,-0.00000180,-0.00000230,0.00000152,0.00000686,0.000
 00270,-0.00000151,0.00000280,0.00000889,0.00000103,-0.00000228,-0.0000
 0625,0.00000110,-0.00000525,-0.00000166,-0.00000006,0.00000113,0.00000
 418,0.00000203,-0.00000203,-0.00000085,0.,0.00000112,0.00000155,0.0000
 0063,-0.00000077,-0.00000317,0.00000038,-0.00000003,-0.00000033,0.0000
 0107,-0.00000021,0.00000186,-0.00000087,-0.00000051,0.00000487,-0.0000
 5206,0.00000807,0.00002367,-0.00000543,0.00000186,0.00000297,0.0000000
 9,0.00000105,0.00000014,0.00000039,-0.00000348,-0.00000222,0.00000030,
 -0.00000016,-0.00000062,0.00000138,-0.00000145,0.00000227,0.00004117,-
 0.00003521,-0.00002085,-0.00000578,0.00001618,0.00000697,-0.00002344,0
 .00003033,0.00000176,0.00007985,-0.00013083,-0.00014171,-0.00010694,0.
 00025583,0.00011083,-0.00002106,-0.00000126,0.00008456,0.00053551,0.00
 033652,0.00007422,-0.00027625,0.00016697,-0.00024696,-0.00108391,-0.00
 077897,-0.00072662,-0.26973423,0.01428848,-0.24171921,-0.00491027,0.00
 646378,-0.00492985,0.27554060,-0.02062476,0.24747253\\-0.00000002,0.00
 000027,0.00000031,-0.00000021,-0.00000005,-0.00000043,-0.00000002,0.00
 000019,0.00000025,-0.00000005,0.00000018,0.00000012,0.,0.00000030,-0.0
 0000027,-0.00000017,0.00000035,0.00000023,0.00000064,0.00000028,0.0000
 0031,0.00000144,-0.00000121,-0.00000138,0.00000003,0.00000054,0.000000
 23,0.00000057,0.00000004,-0.00000008,-0.00000007,-0.00000002,-0.000000
 11,0.00000003,0.00000021,-0.00000003,0.,0.00000028,0.,0.,0.00000007,0.
 00000004,-0.00000015,0.00000008,-0.00000010,-0.00000004,0.00000038,0.,
 -0.00000018,0.00000028,0.00000010,-0.00000010,0.00000032,0.00000003,-0
 .00000002,0.00000036,0.00000003,0.00000014,0.00000016,-0.00000001,0.00
 000030,-0.00000017,-0.00000006,-0.00000391,0.00000010,0.00000215,-0.00
 000009,0.,-0.00000006,0.00000009,0.00000019,0.00000001,0.,0.00000024,0
 .00000002,0.00000007,0.00000031,0.00000002,0.00000025,0.00000009,-0.00
 000002,0.00000578,0.00000035,-0.00000208,-0.00000135,0.00000019,-0.000
 00002,-0.00000189,-0.00000031,0.00000066,0.00000047,-0.00000035,0.0000
 0117,0.00000065,-0.00000218,-0.00000003,-0.00000070,0.00000031,-0.0000
 0063,0.00000188,0.00000174,-0.00000425,-0.00000199,0.00000057,0.000000
 42,-0.00000080,-0.00000380,0.00000410,0.00000026,0.00000144,-0.0000006
 8,0.00000103,0.00000033,0.00000069,-0.00000189,-0.00000206,-0.00000063
 \\\@


 I FIND THAT THE THREE TRULY GREAT TIMES FOR THINKING THOUGHTS
 ARE WHEN I AM STANDING IN THE SHOWER, SITTING ON THE JOHN, OR WALKING.

                                    -- COLIN FLETCHER
 Job cpu time:       0 days 22 hours 10 minutes 13.3 seconds.
 Elapsed time:       0 days  0 hours 47 minutes 32.7 seconds.
 File lengths (MBytes):  RWF=   1240 Int=      0 D2E=      0 Chk=     32 Scr=      8
 Normal termination of Gaussian 16 at Fri Jan 27 21:02:36 2023.
