 Entering Gaussian System, Link 0=g09
 Input=Nic2hBwB97XDaVDZStep432TS.gjf
 Output=Nic2hBwB97XDaVDZStep432TS.log
 Initial command:
 /sw/contrib/gaussian/g09/A02/g09/l1.exe /gscratch/scrubbed/gds001/Gau-13187.inp -scrdir=/gscratch/scrubbed/gds001/
 Entering Link 1 = /sw/contrib/gaussian/g09/A02/g09/l1.exe PID=     13188.
  
 Copyright (c) 1988,1990,1992,1993,1995,1998,2003,2009, Gaussian, Inc.
                  All Rights Reserved.
  
 This is part of the Gaussian(R) 09 program.  It is based on
 the Gaussian(R) 03 system (copyright 2003, Gaussian, Inc.),
 the Gaussian(R) 98 system (copyright 1998, Gaussian, Inc.),
 the Gaussian(R) 94 system (copyright 1995, Gaussian, Inc.),
 the Gaussian 92(TM) system (copyright 1992, Gaussian, Inc.),
 the Gaussian 90(TM) system (copyright 1990, Gaussian, Inc.),
 the Gaussian 88(TM) system (copyright 1988, Gaussian, Inc.),
 the Gaussian 86(TM) system (copyright 1986, Carnegie Mellon
 University), and the Gaussian 82(TM) system (copyright 1983,
 Carnegie Mellon University). Gaussian is a federally registered
 trademark of Gaussian, Inc.
  
 This software contains proprietary and confidential information,
 including trade secrets, belonging to Gaussian, Inc.
  
 This software is provided under written license and may be
 used, copied, transmitted, or stored only in accord with that
 written license.
  
 The following legend is applicable only to US Government
 contracts under FAR:
  
                    RESTRICTED RIGHTS LEGEND
  
 Use, reproduction and disclosure by the US Government is
 subject to restrictions as set forth in subparagraphs (a)
 and (c) of the Commercial Computer Software - Restricted
 Rights clause in FAR 52.227-19.
  
 Gaussian, Inc.
 340 Quinnipiac St., Bldg. 40, Wallingford CT 06492
  
  
 ---------------------------------------------------------------
 Warning -- This program may not be used in any manner that
 competes with the business of Gaussian, Inc. or will provide
 assistance to any competitor of Gaussian, Inc.  The licensee
 of this program is prohibited from giving any competitor of
 Gaussian, Inc. access to this program.  By using this program,
 the user acknowledges that Gaussian, Inc. is engaged in the
 business of creating and licensing software in the field of
 computational chemistry and represents and warrants to the
 licensee that it is not a competitor of Gaussian, Inc. and that
 it will not use this program in any manner prohibited above.
 ---------------------------------------------------------------
  

 Cite this work as:
 Gaussian 09, Revision A.02,
 M. J. Frisch, G. W. Trucks, H. B. Schlegel, G. E. Scuseria, 
 M. A. Robb, J. R. Cheeseman, G. Scalmani, V. Barone, B. Mennucci, 
 G. A. Petersson, H. Nakatsuji, M. Caricato, X. Li, H. P. Hratchian, 
 A. F. Izmaylov, J. Bloino, G. Zheng, J. L. Sonnenberg, M. Hada, 
 M. Ehara, K. Toyota, R. Fukuda, J. Hasegawa, M. Ishida, T. Nakajima, 
 Y. Honda, O. Kitao, H. Nakai, T. Vreven, J. A. Montgomery, Jr., 
 J. E. Peralta, F. Ogliaro, M. Bearpark, J. J. Heyd, E. Brothers, 
 K. N. Kudin, V. N. Staroverov, R. Kobayashi, J. Normand, 
 K. Raghavachari, A. Rendell, J. C. Burant, S. S. Iyengar, J. Tomasi, 
 M. Cossi, N. Rega, J. M. Millam, M. Klene, J. E. Knox, J. B. Cross, 
 V. Bakken, C. Adamo, J. Jaramillo, R. Gomperts, R. E. Stratmann, 
 O. Yazyev, A. J. Austin, R. Cammi, C. Pomelli, J. W. Ochterski, 
 R. L. Martin, K. Morokuma, V. G. Zakrzewski, G. A. Voth, 
 P. Salvador, J. J. Dannenberg, S. Dapprich, A. D. Daniels, 
 O. Farkas, J. B. Foresman, J. V. Ortiz, J. Cioslowski, 
 and D. J. Fox, Gaussian, Inc., Wallingford CT, 2009.
 
 ******************************************
 Gaussian 09:  EM64L-G09RevA.02 11-Jun-2009
                26-Oct-2022 
 ******************************************
 %nprocshared=28
 Will use up to   28 processors via shared memory.
 %mem=41GB
 ---------------------------------------------------
 # wB97XD/aug-cc-pVDZ opt=(TS,CalcFC,MaxStep=5) freq
 ---------------------------------------------------
 1/5=1,8=5,10=4,14=-1,18=20,26=3,38=1/1,3;
 2/9=110,12=2,17=6,18=5,40=1/2;
 3/5=16,7=10,11=2,16=1,25=1,30=1,71=2,74=-58/1,2,3;
 4//1;
 5/5=2,38=5/2;
 8/6=4,10=90,11=11/1;
 11/6=1,8=1,9=11,15=111,16=1/1,2,10;
 10/6=1,7=6,13=1/2;
 6/7=2,8=2,9=2,10=2,28=1/1;
 7/10=1,18=20,25=1/1,2,3,16;
 1/5=1,8=5,10=4,14=-1,18=20/3(2);
 2/9=110/2;
 99//99;
 2/9=110/2;
 3/5=16,7=10,11=2,16=1,25=1,30=1,71=1,74=-58/1,2,3;
 4/5=5,16=3/1;
 5/5=2,38=5/2;
 7//1,2,3,16;
 1/5=1,8=5,14=-1,18=20/3(-5);
 2/9=110/2;
 6/7=2,8=2,9=2,10=2,19=2,28=1/1;
 99/9=1/99;
 ----
 blah
 ----
 Symbolic Z-matrix:
 Charge =  1 Multiplicity = 1
 N
 C                    1    R2
 C                    2    R3       1    A3
 C                    3    R4       2    A4       1    D4       0
 C                    4    R5       3    A5       2    D5       0
 C                    5    R6       4    A6       3    D6       0
 C                    5    R7       4    A7       3    D7       0
 C                    7    R8       5    A8       4    D8       0
 C                    8    R9       7    A9       5    D9       0
 C                    9    R10      8    A10      7    D10      0
 N                    10   R11      9    A11      8    D11      0
 C                    11   R12      10   A12      9    D12      0
 H                    2    R13      1    A13      6    D13      0
 H                    3    R14      2    A14      1    D14      0
 H                    4    R15      3    A15      2    D15      0
 H                    6    R16      5    A16      4    D16      0
 H                    7    R17      5    A17      4    D17      0
 H                    8    R18      7    A18      5    D18      0
 H                    8    R19      7    A19      5    D19      0
 H                    9    R20      8    A20      7    D20      0
 H                    9    R21      8    A21      7    D21      0
 H                    10   R22      9    A22      8    D22      0
 H                    10   R23      9    A23      8    D23      0
 H                    12   R24      11   A24      10   D24      0
 H                    12   R25      11   A25      10   D25      0
 H                    12   R26      11   A26      10   D26      0
 O                    1    RonPy    2    AoncPy   3    DonccPy  0
 O                    11   RonPyr   10   AoncPyr  9    DonccPyr 0
 H                    27   RhoPy    1    AhonPy   2    DhoncPy  0
 H                    28   RhoPyr   11   AhonPyr  10   DhoncPyr 0
 H                    1    Rscan1   2    Ahpy     3    Dhpy     0
 H                    27   Rscan2   29   Aw1      28   Dw1      0
 H                    28   Rscan3   30   Aw2      11   Dw2      0
       Variables:
  R2                    1.34086                  
  R3                    1.39043                  
  A3                  121.637                    
  R4                    1.39563                  
  A4                  118.991                    
  D4                   -4.722                    
  R5                    1.39404                  
  A5                  119.29                     
  D5                    4.209                    
  R6                    1.38638                  
  A6                  117.029                    
  D6                    1.603                    
  R7                    1.50802                  
  A7                  124.869                    
  D7                 -170.53                     
  R8                    1.54957                  
  A8                  116.188                    
  D8                 -130.873                    
  R9                    1.54133                  
  A9                  105.359                    
  D9                 -125.914                    
  R10                   1.52221                  
  A10                 103.456                    
  D10                 -20.144                    
  R11                   1.47937                  
  A11                 102.949                    
  D11                  38.851                    
  R12                   1.46786                  
  A12                 113.479                    
  D12                -166.394                    
  R13                   1.08898                  
  A13                 116.67                     
  D13                -179.59                     
  R14                   1.08805                  
  A14                 119.857                    
  D14                 178.902                    
  R15                   1.09071                  
  A15                 120.209                    
  D15                -174.443                    
  R16                   1.08992                  
  A16                 120.281                    
  D16                 177.968                    
  R17                   1.1005                   
  A17                 109.023                    
  D17                  -6.326                    
  R18                   1.095                    
  A18                 111.87                     
  D18                  -3.761                    
  R19                   1.095                    
  A19                 109.324                    
  D19                 114.447                    
  R20                   1.09747                  
  A20                 110.813                    
  D20                  97.384                    
  R21                   1.09403                  
  A21                 112.769                    
  D21                -141.649                    
  R22                   1.0963                   
  A22                 114.14                     
  D22                 157.846                    
  R23                   1.10198                  
  A23                 111.458                    
  D23                 -78.82                     
  R24                   1.09996                  
  A24                 111.186                    
  D24                  59.677                    
  R25                   1.09621                  
  A25                 109.457                    
  D25                 -60.424                    
  R26                   1.09631                  
  A26                 109.575                    
  D26                 180.622                    
  RonPy                 2.43968                  
  AoncPy              132.801                    
  DonccPy             126.225                    
  RonPyr                2.54135                  
  AoncPyr             104.422                    
  DonccPyr             82.453                    
  RhoPy                 0.96202                  
  AhonPy              123.226                    
  DhoncPy             123.037                    
  RhoPyr                0.96093                  
  AhonPyr             108.92                     
  DhoncPyr             73.922                    
  Ahpy                129.957                    
  Dhpy                140.123                    
  Aw1                 114.792                    
  Dw1                  -1.769                    
  Aw2                 111.779                    
  Dw2                  -1.365                    
  Rscan1                1.4036                   
  Rscan2                1.1964                   
  Rscan3                1.1282                   
 

 GradGradGradGradGradGradGradGradGradGradGradGradGradGradGradGradGradGrad
 Berny optimization.
 Initialization pass.
                           ----------------------------
                           !    Initial Parameters    !
                           ! (Angstroms and Degrees)  !
 --------------------------                            --------------------------
 ! Name  Definition              Value          Derivative Info.                !
 --------------------------------------------------------------------------------
 ! R1    R(1,2)                  1.3409         calculate D2E/DX2 analytically  !
 ! R2    R(1,6)                  1.3339         calculate D2E/DX2 analytically  !
 ! R3    R(1,31)                 1.4036         calculate D2E/DX2 analytically  !
 ! R4    R(2,3)                  1.3904         calculate D2E/DX2 analytically  !
 ! R5    R(2,13)                 1.089          calculate D2E/DX2 analytically  !
 ! R6    R(3,4)                  1.3956         calculate D2E/DX2 analytically  !
 ! R7    R(3,14)                 1.088          calculate D2E/DX2 analytically  !
 ! R8    R(4,5)                  1.394          calculate D2E/DX2 analytically  !
 ! R9    R(4,15)                 1.0907         calculate D2E/DX2 analytically  !
 ! R10   R(5,6)                  1.3864         calculate D2E/DX2 analytically  !
 ! R11   R(5,7)                  1.508          calculate D2E/DX2 analytically  !
 ! R12   R(6,16)                 1.0899         calculate D2E/DX2 analytically  !
 ! R13   R(7,8)                  1.5496         calculate D2E/DX2 analytically  !
 ! R14   R(7,11)                 1.5021         calculate D2E/DX2 analytically  !
 ! R15   R(7,17)                 1.1005         calculate D2E/DX2 analytically  !
 ! R16   R(8,9)                  1.5413         calculate D2E/DX2 analytically  !
 ! R17   R(8,18)                 1.095          calculate D2E/DX2 analytically  !
 ! R18   R(8,19)                 1.095          calculate D2E/DX2 analytically  !
 ! R19   R(9,10)                 1.5222         calculate D2E/DX2 analytically  !
 ! R20   R(9,20)                 1.0975         calculate D2E/DX2 analytically  !
 ! R21   R(9,21)                 1.094          calculate D2E/DX2 analytically  !
 ! R22   R(10,11)                1.4794         calculate D2E/DX2 analytically  !
 ! R23   R(10,22)                1.0963         calculate D2E/DX2 analytically  !
 ! R24   R(10,23)                1.102          calculate D2E/DX2 analytically  !
 ! R25   R(11,12)                1.4679         calculate D2E/DX2 analytically  !
 ! R26   R(11,33)                1.4162         calculate D2E/DX2 analytically  !
 ! R27   R(12,24)                1.1            calculate D2E/DX2 analytically  !
 ! R28   R(12,25)                1.0962         calculate D2E/DX2 analytically  !
 ! R29   R(12,26)                1.0963         calculate D2E/DX2 analytically  !
 ! R30   R(27,29)                0.962          calculate D2E/DX2 analytically  !
 ! R31   R(27,31)                1.093          calculate D2E/DX2 analytically  !
 ! R32   R(27,32)                1.1964         calculate D2E/DX2 analytically  !
 ! R33   R(28,30)                0.9609         calculate D2E/DX2 analytically  !
 ! R34   R(28,32)                1.2238         calculate D2E/DX2 analytically  !
 ! R35   R(28,33)                1.1282         calculate D2E/DX2 analytically  !
 ! A1    A(2,1,6)              118.5167         calculate D2E/DX2 analytically  !
 ! A2    A(2,1,31)             129.957          calculate D2E/DX2 analytically  !
 ! A3    A(6,1,31)             102.5495         calculate D2E/DX2 analytically  !
 ! A4    A(1,2,3)              121.637          calculate D2E/DX2 analytically  !
 ! A5    A(1,2,13)             116.67           calculate D2E/DX2 analytically  !
 ! A6    A(3,2,13)             121.6788         calculate D2E/DX2 analytically  !
 ! A7    A(2,3,4)              118.991          calculate D2E/DX2 analytically  !
 ! A8    A(2,3,14)             119.857          calculate D2E/DX2 analytically  !
 ! A9    A(4,3,14)             121.0505         calculate D2E/DX2 analytically  !
 ! A10   A(3,4,5)              119.29           calculate D2E/DX2 analytically  !
 ! A11   A(3,4,15)             120.209          calculate D2E/DX2 analytically  !
 ! A12   A(5,4,15)             120.4871         calculate D2E/DX2 analytically  !
 ! A13   A(4,5,6)              117.029          calculate D2E/DX2 analytically  !
 ! A14   A(4,5,7)              124.869          calculate D2E/DX2 analytically  !
 ! A15   A(6,5,7)              117.6561         calculate D2E/DX2 analytically  !
 ! A16   A(1,6,5)              123.9691         calculate D2E/DX2 analytically  !
 ! A17   A(1,6,16)             115.5271         calculate D2E/DX2 analytically  !
 ! A18   A(5,6,16)             120.281          calculate D2E/DX2 analytically  !
 ! A19   A(5,7,8)              116.188          calculate D2E/DX2 analytically  !
 ! A20   A(5,7,11)             109.0279         calculate D2E/DX2 analytically  !
 ! A21   A(5,7,17)             109.023          calculate D2E/DX2 analytically  !
 ! A22   A(8,7,11)             104.8954         calculate D2E/DX2 analytically  !
 ! A23   A(8,7,17)             109.7085         calculate D2E/DX2 analytically  !
 ! A24   A(11,7,17)            107.6332         calculate D2E/DX2 analytically  !
 ! A25   A(7,8,9)              105.359          calculate D2E/DX2 analytically  !
 ! A26   A(7,8,18)             111.87           calculate D2E/DX2 analytically  !
 ! A27   A(7,8,19)             109.324          calculate D2E/DX2 analytically  !
 ! A28   A(9,8,18)             112.1838         calculate D2E/DX2 analytically  !
 ! A29   A(9,8,19)             111.2451         calculate D2E/DX2 analytically  !
 ! A30   A(18,8,19)            106.8986         calculate D2E/DX2 analytically  !
 ! A31   A(8,9,10)             103.456          calculate D2E/DX2 analytically  !
 ! A32   A(8,9,20)             110.813          calculate D2E/DX2 analytically  !
 ! A33   A(8,9,21)             112.769          calculate D2E/DX2 analytically  !
 ! A34   A(10,9,20)            109.7235         calculate D2E/DX2 analytically  !
 ! A35   A(10,9,21)            112.2448         calculate D2E/DX2 analytically  !
 ! A36   A(20,9,21)            107.8167         calculate D2E/DX2 analytically  !
 ! A37   A(9,10,11)            102.949          calculate D2E/DX2 analytically  !
 ! A38   A(9,10,22)            114.14           calculate D2E/DX2 analytically  !
 ! A39   A(9,10,23)            111.458          calculate D2E/DX2 analytically  !
 ! A40   A(11,10,22)           109.8434         calculate D2E/DX2 analytically  !
 ! A41   A(11,10,23)           109.8306         calculate D2E/DX2 analytically  !
 ! A42   A(22,10,23)           108.4874         calculate D2E/DX2 analytically  !
 ! A43   A(7,11,10)            104.9105         calculate D2E/DX2 analytically  !
 ! A44   A(7,11,12)            112.4538         calculate D2E/DX2 analytically  !
 ! A45   A(7,11,33)            116.4034         calculate D2E/DX2 analytically  !
 ! A46   A(10,11,12)           113.479          calculate D2E/DX2 analytically  !
 ! A47   A(10,11,33)           106.0158         calculate D2E/DX2 analytically  !
 ! A48   A(12,11,33)           103.6838         calculate D2E/DX2 analytically  !
 ! A49   A(11,12,24)           111.186          calculate D2E/DX2 analytically  !
 ! A50   A(11,12,25)           109.457          calculate D2E/DX2 analytically  !
 ! A51   A(11,12,26)           109.575          calculate D2E/DX2 analytically  !
 ! A52   A(24,12,25)           108.6957         calculate D2E/DX2 analytically  !
 ! A53   A(24,12,26)           109.3093         calculate D2E/DX2 analytically  !
 ! A54   A(25,12,26)           108.5709         calculate D2E/DX2 analytically  !
 ! A55   A(29,27,31)           112.7172         calculate D2E/DX2 analytically  !
 ! A56   A(29,27,32)           114.792          calculate D2E/DX2 analytically  !
 ! A57   A(31,27,32)           108.2184         calculate D2E/DX2 analytically  !
 ! A58   A(30,28,32)           112.6989         calculate D2E/DX2 analytically  !
 ! A59   A(30,28,33)           111.779          calculate D2E/DX2 analytically  !
 ! A60   A(32,28,33)           126.9826         calculate D2E/DX2 analytically  !
 ! A61   A(1,31,27)            155.2878         calculate D2E/DX2 analytically  !
 ! A62   A(11,33,28)           174.3728         calculate D2E/DX2 analytically  !
 ! A63   L(27,32,28,31,-1)     175.7346         calculate D2E/DX2 analytically  !
 ! A64   L(27,32,28,31,-2)     179.2655         calculate D2E/DX2 analytically  !
 ! D1    D(6,1,2,3)             -0.9382         calculate D2E/DX2 analytically  !
 ! D2    D(6,1,2,13)          -179.59           calculate D2E/DX2 analytically  !
 ! D3    D(31,1,2,3)           140.123          calculate D2E/DX2 analytically  !
 ! D4    D(31,1,2,13)          -38.5288         calculate D2E/DX2 analytically  !
 ! D5    D(2,1,6,5)              7.4116         calculate D2E/DX2 analytically  !
 ! D6    D(2,1,6,16)          -178.0143         calculate D2E/DX2 analytically  !
 ! D7    D(31,1,6,5)          -143.0145         calculate D2E/DX2 analytically  !
 ! D8    D(31,1,6,16)           31.5596         calculate D2E/DX2 analytically  !
 ! D9    D(2,1,31,27)         -109.7893         calculate D2E/DX2 analytically  !
 ! D10   D(6,1,31,27)           35.7558         calculate D2E/DX2 analytically  !
 ! D11   D(1,2,3,4)             -4.722          calculate D2E/DX2 analytically  !
 ! D12   D(1,2,3,14)           178.902          calculate D2E/DX2 analytically  !
 ! D13   D(13,2,3,4)           173.8623         calculate D2E/DX2 analytically  !
 ! D14   D(13,2,3,14)           -2.5137         calculate D2E/DX2 analytically  !
 ! D15   D(2,3,4,5)              4.209          calculate D2E/DX2 analytically  !
 ! D16   D(2,3,4,15)          -174.443          calculate D2E/DX2 analytically  !
 ! D17   D(14,3,4,5)          -179.4597         calculate D2E/DX2 analytically  !
 ! D18   D(14,3,4,15)            1.8883         calculate D2E/DX2 analytically  !
 ! D19   D(3,4,5,6)              1.603          calculate D2E/DX2 analytically  !
 ! D20   D(3,4,5,7)           -170.53           calculate D2E/DX2 analytically  !
 ! D21   D(15,4,5,6)          -179.7488         calculate D2E/DX2 analytically  !
 ! D22   D(15,4,5,7)             8.1182         calculate D2E/DX2 analytically  !
 ! D23   D(4,5,6,1)             -7.7026         calculate D2E/DX2 analytically  !
 ! D24   D(4,5,6,16)           177.968          calculate D2E/DX2 analytically  !
 ! D25   D(7,5,6,1)            165.0135         calculate D2E/DX2 analytically  !
 ! D26   D(7,5,6,16)            -9.3159         calculate D2E/DX2 analytically  !
 ! D27   D(4,5,7,8)           -130.873          calculate D2E/DX2 analytically  !
 ! D28   D(4,5,7,11)           110.9221         calculate D2E/DX2 analytically  !
 ! D29   D(4,5,7,17)            -6.326          calculate D2E/DX2 analytically  !
 ! D30   D(6,5,7,8)             57.0389         calculate D2E/DX2 analytically  !
 ! D31   D(6,5,7,11)           -61.166          calculate D2E/DX2 analytically  !
 ! D32   D(6,5,7,17)          -178.4141         calculate D2E/DX2 analytically  !
 ! D33   D(5,7,8,9)           -125.914          calculate D2E/DX2 analytically  !
 ! D34   D(5,7,8,18)            -3.761          calculate D2E/DX2 analytically  !
 ! D35   D(5,7,8,19)           114.447          calculate D2E/DX2 analytically  !
 ! D36   D(11,7,8,9)            -5.4649         calculate D2E/DX2 analytically  !
 ! D37   D(11,7,8,18)          116.6881         calculate D2E/DX2 analytically  !
 ! D38   D(11,7,8,19)         -125.1039         calculate D2E/DX2 analytically  !
 ! D39   D(17,7,8,9)           109.8913         calculate D2E/DX2 analytically  !
 ! D40   D(17,7,8,18)         -127.9557         calculate D2E/DX2 analytically  !
 ! D41   D(17,7,8,19)           -9.7477         calculate D2E/DX2 analytically  !
 ! D42   D(5,7,11,10)          155.1716         calculate D2E/DX2 analytically  !
 ! D43   D(5,7,11,12)          -81.0378         calculate D2E/DX2 analytically  !
 ! D44   D(5,7,11,33)           38.3658         calculate D2E/DX2 analytically  !
 ! D45   D(8,7,11,10)           30.0865         calculate D2E/DX2 analytically  !
 ! D46   D(8,7,11,12)          153.8772         calculate D2E/DX2 analytically  !
 ! D47   D(8,7,11,33)          -86.7192         calculate D2E/DX2 analytically  !
 ! D48   D(17,7,11,10)         -86.7029         calculate D2E/DX2 analytically  !
 ! D49   D(17,7,11,12)          37.0877         calculate D2E/DX2 analytically  !
 ! D50   D(17,7,11,33)         156.4914         calculate D2E/DX2 analytically  !
 ! D51   D(7,8,9,10)           -20.144          calculate D2E/DX2 analytically  !
 ! D52   D(7,8,9,20)            97.384          calculate D2E/DX2 analytically  !
 ! D53   D(7,8,9,21)          -141.649          calculate D2E/DX2 analytically  !
 ! D54   D(18,8,9,10)         -142.0942         calculate D2E/DX2 analytically  !
 ! D55   D(18,8,9,20)          -24.5662         calculate D2E/DX2 analytically  !
 ! D56   D(18,8,9,21)           96.4008         calculate D2E/DX2 analytically  !
 ! D57   D(19,8,9,10)           98.2139         calculate D2E/DX2 analytically  !
 ! D58   D(19,8,9,20)         -144.2581         calculate D2E/DX2 analytically  !
 ! D59   D(19,8,9,21)          -23.2911         calculate D2E/DX2 analytically  !
 ! D60   D(8,9,10,11)           38.851          calculate D2E/DX2 analytically  !
 ! D61   D(8,9,10,22)          157.846          calculate D2E/DX2 analytically  !
 ! D62   D(8,9,10,23)          -78.82           calculate D2E/DX2 analytically  !
 ! D63   D(20,9,10,11)         -79.4367         calculate D2E/DX2 analytically  !
 ! D64   D(20,9,10,22)          39.5583         calculate D2E/DX2 analytically  !
 ! D65   D(20,9,10,23)         162.8923         calculate D2E/DX2 analytically  !
 ! D66   D(21,9,10,11)         160.7079         calculate D2E/DX2 analytically  !
 ! D67   D(21,9,10,22)         -80.2971         calculate D2E/DX2 analytically  !
 ! D68   D(21,9,10,23)          43.0369         calculate D2E/DX2 analytically  !
 ! D69   D(9,10,11,7)          -43.2608         calculate D2E/DX2 analytically  !
 ! D70   D(9,10,11,12)        -166.394          calculate D2E/DX2 analytically  !
 ! D71   D(9,10,11,33)          80.4637         calculate D2E/DX2 analytically  !
 ! D72   D(22,10,11,7)        -165.2058         calculate D2E/DX2 analytically  !
 ! D73   D(22,10,11,12)         71.661          calculate D2E/DX2 analytically  !
 ! D74   D(22,10,11,33)        -41.4814         calculate D2E/DX2 analytically  !
 ! D75   D(23,10,11,7)          75.5518         calculate D2E/DX2 analytically  !
 ! D76   D(23,10,11,12)        -47.5814         calculate D2E/DX2 analytically  !
 ! D77   D(23,10,11,33)       -160.7238         calculate D2E/DX2 analytically  !
 ! D78   D(7,11,12,24)         -59.2086         calculate D2E/DX2 analytically  !
 ! D79   D(7,11,12,25)        -179.3096         calculate D2E/DX2 analytically  !
 ! D80   D(7,11,12,26)          61.7364         calculate D2E/DX2 analytically  !
 ! D81   D(10,11,12,24)         59.677          calculate D2E/DX2 analytically  !
 ! D82   D(10,11,12,25)        -60.424          calculate D2E/DX2 analytically  !
 ! D83   D(10,11,12,26)       -179.378          calculate D2E/DX2 analytically  !
 ! D84   D(33,11,12,24)        174.2186         calculate D2E/DX2 analytically  !
 ! D85   D(33,11,12,25)         54.1176         calculate D2E/DX2 analytically  !
 ! D86   D(33,11,12,26)        -64.8364         calculate D2E/DX2 analytically  !
 ! D87   D(29,27,28,30)        -85.8576         calculate D2E/DX2 analytically  !
 ! D88   D(29,27,28,33)        129.8401         calculate D2E/DX2 analytically  !
 ! D89   D(31,27,28,30)        147.974          calculate D2E/DX2 analytically  !
 ! D90   D(31,27,28,33)          3.6717         calculate D2E/DX2 analytically  !
 ! D91   D(29,27,31,1)        -141.2796         calculate D2E/DX2 analytically  !
 ! D92   D(32,27,31,1)         -13.2274         calculate D2E/DX2 analytically  !
 --------------------------------------------------------------------------------
 Trust Radius=5.00D-02 FncErr=1.00D-07 GrdErr=1.00D-06
 Number of steps in this run= 198 maximum allowed number of steps= 198.
 Search for a saddle point of order  1.
 GradGradGradGradGradGradGradGradGradGradGradGradGradGradGradGradGradGrad

                          Input orientation:                          
 ---------------------------------------------------------------------
 Center     Atomic      Atomic             Coordinates (Angstroms)
 Number     Number       Type             X           Y           Z
 ---------------------------------------------------------------------
      1          7           0        0.000000    0.000000    0.000000
      2          6           0        0.000000    0.000000    1.340857
      3          6           0        1.183798    0.000000    2.070188
      4          6           0        2.397848   -0.100494    1.389192
      5          6           0        2.399207   -0.109049   -0.004820
      6          6           0        1.171952    0.019192   -0.636845
      7          6           0        3.600520   -0.413824   -0.863933
      8          6           0        3.895798    0.589467   -2.007347
      9          6           0        3.970987   -0.263058   -3.289242
     10          6           0        4.232722   -1.668109   -2.765365
     11          7           0        3.388699   -1.732102   -1.552082
     12          6           0        3.698748   -2.874097   -0.683559
     13          1           0       -0.972851   -0.022896    1.829647
     14          1           0        1.150092    0.018082    3.157565
     15          1           0        3.332254   -0.193545    1.944047
     16          1           0        1.114840    0.052341   -1.724764
     17          1           0        4.486791   -0.512983   -0.219109
     18          1           0        3.129893    1.369221   -2.073719
     19          1           0        4.847390    1.093982   -1.809975
     20          1           0        3.015593   -0.240965   -3.828846
     21          1           0        4.751823    0.074617   -3.977112
     22          1           0        3.946546   -2.466258   -3.460293
     23          1           0        5.291353   -1.805723   -2.492006
     24          1           0        4.743480   -2.840894   -0.341018
     25          1           0        3.539755   -3.807166   -1.236541
     26          1           0        3.031590   -2.865762    0.186341
     27          8           0       -1.057836   -1.444027   -1.657650
     28          8           0        1.070139   -2.301171   -2.423240
     29          1           0       -1.654464   -1.116876   -2.337718
     30          1           0        1.054115   -3.225394   -2.685797
     31          1           0       -0.825667   -0.689802   -0.901409
     32          1           0       -0.027123   -1.892126   -2.067786
     33          1           0        2.074178   -2.002358   -2.004369
 ---------------------------------------------------------------------
                    Distance matrix (angstroms):
                    1          2          3          4          5
     1  N    0.000000
     2  C    1.340857   0.000000
     3  C    2.384755   1.390432   0.000000
     4  C    2.773018   2.400440   1.395627   0.000000
     5  C    2.401688   2.752986   2.407233   1.394039   0.000000
     6  C    1.333945   2.298944   2.707127   2.371070   1.386382
     7  C    3.725771   4.242180   3.823724   2.573162   1.508017
     8  C    4.422008   5.170608   4.932415   3.775762   2.595732
     9  C    5.163047   6.105388   6.046579   4.938516   3.644399
    10  C    5.324074   6.128587   5.954923   4.804635   3.662384
    11  N    4.110038   4.780434   4.580678   3.506425   2.451003
    12  C    4.733754   5.102885   4.708348   3.698853   3.129695
    13  H    2.072335   1.088981   2.170142   3.400241   3.839722
    14  H    3.360544   2.150224   1.088049   2.167510   3.402518
    15  H    3.862732   3.391934   2.160842   1.090705   2.162360
    16  H    2.054366   3.262460   3.795940   3.371378   2.152638
    17  H    4.521334   4.777860   4.051395   2.668419   2.137076
    18  H    3.996412   4.830148   4.778496   3.832454   2.645662
    19  H    5.288666   5.884023   5.447419   4.202581   3.271004
    20  H    4.879747   5.989799   6.181597   5.256354   3.875629
    21  H    6.197000   7.132053   7.021838   5.862514   4.620350
    22  H    5.799249   6.686456   6.655932   5.613628   4.459932
    23  H    6.121204   6.778635   6.398927   5.132628   4.174842
    24  H    5.539637   5.779272   5.153245   4.000676   3.615470
    25  H    5.343539   5.802358   5.565924   4.683785   4.061287
    26  H    4.175866   4.328515   3.895614   3.081427   2.834770
    27  O    2.439679   3.492173   4.583330   4.798967   4.057728
    28  O    3.508943   4.539715   5.049674   4.597872   3.524283
    29  H    3.074019   4.185281   5.360297   5.598583   4.784389
    30  H    4.327566   5.265764   5.747990   5.308122   4.325334
    31  H    1.403600   2.487029   3.652967   3.998149   3.397199
    32  H    2.802965   3.898682   4.708429   4.587061   3.649968
    33  H    3.511288   4.416128   4.626470   3.903601   2.772806
                    6          7          8          9         10
     6  C    0.000000
     7  C    2.477300   0.000000
     8  C    3.102069   1.549574   0.000000
     9  C    3.866455   2.458069   1.541333   0.000000
    10  C    4.092175   2.363970   2.405152   1.522209   0.000000
    11  N    2.969622   1.502090   2.419524   2.348378   1.479367
    12  C    3.841615   2.468831   3.713155   3.698814   2.464438
    13  H    3.268873   5.322022   6.229066   7.120551   7.135745
    14  H    3.794473   4.729015   5.877219   7.042572   6.886723
    15  H    3.372413   2.829353   4.067457   5.272583   5.016348
    16  H    1.089922   2.671506   2.846416   3.271795   3.709984
    17  H    3.383175   1.100503   2.182307   3.123177   2.807541
    18  H    2.778619   2.205521   1.095003   2.202106   3.304539
    19  H    4.005029   2.173283   1.094997   2.190404   2.986592
    20  H    3.695344   3.027000   2.186832   1.097468   2.156184
    21  H    4.896523   3.354990   2.208579   1.094026   2.185152
    22  H    4.674152   3.327658   3.383945   2.209966   1.096296
    23  H    4.872515   2.728905   2.814143   2.181459   1.101981
    24  H    4.585130   2.733215   3.906737   3.991743   2.741123
    25  H    4.539509   3.414279   4.477867   4.118282   2.719020
    26  H    3.529710   2.727408   4.183029   4.442546   3.404359
    27  O    2.855697   4.836484   5.366179   5.417180   5.409921
    28  O    2.930129   3.520844   4.063632   3.649491   3.243415
    29  H    3.488875   5.502834   5.816026   5.768891   5.928381
    30  H    3.839196   4.208123   4.805062   4.200919   3.540482
    31  H    2.136153   4.434941   5.015163   5.375105   5.478934
    32  H    2.671798   4.098101   4.642334   4.486725   4.322392
    33  H    2.602075   2.480676   3.167943   2.876448   2.313039
                   11         12         13         14         15
    11  N    0.000000
    12  C    1.467861   0.000000
    13  H    5.777594   6.022408   0.000000
    14  H    5.500480   5.441929   2.504382   0.000000
    15  H    3.820113   3.771471   4.310005   2.505842   0.000000
    16  H    2.895598   4.040387   4.122858   4.882577   4.293898
    17  H    2.113971   2.532111   5.851947   4.776769   2.472700
    18  H    3.155518   4.501322   5.831533   5.754262   4.315743
    19  H    3.190774   4.281804   6.954816   6.285222   4.248063
    20  H    2.747062   4.158475   6.926311   7.235823   5.781766
    21  H    3.317094   4.544378   8.154744   7.992451   6.094851
    22  H    2.119304   2.817444   7.625874   7.601852   5.894869
    23  H    2.123433   2.635962   7.816355   7.238367   5.110358
    24  H    2.128738   1.099955   6.732707   5.772891   3.771146
    25  H    2.104347   1.096214   6.639716   6.296919   4.818450
    26  H    2.105903   1.096310   5.178600   4.548051   3.212581
    27  O    4.457107   5.061526   3.766707   5.495362   5.814535
    28  O    2.541353   3.203797   5.239409   6.044064   5.350930
    29  H    5.140936   5.872049   4.362147   6.273101   6.637275
    30  H    2.994247   3.335634   5.895238   6.683879   5.984772
    31  H    4.389835   5.028811   2.815155   4.569464   5.062727
    32  H    3.458236   4.094199   4.424750   5.686741   5.501400
    33  H    1.416181   2.267972   5.282266   5.619757   4.521565
                   16         17         18         19         20
    16  H    0.000000
    17  H    3.735859   0.000000
    18  H    2.432362   2.970429   0.000000
    19  H    3.876107   2.289808   1.759293   0.000000
    20  H    2.850623   3.907507   2.384582   3.035358   0.000000
    21  H    4.277991   3.812886   2.815947   2.396815   1.770894
    22  H    4.168208   3.822620   4.159377   4.026212   2.440171
    23  H    4.635118   2.735791   3.863565   3.011736   3.068336
    24  H    4.842787   2.345191   4.830216   4.201414   4.680829
    25  H    4.584143   3.575428   5.259642   5.104898   4.439885
    26  H    3.980148   2.795992   4.801315   4.791866   4.797035
    27  O    2.638966   5.803372   5.062070   6.429338   4.770144
    28  O    2.455379   4.441770   4.223332   5.115738   3.163063
    29  H    3.067870   6.524432   5.398190   6.887707   4.979972
    30  H    3.416258   5.022449   5.078778   5.814895   3.749770
    31  H    2.234784   5.359013   4.610895   6.015892   4.850425
    32  H    2.280941   5.069030   4.539072   5.722253   3.884042
    33  H    2.284796   3.350536   3.533680   4.161227   2.705085
                   21         22         23         24         25
    21  H    0.000000
    22  H    2.715073   0.000000
    23  H    2.456076   1.783926   0.000000
    24  H    4.660628   3.241193   2.449182   0.000000
    25  H    4.903884   2.628419   2.941099   1.784544   0.000000
    26  H    5.379533   3.780832   3.661114   1.791450   1.780187
    27  O    6.437260   5.416486   6.413982   6.110648   5.186482
    28  O    4.649051   3.062098   4.250746   4.256804   3.126543
    29  H    6.719210   5.869610   6.981596   6.920458   5.952324
    30  H    5.121583   3.089060   4.472942   4.388308   2.935508
    31  H    6.415035   5.698921   6.418194   5.996385   5.374680
    32  H    5.509258   4.249559   5.336067   5.161447   4.132912
    33  H    3.921138   2.416751   3.259858   3.255004   2.448430
                   26         27         28         29         30
    26  H    0.000000
    27  O    4.705852   0.000000
    28  O    3.313000   2.418492   0.000000
    29  H    5.602552   0.962022   2.972093   0.000000
    30  H    3.505556   2.947998   0.960927   3.450131   0.000000
    31  H    4.560311   1.093003   2.916601   1.712390   3.625858
    32  H    3.922344   1.196400   1.223785   1.822667   1.824450
    33  H    2.541912   3.200227   1.128200   3.846813   1.732250
                   31         32         33
    31  H    0.000000
    32  H    1.855718   0.000000
    33  H    3.368742   2.105145   0.000000
 Stoichiometry    C10H19N2O2(1+)
 Framework group  C1[X(C10H19N2O2)]
 Deg. of freedom    93
 Full point group                 C1      NOp   1
 Largest Abelian subgroup         C1      NOp   1
 Largest concise Abelian subgroup C1      NOp   1
                         Standard orientation:                         
 ---------------------------------------------------------------------
 Center     Atomic      Atomic             Coordinates (Angstroms)
 Number     Number       Type             X           Y           Z
 ---------------------------------------------------------------------
      1          7           0        2.336461    0.381584   -0.612380
      2          6           0        3.157660   -0.520001   -0.054999
      3          6           0        2.695407   -1.757494    0.378861
      4          6           0        1.327275   -2.026914    0.320525
      5          6           0        0.470870   -1.087135   -0.251078
      6          6           0        1.050209    0.062754   -0.765060
      7          6           0       -1.034996   -1.149740   -0.200439
      8          6           0       -1.773257   -0.955316   -1.548901
      9          6           0       -2.776447    0.188911   -1.303828
     10          6           0       -2.920872    0.214923    0.211290
     11          7           0       -1.541797   -0.043469    0.680237
     12          6           0       -1.462758   -0.381430    2.106474
     13          1           0        4.199671   -0.225840    0.061459
     14          1           0        3.390645   -2.474362    0.810828
     15          1           0        0.932146   -2.953708    0.738332
     16          1           0        0.434006    0.817487   -1.253528
     17          1           0       -1.339216   -2.104288    0.254966
     18          1           0       -1.079157   -0.728919   -2.364991
     19          1           0       -2.288109   -1.883714   -1.817272
     20          1           0       -2.369210    1.146141   -1.653551
     21          1           0       -3.733737    0.028040   -1.808416
     22          1           0       -3.276891    1.171503    0.611378
     23          1           0       -3.592166   -0.583757    0.566025
     24          1           0       -2.048877   -1.283925    2.334222
     25          1           0       -1.854875    0.451625    2.701410
     26          1           0       -0.416177   -0.548527    2.386908
     27          8           0        1.861817    2.722299   -0.114587
     28          8           0       -0.402177    2.225640    0.575895
     29          1           0        1.964950    3.429570   -0.758495
     30          1           0       -0.724533    2.769766    1.299355
     31          1           0        2.288591    1.775567   -0.455496
     32          1           0        0.734951    2.520906    0.233243
     33          1           0       -0.860338    1.194770    0.591092
 ---------------------------------------------------------------------
 Rotational constants (GHZ):      0.8948682      0.5292657      0.4294750
 Standard basis: Aug-CC-pVDZ (5D, 7F)
 There are   493 symmetry adapted basis functions of A   symmetry.
 Integral buffers will be    131072 words long.
 Raffenetti 2 integral format.
 Two-electron integral symmetry is turned on.
   493 basis functions,   811 primitive gaussians,   521 cartesian basis functions
    54 alpha electrons       54 beta electrons
       nuclear repulsion energy       999.5266153802 Hartrees.
 NAtoms=   33 NActive=   33 NUniq=   33 SFac= 7.50D-01 NAtFMM=   80 NAOKFM=F Big=F
 Nuclear repulsion after empirical dispersion term =      999.4987262472 Hartrees.
 One-electron integrals computed using PRISM.
 NBasis=   493 RedAO= T  NBF=   493
 NBsUse=   493 1.00D-06 NBFU=   493
 Harris functional with IExCor= 4639 diagonalized for initial guess.
 ExpMin= 2.97D-02 ExpMax= 1.17D+04 ExpMxC= 4.01D+02 IAcc=3 IRadAn=         0 AccDes= 0.00D+00
 HarFok:  IExCor= 4639 AccDes= 0.00D+00 IRadAn=         0 IDoV= 1
 ScaDFX=  1.000000  1.000000  1.000000  1.000000
 FoFCou: FMM=F IPFlag=           0 FMFlag=      100000 FMFlg1=           0
         NFxFlg=           0 DoJE=T BraDBF=F KetDBF=T FulRan=T
         Omega=  0.000000  0.000000  1.000000  0.000000  0.000000 ICntrl=     500 IOpCl=  0
         NMat0=    1 NMatS0=    1 NMatT0=    0 NMatD0=    1 NMtDS0=    0 NMtDT0=    0
         I1Cent=           4 NGrid=           0.
 Petite list used in FoFCou.
 Initial guess orbital symmetries:
       Occupied  (A) (A) (A) (A) (A) (A) (A) (A) (A) (A) (A) (A)
                 (A) (A) (A) (A) (A) (A) (A) (A) (A) (A) (A) (A)
                 (A) (A) (A) (A) (A) (A) (A) (A) (A) (A) (A) (A)
                 (A) (A) (A) (A) (A) (A) (A) (A) (A) (A) (A) (A)
                 (A) (A) (A) (A) (A) (A)
       Virtual   (A) (A) (A) (A) (A) (A) (A) (A) (A) (A) (A) (A)
                 (A) (A) (A) (A) (A) (A) (A) (A) (A) (A) (A) (A)
                 (A) (A) (A) (A) (A) (A) (A) (A) (A) (A) (A) (A)
                 (A) (A) (A) (A) (A) (A) (A) (A) (A) (A) (A) (A)
                 (A) (A) (A) (A) (A) (A) (A) (A) (A) (A) (A) (A)
                 (A) (A) (A) (A) (A) (A) (A) (A) (A) (A) (A) (A)
                 (A) (A) (A) (A) (A) (A) (A) (A) (A) (A) (A) (A)
                 (A) (A) (A) (A) (A) (A) (A) (A) (A) (A) (A) (A)
                 (A) (A) (A) (A) (A) (A) (A) (A) (A) (A) (A) (A)
                 (A) (A) (A) (A) (A) (A) (A) (A) (A) (A) (A) (A)
                 (A) (A) (A) (A) (A) (A) (A) (A) (A) (A) (A) (A)
                 (A) (A) (A) (A) (A) (A) (A) (A) (A) (A) (A) (A)
                 (A) (A) (A) (A) (A) (A) (A) (A) (A) (A) (A) (A)
                 (A) (A) (A) (A) (A) (A) (A) (A) (A) (A) (A) (A)
                 (A) (A) (A) (A) (A) (A) (A) (A) (A) (A) (A) (A)
                 (A) (A) (A) (A) (A) (A) (A) (A) (A) (A) (A) (A)
                 (A) (A) (A) (A) (A) (A) (A) (A) (A) (A) (A) (A)
                 (A) (A) (A) (A) (A) (A) (A) (A) (A) (A) (A) (A)
                 (A) (A) (A) (A) (A) (A) (A) (A) (A) (A) (A) (A)
                 (A) (A) (A) (A) (A) (A) (A) (A) (A) (A) (A) (A)
                 (A) (A) (A) (A) (A) (A) (A) (A) (A) (A) (A) (A)
                 (A) (A) (A) (A) (A) (A) (A) (A) (A) (A) (A) (A)
                 (A) (A) (A) (A) (A) (A) (A) (A) (A) (A) (A) (A)
                 (A) (A) (A) (A) (A) (A) (A) (A) (A) (A) (A) (A)
                 (A) (A) (A) (A) (A) (A) (A) (A) (A) (A) (A) (A)
                 (A) (A) (A) (A) (A) (A) (A) (A) (A) (A) (A) (A)
                 (A) (A) (A) (A) (A) (A) (A) (A) (A) (A) (A) (A)
                 (A) (A) (A) (A) (A) (A) (A) (A) (A) (A) (A) (A)
                 (A) (A) (A) (A) (A) (A) (A) (A) (A) (A) (A) (A)
                 (A) (A) (A) (A) (A) (A) (A) (A) (A) (A) (A) (A)
                 (A) (A) (A) (A) (A) (A) (A) (A) (A) (A) (A) (A)
                 (A) (A) (A) (A) (A) (A) (A) (A) (A) (A) (A) (A)
                 (A) (A) (A) (A) (A) (A) (A) (A) (A) (A) (A) (A)
                 (A) (A) (A) (A) (A) (A) (A) (A) (A) (A) (A) (A)
                 (A) (A) (A) (A) (A) (A) (A) (A) (A) (A) (A) (A)
                 (A) (A) (A) (A) (A) (A) (A) (A) (A) (A) (A) (A)
                 (A) (A) (A) (A) (A) (A) (A)
 The electronic state of the initial guess is 1-A.
 Requested convergence on RMS density matrix=1.00D-08 within 128 cycles.
 Requested convergence on MAX density matrix=1.00D-06.
 Requested convergence on             energy=1.00D-06.
 No special actions if energy rises.
 FoFJK:  IHMeth= 1 ICntrl=     0 DoSepK=T KAlg= 1 I1Cent= 0 FoldK=F
 FoFJK:  IHMeth= 1 ICntrl=     0 DoSepK=T KAlg= 1 I1Cent= 0 FoldK=F
 FoFJK:  IHMeth= 1 ICntrl=     0 DoSepK=T KAlg= 1 I1Cent= 0 FoldK=F
 FoFJK:  IHMeth= 1 ICntrl=     0 DoSepK=T KAlg= 1 I1Cent= 0 FoldK=F
 FoFJK:  IHMeth= 1 ICntrl=     0 DoSepK=T KAlg= 1 I1Cent= 0 FoldK=F
 FoFJK:  IHMeth= 1 ICntrl=     0 DoSepK=T KAlg= 1 I1Cent= 0 FoldK=F
 FoFJK:  IHMeth= 1 ICntrl=     0 DoSepK=T KAlg= 1 I1Cent= 0 FoldK=F
 FoFJK:  IHMeth= 1 ICntrl=     0 DoSepK=T KAlg= 1 I1Cent= 0 FoldK=F
 FoFJK:  IHMeth= 1 ICntrl=     0 DoSepK=T KAlg= 1 I1Cent= 0 FoldK=F
 FoFJK:  IHMeth= 1 ICntrl=     0 DoSepK=T KAlg= 1 I1Cent= 0 FoldK=F
 FoFJK:  IHMeth= 1 ICntrl=     0 DoSepK=T KAlg= 1 I1Cent= 0 FoldK=F
 FoFJK:  IHMeth= 1 ICntrl=     0 DoSepK=T KAlg= 1 I1Cent= 0 FoldK=F
 FoFJK:  IHMeth= 1 ICntrl=     0 DoSepK=T KAlg= 1 I1Cent= 0 FoldK=F
 FoFJK:  IHMeth= 1 ICntrl=     0 DoSepK=T KAlg= 1 I1Cent= 0 FoldK=F
 FoFJK:  IHMeth= 1 ICntrl=     0 DoSepK=T KAlg= 1 I1Cent= 0 FoldK=F
 SCF Done:  E(RwB97XD) =  -652.129734925     A.U. after   15 cycles
             Convg  =    0.2274D-08             -V/T =  2.0062
 Range of M.O.s used for correlation:     1   493
 NBasis=   493 NAE=    54 NBE=    54 NFC=     0 NFV=     0
 NROrb=    493 NOA=    54 NOB=    54 NVA=   439 NVB=   439

 **** Warning!!: The largest alpha MO coefficient is  0.11479280D+03

 Symmetrizing basis deriv contribution to polar:
 IMax=3 JMax=2 DiffMx= 0.00D+00
 G2DrvN: will do    34 centers at a time, making    1 passes doing MaxLOS=2.
 Calling FoFCou, ICntrl=  3107 FMM=F I1Cent=   0 AccDes= 0.00D+00.
 FoFJK:  IHMeth= 1 ICntrl=  3107 DoSepK=T KAlg= 1 I1Cent= 0 FoldK=F
 FoFDir/FoFCou used for L=0 through L=2.
 End of G2Drv Frequency-dependent properties file   721 does not exist.
 End of G2Drv Frequency-dependent properties file   722 does not exist.
          IDoAtm=111111111111111111111111111111111
          Differentiating once with respect to nuclear coordinates.
 FoFJK:  IHMeth= 1 ICntrl=     0 DoSepK=T KAlg= 1 I1Cent= 0 FoldK=F
          There are   102 degrees of freedom in the 1st order CPHF.  IDoFFX=5.
     96 vectors produced by pass  0 Test12= 2.37D-10 1.00D-07 XBig12= 4.60D-01 1.90D-01.
 AX will form    96 AO Fock derivatives at one time.
 FoFJK:  IHMeth= 1 ICntrl=     0 DoSepK=T KAlg= 1 I1Cent= 0 FoldK=F
     96 vectors produced by pass  1 Test12= 2.37D-10 1.00D-07 XBig12= 4.21D-02 6.67D-02.
 FoFJK:  IHMeth= 1 ICntrl=     0 DoSepK=T KAlg= 1 I1Cent= 0 FoldK=F
     96 vectors produced by pass  2 Test12= 2.37D-10 1.00D-07 XBig12= 7.28D-04 4.66D-03.
 FoFJK:  IHMeth= 1 ICntrl=     0 DoSepK=T KAlg= 1 I1Cent= 0 FoldK=F
     96 vectors produced by pass  3 Test12= 2.37D-10 1.00D-07 XBig12= 7.62D-06 3.59D-04.
 FoFJK:  IHMeth= 1 ICntrl=     0 DoSepK=T KAlg= 1 I1Cent= 0 FoldK=F
     96 vectors produced by pass  4 Test12= 2.37D-10 1.00D-07 XBig12= 7.02D-08 2.46D-05.
 FoFJK:  IHMeth= 1 ICntrl=     0 DoSepK=T KAlg= 1 I1Cent= 0 FoldK=F
     53 vectors produced by pass  5 Test12= 2.37D-10 1.00D-07 XBig12= 4.44D-10 1.64D-06.
 FoFJK:  IHMeth= 1 ICntrl=     0 DoSepK=T KAlg= 1 I1Cent= 0 FoldK=F
      7 vectors produced by pass  6 Test12= 2.37D-10 1.00D-07 XBig12= 5.62D-12 2.73D-07.
 FoFJK:  IHMeth= 1 ICntrl=     0 DoSepK=T KAlg= 1 I1Cent= 0 FoldK=F
 Inverted reduced A of dimension   540 with in-core refinement.
 End of Minotr Frequency-dependent properties file   721 does not exist.
 End of Minotr Frequency-dependent properties file   722 does not exist.

 **********************************************************************

            Population analysis using the SCF density.

 **********************************************************************

 Orbital symmetries:
       Occupied  (A) (A) (A) (A) (A) (A) (A) (A) (A) (A) (A) (A)
                 (A) (A) (A) (A) (A) (A) (A) (A) (A) (A) (A) (A)
                 (A) (A) (A) (A) (A) (A) (A) (A) (A) (A) (A) (A)
                 (A) (A) (A) (A) (A) (A) (A) (A) (A) (A) (A) (A)
                 (A) (A) (A) (A) (A) (A)
       Virtual   (A) (A) (A) (A) (A) (A) (A) (A) (A) (A) (A) (A)
                 (A) (A) (A) (A) (A) (A) (A) (A) (A) (A) (A) (A)
                 (A) (A) (A) (A) (A) (A) (A) (A) (A) (A) (A) (A)
                 (A) (A) (A) (A) (A) (A) (A) (A) (A) (A) (A) (A)
                 (A) (A) (A) (A) (A) (A) (A) (A) (A) (A) (A) (A)
                 (A) (A) (A) (A) (A) (A) (A) (A) (A) (A) (A) (A)
                 (A) (A) (A) (A) (A) (A) (A) (A) (A) (A) (A) (A)
                 (A) (A) (A) (A) (A) (A) (A) (A) (A) (A) (A) (A)
                 (A) (A) (A) (A) (A) (A) (A) (A) (A) (A) (A) (A)
                 (A) (A) (A) (A) (A) (A) (A) (A) (A) (A) (A) (A)
                 (A) (A) (A) (A) (A) (A) (A) (A) (A) (A) (A) (A)
                 (A) (A) (A) (A) (A) (A) (A) (A) (A) (A) (A) (A)
                 (A) (A) (A) (A) (A) (A) (A) (A) (A) (A) (A) (A)
                 (A) (A) (A) (A) (A) (A) (A) (A) (A) (A) (A) (A)
                 (A) (A) (A) (A) (A) (A) (A) (A) (A) (A) (A) (A)
                 (A) (A) (A) (A) (A) (A) (A) (A) (A) (A) (A) (A)
                 (A) (A) (A) (A) (A) (A) (A) (A) (A) (A) (A) (A)
                 (A) (A) (A) (A) (A) (A) (A) (A) (A) (A) (A) (A)
                 (A) (A) (A) (A) (A) (A) (A) (A) (A) (A) (A) (A)
                 (A) (A) (A) (A) (A) (A) (A) (A) (A) (A) (A) (A)
                 (A) (A) (A) (A) (A) (A) (A) (A) (A) (A) (A) (A)
                 (A) (A) (A) (A) (A) (A) (A) (A) (A) (A) (A) (A)
                 (A) (A) (A) (A) (A) (A) (A) (A) (A) (A) (A) (A)
                 (A) (A) (A) (A) (A) (A) (A) (A) (A) (A) (A) (A)
                 (A) (A) (A) (A) (A) (A) (A) (A) (A) (A) (A) (A)
                 (A) (A) (A) (A) (A) (A) (A) (A) (A) (A) (A) (A)
                 (A) (A) (A) (A) (A) (A) (A) (A) (A) (A) (A) (A)
                 (A) (A) (A) (A) (A) (A) (A) (A) (A) (A) (A) (A)
                 (A) (A) (A) (A) (A) (A) (A) (A) (A) (A) (A) (A)
                 (A) (A) (A) (A) (A) (A) (A) (A) (A) (A) (A) (A)
                 (A) (A) (A) (A) (A) (A) (A) (A) (A) (A) (A) (A)
                 (A) (A) (A) (A) (A) (A) (A) (A) (A) (A) (A) (A)
                 (A) (A) (A) (A) (A) (A) (A) (A) (A) (A) (A) (A)
                 (A) (A) (A) (A) (A) (A) (A) (A) (A) (A) (A) (A)
                 (A) (A) (A) (A) (A) (A) (A) (A) (A) (A) (A) (A)
                 (A) (A) (A) (A) (A) (A) (A) (A) (A) (A) (A) (A)
                 (A) (A) (A) (A) (A) (A) (A)
 The electronic state is 1-A.
 Alpha  occ. eigenvalues --  -19.43006 -19.42296 -14.62432 -14.61835 -10.48570
 Alpha  occ. eigenvalues --  -10.48494 -10.48128 -10.46541 -10.46162 -10.45908
 Alpha  occ. eigenvalues --  -10.45894 -10.45253 -10.42940 -10.42446  -1.28686
 Alpha  occ. eigenvalues --   -1.25379  -1.21407  -1.19955  -1.06858  -1.03415
 Alpha  occ. eigenvalues --   -1.02254  -0.96531  -0.91864  -0.88324  -0.87644
 Alpha  occ. eigenvalues --   -0.83123  -0.82079  -0.80247  -0.79404  -0.76714
 Alpha  occ. eigenvalues --   -0.74845  -0.73632  -0.72088  -0.71198  -0.68110
 Alpha  occ. eigenvalues --   -0.67613  -0.66785  -0.64803  -0.64736  -0.64375
 Alpha  occ. eigenvalues --   -0.62169  -0.61770  -0.60998  -0.59032  -0.58204
 Alpha  occ. eigenvalues --   -0.57504  -0.56759  -0.56529  -0.55978  -0.54316
 Alpha  occ. eigenvalues --   -0.51953  -0.51362  -0.49278  -0.48064
 Alpha virt. eigenvalues --   -0.11875  -0.10049  -0.07249  -0.05773  -0.05363
 Alpha virt. eigenvalues --   -0.04921  -0.03650  -0.03381  -0.03090  -0.02974
 Alpha virt. eigenvalues --   -0.02523  -0.01561  -0.01278  -0.01096  -0.00452
 Alpha virt. eigenvalues --   -0.00113   0.00538   0.00795   0.00943   0.01280
 Alpha virt. eigenvalues --    0.01890   0.02120   0.02629   0.03190   0.03327
 Alpha virt. eigenvalues --    0.03806   0.03908   0.04138   0.04894   0.05115
 Alpha virt. eigenvalues --    0.05245   0.05556   0.05797   0.06008   0.06266
 Alpha virt. eigenvalues --    0.06411   0.06657   0.07107   0.07285   0.07437
 Alpha virt. eigenvalues --    0.07601   0.07980   0.08248   0.08507   0.09246
 Alpha virt. eigenvalues --    0.09549   0.09820   0.10182   0.10654   0.10802
 Alpha virt. eigenvalues --    0.11150   0.11488   0.11731   0.12443   0.12745
 Alpha virt. eigenvalues --    0.13012   0.13065   0.13477   0.14013   0.14545
 Alpha virt. eigenvalues --    0.14910   0.15104   0.15670   0.16176   0.16248
 Alpha virt. eigenvalues --    0.16463   0.17022   0.17276   0.17608   0.17826
 Alpha virt. eigenvalues --    0.18069   0.18465   0.18923   0.19079   0.19638
 Alpha virt. eigenvalues --    0.20029   0.20524   0.20732   0.20945   0.21164
 Alpha virt. eigenvalues --    0.21413   0.22013   0.22496   0.22972   0.23407
 Alpha virt. eigenvalues --    0.23771   0.24279   0.24657   0.24776   0.25136
 Alpha virt. eigenvalues --    0.26149   0.26354   0.26617   0.26834   0.27335
 Alpha virt. eigenvalues --    0.27554   0.27784   0.28230   0.28947   0.29574
 Alpha virt. eigenvalues --    0.29855   0.30829   0.31153   0.31298   0.31576
 Alpha virt. eigenvalues --    0.32100   0.32361   0.32978   0.33746   0.34210
 Alpha virt. eigenvalues --    0.34388   0.34576   0.34732   0.35539   0.35731
 Alpha virt. eigenvalues --    0.36783   0.36890   0.37218   0.37898   0.38903
 Alpha virt. eigenvalues --    0.39368   0.39575   0.39868   0.40325   0.41092
 Alpha virt. eigenvalues --    0.41864   0.42025   0.42487   0.42691   0.43221
 Alpha virt. eigenvalues --    0.43751   0.43989   0.44759   0.45118   0.45316
 Alpha virt. eigenvalues --    0.46177   0.46488   0.46967   0.47413   0.48000
 Alpha virt. eigenvalues --    0.48546   0.48971   0.49211   0.49671   0.50167
 Alpha virt. eigenvalues --    0.50444   0.50729   0.51147   0.51353   0.52100
 Alpha virt. eigenvalues --    0.52877   0.53083   0.53721   0.54069   0.54699
 Alpha virt. eigenvalues --    0.54982   0.55590   0.55983   0.56318   0.56955
 Alpha virt. eigenvalues --    0.57232   0.58162   0.58376   0.58562   0.58782
 Alpha virt. eigenvalues --    0.58953   0.59384   0.60162   0.60398   0.60949
 Alpha virt. eigenvalues --    0.61136   0.62395   0.62641   0.63019   0.63291
 Alpha virt. eigenvalues --    0.63931   0.64569   0.64787   0.65179   0.66101
 Alpha virt. eigenvalues --    0.66395   0.66715   0.67404   0.67876   0.68555
 Alpha virt. eigenvalues --    0.69130   0.69495   0.69687   0.69942   0.70825
 Alpha virt. eigenvalues --    0.71044   0.71666   0.72255   0.72834   0.73291
 Alpha virt. eigenvalues --    0.73772   0.74578   0.75135   0.75701   0.76166
 Alpha virt. eigenvalues --    0.76350   0.77031   0.77216   0.78486   0.79455
 Alpha virt. eigenvalues --    0.80077   0.80806   0.81978   0.82125   0.82649
 Alpha virt. eigenvalues --    0.83223   0.84553   0.84998   0.85534   0.86916
 Alpha virt. eigenvalues --    0.87132   0.87444   0.88018   0.89133   0.89775
 Alpha virt. eigenvalues --    0.90455   0.90722   0.92036   0.93174   0.93276
 Alpha virt. eigenvalues --    0.95173   0.95285   0.96142   0.97530   0.98399
 Alpha virt. eigenvalues --    0.99057   1.00843   1.01221   1.02836   1.03207
 Alpha virt. eigenvalues --    1.03735   1.04687   1.06709   1.07773   1.08446
 Alpha virt. eigenvalues --    1.09230   1.10201   1.11609   1.12118   1.13001
 Alpha virt. eigenvalues --    1.14672   1.15660   1.16095   1.16805   1.17465
 Alpha virt. eigenvalues --    1.18732   1.19207   1.19642   1.21552   1.22049
 Alpha virt. eigenvalues --    1.23457   1.23546   1.24670   1.25882   1.27347
 Alpha virt. eigenvalues --    1.28461   1.30063   1.31504   1.32448   1.33185
 Alpha virt. eigenvalues --    1.33712   1.34235   1.35782   1.36542   1.38276
 Alpha virt. eigenvalues --    1.39168   1.40036   1.40617   1.41240   1.41562
 Alpha virt. eigenvalues --    1.42259   1.43032   1.44460   1.45246   1.46456
 Alpha virt. eigenvalues --    1.47938   1.50100   1.50324   1.50747   1.52572
 Alpha virt. eigenvalues --    1.53080   1.54139   1.55515   1.55866   1.57135
 Alpha virt. eigenvalues --    1.57963   1.58956   1.59770   1.61125   1.61815
 Alpha virt. eigenvalues --    1.62346   1.63202   1.65232   1.65628   1.66055
 Alpha virt. eigenvalues --    1.67309   1.68943   1.69479   1.69712   1.71064
 Alpha virt. eigenvalues --    1.72647   1.72922   1.73499   1.73628   1.75119
 Alpha virt. eigenvalues --    1.75297   1.76808   1.77980   1.79435   1.79999
 Alpha virt. eigenvalues --    1.80750   1.81181   1.82014   1.82806   1.83176
 Alpha virt. eigenvalues --    1.84437   1.85116   1.86100   1.87308   1.88972
 Alpha virt. eigenvalues --    1.89407   1.90130   1.91120   1.91877   1.92696
 Alpha virt. eigenvalues --    1.93042   1.94938   1.95426   1.95570   1.96942
 Alpha virt. eigenvalues --    1.97815   1.99621   2.00328   2.01783   2.02872
 Alpha virt. eigenvalues --    2.03554   2.04600   2.05074   2.05823   2.06809
 Alpha virt. eigenvalues --    2.07967   2.09148   2.10826   2.11814   2.12386
 Alpha virt. eigenvalues --    2.12544   2.14134   2.14699   2.16375   2.17967
 Alpha virt. eigenvalues --    2.18314   2.19529   2.22357   2.23030   2.23227
 Alpha virt. eigenvalues --    2.24546   2.25813   2.26738   2.28737   2.28838
 Alpha virt. eigenvalues --    2.29840   2.30621   2.32188   2.33058   2.34512
 Alpha virt. eigenvalues --    2.35007   2.36315   2.37635   2.38729   2.40230
 Alpha virt. eigenvalues --    2.41455   2.43429   2.43922   2.45330   2.46434
 Alpha virt. eigenvalues --    2.46973   2.48325   2.50142   2.52183   2.53920
 Alpha virt. eigenvalues --    2.54289   2.55230   2.56738   2.58407   2.59074
 Alpha virt. eigenvalues --    2.60808   2.62066   2.63882   2.64958   2.65496
 Alpha virt. eigenvalues --    2.66651   2.69069   2.70570   2.73147   2.74707
 Alpha virt. eigenvalues --    2.75628   2.76817   2.78251   2.80743   2.81625
 Alpha virt. eigenvalues --    2.83132   2.85101   2.86847   2.86996   2.88539
 Alpha virt. eigenvalues --    2.89186   2.90668   2.93109   2.93687   2.99051
 Alpha virt. eigenvalues --    2.99452   3.01608   3.05135   3.09202   3.15214
 Alpha virt. eigenvalues --    3.18943   3.23877   3.32774   3.34435   3.35937
 Alpha virt. eigenvalues --    3.39478   3.43052   3.44999   3.45412   3.52584
 Alpha virt. eigenvalues --    3.61382   3.66153   3.82226   3.89196   3.93086
 Alpha virt. eigenvalues --    4.05320   4.17057   4.26389   4.66606
          Condensed to atoms (all electrons):
              1          2          3          4          5          6
     1  N    8.029886   0.459517   0.046931  -0.797686  -0.092153  -0.093064
     2  C    0.459517   8.705385  -1.509619   0.565590  -0.521650  -1.568878
     3  C    0.046931  -1.509619   9.607661  -2.380911   0.083034  -0.100007
     4  C   -0.797686   0.565590  -2.380911  20.056604  -8.518167  -0.255419
     5  C   -0.092153  -0.521650   0.083034  -8.518167  20.203945  -4.193742
     6  C   -0.093064  -1.568878  -0.100007  -0.255419  -4.193742  13.772444
     7  C    0.281554  -0.344207   0.200443  -1.168206  -5.118984  -0.697976
     8  C   -0.054000  -0.159999   0.024825  -0.343755   0.825390   0.244737
     9  C   -0.000533   0.027260  -0.017145  -0.057860   0.152375  -0.297231
    10  C    0.036162  -0.033719   0.004690  -0.035126  -0.121802  -0.026328
    11  N   -0.079244   0.203153  -0.046361  -0.648251   1.479094  -0.526876
    12  C   -0.002833  -0.004063   0.052136  -0.019782   0.070143  -0.008407
    13  H   -0.267541  -0.243951  -0.041732   0.286426  -0.239287   0.281094
    14  H   -0.020699   0.216931  -0.870393   0.310901   0.148573  -0.045829
    15  H    0.003573  -0.172750   0.427656  -1.921180   0.932512  -0.063928
    16  H   -0.138124   0.106337  -0.077212  -0.044932  -0.579705  -1.018310
    17  H    0.009706   0.018545  -0.021400  -0.059980   0.665591   0.044959
    18  H    0.004196  -0.010077   0.002773   0.049763  -0.359464   0.053931
    19  H   -0.005370  -0.000276  -0.003233  -0.019647   0.238039  -0.038955
    20  H    0.003666   0.005599  -0.006486  -0.013959   0.010960  -0.010019
    21  H   -0.002163   0.000950   0.000514   0.014023  -0.008945   0.018044
    22  H   -0.000305  -0.005449   0.003544   0.012374  -0.087263  -0.021782
    23  H    0.001206   0.000536  -0.005047   0.014417   0.001715   0.010149
    24  H   -0.000646   0.009350  -0.014094   0.084594   0.028489   0.039349
    25  H   -0.000360  -0.006695   0.013757  -0.038892  -0.053408  -0.026332
    26  H    0.010213  -0.029777   0.008180   0.076818  -0.021062   0.048304
    27  O   -0.056442   0.052117  -0.022011   0.004151  -0.103638  -0.057030
    28  O    0.092994   0.048950  -0.018624  -0.052621   0.083508  -0.215427
    29  H   -0.001487  -0.010112   0.006711  -0.006225   0.002780   0.004589
    30  H   -0.005006   0.000346  -0.002310   0.009871  -0.008395   0.022995
    31  H    0.223781   0.027220  -0.045755   0.009548  -0.025528  -0.141285
    32  H   -0.015962  -0.025334   0.012709  -0.009339   0.024876   0.050130
    33  H   -0.027430  -0.026766   0.027841  -0.137165   0.092244   0.005838
              7          8          9         10         11         12
     1  N    0.281554  -0.054000  -0.000533   0.036162  -0.079244  -0.002833
     2  C   -0.344207  -0.159999   0.027260  -0.033719   0.203153  -0.004063
     3  C    0.200443   0.024825  -0.017145   0.004690  -0.046361   0.052136
     4  C   -1.168206  -0.343755  -0.057860  -0.035126  -0.648251  -0.019782
     5  C   -5.118984   0.825390   0.152375  -0.121802   1.479094   0.070143
     6  C   -0.697976   0.244737  -0.297231  -0.026328  -0.526876  -0.008407
     7  C   19.651174  -2.294039   0.367140  -0.407874  -5.097800  -0.549852
     8  C   -2.294039   7.757462  -0.456867   0.175227  -0.311788  -0.117437
     9  C    0.367140  -0.456867   6.220703   0.215208  -1.196691  -0.068857
    10  C   -0.407874   0.175227   0.215208   5.699032  -0.080008  -0.144048
    11  N   -5.097800  -0.311788  -1.196691  -0.080008  17.600049   1.091885
    12  C   -0.549852  -0.117437  -0.068857  -0.144048   1.091885   4.524444
    13  H   -0.006685   0.001153  -0.001051   0.000186   0.015183   0.003613
    14  H    0.000284   0.006100   0.001535  -0.001162  -0.004344  -0.008913
    15  H    0.106008   0.006621  -0.022675   0.019003   0.004836   0.034142
    16  H    0.611804  -0.119383   0.073103   0.038022  -0.355046  -0.035677
    17  H   -2.206652   0.427915   0.103343  -0.052626  -0.405735  -0.006454
    18  H    0.116042  -0.490554   0.286951   0.085098  -0.018294   0.006642
    19  H    0.174080  -0.562581   0.051815  -0.155385   0.320654   0.021451
    20  H    0.072714   0.120641  -0.146509  -0.185664   0.119418   0.013719
    21  H    0.039698   0.232490  -0.339427   0.136990  -0.005076  -0.007713
    22  H    0.356233   0.106593   0.119683  -0.219461  -1.047800  -0.156590
    23  H    0.385117  -0.174026   0.048308  -0.247383  -0.370559   0.013642
    24  H    0.098329  -0.046454   0.063768   0.093104  -0.583649   0.119180
    25  H    0.164356  -0.042748   0.040032   0.018301  -0.443654   0.251839
    26  H    0.024478   0.072367  -0.038599  -0.056960  -0.005262   0.088136
    27  O    0.015253  -0.014358   0.008418  -0.001320  -0.028966   0.001349
    28  O    0.097498  -0.000227   0.086240   0.032335  -0.403168  -0.123661
    29  H   -0.008994   0.003049  -0.002409   0.000031   0.011483   0.000890
    30  H   -0.009275   0.005072  -0.005032   0.009426   0.014274   0.002080
    31  H    0.052949  -0.023317   0.010950  -0.007863  -0.029594  -0.006707
    32  H   -0.010864   0.004569   0.001658   0.006702  -0.017946   0.003646
    33  H    0.203345   0.101488  -0.018495  -0.119524  -0.392454  -0.130755
             13         14         15         16         17         18
     1  N   -0.267541  -0.020699   0.003573  -0.138124   0.009706   0.004196
     2  C   -0.243951   0.216931  -0.172750   0.106337   0.018545  -0.010077
     3  C   -0.041732  -0.870393   0.427656  -0.077212  -0.021400   0.002773
     4  C    0.286426   0.310901  -1.921180  -0.044932  -0.059980   0.049763
     5  C   -0.239287   0.148573   0.932512  -0.579705   0.665591  -0.359464
     6  C    0.281094  -0.045829  -0.063928  -1.018310   0.044959   0.053931
     7  C   -0.006685   0.000284   0.106008   0.611804  -2.206652   0.116042
     8  C    0.001153   0.006100   0.006621  -0.119383   0.427915  -0.490554
     9  C   -0.001051   0.001535  -0.022675   0.073103   0.103343   0.286951
    10  C    0.000186  -0.001162   0.019003   0.038022  -0.052626   0.085098
    11  N    0.015183  -0.004344   0.004836  -0.355046  -0.405735  -0.018294
    12  C    0.003613  -0.008913   0.034142  -0.035677  -0.006454   0.006642
    13  H    1.955660  -0.120361  -0.000483   0.022437  -0.001121   0.001272
    14  H   -0.120361   2.113667  -0.150143  -0.011703   0.002188  -0.000547
    15  H   -0.000483  -0.150143   2.770283  -0.020020  -0.130380  -0.001795
    16  H    0.022437  -0.011703  -0.020020   3.625724  -0.003989  -0.074166
    17  H   -0.001121   0.002188  -0.130380  -0.003989   3.426412   0.205493
    18  H    0.001272  -0.000547  -0.001795  -0.074166   0.205493   2.401810
    19  H    0.000730  -0.000828   0.006706   0.007335  -0.366287  -0.581836
    20  H   -0.000490   0.000204   0.000573   0.001657  -0.063323  -0.332601
    21  H    0.000031   0.000040  -0.000177   0.027380   0.045684   0.112392
    22  H   -0.000157   0.000078  -0.001972  -0.009212   0.046938   0.019459
    23  H    0.000093  -0.000225   0.002277   0.004480  -0.030303  -0.028147
    24  H    0.000321  -0.000498   0.018302   0.005709  -0.014552  -0.007745
    25  H    0.000432  -0.001267  -0.000985  -0.002810   0.036076   0.000045
    26  H   -0.002513   0.000630  -0.025087   0.005448   0.036479   0.011783
    27  O    0.002989   0.000434  -0.000645   0.042482   0.001606  -0.001928
    28  O   -0.001359   0.000004  -0.001125   0.032888   0.009349  -0.001558
    29  H    0.001410  -0.000307   0.000193  -0.003488  -0.000156   0.000356
    30  H    0.000609   0.000086  -0.000117   0.002548  -0.000843   0.000901
    31  H   -0.068713   0.010989  -0.003299  -0.033172   0.000075  -0.001149
    32  H    0.002117  -0.000610   0.000418  -0.016937   0.000664   0.000650
    33  H   -0.009379   0.002371   0.004287  -0.035364   0.042558   0.004962
             19         20         21         22         23         24
     1  N   -0.005370   0.003666  -0.002163  -0.000305   0.001206  -0.000646
     2  C   -0.000276   0.005599   0.000950  -0.005449   0.000536   0.009350
     3  C   -0.003233  -0.006486   0.000514   0.003544  -0.005047  -0.014094
     4  C   -0.019647  -0.013959   0.014023   0.012374   0.014417   0.084594
     5  C    0.238039   0.010960  -0.008945  -0.087263   0.001715   0.028489
     6  C   -0.038955  -0.010019   0.018044  -0.021782   0.010149   0.039349
     7  C    0.174080   0.072714   0.039698   0.356233   0.385117   0.098329
     8  C   -0.562581   0.120641   0.232490   0.106593  -0.174026  -0.046454
     9  C    0.051815  -0.146509  -0.339427   0.119683   0.048308   0.063768
    10  C   -0.155385  -0.185664   0.136990  -0.219461  -0.247383   0.093104
    11  N    0.320654   0.119418  -0.005076  -1.047800  -0.370559  -0.583649
    12  C    0.021451   0.013719  -0.007713  -0.156590   0.013642   0.119180
    13  H    0.000730  -0.000490   0.000031  -0.000157   0.000093   0.000321
    14  H   -0.000828   0.000204   0.000040   0.000078  -0.000225  -0.000498
    15  H    0.006706   0.000573  -0.000177  -0.001972   0.002277   0.018302
    16  H    0.007335   0.001657   0.027380  -0.009212   0.004480   0.005709
    17  H   -0.366287  -0.063323   0.045684   0.046938  -0.030303  -0.014552
    18  H   -0.581836  -0.332601   0.112392   0.019459  -0.028147  -0.007745
    19  H    2.379867   0.185056  -0.275580  -0.011844   0.024859   0.017896
    20  H    0.185056   2.025486  -0.524172  -0.194645   0.142573   0.008715
    21  H   -0.275580  -0.524172   1.986333   0.036970  -0.160942  -0.003115
    22  H   -0.011844  -0.194645   0.036970   2.723339  -0.455107   0.029361
    23  H    0.024859   0.142573  -0.160942  -0.455107   2.178404   0.092301
    24  H    0.017896   0.008715  -0.003115   0.029361   0.092301   2.184334
    25  H   -0.002499   0.005874  -0.000408  -0.016946   0.008204  -0.423224
    26  H   -0.010356  -0.012477   0.002861  -0.000709  -0.008603  -0.487210
    27  O   -0.000388   0.003493   0.000271   0.000513   0.000125   0.000232
    28  O    0.001362  -0.002061  -0.004812   0.114025  -0.020121  -0.007617
    29  H   -0.000000  -0.000041  -0.000203  -0.000452   0.000078  -0.000259
    30  H   -0.000384  -0.000134  -0.000294  -0.010806   0.001191   0.003310
    31  H   -0.000412   0.000509   0.000292   0.002127  -0.000355   0.000209
    32  H    0.000395   0.000535  -0.000345  -0.002549  -0.000269   0.003521
    33  H   -0.003515   0.013032   0.001043   0.145633  -0.005963  -0.067401
             25         26         27         28         29         30
     1  N   -0.000360   0.010213  -0.056442   0.092994  -0.001487  -0.005006
     2  C   -0.006695  -0.029777   0.052117   0.048950  -0.010112   0.000346
     3  C    0.013757   0.008180  -0.022011  -0.018624   0.006711  -0.002310
     4  C   -0.038892   0.076818   0.004151  -0.052621  -0.006225   0.009871
     5  C   -0.053408  -0.021062  -0.103638   0.083508   0.002780  -0.008395
     6  C   -0.026332   0.048304  -0.057030  -0.215427   0.004589   0.022995
     7  C    0.164356   0.024478   0.015253   0.097498  -0.008994  -0.009275
     8  C   -0.042748   0.072367  -0.014358  -0.000227   0.003049   0.005072
     9  C    0.040032  -0.038599   0.008418   0.086240  -0.002409  -0.005032
    10  C    0.018301  -0.056960  -0.001320   0.032335   0.000031   0.009426
    11  N   -0.443654  -0.005262  -0.028966  -0.403168   0.011483   0.014274
    12  C    0.251839   0.088136   0.001349  -0.123661   0.000890   0.002080
    13  H    0.000432  -0.002513   0.002989  -0.001359   0.001410   0.000609
    14  H   -0.001267   0.000630   0.000434   0.000004  -0.000307   0.000086
    15  H   -0.000985  -0.025087  -0.000645  -0.001125   0.000193  -0.000117
    16  H   -0.002810   0.005448   0.042482   0.032888  -0.003488   0.002548
    17  H    0.036076   0.036479   0.001606   0.009349  -0.000156  -0.000843
    18  H    0.000045   0.011783  -0.001928  -0.001558   0.000356   0.000901
    19  H   -0.002499  -0.010356  -0.000388   0.001362  -0.000000  -0.000384
    20  H    0.005874  -0.012477   0.003493  -0.002061  -0.000041  -0.000134
    21  H   -0.000408   0.002861   0.000271  -0.004812  -0.000203  -0.000294
    22  H   -0.016946  -0.000709   0.000513   0.114025  -0.000452  -0.010806
    23  H    0.008204  -0.008603   0.000125  -0.020121   0.000078   0.001191
    24  H   -0.423224  -0.487210   0.000232  -0.007617  -0.000259   0.003310
    25  H    2.151854  -0.529689  -0.001002   0.026931   0.000047  -0.008556
    26  H   -0.529689   1.931190   0.001001  -0.007290   0.000024   0.006396
    27  O   -0.001002   0.001001   8.178096  -0.035897   0.390546  -0.010464
    28  O    0.026931  -0.007290  -0.035897   8.629209   0.005906   0.313746
    29  H    0.000047   0.000024   0.390546   0.005906   0.482458  -0.000878
    30  H   -0.008556   0.006396  -0.010464   0.313746  -0.000878   0.559494
    31  H   -0.000253   0.002261   0.164160  -0.013369  -0.031291  -0.003354
    32  H    0.003614  -0.002953   0.043657   0.112031  -0.017437  -0.025550
    33  H    0.071965   0.014425  -0.026265  -0.075663   0.000098  -0.086835
             31         32         33
     1  N    0.223781  -0.015962  -0.027430
     2  C    0.027220  -0.025334  -0.026766
     3  C   -0.045755   0.012709   0.027841
     4  C    0.009548  -0.009339  -0.137165
     5  C   -0.025528   0.024876   0.092244
     6  C   -0.141285   0.050130   0.005838
     7  C    0.052949  -0.010864   0.203345
     8  C   -0.023317   0.004569   0.101488
     9  C    0.010950   0.001658  -0.018495
    10  C   -0.007863   0.006702  -0.119524
    11  N   -0.029594  -0.017946  -0.392454
    12  C   -0.006707   0.003646  -0.130755
    13  H   -0.068713   0.002117  -0.009379
    14  H    0.010989  -0.000610   0.002371
    15  H   -0.003299   0.000418   0.004287
    16  H   -0.033172  -0.016937  -0.035364
    17  H    0.000075   0.000664   0.042558
    18  H   -0.001149   0.000650   0.004962
    19  H   -0.000412   0.000395  -0.003515
    20  H    0.000509   0.000535   0.013032
    21  H    0.000292  -0.000345   0.001043
    22  H    0.002127  -0.002549   0.145633
    23  H   -0.000355  -0.000269  -0.005963
    24  H    0.000209   0.003521  -0.067401
    25  H   -0.000253   0.003614   0.071965
    26  H    0.002261  -0.002953   0.014425
    27  O    0.164160   0.043657  -0.026265
    28  O   -0.013369   0.112031  -0.075663
    29  H   -0.031291  -0.017437   0.000098
    30  H   -0.003354  -0.025550  -0.086835
    31  H    0.457519  -0.006620   0.017272
    32  H   -0.006620   0.299514   0.006887
    33  H    0.017272   0.006887   0.631376
 Mulliken atomic charges:
              1
     1  N   -0.542336
     2  C    0.225535
     3  C    0.658935
     4  C    1.034024
     5  C    1.009923
     6  C    0.810264
     7  C    0.902909
     8  C    1.095832
     9  C    0.790891
    10  C    1.326733
    11  N   -1.761466
    12  C    1.092812
    13  H   -0.570933
    14  H   -0.577184
    15  H   -0.820629
    16  H   -1.028104
    17  H   -0.759776
    18  H   -0.454659
    19  H   -0.390869
    20  H   -0.241844
    21  H   -0.322633
    22  H   -0.473822
    23  H   -0.422625
    24  H   -0.243908
    25  H   -0.193598
    26  H   -0.102446
    27  O   -0.550539
    28  O   -0.702375
    29  H    0.173087
    30  H    0.225889
    31  H    0.462175
    32  H    0.574425
    33  H    0.776311
 Sum of Mulliken atomic charges =   1.00000
 Mulliken charges with hydrogens summed into heavy atoms:
              1
     1  N   -0.542336
     2  C   -0.345398
     3  C    0.081751
     4  C    0.213395
     5  C    1.009923
     6  C   -0.217840
     7  C    0.143133
     8  C    0.250304
     9  C    0.226413
    10  C    0.430286
    11  N   -1.761466
    12  C    0.552860
    27  O    0.659148
    28  O    0.299825
 Sum of Mulliken charges with hydrogens summed into heavy atoms =   1.00000
 APT atomic charges:
              1
     1  N   -0.583249
     2  C   -0.208128
     3  C    0.634880
     4  C   -0.052407
     5  C    0.278208
     6  C    0.481316
     7  C    0.295450
     8  C    0.418679
     9  C    0.674648
    10  C    0.457733
    11  N   -2.712109
    12  C    0.084141
    13  H    0.294506
    14  H    0.059956
    15  H   -0.202020
    16  H   -0.483100
    17  H   -0.035142
    18  H   -0.058299
    19  H    0.090804
    20  H    0.215068
    21  H    0.049984
    22  H   -0.053404
    23  H    0.024805
    24  H    0.026816
    25  H    0.107094
    26  H    0.514446
    27  O   -1.050963
    28  O   -1.363807
    29  H    0.887413
    30  H    0.766017
    31  H    0.289169
    32  H    0.479898
    33  H    0.671595
 Sum of APT charges=   1.00000
 APT Atomic charges with hydrogens summed into heavy atoms:
              1
     1  N   -0.583249
     2  C    0.086378
     3  C    0.694836
     4  C   -0.254427
     5  C    0.278208
     6  C   -0.001785
     7  C    0.260309
     8  C    0.451184
     9  C    0.939700
    10  C    0.429134
    11  N   -2.712109
    12  C    0.732498
    13  H    0.000000
    14  H    0.000000
    15  H    0.000000
    16  H    0.000000
    17  H    0.000000
    18  H    0.000000
    19  H    0.000000
    20  H    0.000000
    21  H    0.000000
    22  H    0.000000
    23  H    0.000000
    24  H    0.000000
    25  H    0.000000
    26  H    0.000000
    27  O    0.605517
    28  O    0.073806
    29  H    0.000000
    30  H    0.000000
    31  H    0.000000
    32  H    0.000000
    33  H    0.000000
 Sum of APT charges=   1.00000
 Electronic spatial extent (au):  <R**2>=           2903.4153
 Charge=              1.0000 electrons
 Dipole moment (field-independent basis, Debye):
    X=             -0.2042    Y=              0.8445    Z=              1.1253  Tot=              1.4217
 Quadrupole moment (field-independent basis, Debye-Ang):
   XX=            -54.7452   YY=            -59.8576   ZZ=            -75.6284
   XY=             -0.2466   XZ=             -2.3123   YZ=             -3.1796
 Traceless Quadrupole moment (field-independent basis, Debye-Ang):
   XX=              8.6652   YY=              3.5528   ZZ=            -12.2180
   XY=             -0.2466   XZ=             -2.3123   YZ=             -3.1796
 Octapole moment (field-independent basis, Debye-Ang**2):
  XXX=             27.3498  YYY=             60.0720  ZZZ=             11.1675  XYY=             20.9960
  XXY=             -0.7994  XXZ=              2.8734  XZZ=            -14.3843  YZZ=             16.9162
  YYZ=              5.2648  XYZ=            -20.9693
 Hexadecapole moment (field-independent basis, Debye-Ang**3):
 XXXX=          -1772.1307 YYYY=           -771.6955 ZZZZ=           -542.9460 XXXY=            -12.4093
 XXXZ=             23.5165 YYYX=             57.1120 YYYZ=            -38.5419 ZZZX=            -17.0801
 ZZZY=              9.0918 XXYY=           -445.4806 XXZZ=           -430.0092 YYZZ=           -230.4175
 XXYZ=            -29.0565 YYXZ=            -34.6191 ZZXY=             11.1242
 N-N= 9.994987262472D+02 E-N=-3.502139613428D+03  KE= 6.481126366110D+02
  Exact polarizability:   0.000   0.000   0.000   0.000   0.000   0.000
 Approx polarizability: 173.098   2.200 165.754   3.985 -13.452 134.725
 Calling FoFJK, ICntrl=    100147 FMM=F ISym2X=0 I1Cent= 0 IOpClX= 0 NMat=1 NMatS=1 NMatT=0.
 FoFJK:  IHMeth= 1 ICntrl=100147 DoSepK=T KAlg= 1 I1Cent= 0 FoldK=F
 ***** Axes restored to original set *****
 -------------------------------------------------------------------
 Center     Atomic                   Forces (Hartrees/Bohr)
 Number     Number              X              Y              Z
 -------------------------------------------------------------------
[...]
 00036490,-0.00078207,0.00080314,-0.00221813,0.00111725,0.00060401,0.00
 155639,0.00086833,-0.00001261,0.00021707,-0.00007333,0.00017449,-0.000
 13361,0.00047604,-0.00021640,-0.00020355,-0.00221269,-0.01697009,0.005
 14116,-0.00494759,-0.00179869,-0.00276517,0.00040503,0.00003765,-0.000
 05091,-0.00004400,-0.00002064,-0.00006583,-0.00002914,-0.00005007,-0.0
 0003541,-0.00003454,-0.00012552,-0.00415865,-0.00351297,-0.00039098,-0
 .00012750,-0.00032689,0.00004407,0.00009935,0.00004217,-0.00005557,0.0
 0000865,0.00001242,-0.00013410,-0.00013423,-0.00027914,-0.00014343,-0.
 00002485,-0.00005079,-0.00040310,0.00008085,0.00063833,-0.00081097,0.0
 0000929,0.00057015,-0.00057789,0.00113585,-0.00096510,-0.00061040,0.00
 089929,0.00012783,-0.00003930,-0.00002021,-0.00055885,0.03318443,-0.00
 335801,-0.00785519,0.00996699,0.60785484,-0.00050234,-0.00052044,0.000
 29560,-0.00026764,0.00010778,0.00011126,0.00015615,0.00007060,0.000002
 52,0.00017713,0.00007404,0.00027015,0.00027429,-0.00033374,0.00027829,
 0.00030071,-0.00098392,-0.00168772,-0.00139914,0.00262356,0.00085205,0
 .00021879,0.00020657,-0.00025501,-0.00079254,0.00012995,-0.00037231,-0
 .00149372,-0.00052961,-0.00430264,-0.02050479,-0.00692692,0.00088965,0
 .00058420,-0.00215671,0.00105143,-0.00000443,-0.00000007,0.00001294,0.
 00000487,-0.00000165,-0.00000026,-0.00002831,0.00002137,0.00006466,0.0
 0000190,-0.00191720,-0.00119935,-0.00034652,-0.00070106,-0.00055345,-0
 .00001400,-0.00013418,0.00004449,-0.00000541,-0.00002056,0.00022376,0.
 00031880,-0.00055647,0.00036565,0.00019333,-0.00011531,0.00026024,-0.0
 0064554,0.00066662,0.00072980,-0.00098399,0.00006940,0.00139235,-0.000
 48544,0.00022604,-0.00027845,0.00005539,0.00033842,-0.00030824,0.00025
 373,0.00025313,0.00032808,0.02069745,-0.00712202,0.00754200,0.05506112
 ,0.18090915,0.10889767,0.00071202,0.00066031,0.00078250,0.00048145,-0.
 00010792,-0.00018601,-0.00019948,-0.00006316,0.00015346,0.00018023,-0.
 00001475,-0.00019898,0.00012020,-0.00009268,0.00058590,-0.00026731,0.0
 0002030,-0.00072935,-0.00012613,-0.00002966,0.00000604,-0.00001561,-0.
 00000739,-0.00000646,-0.00006709,0.00002343,-0.00006167,-0.00006627,-0
 .00000421,0.00009785,0.00041243,0.00005047,0.00005707,-0.00003550,0.00
 009957,-0.00006530,0.00001182,-0.00000341,0.00007487,0.00003933,0.0000
 2353,0.00002422,0.00001015,0.00001448,0.00002978,-0.00047002,0.0000274
 3,0.00007671,0.00003927,-0.00000686,0.00001272,-0.00002043,-0.00005496
 ,-0.00000389,0.00003636,-0.00000666,0.00000890,0.00000120,-0.00000829,
 0.00006867,0.00004529,-0.00000089,0.00000573,-0.00001748,-0.00000112,-
 0.00001129,0.00004711,-0.00000915,0.00000360,0.00003930,0.00000163,0.0
 0001404,-0.00001302,0.00000111,-0.00001136,-0.00000841,0.00001758,-0.0
 0001811,-0.18958325,0.11478340,-0.20076945,-0.00155249,0.00103378,0.00
 268798,0.19870713,-0.00158581,-0.00476384,-0.00296363,-0.00028092,-0.0
 0020818,0.00048755,-0.00024157,0.00034937,-0.00011645,0.00007488,-0.00
 002426,-0.00016636,0.00006860,0.00017142,0.00025512,0.00012310,-0.0000
 4624,-0.00082414,-0.00002840,0.00003484,-0.00002295,-0.00002014,0.0000
 3795,-0.00000337,-0.00004335,-0.00001158,-0.00002067,0.00001335,0.0000
 3583,-0.00002457,-0.00012493,-0.00009117,0.00001461,-0.00000192,0.0000
 2240,0.00000124,0.00001767,-0.00012372,-0.00003257,-0.00002887,0.00004
 971,-0.00002224,-0.00000083,-0.00003102,0.00001350,-0.00037261,0.00005
 105,-0.00001945,-0.00000552,-0.00001294,0.00000745,-0.00000322,-0.0000
 2313,-0.00001755,0.00000752,-0.00000802,0.00000759,0.00000417,0.000026
 41,0.00002499,0.00000612,0.00000110,0.00001032,-0.00000549,-0.00000521
 ,-0.00000144,-0.00000402,-0.00001115,0.00001493,-0.00000327,-0.0000073
 7,-0.00000302,0.00000755,-0.00000521,-0.00000447,0.00000009,0.00000257
 ,0.00001057,0.13549708,-0.10489242,0.12881073,0.00136668,-0.00034151,-
 0.00153932,-0.11938063,0.09491533,-0.00010238,-0.00213952,-0.00046751,
 -0.00000989,-0.00011162,0.00008633,0.00002504,0.00015241,0.00003674,-0
 .00000842,-0.00004624,-0.00000672,-0.00003819,0.00028174,-0.00001160,0
 .00009418,-0.00000565,0.00007776,-0.00004352,-0.00009694,0.00000162,-0
 .00001059,-0.00003698,0.00000807,0.00007425,0.00001580,0.00003528,-0.0
 0011538,-0.00004637,0.00015325,0.00048333,0.00017070,0.00009895,-0.000
 03125,0.00005960,-0.00005065,-0.00002835,-0.00008862,-0.00006582,0.000
 00995,0.00001687,0.00000077,0.00000723,-0.00003528,0.00000766,-0.00012
 244,-0.00019910,0.00012634,0.00002813,0.00002078,0.00000982,-0.0000046
 6,-0.00000187,0.00002461,0.00000770,0.00000441,-0.00001652,-0.00002227
 ,-0.00001911,0.00001208,0.00001330,0.00000777,-0.00001640,-0.00001674,
 -0.00001187,0.00000742,0.00003466,0.00001577,-0.00002610,0.00003122,0.
 00000405,0.00001172,-0.00002537,0.00001073,-0.00000365,-0.00000929,0.0
 0000517,-0.00003289,-0.21079645,0.10948727,-0.30143222,0.00660331,-0.0
 0258518,-0.00362258,0.22014038,-0.12298919,0.30244330,-0.00004067,-0.0
 0005689,-0.00004278,0.00001726,0.00001080,-0.00004184,0.00000930,-0.00
 000308,0.00000740,0.00000013,0.00000840,-0.00000139,-0.00000255,-0.000
 00097,-0.00003306,0.00017806,0.00001249,0.00016423,0.00031768,0.000356
 00,0.00026461,-0.00003161,0.00010862,-0.00005156,0.00011484,-0.0000347
 3,0.00022947,-0.00013325,-0.00041463,-0.00095623,-0.00508549,0.0009648
 6,-0.00131838,-0.00044678,-0.00115829,-0.00031409,-0.00000598,0.000012
 47,0.00000314,-0.00000072,-0.00000957,0.00000308,-0.00000012,-0.000008
 08,-0.00001252,-0.00011057,-0.00002702,-0.00007642,-0.00010181,0.00001
 623,-0.00006593,-0.00000568,0.00004743,0.00002978,0.00000137,0.0000096
 8,0.00001615,-0.00004678,-0.00005338,-0.00005351,-0.00000119,0.0000200
 6,-0.00000526,-0.00025551,0.00012352,0.00042949,-0.00016427,0.00011917
 ,0.00027754,-0.00012976,0.00044657,-0.00010748,-0.00038925,0.00056500,
 -0.00011365,0.00002982,0.00010166,0.00004784,-0.00920889,0.00100001,0.
 00185468,-0.05645829,0.02118721,-0.00056378,-0.00027207,0.00042868,0.0
 0061428,0.04202065,0.00011065,0.00020440,0.00012937,0.00013168,-0.0000
 1434,-0.00004284,-0.00008549,-0.00002222,0.00004840,0.00001211,0.00003
 300,-0.00014533,0.00002238,-0.00003527,0.00004719,-0.00009847,-0.00026
 984,0.00024564,0.00014063,-0.00041394,-0.00007146,0.00002594,-0.000051
 75,-0.00001448,-0.00003328,-0.00003974,-0.00005482,-0.00019415,-0.0001
 3999,0.00010368,0.00150921,0.00075106,0.00024213,-0.00029299,0.0005614
 6,-0.00018841,-0.00000612,0.00002213,0.00000186,0.00000352,0.00000128,
 0.00000941,0.00001653,0.00000516,-0.00001058,-0.00001531,0.00015904,-0
 .00025541,0.00006601,0.00011557,0.00012876,-0.00001205,0.00001346,0.00
 000503,0.00001440,0.00001238,0.00002263,0.00000174,-0.00014282,0.00005
 866,0.00006143,0.00002598,0.00001975,-0.00013143,0.00019554,0.00007593
 ,0.00016423,0.00010916,0.00006391,0.00009828,-0.00005740,0.00004977,0.
 00020345,0.00006646,-0.00001753,-0.00003986,0.00000004,-0.00002001,-0.
 00190902,0.00125289,0.00058836,0.00553886,-0.50649839,-0.13317189,0.00
 009794,0.00006888,0.00005114,-0.00841918,0.51576597,-0.00008014,0.0000
 5794,0.00024767,-0.00004531,0.00002436,-0.00015436,0.00009833,0.000016
 43,-0.00006748,0.00001179,0.00002956,0.00004172,-0.00010128,-0.0000890
 2,-0.00003773,0.00016583,-0.00034727,0.00007621,0.00019233,-0.00007449
 ,-0.00010627,-0.00003997,-0.00001756,0.00002691,0.00007797,0.00010347,
 -0.00018009,-0.00038851,0.00042377,0.00061272,-0.00089557,0.00046826,0
 .00021274,0.00003587,-0.00057461,0.00013892,0.00000648,-0.00002214,-0.
 00000047,0.00000230,-0.00002628,-0.00000273,-0.00000716,-0.00001945,-0
 .00000587,-0.00007659,-0.00023081,-0.00024900,-0.00001982,0.00003686,0
 .00001891,-0.00000280,-0.00002010,-0.00003317,0.00001218,0.00000625,-0
 .00003946,-0.00001922,0.00009504,0.00009269,0.00003685,0.00003424,-0.0
 0000830,0.00016204,-0.00019004,-0.00005554,-0.00005958,-0.00014623,-0.
 00011737,0.00011493,0.00034406,-0.00005850,-0.00045053,0.00032223,0.00
 026320,-0.00002883,-0.00016334,-0.00041670,0.00094910,-0.00000027,0.00
 050697,-0.00490007,-0.11811662,-0.03494565,0.00036990,0.00027756,0.000
 18960,0.00318085,0.13304164,0.03914902,-0.01518011,0.01039486,0.013059
 95,0.00621217,0.00170452,-0.00422453,0.00169097,-0.00198974,0.00213623
 ,-0.00003645,0.00011526,0.00079971,-0.00063073,-0.00137991,0.00108222,
 -0.01323894,-0.00430847,-0.00220172,-0.00088776,0.00089295,0.00060474,
 0.00002044,-0.00012463,-0.00004771,0.00016494,0.00017089,0.00007661,0.
 00004400,-0.00009447,-0.00000226,-0.00133664,-0.00105345,-0.00116362,-
 0.00005119,-0.00008715,0.00011954,0.00001342,0.00112100,0.00058644,0.0
 0051922,-0.00026070,0.00029371,0.00007178,0.00034756,0.00003651,-0.000
 53333,0.00052938,-0.00004821,0.00007042,-0.00020008,-0.00018081,0.0000
 1026,-0.00020231,0.00008056,0.00007512,-0.00003766,-0.00006626,-0.0000
 5344,0.00003959,-0.00001732,0.00001554,-0.00006187,-0.00008391,0.00011
 420,-0.00009987,-0.00010069,-0.00003015,0.00000254,-0.00000280,-0.0000
 5659,0.00001403,-0.00002577,0.00010714,-0.00012342,-0.00008652,0.00006
 373,0.00020843,-0.00001265,-0.05949364,0.00352769,-0.02220971,-0.01353
 256,0.00049385,-0.00039056,-0.00366603,-0.01388696,-0.01073815,0.00025
 555,-0.00017986,-0.00021365,0.07009986,0.00360440,0.00341949,0.0197043
 8,0.01029087,0.00066745,-0.00394662,0.00074250,-0.00008735,0.00370085,
 0.00003493,0.00002410,-0.00003449,0.00238749,-0.00056230,-0.00052714,-
 0.00567944,-0.00040835,0.00542106,-0.00063904,0.00113775,0.00143190,-0
 .00003512,-0.00017142,-0.00000491,0.00023652,0.00021841,0.00013499,0.0
 0010420,-0.00012860,-0.00008532,-0.00204993,-0.00149754,-0.00150890,0.
 00001493,-0.00010054,0.00006546,-0.00037554,0.00024839,0.00062509,0.00
 096525,0.00004185,0.00051805,0.00015207,0.00007608,0.00002037,0.000431
 01,0.00126028,-0.00131460,0.00025604,-0.00032421,-0.00035627,0.0000101
 7,-0.00021965,0.00009633,0.00007644,-0.00004720,-0.00008527,-0.0000672
 1,0.00007642,-0.00006076,-0.00000664,-0.00008615,-0.00011321,0.0001658
 3,-0.00014887,-0.00014808,-0.00008330,-0.00000200,0.00001027,-0.000135
 47,-0.00000191,-0.00000811,0.00015958,-0.00019782,-0.00011511,0.000131
 91,0.00025932,0.00009078,-0.01636781,-0.14790611,-0.10719804,-0.012219
 15,0.00192051,0.00077429,-0.00030709,0.01801928,0.01621501,-0.00014237
 ,-0.00042924,-0.00008406,-0.00437935,0.13351758,0.01075824,0.02614558,
 0.00074415,0.00297081,-0.00074565,-0.00848895,0.00133668,-0.00274929,0
 .00155606,0.00055867,0.00027058,-0.00068929,0.00359274,-0.00334503,-0.
 00014750,-0.00471398,-0.00087452,0.01202851,-0.00074531,0.00124858,0.0
 0196968,-0.00003195,-0.00025906,-0.00006001,0.00037972,0.00027956,0.00
 019355,0.00011189,-0.00017082,-0.00006253,-0.00261203,-0.00173622,-0.0
 0201889,-0.00007294,-0.00023988,0.00027109,-0.00019172,0.00138222,0.00
 051524,0.00063436,0.00004408,0.00038027,0.00019841,0.00051169,-0.00008
 819,0.00298893,0.00324347,-0.00199701,0.00028560,-0.00035560,-0.000468
 36,0.00005993,-0.00020510,0.00012612,0.00005690,-0.00003888,-0.0001146
 0,-0.00009844,0.00006728,-0.00014089,-0.00002823,-0.00009910,-0.000161
 98,0.00021897,-0.00017475,-0.00018271,-0.00011712,0.00001058,-0.000008
 15,-0.00014976,0.00003073,-0.00006450,0.00019079,-0.00022645,-0.000142
 42,0.00012924,0.00032880,0.00002154,-0.03918124,-0.07429937,-0.1139823
 8,-0.01598510,0.00245670,0.00069976,-0.00378693,-0.01023211,-0.0120116
 6,-0.00009926,-0.00055903,-0.00003678,0.01028324,0.07052476,0.12715195
 ,-0.00785199,-0.00793544,-0.00923612,-0.00131031,-0.00039122,0.0040471
 7,-0.00188057,0.00053653,-0.00079551,-0.00010494,0.00007122,-0.0011069
 0,0.00026701,0.00066575,0.00026513,0.00145162,-0.00015850,-0.00453856,
 0.00143837,-0.00348379,-0.00194095,-0.00003625,-0.00002929,0.00007937,
 -0.00025709,-0.00030269,-0.00020357,-0.00153358,-0.00038560,0.00160760
 ,0.01039705,0.00497295,0.00490633,-0.00040099,0.00147867,-0.00158874,0
 .00021945,-0.00011228,0.00020570,-0.00035035,0.00003626,-0.00014029,-0
 .00005213,-0.00014226,-0.00013750,0.00068578,-0.00252059,0.00041228,0.
 00018716,0.00095712,0.00083825,-0.00011457,0.00032519,-0.00004266,0.00
 001871,0.00012463,0.00010368,0.00006220,-0.00046908,0.00038884,0.00025
 683,0.00024239,0.00013809,-0.00063927,0.00038379,0.00037225,0.00072530
 ,0.00020730,-0.00012701,0.00065663,-0.00000660,0.00038169,-0.00055211,
 0.00054479,0.00004429,-0.00021852,-0.00024078,-0.00014279,-0.06116558,
 -0.00407027,-0.01014770,0.00765282,-0.01113774,-0.00098574,-0.00373534
 ,-0.00192110,-0.00529345,0.01586035,0.00268342,-0.00176962,0.02589315,
 0.01703757,0.02602890,0.03937054,0.00224302,0.00243995,0.00333234,0.00
 071263,0.00028952,-0.00156104,0.00063453,-0.00025070,0.00055953,0.0002
 8582,-0.00021372,0.00038051,-0.00044204,-0.00002635,0.00093443,-0.0015
 0005,-0.00049504,-0.00111077,-0.00136424,0.00219718,0.00095321,0.00001
 253,-0.00000122,-0.00005041,0.00005847,0.00022807,0.00000517,0.0010117
 4,0.00015414,-0.00111643,-0.00723813,-0.00364677,-0.00390503,0.0002088
 0,-0.00093251,0.00076832,-0.00009030,0.00008664,-0.00001163,0.00015760
 ,-0.00000537,0.00005888,0.00003288,0.00006695,0.00017477,-0.00201306,-
 0.00130356,0.00000609,-0.00009209,-0.00066199,-0.00051157,0.00003567,-
 0.00028203,0.00003754,0.00003653,-0.00008254,-0.00003937,-0.00004084,0
 .00023518,-0.00007975,-0.00006370,-0.00015378,-0.00004810,0.00033747,-
 0.00018031,-0.00014259,-0.00038085,-0.00007561,0.00014064,-0.00038430,
 0.00008338,-0.00020086,0.00027707,-0.00021154,-0.00005463,0.00012726,0
 .00020390,0.00008426,-0.00602896,-0.02411530,-0.00053699,-0.03861500,-
 0.03346266,-0.00794967,0.00354956,-0.00330303,0.00236568,0.01140753,-0
 .00429606,-0.00429240,0.00625688,-0.01170472,-0.01393271,0.01777445,0.
 06823509,0.00162229,0.00164148,0.00170465,0.00042862,0.00016305,-0.001
 52783,0.00061898,-0.00019662,0.00028687,-0.00004090,-0.00007477,0.0003
 1156,-0.00047075,0.00010728,-0.00002002,-0.00180053,-0.00081243,0.0009
 9726,-0.00117351,0.00155141,0.00070234,0.00003182,-0.00003079,-0.00002
 892,0.00021661,0.00012902,0.00013806,0.00068355,0.00005357,-0.00083649
 ,-0.00594944,-0.00337314,-0.00305393,0.00017463,-0.00086529,0.00097903
 ,-0.00003131,0.00003949,-0.00003734,0.00010353,-0.00002411,0.00002217,
 0.00001997,0.00002571,0.00007803,-0.00055006,-0.00004234,0.00022218,-0
 .00009417,-0.00052161,-0.00041175,0.00004240,-0.00013065,0.00005837,0.
 00000616,-0.00004495,-0.00005755,-0.00004707,0.00014878,-0.00015421,-0
 .00009117,-0.00009478,-0.00007487,0.00023661,-0.00006528,-0.00006110,-
 0.00029936,-0.00000047,0.00010347,-0.00019958,0.00009690,-0.00022177,0
 .00018494,-0.00014936,-0.00000954,0.00003534,0.00012833,-0.00014313,0.
 01024564,-0.01237412,-0.06537962,-0.01393098,-0.01130610,-0.02712415,-
 0.01928729,0.00925697,0.01501211,-0.00113784,-0.00025840,-0.00195923,0
 .00996624,-0.00660385,-0.00883740,0.01214995,0.01059890,0.08013561,-0.
 00360508,-0.00240515,-0.00233569,-0.00111540,0.00025167,0.00100381,-0.
 00019083,0.00000357,-0.00060830,-0.00098814,0.00059067,0.00028135,0.00
 230911,-0.00006794,-0.00217726,0.00161145,-0.00052920,0.00320404,0.009
 27651,-0.01331554,-0.00327460,-0.00055120,-0.00069678,0.00079496,0.001
 21236,-0.00120870,0.00046673,-0.00977330,-0.00068374,0.01156959,0.0224
 9939,0.02315869,0.01879470,-0.00295757,0.01122368,-0.00828526,0.000028
 71,0.00000574,-0.00004190,-0.00022350,-0.00009724,0.00004588,0.0000490
 6,-0.00002611,-0.00052360,0.00049255,0.00238877,-0.00073034,0.00205349
 ,0.00460451,0.00359970,-0.00006427,0.00088468,-0.00025862,-0.00002782,
 0.00021708,-0.00029180,-0.00030350,0.00028839,-0.00048946,-0.00005047,
 0.00076751,-0.00032945,0.00056210,-0.00046561,-0.00153350,0.00353371,-
 0.00009619,-0.00198243,0.00289178,-0.00255740,0.00266545,0.00050826,-0
 .00157903,-0.00002840,0.00026194,-0.00092143,0.00192981,0.01033238,-0.
 00944611,-0.00810819,-0.13844160,-0.03304956,-0.05157197,-0.00076733,0
 .00032404,-0.00075017,0.01408623,0.00051480,0.00368189,0.00328565,0.00
 568574,0.00703002,-0.02493941,0.01309312,0.00833666,0.10900473,-0.0011
 8478,-0.00123851,-0.00111839,-0.00009120,-0.00004581,0.00122093,-0.000
 81694,0.00006936,-0.00003883,0.00007849,0.00001634,-0.00054391,0.00046
 398,0.00016133,0.00002890,0.00002963,-0.00112734,-0.00276309,-0.006207
 15,-0.00410853,-0.00403191,-0.00004825,-0.00044428,0.00013910,-0.00032
 969,-0.00037098,-0.00020725,-0.00104346,0.00033586,0.00392266,0.015794
 49,-0.02125739,0.00509753,0.00887120,0.00466299,0.00162772,0.00002260,
 -0.00000061,0.00008195,-0.00008495,0.00002230,0.00000834,0.00003177,-0
 .00001309,-0.00002899,0.00173045,-0.00298608,-0.00013022,0.00058099,-0
 .00034767,0.00043193,-0.00007884,0.00000720,-0.00003871,0.00009807,0.0
 0004837,-0.00002030,-0.00000151,0.00006266,0.00037222,0.00022624,0.000
 15905,0.00000956,0.00073325,-0.00015647,-0.00102530,0.00152166,0.00007
 003,-0.00091486,0.00131754,-0.00248722,0.00207969,0.00095210,-0.001493
 13,0.00004075,0.00002628,-0.00008493,0.00071602,0.00869660,-0.00718778
 ,-0.00700889,0.00457662,-0.06478247,-0.02179018,-0.00030570,0.00012389
 ,-0.00047137,-0.02661820,-0.00695288,-0.01086695,0.00265046,0.00313706
 ,0.00369898,-0.01473481,0.01118479,0.01302819,0.00314307,0.09502392,-0
 .00100916,-0.00108794,-0.00226768,-0.00003603,-0.00001839,0.00108565,-
 0.00072852,0.00001695,-0.00020970,-0.00013169,0.00024479,-0.00070876,0
 .00012904,0.00005407,-0.00069244,0.00056864,-0.00114790,0.00083798,-0.
 00128588,-0.00542913,-0.00352692,-0.00023822,-0.00022073,0.00045934,0.
 00110689,-0.00029684,0.00059399,0.00857587,0.00105748,0.00809298,0.019
 46849,0.00793462,-0.01843451,-0.00728987,0.00424900,-0.00472622,0.0000
 2711,-0.00001756,0.00000254,-0.00010292,-0.00000662,0.00000128,0.00003
 100,-0.00007059,-0.00012728,0.00039487,-0.00053777,-0.00006922,0.00063
 413,0.00061116,0.00089381,-0.00000748,0.00030201,-0.00009190,0.0000034
 2,0.00007857,-0.00027483,-0.00038175,0.00065619,-0.00067203,-0.0003399
 8,0.00013538,-0.00034843,0.00116456,-0.00083277,-0.00118893,0.00247478
 ,0.00019822,-0.00286639,0.00098807,0.00010263,0.00029787,0.00020722,-0
 .00074011,0.00037868,-0.00036258,-0.00031462,-0.00012993,0.00934296,-0
 .00815821,-0.00636971,-0.03984625,-0.03294872,-0.04966253,-0.00006422,
 -0.00018966,-0.00057911,-0.00212756,-0.00012307,-0.00310259,0.00269116
 ,0.00286119,0.00404626,-0.01377242,0.01514367,0.00918715,0.01991634,0.
 01849469,0.07017157\\0.00000151,0.00000542,-0.00000191,-0.00000398,0.0
 0000508,-0.00000259,-0.00000426,0.00000607,-0.00000371,-0.00000249,0.0
 0000493,-0.00000224,-0.00000156,0.00000097,-0.00000088,-0.00000119,-0.
 00000136,-0.00000631,0.00000032,-0.00000356,-0.00000201,0.00000145,-0.
 00000250,0.,0.00000403,-0.00000568,0.00000111,0.00000045,-0.00000329,0
 .00000618,-0.00002057,-0.00000302,-0.00000360,-0.00000147,0.00000244,0
 .00000401,-0.00000369,0.00000765,-0.00000645,-0.00000502,0.00000861,-0
 .00000325,-0.00000334,0.00000527,-0.00000011,0.00000140,-0.00000274,-0
 .00000428,-0.00000136,0.00000153,0.00000259,0.00000249,-0.00000204,-0.
 00000362,0.00000182,-0.00000296,-0.00000076,0.00000346,-0.00000537,-0.
 00000049,0.00000384,-0.00000650,0.00000092,0.00000290,-0.00000539,0.00
 000448,0.00000198,-0.00000402,0.00000481,-0.00000144,-0.00000019,0.000
 00723,-0.00000095,-0.00000129,0.00000707,-0.00000206,0.00000163,0.0000
 0497,0.00003261,-0.00005896,-0.00006188,0.00003232,0.00003106,0.000029
 52,0.00000592,-0.00000627,-0.00000884,0.00000235,-0.00000361,0.0000047
 8,0.00001808,0.00004423,0.00004150,-0.00002505,0.00001161,0.00000729,-
 0.00003852,-0.00001775,-0.00001350\\\@


 ADAM SMITH SAID, "THE REAL PRICE OF ANYTHING IS THE TOIL AND TROUBLE
 OF ACQUIRING IT."  BUT IN ALL UNDERTAKINGS WITH NATURE WE SHOULD FIRST
 READ CAREFULLY THE SMALL PRINT IN THE CONTRACT. THIS MIGHT DISCLOSE
 THAT THE REAL PRICE IS TO BE PAID BY THOSE WHO INHERIT THE DEPLETION
 AND DESPOILATION THAT FOLLOWS.
                               -- E. R. HARRISON IN "COSMOLOGY" (1980)
 Job cpu time:  1 days 10 hours 23 minutes 42.1 seconds.
 File lengths (MBytes):  RWF=   1092 Int=      0 D2E=      0 Chk=     24 Scr=      8
 Normal termination of Gaussian 09 at Wed Oct 26 18:31:35 2022.
