 Entering Gaussian System, Link 0=g16
 Input=NicPyWa2h3wB97XDaVDZ180K.gjf
 Output=NicPyWa2h3wB97XDaVDZ180K.log
 Initial command:
 /sw/contrib/gaussian/g16/A03/g16/l1.exe "/gscratch/scrubbed/gds001/Gau-2777.inp" -scrdir="/gscratch/scrubbed/gds001/"
 Entering Link 1 = /sw/contrib/gaussian/g16/A03/g16/l1.exe PID=      2778.
  
 Copyright (c) 1988,1990,1992,1993,1995,1998,2003,2009,2016,
            Gaussian, Inc.  All Rights Reserved.
  
 This is part of the Gaussian(R) 16 program.  It is based on
 the Gaussian(R) 09 system (copyright 2009, Gaussian, Inc.),
 the Gaussian(R) 03 system (copyright 2003, Gaussian, Inc.),
 the Gaussian(R) 98 system (copyright 1998, Gaussian, Inc.),
 the Gaussian(R) 94 system (copyright 1995, Gaussian, Inc.),
 the Gaussian 92(TM) system (copyright 1992, Gaussian, Inc.),
 the Gaussian 90(TM) system (copyright 1990, Gaussian, Inc.),
 the Gaussian 88(TM) system (copyright 1988, Gaussian, Inc.),
 the Gaussian 86(TM) system (copyright 1986, Carnegie Mellon
 University), and the Gaussian 82(TM) system (copyright 1983,
 Carnegie Mellon University). Gaussian is a federally registered
 trademark of Gaussian, Inc.
  
 This software contains proprietary and confidential information,
 including trade secrets, belonging to Gaussian, Inc.
  
 This software is provided under written license and may be
 used, copied, transmitted, or stored only in accord with that
 written license.
  
 The following legend is applicable only to US Government
 contracts under FAR:
  
                    RESTRICTED RIGHTS LEGEND
  
 Use, reproduction and disclosure by the US Government is
 subject to restrictions as set forth in subparagraphs (a)
 and (c) of the Commercial Computer Software - Restricted
 Rights clause in FAR 52.227-19.
  
 Gaussian, Inc.
 340 Quinnipiac St., Bldg. 40, Wallingford CT 06492
  
  
 ---------------------------------------------------------------
 Warning -- This program may not be used in any manner that
 competes with the business of Gaussian, Inc. or will provide
 assistance to any competitor of Gaussian, Inc.  The licensee
 of this program is prohibited from giving any competitor of
 Gaussian, Inc. access to this program.  By using this program,
 the user acknowledges that Gaussian, Inc. is engaged in the
 business of creating and licensing software in the field of
 computational chemistry and represents and warrants to the
 licensee that it is not a competitor of Gaussian, Inc. and that
 it will not use this program in any manner prohibited above.
 ---------------------------------------------------------------
  

 Cite this work as:
 Gaussian 16, Revision A.03,
 M. J. Frisch, G. W. Trucks, H. B. Schlegel, G. E. Scuseria, 
 M. A. Robb, J. R. Cheeseman, G. Scalmani, V. Barone, 
 G. A. Petersson, H. Nakatsuji, X. Li, M. Caricato, A. V. Marenich, 
 J. Bloino, B. G. Janesko, R. Gomperts, B. Mennucci, H. P. Hratchian, 
 J. V. Ortiz, A. F. Izmaylov, J. L. Sonnenberg, D. Williams-Young, 
 F. Ding, F. Lipparini, F. Egidi, J. Goings, B. Peng, A. Petrone, 
 T. Henderson, D. Ranasinghe, V. G. Zakrzewski, J. Gao, N. Rega, 
 G. Zheng, W. Liang, M. Hada, M. Ehara, K. Toyota, R. Fukuda, 
 J. Hasegawa, M. Ishida, T. Nakajima, Y. Honda, O. Kitao, H. Nakai, 
 T. Vreven, K. Throssell, J. A. Montgomery, Jr., J. E. Peralta, 
 F. Ogliaro, M. J. Bearpark, J. J. Heyd, E. N. Brothers, K. N. Kudin, 
 V. N. Staroverov, T. A. Keith, R. Kobayashi, J. Normand, 
 K. Raghavachari, A. P. Rendell, J. C. Burant, S. S. Iyengar, 
 J. Tomasi, M. Cossi, J. M. Millam, M. Klene, C. Adamo, R. Cammi, 
 J. W. Ochterski, R. L. Martin, K. Morokuma, O. Farkas, 
 J. B. Foresman, and D. J. Fox, Gaussian, Inc., Wallingford CT, 2016.
 
 ******************************************
 Gaussian 16:  ES64L-G16RevA.03 25-Dec-2016
                14-Nov-2021 
 ******************************************
 %nprocshared=28
 Will use up to   28 processors via shared memory.
 %mem=41GB
 ---------------------------------------------
 # wB97XD/aug-cc-pVDZ opt freq temperature=180
 ---------------------------------------------
 1/18=20,19=15,26=3,38=1,112=180000/1,3;
 2/9=110,12=2,17=6,18=5,40=1/2;
 3/5=16,7=10,11=2,25=1,30=1,71=1,74=-58/1,2,3;
 4//1;
 5/5=2,38=5/2;
 6/7=2,8=2,9=2,10=2,28=1/1;
 7//1,2,3,16;
 1/18=20,19=15,26=3/3(2);
 2/9=110/2;
 99//99;
 2/9=110/2;
 3/5=16,7=10,11=2,25=1,30=1,71=1,74=-58/1,2,3;
 4/5=5,16=3,69=1/1;
 5/5=2,38=5/2;
 7//1,2,3,16;
 1/18=20,19=15,26=3/3(-5);
 2/9=110/2;
 6/7=2,8=2,9=2,10=2,19=2,28=1/1;
 99/9=1/99;
 --------
 Nicotine
 --------
 Symbolic Z-matrix:
 Charge =  1 Multiplicity = 1
 C                     1.07341   0.12487  -0.45766 
 C                     0.4254   -1.06748  -0.1718 
 C                     1.22171  -2.15461   0.18854 
 C                     2.61243  -2.02592   0.26348 
 C                     3.18995  -0.79679   0.00976 
 N                     2.40093   0.23346  -0.34062 
 C                    -1.0837   -1.09939  -0.21482 
 C                    -1.69787  -0.80855  -1.60762 
 C                    -2.86547   0.16452  -1.32927 
 C                    -3.02653   0.11602   0.18673 
 N                    -1.64893  -0.06154   0.66606 
 O                    -0.45074   2.55676   0.55714 
 H                    -3.46248   1.02676   0.61501 
 H                    -3.78337  -0.12169  -1.85174 
 H                    -2.60141   1.18041  -1.64603 
 H                    -2.03803  -1.74273  -2.06657 
 H                    -0.96083  -0.36828  -2.28918 
 H                    -3.65718  -0.73976   0.49212 
 H                    -1.41395  -2.09722   0.12949 
 H                     0.55222   1.02776  -0.76058 
 H                     4.25598  -0.59941   0.08533 
 H                     3.24182  -2.86747   0.54291 
 H                     0.75567  -3.11165   0.42495 
 C                    -1.56597  -0.40467   2.08173 
 H                     2.7553    1.20066  -0.45387 
 H                    -0.91281   1.69012   0.62672 
 H                    -1.04143   3.22001   0.92053 
 O                     2.21558   2.8835   -0.27024 
 H                     1.31162   2.98652   0.08051 
 H                     2.5414    3.75802  -0.49118 
 H                    -2.02644   0.39074   2.67909 
 H                    -0.51584  -0.49149   2.38844 
 H                    -2.08312  -1.3549    2.30644 
 
 Add virtual bond connecting atoms O28        and H25        Dist= 3.36D+00.
 Add virtual bond connecting atoms N11        and H26        Dist= 3.59D+00.
 Add virtual bond connecting atoms H29        and O12        Dist= 3.54D+00.

 GradGradGradGradGradGradGradGradGradGradGradGradGradGradGradGradGradGrad
 Berny optimization.
 Initialization pass.
                           ----------------------------
                           !    Initial Parameters    !
                           ! (Angstroms and Degrees)  !
 --------------------------                            --------------------------
 ! Name  Definition              Value          Derivative Info.                !
 --------------------------------------------------------------------------------
 ! R1    R(1,2)                  1.3868         estimate D2E/DX2                !
 ! R2    R(1,6)                  1.3371         estimate D2E/DX2                !
 ! R3    R(1,20)                 1.0856         estimate D2E/DX2                !
 ! R4    R(2,3)                  1.3949         estimate D2E/DX2                !
 ! R5    R(2,7)                  1.5101         estimate D2E/DX2                !
 ! R6    R(3,4)                  1.3987         estimate D2E/DX2                !
 ! R7    R(3,23)                 1.0904         estimate D2E/DX2                !
 ! R8    R(4,5)                  1.3815         estimate D2E/DX2                !
 ! R9    R(4,22)                 1.0874         estimate D2E/DX2                !
 ! R10   R(5,6)                  1.3441         estimate D2E/DX2                !
 ! R11   R(5,21)                 1.0868         estimate D2E/DX2                !
 ! R12   R(6,25)                 1.0363         estimate D2E/DX2                !
 ! R13   R(7,8)                  1.5497         estimate D2E/DX2                !
 ! R14   R(7,11)                 1.474          estimate D2E/DX2                !
 ! R15   R(7,19)                 1.106          estimate D2E/DX2                !
 ! R16   R(8,9)                  1.5452         estimate D2E/DX2                !
 ! R17   R(8,16)                 1.095          estimate D2E/DX2                !
 ! R18   R(8,17)                 1.0962         estimate D2E/DX2                !
 ! R19   R(9,10)                 1.5253         estimate D2E/DX2                !
 ! R20   R(9,14)                 1.0943         estimate D2E/DX2                !
 ! R21   R(9,15)                 1.0964         estimate D2E/DX2                !
 ! R22   R(10,11)                1.4694         estimate D2E/DX2                !
 ! R23   R(10,13)                1.0968         estimate D2E/DX2                !
 ! R24   R(10,18)                1.106          estimate D2E/DX2                !
 ! R25   R(11,24)                1.459          estimate D2E/DX2                !
 ! R26   R(11,26)                1.9005         estimate D2E/DX2                !
 ! R27   R(12,26)                0.9846         estimate D2E/DX2                !
 ! R28   R(12,27)                0.9596         estimate D2E/DX2                !
 ! R29   R(12,29)                1.8756         estimate D2E/DX2                !
 ! R30   R(24,31)                1.0962         estimate D2E/DX2                !
 ! R31   R(24,32)                1.0974         estimate D2E/DX2                !
 ! R32   R(24,33)                1.1049         estimate D2E/DX2                !
 ! R33   R(25,28)                1.7768         estimate D2E/DX2                !
 ! R34   R(28,29)                0.9751         estimate D2E/DX2                !
 ! R35   R(28,30)                0.959          estimate D2E/DX2                !
 ! A1    A(2,1,6)              121.0439         estimate D2E/DX2                !
 ! A2    A(2,1,20)             123.2454         estimate D2E/DX2                !
 ! A3    A(6,1,20)             115.6915         estimate D2E/DX2                !
 ! A4    A(1,2,3)              117.1656         estimate D2E/DX2                !
 ! A5    A(1,2,7)              118.6371         estimate D2E/DX2                !
 ! A6    A(3,2,7)              124.1518         estimate D2E/DX2                !
 ! A7    A(2,3,4)              120.6469         estimate D2E/DX2                !
 ! A8    A(2,3,23)             119.739          estimate D2E/DX2                !
 ! A9    A(4,3,23)             119.6107         estimate D2E/DX2                !
 ! A10   A(3,4,5)              119.1872         estimate D2E/DX2                !
 ! A11   A(3,4,22)             121.2033         estimate D2E/DX2                !
 ! A12   A(5,4,22)             119.5892         estimate D2E/DX2                !
 ! A13   A(4,5,6)              118.9736         estimate D2E/DX2                !
 ! A14   A(4,5,21)             123.9763         estimate D2E/DX2                !
 ! A15   A(6,5,21)             117.0468         estimate D2E/DX2                !
 ! A16   A(1,6,5)              122.9135         estimate D2E/DX2                !
 ! A17   A(1,6,25)             113.9382         estimate D2E/DX2                !
 ! A18   A(5,6,25)             122.897          estimate D2E/DX2                !
 ! A19   A(2,7,8)              114.6887         estimate D2E/DX2                !
 ! A20   A(2,7,11)             110.5686         estimate D2E/DX2                !
 ! A21   A(2,7,19)             107.975          estimate D2E/DX2                !
 ! A22   A(8,7,11)             104.6547         estimate D2E/DX2                !
 ! A23   A(8,7,19)             109.3148         estimate D2E/DX2                !
 ! A24   A(11,7,19)            109.5546         estimate D2E/DX2                !
 ! A25   A(7,8,9)              104.818          estimate D2E/DX2                !
 ! A26   A(7,8,16)             109.8579         estimate D2E/DX2                !
 ! A27   A(7,8,17)             111.5747         estimate D2E/DX2                !
 ! A28   A(9,8,16)             112.2104         estimate D2E/DX2                !
 ! A29   A(9,8,17)             111.5397         estimate D2E/DX2                !
 ! A30   A(16,8,17)            106.9134         estimate D2E/DX2                !
 ! A31   A(8,9,10)             103.8157         estimate D2E/DX2                !
 ! A32   A(8,9,14)             112.5272         estimate D2E/DX2                !
 ! A33   A(8,9,15)             110.4541         estimate D2E/DX2                !
 ! A34   A(10,9,14)            112.1888         estimate D2E/DX2                !
 ! A35   A(10,9,15)            110.0012         estimate D2E/DX2                !
 ! A36   A(14,9,15)            107.8446         estimate D2E/DX2                !
 ! A37   A(9,10,11)            103.2425         estimate D2E/DX2                !
 ! A38   A(9,10,13)            113.8076         estimate D2E/DX2                !
 ! A39   A(9,10,18)            111.0533         estimate D2E/DX2                !
 ! A40   A(11,10,13)           110.2192         estimate D2E/DX2                !
 ! A41   A(11,10,18)           110.5489         estimate D2E/DX2                !
 ! A42   A(13,10,18)           107.9407         estimate D2E/DX2                !
 ! A43   A(7,11,10)            104.457          estimate D2E/DX2                !
 ! A44   A(7,11,24)            113.1085         estimate D2E/DX2                !
 ! A45   A(7,11,26)            119.2149         estimate D2E/DX2                !
 ! A46   A(10,11,24)           113.4686         estimate D2E/DX2                !
 ! A47   A(10,11,26)           104.1824         estimate D2E/DX2                !
 ! A48   A(24,11,26)           102.4056         estimate D2E/DX2                !
 ! A49   A(26,12,27)           107.021          estimate D2E/DX2                !
 ! A50   A(26,12,29)           131.347          estimate D2E/DX2                !
 ! A51   A(27,12,29)           121.0815         estimate D2E/DX2                !
 ! A52   A(11,24,31)           109.5259         estimate D2E/DX2                !
 ! A53   A(11,24,32)           110.132          estimate D2E/DX2                !
 ! A54   A(11,24,33)           111.8989         estimate D2E/DX2                !
 ! A55   A(31,24,32)           107.8823         estimate D2E/DX2                !
 ! A56   A(31,24,33)           108.4573         estimate D2E/DX2                !
 ! A57   A(32,24,33)           108.8439         estimate D2E/DX2                !
 ! A58   A(6,25,28)            140.2477         estimate D2E/DX2                !
 ! A59   A(25,28,29)           114.762          estimate D2E/DX2                !
 ! A60   A(25,28,30)           137.4467         estimate D2E/DX2                !
 ! A61   A(29,28,30)           107.5466         estimate D2E/DX2                !
 ! A62   A(12,29,28)           159.7689         estimate D2E/DX2                !
 ! A63   L(11,26,12,1,-1)      174.0226         estimate D2E/DX2                !
 ! A64   L(11,26,12,1,-2)      179.536          estimate D2E/DX2                !
 ! D1    D(6,1,2,3)             -2.4946         estimate D2E/DX2                !
 ! D2    D(6,1,2,7)            175.1548         estimate D2E/DX2                !
 ! D3    D(20,1,2,3)           179.1675         estimate D2E/DX2                !
 ! D4    D(20,1,2,7)            -3.1831         estimate D2E/DX2                !
 ! D5    D(2,1,6,5)              2.3578         estimate D2E/DX2                !
 ! D6    D(2,1,6,25)          -172.0299         estimate D2E/DX2                !
 ! D7    D(20,1,6,5)          -179.1848         estimate D2E/DX2                !
 ! D8    D(20,1,6,25)            6.4275         estimate D2E/DX2                !
 ! D9    D(1,2,3,4)              0.4963         estimate D2E/DX2                !
 ! D10   D(1,2,3,23)           179.8209         estimate D2E/DX2                !
 ! D11   D(7,2,3,4)           -177.0106         estimate D2E/DX2                !
 ! D12   D(7,2,3,23)             2.314          estimate D2E/DX2                !
 ! D13   D(1,2,7,8)             63.0343         estimate D2E/DX2                !
 ! D14   D(1,2,7,11)           -54.9942         estimate D2E/DX2                !
 ! D15   D(1,2,7,19)          -174.8344         estimate D2E/DX2                !
 ! D16   D(3,2,7,8)           -119.4929         estimate D2E/DX2                !
 ! D17   D(3,2,7,11)           122.4786         estimate D2E/DX2                !
 ! D18   D(3,2,7,19)             2.6383         estimate D2E/DX2                !
 ! D19   D(2,3,4,5)              1.6752         estimate D2E/DX2                !
 ! D20   D(2,3,4,22)          -179.968          estimate D2E/DX2                !
 ! D21   D(23,3,4,5)          -177.6502         estimate D2E/DX2                !
 ! D22   D(23,3,4,22)            0.7066         estimate D2E/DX2                !
 ! D23   D(3,4,5,6)             -1.9161         estimate D2E/DX2                !
 ! D24   D(3,4,5,21)           177.4079         estimate D2E/DX2                !
 ! D25   D(22,4,5,6)           179.7001         estimate D2E/DX2                !
 ! D26   D(22,4,5,21)           -0.9758         estimate D2E/DX2                !
 ! D27   D(4,5,6,1)             -0.0678         estimate D2E/DX2                !
 ! D28   D(4,5,6,25)           173.8213         estimate D2E/DX2                !
 ! D29   D(21,5,6,1)          -179.4384         estimate D2E/DX2                !
 ! D30   D(21,5,6,25)           -5.5493         estimate D2E/DX2                !
 ! D31   D(1,6,25,28)           25.4899         estimate D2E/DX2                !
 ! D32   D(5,6,25,28)         -148.8989         estimate D2E/DX2                !
 ! D33   D(2,7,8,9)           -135.8169         estimate D2E/DX2                !
 ! D34   D(2,7,8,16)           103.4341         estimate D2E/DX2                !
 ! D35   D(2,7,8,17)           -14.9534         estimate D2E/DX2                !
 ! D36   D(11,7,8,9)           -14.492          estimate D2E/DX2                !
 ! D37   D(11,7,8,16)         -135.241          estimate D2E/DX2                !
 ! D38   D(11,7,8,17)          106.3714         estimate D2E/DX2                !
 ! D39   D(19,7,8,9)           102.7819         estimate D2E/DX2                !
 ! D40   D(19,7,8,16)          -17.9671         estimate D2E/DX2                !
 ! D41   D(19,7,8,17)         -136.3547         estimate D2E/DX2                !
 ! D42   D(2,7,11,10)          160.7618         estimate D2E/DX2                !
 ! D43   D(2,7,11,24)          -75.3785         estimate D2E/DX2                !
 ! D44   D(2,7,11,26)           45.0353         estimate D2E/DX2                !
 ! D45   D(8,7,11,10)           36.7575         estimate D2E/DX2                !
 ! D46   D(8,7,11,24)          160.6171         estimate D2E/DX2                !
 ! D47   D(8,7,11,26)          -78.9691         estimate D2E/DX2                !
 ! D48   D(19,7,11,10)         -80.3517         estimate D2E/DX2                !
 ! D49   D(19,7,11,24)          43.5079         estimate D2E/DX2                !
 ! D50   D(19,7,11,26)         163.9217         estimate D2E/DX2                !
 ! D51   D(7,8,9,10)           -11.9445         estimate D2E/DX2                !
 ! D52   D(7,8,9,14)          -133.4806         estimate D2E/DX2                !
 ! D53   D(7,8,9,15)           105.9374         estimate D2E/DX2                !
 ! D54   D(16,8,9,10)          107.2352         estimate D2E/DX2                !
 ! D55   D(16,8,9,14)          -14.3009         estimate D2E/DX2                !
 ! D56   D(16,8,9,15)         -134.8829         estimate D2E/DX2                !
 ! D57   D(17,8,9,10)         -132.8311         estimate D2E/DX2                !
 ! D58   D(17,8,9,14)          105.6328         estimate D2E/DX2                !
 ! D59   D(17,8,9,15)          -14.9492         estimate D2E/DX2                !
 ! D60   D(8,9,10,11)           34.3422         estimate D2E/DX2                !
 ! D61   D(8,9,10,13)          153.8082         estimate D2E/DX2                !
 ! D62   D(8,9,10,18)          -84.1457         estimate D2E/DX2                !
 ! D63   D(14,9,10,11)         156.1041         estimate D2E/DX2                !
 ! D64   D(14,9,10,13)         -84.4299         estimate D2E/DX2                !
 ! D65   D(14,9,10,18)          37.6161         estimate D2E/DX2                !
 ! D66   D(15,9,10,11)         -83.8531         estimate D2E/DX2                !
 ! D67   D(15,9,10,13)          35.6129         estimate D2E/DX2                !
 ! D68   D(15,9,10,18)         157.659          estimate D2E/DX2                !
 ! D69   D(9,10,11,7)          -44.762          estimate D2E/DX2                !
 ! D70   D(9,10,11,24)        -168.3896         estimate D2E/DX2                !
 ! D71   D(9,10,11,26)          81.0444         estimate D2E/DX2                !
 ! D72   D(13,10,11,7)        -166.673          estimate D2E/DX2                !
 ! D73   D(13,10,11,24)         69.6994         estimate D2E/DX2                !
 ! D74   D(13,10,11,26)        -40.8666         estimate D2E/DX2                !
 ! D75   D(18,10,11,7)          74.0765         estimate D2E/DX2                !
 ! D76   D(18,10,11,24)        -49.5511         estimate D2E/DX2                !
 ! D77   D(18,10,11,26)       -160.1172         estimate D2E/DX2                !
 ! D78   D(7,11,12,27)         161.0539         estimate D2E/DX2                !
 ! D79   D(7,11,12,29)         -26.8545         estimate D2E/DX2                !
 ! D80   D(10,11,12,27)         45.3004         estimate D2E/DX2                !
 ! D81   D(10,11,12,29)       -142.608          estimate D2E/DX2                !
 ! D82   D(24,11,12,27)        -73.9791         estimate D2E/DX2                !
 ! D83   D(24,11,12,29)         98.1125         estimate D2E/DX2                !
 ! D84   D(7,11,24,31)        -178.4098         estimate D2E/DX2                !
 ! D85   D(7,11,24,32)          63.1006         estimate D2E/DX2                !
 ! D86   D(7,11,24,33)         -58.1055         estimate D2E/DX2                !
 ! D87   D(10,11,24,31)        -59.6478         estimate D2E/DX2                !
 ! D88   D(10,11,24,32)       -178.1374         estimate D2E/DX2                !
 ! D89   D(10,11,24,33)         60.6565         estimate D2E/DX2                !
 ! D90   D(26,11,24,31)         52.0057         estimate D2E/DX2                !
 ! D91   D(26,11,24,32)        -66.4839         estimate D2E/DX2                !
 ! D92   D(26,11,24,33)        172.31           estimate D2E/DX2                !
 ! D93   D(26,12,29,28)         13.5641         estimate D2E/DX2                !
 ! D94   D(27,12,29,28)       -176.1266         estimate D2E/DX2                !
 ! D95   D(6,25,28,29)           3.2465         estimate D2E/DX2                !
 ! D96   D(6,25,28,30)        -170.1545         estimate D2E/DX2                !
 ! D97   D(25,28,29,12)        -18.1804         estimate D2E/DX2                !
 ! D98   D(30,28,29,12)        157.1443         estimate D2E/DX2                !
 --------------------------------------------------------------------------------
 Trust Radius=3.00D-01 FncErr=1.00D-07 GrdErr=1.00D-06 EigMax=2.50D+02 EigMin=1.00D-04
 Number of steps in this run=    198 maximum allowed number of steps=    198.
 GradGradGradGradGradGradGradGradGradGradGradGradGradGradGradGradGradGrad

                          Input orientation:                          
 ---------------------------------------------------------------------
 Center     Atomic      Atomic             Coordinates (Angstroms)
 Number     Number       Type             X           Y           Z
 ---------------------------------------------------------------------
      1          6           0        1.073410    0.124871   -0.457656
      2          6           0        0.425402   -1.067476   -0.171801
      3          6           0        1.221706   -2.154610    0.188541
      4          6           0        2.612431   -2.025917    0.263477
      5          6           0        3.189945   -0.796785    0.009755
      6          7           0        2.400930    0.233461   -0.340618
      7          6           0       -1.083702   -1.099389   -0.214816
      8          6           0       -1.697866   -0.808545   -1.607619
      9          6           0       -2.865472    0.164521   -1.329273
     10          6           0       -3.026530    0.116016    0.186728
     11          7           0       -1.648926   -0.061544    0.666062
     12          8           0       -0.450738    2.556762    0.557138
     13          1           0       -3.462478    1.026765    0.615005
     14          1           0       -3.783365   -0.121693   -1.851743
     15          1           0       -2.601408    1.180406   -1.646028
     16          1           0       -2.038028   -1.742727   -2.066570
     17          1           0       -0.960830   -0.368278   -2.289175
     18          1           0       -3.657182   -0.739756    0.492117
     19          1           0       -1.413949   -2.097219    0.129485
     20          1           0        0.552216    1.027761   -0.760581
     21          1           0        4.255975   -0.599408    0.085328
     22          1           0        3.241824   -2.867472    0.542906
     23          1           0        0.755668   -3.111654    0.424952
     24          6           0       -1.565971   -0.404673    2.081725
     25          1           0        2.755301    1.200663   -0.453868
     26          1           0       -0.912812    1.690115    0.626716
     27          1           0       -1.041425    3.220006    0.920534
     28          8           0        2.215577    2.883500   -0.270244
     29          1           0        1.311620    2.986520    0.080505
     30          1           0        2.541396    3.758017   -0.491178
     31          1           0       -2.026443    0.390741    2.679093
     32          1           0       -0.515835   -0.491486    2.388438
     33          1           0       -2.083119   -1.354902    2.306437
 ---------------------------------------------------------------------
                    Distance matrix (angstroms):
                    1          2          3          4          5
     1  C    0.000000
     2  C    1.386838   0.000000
     3  C    2.373941   1.394922   0.000000
     4  C    2.741260   2.427174   1.398676   0.000000
     5  C    2.355344   2.783691   2.397836   1.381544   0.000000
     6  N    1.337086   2.371423   2.715412   2.348287   1.344140
     7  C    2.492171   1.510054   2.567313   3.840393   4.290228
     8  C    3.142237   2.576215   3.682660   4.854035   5.148469
     9  C    4.034362   3.699650   4.938335   6.110834   6.275761
    10  C    4.150279   3.666747   4.816976   6.032549   6.285625
    11  N    2.951035   2.452906   3.584617   4.709565   4.938217
    12  O    3.044163   3.799220   5.012979   5.519981   4.980008
    13  H    4.747451   4.485590   5.678433   6.807860   6.924333
    14  H    5.058907   4.629301   5.774621   7.000459   7.248998
    15  H    4.003832   4.048197   5.394829   6.411773   6.339611
    16  H    3.969581   3.180346   3.985102   5.209231   5.704177
    17  H    2.781329   2.625603   3.754134   4.693825   4.764203
    18  H    4.901852   4.149178   5.088960   6.404259   6.864333
    19  H    3.386646   2.129403   2.636941   4.029240   4.785531
    20  H    1.085641   2.180083   3.387703   3.823366   3.298484
    21  H    3.308796   3.867621   3.411172   2.183553   1.086779
    22  H    3.828480   3.418044   2.171318   1.087396   2.138852
    23  H    3.369726   2.154960   1.090420   2.156958   3.384776
    24  C    3.700703   3.079489   3.797047   4.836683   5.202456
    25  H    1.996522   3.263808   3.744658   3.308446   2.096106
    26  H    2.751532   3.167452   4.419284   5.134995   4.837140
    27  H    3.993970   4.661253   5.877421   6.426671   5.904966
    28  O    2.991605   4.338736   5.155659   4.954263   3.817367
    29  H    2.921540   4.157394   5.143051   5.181709   4.224513
    30  H    3.918655   5.278713   6.096126   5.833390   4.627934
    31  H    4.418028   4.033056   4.819972   5.761475   5.978820
    32  H    3.317506   2.787923   3.259536   4.081175   4.414085
    33  H    4.449001   3.537931   4.005856   5.164507   5.778533
                    6          7          8          9         10
     6  N    0.000000
     7  C    3.732958   0.000000
     8  C    4.414884   1.549738   0.000000
     9  C    5.358841   2.452384   1.545198   0.000000
    10  C    5.454284   2.326591   2.416577   1.525304   0.000000
    11  N    4.183511   1.473956   2.393748   2.347861   1.469381
    12  O    3.786252   3.789986   4.191276   3.887455   3.567793
    13  H    5.993505   3.296621   3.379686   2.209094   1.096784
    14  H    6.376138   3.305087   2.209223   1.094267   2.187389
    15  H    5.255872   3.090188   2.184900   1.096397   2.161631
    16  H    5.156411   2.180279   1.095008   2.205871   3.083734
    17  H    3.931971   2.202859   1.096164   2.198397   3.260637
    18  H    6.192037   2.692933   2.872724   2.182197   1.106043
    19  H    4.495149   1.106016   2.181472   3.057836   2.738997
    20  H    2.055487   2.738404   3.025287   3.570600   3.812623
    21  H    2.077569   5.371426   6.193386   7.300664   7.318264
    22  H    3.332192   4.733966   5.767536   7.070863   6.951282
    23  H    3.805625   2.800321   3.931346   5.188765   4.977914
    24  C    4.691616   2.447308   3.713727   3.694265   2.448543
    25  H    1.036284   4.481666   5.019836   5.782129   5.917465
    26  H    3.746794   2.918683   3.442654   3.156931   2.671925
    27  H    4.728611   4.466316   4.801218   4.210079   3.756843
    28  O    2.657445   5.172206   5.543898   5.859304   5.945374
    29  H    2.990531   4.745465   5.129258   5.234429   5.202944
    30  H    3.530566   6.067298   6.330187   6.545979   6.687715
    31  H    5.361439   3.388799   4.463424   4.101481   2.699543
    32  H    4.059657   2.732938   4.179258   4.446630   3.394138
    33  H    5.443941   2.724121   3.970738   4.017351   2.747142
                   11         12         13         14         15
    11  N    0.000000
    12  O    2.881501   0.000000
    13  H    2.115655   3.378582   0.000000
    14  H    3.301332   4.907467   2.739849   0.000000
    15  H    2.792028   3.372488   2.424318   1.770537   0.000000
    16  H    3.231881   5.280998   4.109743   2.391674   3.006486
    17  H    3.049752   4.113095   4.079050   2.866855   2.345966
    18  H    2.126810   4.599189   1.781462   2.427263   3.061592
    19  H    2.118278   4.771813   3.767158   3.666347   3.912203
    20  H    2.840233   2.253918   4.243820   4.616183   3.279125
    21  H    5.957718   5.686577   7.905663   8.283202   7.293081
    22  H    5.639844   6.561824   7.753576   7.913718   7.437749
    23  H    3.891449   5.796881   5.912308   5.892879   5.829296
    24  C    1.459014   3.512578   2.792315   4.524277   4.180998
    25  H    4.716421   3.624889   6.311379   6.815925   5.487803
    26  H    1.900453   0.984597   2.634572   4.203032   2.876895
    27  H    3.346996   0.959615   3.281029   5.135242   3.630531
    28  O    4.948165   2.810792   6.039159   6.893448   5.291187
    29  H    4.289336   1.875574   5.188289   6.273232   4.642710
    30  H    5.786800   3.390405   6.688040   7.543599   5.867384
    31  H    2.097469   3.417190   2.593681   4.886496   4.434053
    32  H    2.106021   3.556644   3.759369   5.365877   4.839603
    33  H    2.133572   4.585393   3.230466   4.658551   4.724234
                   16         17         18         19         20
    16  H    0.000000
    17  H    1.760403   0.000000
    18  H    3.189748   3.891516   0.000000
    19  H    2.310367   3.007403   2.646942   0.000000
    20  H    4.011306   2.564144   4.734174   3.797831   0.000000
    21  H    6.749246   5.736440   7.924849   5.864591   4.132925
    22  H    5.995936   5.650571   7.219836   4.737133   4.909777
    23  H    3.985772   4.223620   5.010355   2.413217   4.310642
    24  C    4.384242   4.412741   2.648074   2.588255   3.823256
    25  H    5.851526   4.431654   6.766096   5.347801   2.231043
    26  H    4.506030   3.569553   3.667964   3.852567   2.123585
    27  H    5.877476   4.815030   4.765023   5.388638   3.189322
    28  O    6.536201   4.973902   6.942512   6.175824   2.539875
    29  H    6.180279   4.694047   6.224432   5.768494   2.262931
    30  H    7.328790   5.703042   7.721347   7.093220   3.388763
    31  H    5.203185   5.137638   2.952998   3.614636   4.345876
    32  H    4.871321   4.700347   3.677735   2.913393   3.655840
    33  H    4.390402   4.832454   2.479483   2.395400   4.693471
                   21         22         23         24         25
    21  H    0.000000
    22  H    2.526261   0.000000
    23  H    4.321906   2.500902   0.000000
    24  C    6.157806   5.616782   3.932258   0.000000
    25  H    2.404789   4.216632   4.833936   5.261153   0.000000
    26  H    5.679029   6.167627   5.087388   2.632832   3.855163
    27  H    6.583915   7.452933   6.600384   3.842110   4.514627
    28  O    4.052197   5.898142   6.209388   5.535697   1.776784
    29  H    4.639842   6.181321   6.133144   4.877048   2.357765
    30  H    4.717976   6.742183   7.156850   6.388919   2.566555
    31  H    6.868536   6.552395   5.008799   1.096160   5.773776
    32  H    5.299635   4.813658   3.512446   1.097449   4.652140
    33  H    6.759305   5.809727   3.832085   1.104931   6.128663
                   26         27         28         29         30
    26  H    0.000000
    27  H    1.563150   0.000000
    28  O    3.466341   3.484143   0.000000
    29  H    2.631940   2.509379   0.975078   0.000000
    30  H    4.178212   3.888315   0.959036   1.560249   0.000000
    31  H    2.672227   3.473835   5.736477   4.963204   6.500332
    32  H    2.832073   4.025688   5.091143   4.556608   5.974707
    33  H    3.669225   4.892406   6.563697   5.943650   7.440076
                   31         32         33
    31  H    0.000000
    32  H    1.773342   0.000000
    33  H    1.785876   1.791254   0.000000
 Stoichiometry    C10H19N2O2(1+)
 Framework group  C1[X(C10H19N2O2)]
 Deg. of freedom    93
 Full point group                 C1      NOp   1
 Largest Abelian subgroup         C1      NOp   1
 Largest concise Abelian subgroup C1      NOp   1
                         Standard orientation:                         
 ---------------------------------------------------------------------
 Center     Atomic      Atomic             Coordinates (Angstroms)
 Number     Number       Type             X           Y           Z
 ---------------------------------------------------------------------
      1          6           0        1.073410    0.124871   -0.457656
      2          6           0        0.425402   -1.067476   -0.171801
      3          6           0        1.221706   -2.154610    0.188541
      4          6           0        2.612431   -2.025917    0.263477
      5          6           0        3.189945   -0.796785    0.009755
      6          7           0        2.400930    0.233461   -0.340618
      7          6           0       -1.083702   -1.099389   -0.214816
      8          6           0       -1.697866   -0.808545   -1.607619
      9          6           0       -2.865472    0.164521   -1.329273
     10          6           0       -3.026530    0.116016    0.186728
     11          7           0       -1.648926   -0.061544    0.666062
     12          8           0       -0.450738    2.556762    0.557138
     13          1           0       -3.462478    1.026765    0.615005
     14          1           0       -3.783365   -0.121693   -1.851743
     15          1           0       -2.601408    1.180406   -1.646028
     16          1           0       -2.038028   -1.742727   -2.066570
     17          1           0       -0.960830   -0.368278   -2.289175
     18          1           0       -3.657182   -0.739756    0.492117
     19          1           0       -1.413949   -2.097219    0.129485
     20          1           0        0.552216    1.027761   -0.760581
     21          1           0        4.255975   -0.599408    0.085328
     22          1           0        3.241824   -2.867472    0.542906
     23          1           0        0.755668   -3.111654    0.424952
     24          6           0       -1.565971   -0.404673    2.081725
     25          1           0        2.755301    1.200663   -0.453868
     26          1           0       -0.912812    1.690115    0.626716
     27          1           0       -1.041425    3.220006    0.920534
     28          8           0        2.215577    2.883500   -0.270244
     29          1           0        1.311620    2.986520    0.080505
     30          1           0        2.541396    3.758017   -0.491178
     31          1           0       -2.026443    0.390741    2.679093
     32          1           0       -0.515835   -0.491486    2.388438
     33          1           0       -2.083119   -1.354902    2.306437
 ---------------------------------------------------------------------
 Rotational constants (GHZ):           0.8141829           0.5075425           0.3902926
 Standard basis: Aug-CC-pVDZ (5D, 7F)
 There are   521 symmetry adapted cartesian basis functions of A   symmetry.
 There are   493 symmetry adapted basis functions of A   symmetry.
   493 basis functions,   811 primitive gaussians,   521 cartesian basis functions
    54 alpha electrons       54 beta electrons
       nuclear repulsion energy       976.6516808754 Hartrees.
 NAtoms=   33 NActive=   33 NUniq=   33 SFac= 1.00D+00 NAtFMM=   60 NAOKFM=F Big=F
 Integral buffers will be    131072 words long.
 Raffenetti 2 integral format.
 Two-electron integral symmetry is turned on.
 Nuclear repulsion after empirical dispersion term =      976.6254528817 Hartrees.
 One-electron integrals computed using PRISM.
 NBasis=   493 RedAO= T EigKep=  2.22D-06  NBF=   493
 NBsUse=   493 1.00D-06 EigRej= -1.00D+00 NBFU=   493
 ExpMin= 2.97D-02 ExpMax= 1.17D+04 ExpMxC= 4.01D+02 IAcc=3 IRadAn=         5 AccDes= 0.00D+00
 Harris functional with IExCor= 4639 and IRadAn=       5 diagonalized for initial guess.
 HarFok:  IExCor= 4639 AccDes= 0.00D+00 IRadAn=         5 IDoV= 1 UseB2=F ITyADJ=14
 ICtDFT=  3500011 ScaDFX=  1.000000  1.000000  1.000000  1.000000
 FoFCou: FMM=F IPFlag=           0 FMFlag=      100000 FMFlg1=           0
         NFxFlg=           0 DoJE=T BraDBF=F KetDBF=T FulRan=T
         wScrn=  0.000000 ICntrl=       500 IOpCl=  0 I1Cent=   200000004 NGrid=           0
         NMat0=    1 NMatS0=      1 NMatT0=    0 NMatD0=    1 NMtDS0=    0 NMtDT0=    0
 Petite list used in FoFCou.
 Requested convergence on RMS density matrix=1.00D-08 within 128 cycles.
 Requested convergence on MAX density matrix=1.00D-06.
 Requested convergence on             energy=1.00D-06.
 No special actions if energy rises.
 SCF Done:  E(RwB97XD) =  -652.154811607     A.U. after   15 cycles
            NFock= 15  Conv=0.36D-08     -V/T= 2.0063

 **********************************************************************

            Population analysis using the SCF density.

 **********************************************************************

 Orbital symmetries:
       Occupied  (A) (A) (A) (A) (A) (A) (A) (A) (A) (A) (A) (A)
                 (A) (A) (A) (A) (A) (A) (A) (A) (A) (A) (A) (A)
                 (A) (A) (A) (A) (A) (A) (A) (A) (A) (A) (A) (A)
                 (A) (A) (A) (A) (A) (A) (A) (A) (A) (A) (A) (A)
                 (A) (A) (A) (A) (A) (A)
       Virtual   (A) (A) (A) (A) (A) (A) (A) (A) (A) (A) (A) (A)
                 (A) (A) (A) (A) (A) (A) (A) (A) (A) (A) (A) (A)
                 (A) (A) (A) (A) (A) (A) (A) (A) (A) (A) (A) (A)
                 (A) (A) (A) (A) (A) (A) (A) (A) (A) (A) (A) (A)
                 (A) (A) (A) (A) (A) (A) (A) (A) (A) (A) (A) (A)
                 (A) (A) (A) (A) (A) (A) (A) (A) (A) (A) (A) (A)
                 (A) (A) (A) (A) (A) (A) (A) (A) (A) (A) (A) (A)
                 (A) (A) (A) (A) (A) (A) (A) (A) (A) (A) (A) (A)
                 (A) (A) (A) (A) (A) (A) (A) (A) (A) (A) (A) (A)
                 (A) (A) (A) (A) (A) (A) (A) (A) (A) (A) (A) (A)
                 (A) (A) (A) (A) (A) (A) (A) (A) (A) (A) (A) (A)
                 (A) (A) (A) (A) (A) (A) (A) (A) (A) (A) (A) (A)
                 (A) (A) (A) (A) (A) (A) (A) (A) (A) (A) (A) (A)
                 (A) (A) (A) (A) (A) (A) (A) (A) (A) (A) (A) (A)
                 (A) (A) (A) (A) (A) (A) (A) (A) (A) (A) (A) (A)
                 (A) (A) (A) (A) (A) (A) (A) (A) (A) (A) (A) (A)
                 (A) (A) (A) (A) (A) (A) (A) (A) (A) (A) (A) (A)
                 (A) (A) (A) (A) (A) (A) (A) (A) (A) (A) (A) (A)
                 (A) (A) (A) (A) (A) (A) (A) (A) (A) (A) (A) (A)
                 (A) (A) (A) (A) (A) (A) (A) (A) (A) (A) (A) (A)
                 (A) (A) (A) (A) (A) (A) (A) (A) (A) (A) (A) (A)
                 (A) (A) (A) (A) (A) (A) (A) (A) (A) (A) (A) (A)
                 (A) (A) (A) (A) (A) (A) (A) (A) (A) (A) (A) (A)
                 (A) (A) (A) (A) (A) (A) (A) (A) (A) (A) (A) (A)
                 (A) (A) (A) (A) (A) (A) (A) (A) (A) (A) (A) (A)
                 (A) (A) (A) (A) (A) (A) (A) (A) (A) (A) (A) (A)
                 (A) (A) (A) (A) (A) (A) (A) (A) (A) (A) (A) (A)
                 (A) (A) (A) (A) (A) (A) (A) (A) (A) (A) (A) (A)
                 (A) (A) (A) (A) (A) (A) (A) (A) (A) (A) (A) (A)
                 (A) (A) (A) (A) (A) (A) (A) (A) (A) (A) (A) (A)
                 (A) (A) (A) (A) (A) (A) (A) (A) (A) (A) (A) (A)
                 (A) (A) (A) (A) (A) (A) (A) (A) (A) (A) (A) (A)
                 (A) (A) (A) (A) (A) (A) (A) (A) (A) (A) (A) (A)
                 (A) (A) (A) (A) (A) (A) (A) (A) (A) (A) (A) (A)
                 (A) (A) (A) (A) (A) (A) (A) (A) (A) (A) (A) (A)
                 (A) (A) (A) (A) (A) (A) (A) (A) (A) (A) (A) (A)
                 (A) (A) (A) (A) (A) (A) (A)
 The electronic state is 1-A.
 Alpha  occ. eigenvalues --  -19.40140 -19.39333 -14.69437 -14.58718 -10.52336
 Alpha  occ. eigenvalues --  -10.51704 -10.48950 -10.48221 -10.48025 -10.47207
 Alpha  occ. eigenvalues --  -10.43895 -10.43803 -10.42210 -10.41057  -1.27487
 Alpha  occ. eigenvalues --   -1.24478  -1.23229  -1.18059  -1.09458  -1.05951
 Alpha  occ. eigenvalues --   -1.01184  -0.96883  -0.91900  -0.90715  -0.89608
 Alpha  occ. eigenvalues --   -0.83837  -0.80541  -0.80254  -0.76068  -0.75760
 Alpha  occ. eigenvalues --   -0.75288  -0.74319  -0.71837  -0.70335  -0.69731
 Alpha  occ. eigenvalues --   -0.69169  -0.66205  -0.65630  -0.64629  -0.63454
 Alpha  occ. eigenvalues --   -0.62481  -0.60676  -0.59760  -0.59069  -0.57911
 Alpha  occ. eigenvalues --   -0.57163  -0.56434  -0.54571  -0.54371  -0.53684
 Alpha  occ. eigenvalues --   -0.52853  -0.52505  -0.50343  -0.45085
 Alpha virt. eigenvalues --   -0.15082  -0.12068  -0.06913  -0.05757  -0.05299
 Alpha virt. eigenvalues --   -0.04535  -0.03711  -0.03546  -0.03468  -0.02420
 Alpha virt. eigenvalues --   -0.02234  -0.01608  -0.01245  -0.00854  -0.00103
 Alpha virt. eigenvalues --    0.00221   0.00661   0.00887   0.01265   0.01388
 Alpha virt. eigenvalues --    0.01568   0.01989   0.02509   0.02667   0.03057
 Alpha virt. eigenvalues --    0.03464   0.03831   0.04296   0.04521   0.04592
 Alpha virt. eigenvalues --    0.04981   0.05437   0.05738   0.06145   0.06290
 Alpha virt. eigenvalues --    0.06579   0.06782   0.07154   0.07279   0.07660
 Alpha virt. eigenvalues --    0.07853   0.08376   0.08854   0.09001   0.09542
 Alpha virt. eigenvalues --    0.09760   0.10173   0.10310   0.10810   0.10982
 Alpha virt. eigenvalues --    0.11526   0.11843   0.11989   0.12125   0.12799
 Alpha virt. eigenvalues --    0.13132   0.13565   0.13772   0.14158   0.14527
 Alpha virt. eigenvalues --    0.15096   0.15291   0.15594   0.15776   0.15984
 Alpha virt. eigenvalues --    0.16359   0.16753   0.17054   0.17621   0.17882
 Alpha virt. eigenvalues --    0.18122   0.18369   0.18518   0.19060   0.19410
 Alpha virt. eigenvalues --    0.19769   0.20009   0.20050   0.20289   0.20579
 Alpha virt. eigenvalues --    0.21083   0.22272   0.22485   0.23123   0.23288
 Alpha virt. eigenvalues --    0.23598   0.23939   0.24485   0.24876   0.24894
 Alpha virt. eigenvalues --    0.25067   0.25751   0.26078   0.26674   0.27036
 Alpha virt. eigenvalues --    0.27283   0.28032   0.28764   0.29520   0.30047
 Alpha virt. eigenvalues --    0.30370   0.30616   0.30834   0.31329   0.31737
 Alpha virt. eigenvalues --    0.31966   0.32542   0.32709   0.33360   0.33684
 Alpha virt. eigenvalues --    0.34332   0.34356   0.35319   0.35717   0.36158
 Alpha virt. eigenvalues --    0.36441   0.36857   0.37363   0.37695   0.38034
 Alpha virt. eigenvalues --    0.38749   0.39263   0.39981   0.40027   0.40900
 Alpha virt. eigenvalues --    0.41469   0.42039   0.42383   0.42546   0.43380
 Alpha virt. eigenvalues --    0.43529   0.43863   0.44687   0.45027   0.45313
 Alpha virt. eigenvalues --    0.46044   0.46254   0.46728   0.47415   0.48148
 Alpha virt. eigenvalues --    0.48340   0.49081   0.49178   0.49225   0.50239
 Alpha virt. eigenvalues --    0.50660   0.50998   0.51382   0.51748   0.52231
 Alpha virt. eigenvalues --    0.52506   0.52954   0.54099   0.54501   0.54651
 Alpha virt. eigenvalues --    0.55264   0.55573   0.55700   0.56147   0.56492
 Alpha virt. eigenvalues --    0.56671   0.57205   0.57319   0.57955   0.58027
 Alpha virt. eigenvalues --    0.59300   0.59854   0.60093   0.60703   0.61301
 Alpha virt. eigenvalues --    0.61532   0.61669   0.62352   0.62682   0.63126
 Alpha virt. eigenvalues --    0.63955   0.64334   0.64448   0.64789   0.65976
 Alpha virt. eigenvalues --    0.66189   0.66861   0.67410   0.67513   0.67689
 Alpha virt. eigenvalues --    0.68746   0.68953   0.69770   0.70167   0.70902
 Alpha virt. eigenvalues --    0.71043   0.71627   0.72283   0.72714   0.73115
 Alpha virt. eigenvalues --    0.73396   0.73634   0.74370   0.74512   0.74969
 Alpha virt. eigenvalues --    0.76169   0.76638   0.77161   0.78710   0.78954
 Alpha virt. eigenvalues --    0.79881   0.80231   0.81102   0.81759   0.82490
 Alpha virt. eigenvalues --    0.82899   0.83252   0.84309   0.84936   0.86174
 Alpha virt. eigenvalues --    0.86689   0.87232   0.87530   0.87933   0.89581
 Alpha virt. eigenvalues --    0.89809   0.90996   0.91772   0.92676   0.93547
 Alpha virt. eigenvalues --    0.94367   0.95055   0.95437   0.95666   0.97076
 Alpha virt. eigenvalues --    0.98236   0.98514   1.00080   1.00519   1.01996
 Alpha virt. eigenvalues --    1.03570   1.03872   1.04882   1.05208   1.06144
 Alpha virt. eigenvalues --    1.07347   1.07882   1.09779   1.09963   1.10529
 Alpha virt. eigenvalues --    1.10603   1.11314   1.12330   1.14964   1.15446
 Alpha virt. eigenvalues --    1.16950   1.17694   1.18889   1.19699   1.20507
 Alpha virt. eigenvalues --    1.20920   1.22557   1.23747   1.25392   1.26148
 Alpha virt. eigenvalues --    1.26919   1.27982   1.28434   1.29913   1.30632
 Alpha virt. eigenvalues --    1.32025   1.33645   1.34230   1.35003   1.35820
 Alpha virt. eigenvalues --    1.36767   1.37243   1.38592   1.40017   1.40737
 Alpha virt. eigenvalues --    1.40867   1.41549   1.44171   1.44480   1.45334
 Alpha virt. eigenvalues --    1.46829   1.47930   1.49083   1.49965   1.51551
 Alpha virt. eigenvalues --    1.53323   1.54383   1.54964   1.56130   1.56773
 Alpha virt. eigenvalues --    1.57606   1.58378   1.59765   1.60121   1.60484
 Alpha virt. eigenvalues --    1.61071   1.62030   1.62470   1.63311   1.64290
 Alpha virt. eigenvalues --    1.66007   1.67179   1.68334   1.68838   1.69205
 Alpha virt. eigenvalues --    1.70040   1.71871   1.73313   1.74105   1.74538
 Alpha virt. eigenvalues --    1.75801   1.77620   1.78296   1.79073   1.79530
 Alpha virt. eigenvalues --    1.80399   1.80908   1.82272   1.82532   1.83269
 Alpha virt. eigenvalues --    1.83852   1.85501   1.85736   1.86738   1.87938
 Alpha virt. eigenvalues --    1.88830   1.90218   1.90440   1.91371   1.92099
 Alpha virt. eigenvalues --    1.92939   1.93937   1.94782   1.95442   1.95660
 Alpha virt. eigenvalues --    1.97355   1.97414   1.97537   1.98568   2.00670
 Alpha virt. eigenvalues --    2.02041   2.02586   2.03469   2.04513   2.05507
 Alpha virt. eigenvalues --    2.06945   2.07900   2.08299   2.09731   2.10569
 Alpha virt. eigenvalues --    2.11701   2.13120   2.13741   2.14251   2.15371
 Alpha virt. eigenvalues --    2.16398   2.18067   2.18360   2.19663   2.21193
 Alpha virt. eigenvalues --    2.22280   2.24149   2.24255   2.25380   2.25956
 Alpha virt. eigenvalues --    2.27116   2.29070   2.29221   2.29864   2.31174
 Alpha virt. eigenvalues --    2.32076   2.33923   2.36407   2.36924   2.38899
 Alpha virt. eigenvalues --    2.40521   2.40913   2.42082   2.43001   2.43777
 Alpha virt. eigenvalues --    2.46244   2.47023   2.49125   2.49578   2.51869
 Alpha virt. eigenvalues --    2.52471   2.54126   2.56421   2.56716   2.57951
 Alpha virt. eigenvalues --    2.59847   2.60265   2.62178   2.62781   2.66156
 Alpha virt. eigenvalues --    2.67283   2.67656   2.68354   2.69341   2.71864
 Alpha virt. eigenvalues --    2.73378   2.75133   2.76799   2.78372   2.79060
 Alpha virt. eigenvalues --    2.81339   2.82357   2.84237   2.85105   2.86431
 Alpha virt. eigenvalues --    2.86822   2.87418   2.91302   2.95341   2.97207
 Alpha virt. eigenvalues --    3.00917   3.01433   3.06916   3.09277   3.17454
 Alpha virt. eigenvalues --    3.23231   3.23450   3.32096   3.34502   3.38332
 Alpha virt. eigenvalues --    3.39990   3.44312   3.46156   3.48217   3.54134
 Alpha virt. eigenvalues --    3.59422   3.62488   3.63468   3.81597   3.90263
 Alpha virt. eigenvalues --    3.98451   4.13632   4.28265   4.85069
          Condensed to atoms (all electrons):
               1          2          3          4          5          6
     1  C   13.275850  -2.410481  -2.398684   0.010298  -0.900675  -0.414892
     2  C   -2.410481  20.155877  -7.837389  -0.035780  -0.779689  -0.312562
     3  C   -2.398684  -7.837389  20.756043  -3.051702   1.060945  -0.242855
     4  C    0.010298  -0.035780  -3.051702  10.318283  -1.795742   0.054111
     5  C   -0.900675  -0.779689   1.060945  -1.795742   8.996557   0.152616
     6  N   -0.414892  -0.312562  -0.242855   0.054111   0.152616   7.371232
     7  C   -1.202052  -6.941431  -1.021614   0.523092  -0.747721   0.528402
     8  C   -0.212445   0.407358  -0.242869  -0.058273  -0.066083   0.067665
     9  C   -0.204334   0.361024  -0.052771   0.012757  -0.000187  -0.007430
    10  C   -0.148381  -0.241195  -0.033878  -0.016450  -0.026239   0.049141
    11  N    0.742492   1.966465  -0.503814  -0.158494   0.119421  -0.171456
    12  O   -0.125048   0.037347  -0.009698  -0.001576   0.006701   0.045010
    13  H   -0.030933  -0.146069   0.014308   0.002366  -0.004578  -0.000117
    14  H    0.019215  -0.061850   0.016118   0.001731  -0.000104  -0.001610
    15  H    0.005305   0.045671  -0.017145  -0.002959   0.002754   0.000643
    16  H    0.090584   0.420773  -0.072934  -0.010895   0.006502  -0.011907
    17  H   -0.049520  -0.384053   0.132340  -0.001205  -0.010589   0.017220
    18  H    0.001832   0.042274   0.010143  -0.004985   0.002091   0.002839
    19  H   -0.082464   0.677055   0.061104   0.001336   0.009129  -0.003061
    20  H   -1.150764  -1.041175  -0.070008  -0.004481   0.050810   0.065029
    21  H    0.029309   0.064943   0.123902   0.062493  -0.422705  -0.032043
    22  H   -0.058465  -0.034901   0.493398  -0.930092   0.292544  -0.024915
    23  H    0.135918   0.917383  -2.109867   0.529667  -0.158703  -0.046204
    24  C    0.002166   0.419021  -0.093695   0.040074   0.006710  -0.049294
    25  H    0.342027  -0.163556  -0.042164   0.000204  -0.375985   0.115970
    26  H    0.033579  -0.106100  -0.029593   0.000228  -0.022069  -0.001675
    27  H    0.002347  -0.000341   0.006487  -0.000207   0.002910   0.003340
    28  O    0.009624  -0.033697   0.023045  -0.018092   0.044008  -0.066228
    29  H   -0.015155   0.007792  -0.007388   0.000476  -0.005117   0.040806
    30  H    0.020794  -0.000659  -0.002044   0.003798  -0.006353  -0.015474
    31  H   -0.010455  -0.049258  -0.011289   0.011718  -0.005600  -0.004964
    32  H   -0.039135   0.038533   0.006266   0.027418  -0.012987   0.017937
    33  H   -0.014826   0.094297   0.037859  -0.013971   0.011203  -0.000712
               7          8          9         10         11         12
     1  C   -1.202052  -0.212445  -0.204334  -0.148381   0.742492  -0.125048
     2  C   -6.941431   0.407358   0.361024  -0.241195   1.966465   0.037347
     3  C   -1.021614  -0.242869  -0.052771  -0.033878  -0.503814  -0.009698
     4  C    0.523092  -0.058273   0.012757  -0.016450  -0.158494  -0.001576
     5  C   -0.747721  -0.066083  -0.000187  -0.026239   0.119421   0.006701
     6  N    0.528402   0.067665  -0.007430   0.049141  -0.171456   0.045010
     7  C   22.937667  -1.347841  -0.186880  -0.149088  -5.971588   0.031489
     8  C   -1.347841   7.491559  -0.400320   0.273611  -0.630541   0.008513
     9  C   -0.186880  -0.400320   5.835849   0.275978  -0.507091   0.014666
    10  C   -0.149088   0.273611   0.275978   5.774475  -0.224070   0.016717
    11  N   -5.971588  -0.630541  -0.507091  -0.224070  14.361937  -0.061817
    12  O    0.031489   0.008513   0.014666   0.016717  -0.061817   7.885282
    13  H    0.542177   0.128189   0.039848  -0.205263  -0.852363   0.027536
    14  H    0.190966   0.149333  -0.285251   0.096273  -0.057075  -0.004649
    15  H   -0.124023   0.238512  -0.224315  -0.118692   0.157598   0.003097
    16  H   -0.222661  -0.738673   0.106553  -0.176001   0.467751   0.002748
    17  H    0.263977  -0.442811   0.298298   0.049389   0.023425  -0.005556
    18  H    0.163158  -0.115775   0.115164  -0.247004  -0.177701  -0.002502
    19  H   -2.273379   0.483144   0.062244  -0.049745  -0.051508  -0.002316
    20  H    0.484226   0.039762  -0.033285   0.060268  -0.554267   0.062312
    21  H   -0.008182   0.005372  -0.000188  -0.000706   0.007323  -0.000307
    22  H    0.031181  -0.000424   0.000718   0.000258  -0.001735   0.000094
    23  H    0.000193  -0.013789  -0.012368  -0.001925   0.029320  -0.000931
    24  C   -0.858085  -0.199483   0.025652  -0.252325   0.931466  -0.016398
    25  H   -0.020206  -0.023358   0.001682  -0.003593   0.015801  -0.007200
    26  H    0.296136   0.055316  -0.023521  -0.064929  -0.040500   0.103806
    27  H   -0.007392   0.007617  -0.007585   0.020786  -0.045325   0.405913
    28  O   -0.017188  -0.005877   0.002016  -0.001744   0.009953  -0.025448
    29  H    0.015902  -0.002679   0.006367   0.004917  -0.011321   0.056863
    30  H   -0.000086   0.000918  -0.000497  -0.000469   0.001404  -0.001318
    31  H    0.156231  -0.041178   0.044531   0.049572  -0.330179   0.002637
    32  H    0.016968   0.065894  -0.030541  -0.041458   0.211304   0.005032
    33  H   -0.040060  -0.015654   0.039063   0.016368  -0.606723  -0.002021
              13         14         15         16         17         18
     1  C   -0.030933   0.019215   0.005305   0.090584  -0.049520   0.001832
     2  C   -0.146069  -0.061850   0.045671   0.420773  -0.384053   0.042274
     3  C    0.014308   0.016118  -0.017145  -0.072934   0.132340   0.010143
     4  C    0.002366   0.001731  -0.002959  -0.010895  -0.001205  -0.004985
     5  C   -0.004578  -0.000104   0.002754   0.006502  -0.010589   0.002091
     6  N   -0.000117  -0.001610   0.000643  -0.011907   0.017220   0.002839
     7  C    0.542177   0.190966  -0.124023  -0.222661   0.263977   0.163158
     8  C    0.128189   0.149333   0.238512  -0.738673  -0.442811  -0.115775
     9  C    0.039848  -0.285251  -0.224315   0.106553   0.298298   0.115164
    10  C   -0.205263   0.096273  -0.118692  -0.176001   0.049389  -0.247004
    11  N   -0.852363  -0.057075   0.157598   0.467751   0.023425  -0.177701
    12  O    0.027536  -0.004649   0.003097   0.002748  -0.005556  -0.002502
    13  H    2.686258   0.055181  -0.245117  -0.022922   0.023969  -0.490013
    14  H    0.055181   2.025013  -0.539862  -0.315883   0.145258  -0.178721
    15  H   -0.245117  -0.539862   2.138334   0.208999  -0.402802   0.167382
    16  H   -0.022922  -0.315883   0.208999   2.582341  -0.642795   0.042194
    17  H    0.023969   0.145258  -0.402802  -0.642795   2.412530  -0.042097
    18  H   -0.490013  -0.178721   0.167382   0.042194  -0.042097   2.155297
    19  H    0.055281   0.050753  -0.069121  -0.375976   0.199016  -0.072032
    20  H   -0.021018   0.007166   0.028373   0.035323  -0.137010   0.013489
    21  H   -0.000209   0.000016   0.000025   0.000620   0.000205   0.000133
    22  H    0.000198   0.000037  -0.000151  -0.001163   0.000882  -0.000283
    23  H   -0.003377   0.000214   0.001431   0.007422  -0.001599   0.002004
    24  C   -0.124246   0.004220   0.006631   0.051411   0.004129  -0.016660
    25  H    0.000806   0.000083   0.000440   0.001433  -0.004896  -0.000367
    26  H    0.067664  -0.003166   0.012841  -0.000888  -0.009056  -0.000788
    27  H   -0.005729  -0.000231   0.001514  -0.000250   0.001738   0.003760
    28  O    0.000464   0.000058   0.000154   0.000022   0.000154  -0.000265
    29  H    0.002806   0.000283  -0.001681  -0.000331   0.001105  -0.001042
    30  H   -0.000303  -0.000031  -0.000088  -0.000034   0.000610   0.000046
    31  H    0.005598  -0.001206   0.004480  -0.000724   0.000786   0.002147
    32  H    0.002156   0.002857  -0.011140  -0.006520   0.009551  -0.007537
    33  H    0.013056  -0.000772   0.006239   0.013938  -0.005090   0.075968
              19         20         21         22         23         24
     1  C   -0.082464  -1.150764   0.029309  -0.058465   0.135918   0.002166
     2  C    0.677055  -1.041175   0.064943  -0.034901   0.917383   0.419021
     3  C    0.061104  -0.070008   0.123902   0.493398  -2.109867  -0.093695
     4  C    0.001336  -0.004481   0.062493  -0.930092   0.529667   0.040074
     5  C    0.009129   0.050810  -0.422705   0.292544  -0.158703   0.006710
     6  N   -0.003061   0.065029  -0.032043  -0.024915  -0.046204  -0.049294
     7  C   -2.273379   0.484226  -0.008182   0.031181   0.000193  -0.858085
     8  C    0.483144   0.039762   0.005372  -0.000424  -0.013789  -0.199483
     9  C    0.062244  -0.033285  -0.000188   0.000718  -0.012368   0.025652
    10  C   -0.049745   0.060268  -0.000706   0.000258  -0.001925  -0.252325
    11  N   -0.051508  -0.554267   0.007323  -0.001735   0.029320   0.931466
    12  O   -0.002316   0.062312  -0.000307   0.000094  -0.000931  -0.016398
    13  H    0.055281  -0.021018  -0.000209   0.000198  -0.003377  -0.124246
    14  H    0.050753   0.007166   0.000016   0.000037   0.000214   0.004220
    15  H   -0.069121   0.028373   0.000025  -0.000151   0.001431   0.006631
    16  H   -0.375976   0.035323   0.000620  -0.001163   0.007422   0.051411
    17  H    0.199016  -0.137010   0.000205   0.000882  -0.001599   0.004129
    18  H   -0.072032   0.013489   0.000133  -0.000283   0.002004  -0.016660
    19  H    3.314459  -0.014533   0.001589  -0.001623  -0.153817   0.010170
    20  H   -0.014533   4.600050   0.007027  -0.007459  -0.015801   0.009550
    21  H    0.001589   0.007027   2.007312  -0.104469  -0.008211   0.003750
    22  H   -0.001623  -0.007459  -0.104469   2.036595  -0.138210  -0.007309
    23  H   -0.153817  -0.015801  -0.008211  -0.138210   2.832813   0.039674
    24  C    0.010170   0.009550   0.003750  -0.007309   0.039674   4.650279
    25  H   -0.003152  -0.101596  -0.144429   0.009545   0.003793  -0.004390
    26  H   -0.010060  -0.119188  -0.000590   0.001207  -0.000077  -0.114353
    27  H    0.000264   0.024728   0.000016  -0.000044   0.000271   0.005963
    28  O   -0.000536  -0.011511   0.001072  -0.000132   0.000087   0.001175
    29  H    0.000529  -0.057774  -0.002381   0.000656  -0.000517  -0.002641
    30  H    0.000107   0.001239   0.001685  -0.000141  -0.000017  -0.000014
    31  H    0.024100   0.008931   0.000409  -0.000901   0.002099   0.238518
    32  H    0.007905   0.024591  -0.002060  -0.000213  -0.008599   0.042280
    33  H    0.017881  -0.000067   0.000303  -0.000135   0.008784   0.289134
              25         26         27         28         29         30
     1  C    0.342027   0.033579   0.002347   0.009624  -0.015155   0.020794
     2  C   -0.163556  -0.106100  -0.000341  -0.033697   0.007792  -0.000659
     3  C   -0.042164  -0.029593   0.006487   0.023045  -0.007388  -0.002044
     4  C    0.000204   0.000228  -0.000207  -0.018092   0.000476   0.003798
     5  C   -0.375985  -0.022069   0.002910   0.044008  -0.005117  -0.006353
     6  N    0.115970  -0.001675   0.003340  -0.066228   0.040806  -0.015474
     7  C   -0.020206   0.296136  -0.007392  -0.017188   0.015902  -0.000086
     8  C   -0.023358   0.055316   0.007617  -0.005877  -0.002679   0.000918
     9  C    0.001682  -0.023521  -0.007585   0.002016   0.006367  -0.000497
    10  C   -0.003593  -0.064929   0.020786  -0.001744   0.004917  -0.000469
    11  N    0.015801  -0.040500  -0.045325   0.009953  -0.011321   0.001404
    12  O   -0.007200   0.103806   0.405913  -0.025448   0.056863  -0.001318
    13  H    0.000806   0.067664  -0.005729   0.000464   0.002806  -0.000303
    14  H    0.000083  -0.003166  -0.000231   0.000058   0.000283  -0.000031
    15  H    0.000440   0.012841   0.001514   0.000154  -0.001681  -0.000088
    16  H    0.001433  -0.000888  -0.000250   0.000022  -0.000331  -0.000034
    17  H   -0.004896  -0.009056   0.001738   0.000154   0.001105   0.000610
    18  H   -0.000367  -0.000788   0.003760  -0.000265  -0.001042   0.000046
    19  H   -0.003152  -0.010060   0.000264  -0.000536   0.000529   0.000107
    20  H   -0.101596  -0.119188   0.024728  -0.011511  -0.057774   0.001239
    21  H   -0.144429  -0.000590   0.000016   0.001072  -0.002381   0.001685
    22  H    0.009545   0.001207  -0.000044  -0.000132   0.000656  -0.000141
    23  H    0.003793  -0.000077   0.000271   0.000087  -0.000517  -0.000017
    24  C   -0.004390  -0.114353   0.005963   0.001175  -0.002641  -0.000014
    25  H    1.301445   0.003115  -0.001083  -0.002142  -0.002310  -0.005943
    26  H    0.003115   0.761810  -0.196308   0.001248   0.004354   0.004976
    27  H   -0.001083  -0.196308   0.607663   0.000734  -0.007149  -0.000324
    28  O   -0.002142   0.001248   0.000734   7.832542   0.308741   0.345293
    29  H   -0.002310   0.004354  -0.007149   0.308741   0.562388  -0.118330
    30  H   -0.005943   0.004976  -0.000324   0.345293  -0.118330   0.587610
    31  H   -0.001758   0.017436   0.001934  -0.000604  -0.001537   0.000224
    32  H    0.000492  -0.003855   0.002457   0.000528  -0.001556  -0.000093
    33  H    0.000543  -0.031311   0.003232   0.000195   0.001373  -0.000149
              31         32         33
     1  C   -0.010455  -0.039135  -0.014826
     2  C   -0.049258   0.038533   0.094297
     3  C   -0.011289   0.006266   0.037859
     4  C    0.011718   0.027418  -0.013971
     5  C   -0.005600  -0.012987   0.011203
     6  N   -0.004964   0.017937  -0.000712
     7  C    0.156231   0.016968  -0.040060
     8  C   -0.041178   0.065894  -0.015654
     9  C    0.044531  -0.030541   0.039063
    10  C    0.049572  -0.041458   0.016368
    11  N   -0.330179   0.211304  -0.606723
    12  O    0.002637   0.005032  -0.002021
    13  H    0.005598   0.002156   0.013056
    14  H   -0.001206   0.002857  -0.000772
    15  H    0.004480  -0.011140   0.006239
    16  H   -0.000724  -0.006520   0.013938
    17  H    0.000786   0.009551  -0.005090
    18  H    0.002147  -0.007537   0.075968
    19  H    0.024100   0.007905   0.017881
    20  H    0.008931   0.024591  -0.000067
    21  H    0.000409  -0.002060   0.000303
    22  H   -0.000901  -0.000213  -0.000135
    23  H    0.002099  -0.008599   0.008784
    24  C    0.238518   0.042280   0.289134
    25  H   -0.001758   0.000492   0.000543
    26  H    0.017436  -0.003855  -0.031311
    27  H    0.001934   0.002457   0.003232
    28  O   -0.000604   0.000528   0.000195
    29  H   -0.001537  -0.001556   0.001373
    30  H    0.000224  -0.000093  -0.000149
    31  H    2.072146  -0.588311  -0.370660
    32  H   -0.588311   1.805713  -0.375194
    33  H   -0.370660  -0.375194   2.060067
 Mulliken charges:
               1
     1  C    0.747368
     2  C    0.924370
     3  C    1.109443
     4  C    0.504853
     5  C    0.576223
     6  N   -0.124563
     7  C    0.957711
     8  C    1.135312
     9  C    0.734155
    10  C    1.315402
    11  N   -1.088092
    12  O   -0.448979
    13  H   -0.515606
    14  H   -0.314363
    15  H   -0.273329
    16  H   -0.438059
    17  H   -0.445502
    18  H   -0.442149
    19  H   -0.812741
    20  H   -1.182937
    21  H   -0.591023
    22  H   -0.554549
    23  H   -0.837060
    24  C    0.956918
    25  H    0.110750
    26  H    0.414309
    27  H    0.168294
    28  O   -0.397649
    29  H    0.223550
    30  H    0.183661
    31  H   -0.224872
    32  H   -0.158684
    33  H   -0.212159
 Sum of Mulliken charges =   1.00000
 Mulliken charges with hydrogens summed into heavy atoms:
               1
     1  C   -0.435569
     2  C    0.924370
     3  C    0.272383
     4  C   -0.049696
     5  C   -0.014800
     6  N   -0.013813
     7  C    0.144970
     8  C    0.251750
     9  C    0.146462
    10  C    0.357646
    11  N   -1.088092
    12  O    0.133623
    24  C    0.361204
    28  O    0.009562
 Electronic spatial extent (au):  <R**2>=           3119.0075
 Charge=              1.0000 electrons
 Dipole moment (field-independent basis, Debye):
    X=              3.2941    Y=             -0.7312    Z=              0.3302  Tot=              3.3904
 Quadrupole moment (field-independent basis, Debye-Ang):
   XX=            -45.7457   YY=            -55.9127   ZZ=            -80.3984
   XY=             -3.1955   XZ=             -2.1273   YZ=             -1.3558
 Traceless Quadrupole moment (field-independent basis, Debye-Ang):
   XX=             14.9399   YY=              4.7729   ZZ=            -19.7128
   XY=             -3.1955   XZ=             -2.1273   YZ=             -1.3558
 Octapole moment (field-independent basis, Debye-Ang**2):
  XXX=             73.8768  YYY=             70.4862  ZZZ=              5.6327  XYY=             34.7447
  XXY=              6.2232  XXZ=             -1.2916  XZZ=            -11.6336  YZZ=             10.0872
  YYZ=              8.5590  XYZ=            -17.6983
 Hexadecapole moment (field-independent basis, Debye-Ang**3):
 XXXX=          -1779.5973 YYYY=           -764.3700 ZZZZ=           -533.8613 XXXY=            -12.2845
 XXXZ=              2.5895 YYYX=             68.1159 YYYZ=            -11.7300 ZZZX=            -13.3025
 ZZZY=              6.7232 XXYY=           -418.6451 XXZZ=           -450.8329 YYZZ=           -286.0666
 XXYZ=            -19.9039 YYXZ=            -27.4851 ZZXY=              8.7734
 N-N= 9.766254528817D+02 E-N=-3.456338149478D+03  KE= 6.480502876434D+02
 Calling FoFJK, ICntrl=      2127 FMM=F ISym2X=0 I1Cent= 0 IOpClX= 0 NMat=1 NMatS=1 NMatT=0.
 ***** Axes restored to original set *****
 -------------------------------------------------------------------
 Center     Atomic                   Forces (Hartrees/Bohr)
 Number     Number              X              Y              Z
 -------------------------------------------------------------------
      1        6           0.000001456    0.000002463    0.000000365
      2        6           0.000000003    0.000000217    0.000001863
      3        6           0.000000047    0.000000723   -0.000000135
      4        6           0.000001112    0.000000684    0.000000653
      5        6           0.000000220   -0.000000495    0.000001902
      6        7           0.000002477    0.000001205   -0.000000592
      7        6           0.000000312   -0.000001326   -0.000001046
      8        6           0.000000406   -0.000002342   -0.000001734
      9        6           0.000000149   -0.000000377    0.000000088
     10        6          -0.000000247    0.000000022    0.000000832
     11        7          -0.000001773   -0.000000223   -0.000000499
     12        8          -0.000002787   -0.000000690    0.000001011
     13        1          -0.000000353   -0.000000502   -0.000000704
     14        1          -0.000000236   -0.000000775   -0.000000784
     15        1           0.000000422   -0.000000224   -0.000001061
     16        1           0.000001062   -0.000000370   -0.000000060
     17        1           0.000000403    0.000000471    0.000000414
     18        1          -0.000000044   -0.000000636   -0.000000938
     19        1           0.000001055    0.000000125   -0.000000413
     20        1           0.000001631   -0.000003277    0.000000781
     21        1          -0.000000553    0.000000681    0.000001107
     22        1           0.000000226    0.000001007    0.000001060
     23        1           0.000000602   -0.000000018    0.000000622
     24        6           0.000000174   -0.000000576   -0.000000792
     25        1          -0.000003045    0.000000720    0.000000944
     26        1           0.000002171    0.000004397   -0.000002059
     27        1          -0.000000272   -0.000000128   -0.000000408
     28        8          -0.000007297   -0.000001885    0.000001996
     29        1           0.000009252    0.000001422   -0.000002532
     30        1          -0.000003711    0.000000905    0.000002031
     31        1          -0.000000480   -0.000000942   -0.000001126
     32        1          -0.000001903    0.000000002   -0.000000542
     33        1          -0.000000479   -0.000000256   -0.000000242
 -------------------------------------------------------------------
 Cartesian Forces:  Max     0.000009252 RMS     0.000001737

 GradGradGradGradGradGradGradGradGradGradGradGradGradGradGradGradGradGrad
 Berny optimization.
 FormGI is forming the generalized inverse of G from B-inverse, IUseBI=4.
 Internal  Forces:  Max     0.000010058 RMS     0.000001060
 Search for a local minimum.
 Step number   1 out of a maximum of  198
 All quantities printed in internal units (Hartrees-Bohrs-Radians)
 Mixed Optimization -- En-DIIS/RFO-DIIS
 Second derivative matrix not updated -- first step.
 ITU=  0
     Eigenvalues ---    0.00242   0.00289   0.00351   0.00488   0.00612
     Eigenvalues ---    0.00763   0.00856   0.00911   0.01059   0.01551
     Eigenvalues ---    0.01928   0.02102   0.02131   0.02202   0.02227
     Eigenvalues ---    0.02256   0.02348   0.02380   0.02414   0.02638
     Eigenvalues ---    0.03861   0.04093   0.04433   0.04504   0.04635
     Eigenvalues ---    0.04851   0.05080   0.05177   0.05513   0.05641
     Eigenvalues ---    0.05723   0.05835   0.06056   0.06106   0.06382
     Eigenvalues ---    0.06447   0.06906   0.07026   0.07028   0.08956
     Eigenvalues ---    0.09006   0.09857   0.11141   0.12927   0.15842
     Eigenvalues ---    0.15950   0.15991   0.15993   0.15997   0.15999
     Eigenvalues ---    0.15999   0.16000   0.16000   0.16000   0.18534
     Eigenvalues ---    0.19097   0.19928   0.21632   0.22036   0.23098
     Eigenvalues ---    0.23382   0.26276   0.26416   0.28948   0.31010
     Eigenvalues ---    0.32805   0.33023   0.33026   0.33143   0.33644
     Eigenvalues ---    0.33966   0.34040   0.34084   0.34110   0.34110
     Eigenvalues ---    0.34240   0.34324   0.34764   0.35115   0.35188
     Eigenvalues ---    0.35321   0.37088   0.40949   0.42209   0.43553
     Eigenvalues ---    0.46408   0.48162   0.49879   0.51576   0.54046
     Eigenvalues ---    0.55556   0.55681   0.55907
 RFO step:  Lambda= 0.00000000D+00 EMin= 2.42494850D-03
 Linear search not attempted -- first point.
 Iteration  1 RMS(Cart)=  0.00003222 RMS(Int)=  0.00000000
 Iteration  2 RMS(Cart)=  0.00000000 RMS(Int)=  0.00000000
 Variable       Old X    -DE/DX   Delta X   Delta X   Delta X     New X
                                 (Linear)    (Quad)   (Total)
    R1        2.62074  -0.00000   0.00000  -0.00000  -0.00000   2.62074
    R2        2.52673  -0.00000   0.00000  -0.00000  -0.00000   2.52672
    R3        2.05156  -0.00000   0.00000  -0.00001  -0.00001   2.05155
    R4        2.63602   0.00000   0.00000   0.00000   0.00000   2.63602
    R5        2.85359   0.00000   0.00000   0.00001   0.00001   2.85360
    R6        2.64311   0.00000   0.00000   0.00000   0.00000   2.64312
    R7        2.06059   0.00000   0.00000   0.00000   0.00000   2.06059
    R8        2.61074  -0.00000   0.00000  -0.00000  -0.00000   2.61074
    R9        2.05488  -0.00000   0.00000  -0.00000  -0.00000   2.05488
   R10        2.54006   0.00000   0.00000   0.00000   0.00000   2.54006
   R11        2.05371  -0.00000   0.00000  -0.00000  -0.00000   2.05371
   R12        1.95829  -0.00000   0.00000  -0.00000  -0.00000   1.95829
   R13        2.92858   0.00000   0.00000   0.00000   0.00000   2.92858
   R14        2.78537   0.00000   0.00000   0.00000   0.00000   2.78538
   R15        2.09007  -0.00000   0.00000  -0.00000  -0.00000   2.09007
   R16        2.92000   0.00000   0.00000   0.00001   0.00001   2.92001
   R17        2.06926  -0.00000   0.00000  -0.00000  -0.00000   2.06926
   R18        2.07145  -0.00000   0.00000  -0.00000  -0.00000   2.07145
   R19        2.88241  -0.00000   0.00000   0.00000   0.00000   2.88241
   R20        2.06787   0.00000   0.00000   0.00000   0.00000   2.06787
   R21        2.07189   0.00000   0.00000   0.00000   0.00000   2.07189
   R22        2.77673  -0.00000   0.00000  -0.00000  -0.00000   2.77673
   R23        2.07262   0.00000   0.00000   0.00000   0.00000   2.07262
   R24        2.09012   0.00000   0.00000   0.00000   0.00000   2.09012
   R25        2.75714  -0.00000   0.00000  -0.00000  -0.00000   2.75713
   R26        3.59134   0.00000   0.00000   0.00006   0.00006   3.59140
   R27        1.86062  -0.00000   0.00000  -0.00000  -0.00000   1.86061
   R28        1.81341  -0.00000   0.00000  -0.00000  -0.00000   1.81341
   R29        3.54432  -0.00000   0.00000  -0.00001  -0.00001   3.54431
   R30        2.07144  -0.00000   0.00000  -0.00000  -0.00000   2.07144
   R31        2.07388  -0.00000   0.00000  -0.00000  -0.00000   2.07387
   R32        2.08802   0.00000   0.00000   0.00000   0.00000   2.08802
   R33        3.35763   0.00000   0.00000   0.00000   0.00000   3.35764
   R34        1.84263  -0.00001   0.00000  -0.00002  -0.00002   1.84261
   R35        1.81232  -0.00000   0.00000  -0.00000  -0.00000   1.81231
    A1        2.11262   0.00000   0.00000   0.00001   0.00001   2.11262
    A2        2.15104  -0.00000   0.00000  -0.00001  -0.00001   2.15103
    A3        2.01920  -0.00000   0.00000  -0.00000  -0.00000   2.01920
    A4        2.04492  -0.00000   0.00000  -0.00001  -0.00001   2.04492
    A5        2.07061   0.00000   0.00000   0.00000   0.00000   2.07061
    A6        2.16686   0.00000   0.00000   0.00000   0.00000   2.16686
    A7        2.10569   0.00000   0.00000   0.00000   0.00000   2.10569
    A8        2.08984   0.00000   0.00000   0.00000   0.00000   2.08984
    A9        2.08760  -0.00000   0.00000  -0.00000  -0.00000   2.08760
   A10        2.08021   0.00000   0.00000   0.00000   0.00000   2.08021
   A11        2.11540  -0.00000   0.00000  -0.00000  -0.00000   2.11540
   A12        2.08723  -0.00000   0.00000  -0.00000  -0.00000   2.08722
   A13        2.07648  -0.00000   0.00000  -0.00000  -0.00000   2.07648
   A14        2.16379   0.00000   0.00000   0.00000   0.00000   2.16379
   A15        2.04285   0.00000   0.00000   0.00000   0.00000   2.04285
   A16        2.14525  -0.00000   0.00000  -0.00000  -0.00000   2.14524
   A17        1.98860  -0.00000   0.00000  -0.00001  -0.00001   1.98858
   A18        2.14496   0.00000   0.00000   0.00001   0.00001   2.14497
   A19        2.00169   0.00000   0.00000   0.00002   0.00002   2.00171
   A20        1.92979  -0.00000   0.00000   0.00000   0.00000   1.92979
   A21        1.88452  -0.00000   0.00000  -0.00001  -0.00001   1.88451
   A22        1.82657  -0.00000   0.00000  -0.00000  -0.00000   1.82657
   A23        1.90790  -0.00000   0.00000  -0.00000  -0.00000   1.90790
   A24        1.91209   0.00000   0.00000  -0.00000  -0.00000   1.91209
   A25        1.82942  -0.00000   0.00000  -0.00000  -0.00000   1.82942
   A26        1.91738  -0.00000   0.00000   0.00000   0.00000   1.91738
   A27        1.94735   0.00000   0.00000  -0.00000  -0.00000   1.94734
   A28        1.95844   0.00000   0.00000   0.00000   0.00000   1.95844
   A29        1.94673  -0.00000   0.00000  -0.00001  -0.00001   1.94673
   A30        1.86599   0.00000   0.00000   0.00001   0.00001   1.86600
   A31        1.81193   0.00000   0.00000   0.00001   0.00001   1.81193
   A32        1.96397   0.00000   0.00000   0.00000   0.00000   1.96397
   A33        1.92779  -0.00000   0.00000  -0.00000  -0.00000   1.92778
   A34        1.95806  -0.00000   0.00000  -0.00000  -0.00000   1.95806
   A35        1.91988   0.00000   0.00000   0.00000   0.00000   1.91988
   A36        1.88224   0.00000   0.00000  -0.00000  -0.00000   1.88224
   A37        1.80192  -0.00000   0.00000  -0.00000  -0.00000   1.80192
   A38        1.98632   0.00000   0.00000   0.00000   0.00000   1.98632
   A39        1.93825  -0.00000   0.00000  -0.00000  -0.00000   1.93824
   A40        1.92369   0.00000   0.00000   0.00000   0.00000   1.92369
   A41        1.92944   0.00000   0.00000  -0.00000  -0.00000   1.92944
   A42        1.88392  -0.00000   0.00000  -0.00000  -0.00000   1.88392
   A43        1.82312   0.00000   0.00000   0.00001   0.00001   1.82312
   A44        1.97412  -0.00000   0.00000  -0.00001  -0.00001   1.97410
   A45        2.08069  -0.00000   0.00000   0.00001   0.00001   2.08070
   A46        1.98040  -0.00000   0.00000  -0.00001  -0.00001   1.98039
   A47        1.81833  -0.00000   0.00000   0.00000   0.00000   1.81833
   A48        1.78732   0.00000   0.00000   0.00001   0.00001   1.78732
   A49        1.86787   0.00000   0.00000   0.00001   0.00001   1.86788
   A50        2.29244  -0.00000   0.00000  -0.00001  -0.00001   2.29243
   A51        2.11327   0.00000   0.00000   0.00001   0.00001   2.11328
   A52        1.91159  -0.00000   0.00000  -0.00000  -0.00000   1.91159
   A53        1.92217  -0.00000   0.00000   0.00000   0.00000   1.92217
   A54        1.95300   0.00000   0.00000   0.00000   0.00000   1.95300
   A55        1.88290   0.00000   0.00000   0.00000   0.00000   1.88290
   A56        1.89294  -0.00000   0.00000  -0.00000  -0.00000   1.89294
   A57        1.89969  -0.00000   0.00000  -0.00000  -0.00000   1.89968
   A58        2.44778   0.00000   0.00000   0.00000   0.00000   2.44779
   A59        2.00298   0.00000   0.00000   0.00002   0.00002   2.00299
   A60        2.39890   0.00000   0.00000   0.00001   0.00001   2.39891
   A61        1.87704  -0.00000   0.00000  -0.00002  -0.00002   1.87702
   A62        2.78849   0.00000   0.00000   0.00000   0.00000   2.78849
   A63        3.03727   0.00000   0.00000  -0.00001  -0.00001   3.03726
   A64        3.13349   0.00000   0.00000   0.00010   0.00010   3.13360
    D1       -0.04354  -0.00000   0.00000  -0.00001  -0.00001  -0.04355
    D2        3.05703  -0.00000   0.00000  -0.00000  -0.00000   3.05702
    D3        3.12706  -0.00000   0.00000  -0.00001  -0.00001   3.12705
    D4       -0.05556  -0.00000   0.00000  -0.00001  -0.00001  -0.05556
    D5        0.04115  -0.00000   0.00000  -0.00000  -0.00000   0.04115
    D6       -3.00249   0.00000   0.00000   0.00001   0.00001  -3.00248
    D7       -3.12736   0.00000   0.00000   0.00000   0.00000  -3.12736
[...]
 0002946,-0.00005093,0.00021099,-0.00051251,-0.00878312,-0.00407527,0.0
 0257686,-0.00092908,0.00505267,0.00092106,-0.00116027,-0.00191661,-0.0
 0008686,0.52227042,0.00261187,-0.00161345,0.00022656,0.00056125,-0.000
 45808,0.00023504,0.00001471,-0.00006421,0.00005198,0.00033088,-0.00139
 791,0.00070007,-0.00466800,-0.00021711,-0.00107069,0.00360831,-0.02391
 580,-0.00058563,0.00079049,-0.00014922,-0.00029055,-0.00004162,0.00006
 217,0.00018829,-0.00001305,-0.00017842,-0.00008717,0.00018222,-0.00003
 560,0.00017966,-0.00044562,0.00053365,0.00011800,-0.00246554,0.0055122
 1,0.00117287,-0.00009068,0.00004154,0.00003471,-0.00007803,0.00004234,
 0.00000059,0.00000830,0.00004916,-0.00000179,-0.00006128,0.00000081,0.
 00000398,0.00001218,-0.00003455,0.00014759,-0.00005091,-0.00002576,-0.
 00002485,-0.00021782,0.00007691,0.00005651,0.00070124,-0.00065388,0.00
 005297,0.00001908,-0.00008277,-0.00010239,-0.00026124,-0.00027028,0.00
 012839,0.00003872,-0.00006206,-0.00001794,0.00008154,0.00005564,-0.000
 09346,-0.00344256,-0.00147554,0.00014860,0.00022330,-0.00140058,-0.000
 32672,-0.00144925,-0.00097027,0.00025320,0.10142011,0.55934361,-0.0006
 1037,0.00022815,0.00001709,0.00010615,-0.00022470,0.00009407,-0.000138
 84,-0.00001932,-0.00005792,0.00015632,-0.00007625,-0.00010286,-0.00031
 077,-0.00010154,0.00014781,-0.00037292,0.00058313,0.00269605,0.0002469
 2,-0.00016280,-0.00024400,0.00008709,0.00004217,-0.00011207,0.00003155
 ,0.00003994,-0.00000917,-0.00024047,-0.00002662,-0.00010368,0.00021946
 ,0.00073732,0.00025967,0.00498633,0.00232968,0.00125866,-0.00006281,0.
 00000491,0.00002476,0.00000615,0.00001454,0.00002861,0.00002133,-0.000
 03437,-0.00006225,-0.00001517,-0.00000623,0.00004309,-0.00004884,0.000
 02457,0.00005893,0.00005152,0.00002480,0.00003285,-0.00004634,0.000088
 55,0.00006182,0.00026975,-0.00020514,-0.00086229,0.00002005,0.00000021
 ,-0.00008858,-0.00000913,-0.00004257,-0.00006590,0.00001713,-0.0000312
 1,-0.00001694,-0.00009105,-0.00004678,0.00000617,0.00258919,0.00075705
 ,-0.00462268,0.00037473,-0.00195669,-0.00007253,0.00008023,0.00055819,
 -0.00014324,-0.21672542,-0.09278610,0.10358267,0.00103726,-0.00065908,
 0.00041901,0.00022694,0.00046332,-0.00011926,0.00041105,-0.00024497,0.
 00009263,-0.00060285,-0.00063699,0.00011965,-0.00107323,0.00111194,-0.
 00048070,-0.00046880,-0.00230746,0.00039622,0.00090944,-0.00051447,-0.
 00079409,-0.00000354,-0.00000918,0.00002824,-0.00002333,-0.00023361,-0
 .00001121,-0.00072222,-0.00020168,-0.00020781,0.00058171,0.00312508,0.
 00035817,0.00146803,0.00796219,-0.00039365,-0.00026201,-0.00005659,0.0
 0008299,0.00001932,0.00015698,0.00003065,-0.00009593,0.00008443,-0.000
 23121,-0.00001734,0.00007581,0.00001512,-0.00003461,-0.00007685,0.0000
 4537,0.00017001,0.00018842,0.00001030,-0.00017213,0.00042223,0.0001554
 6,0.00131585,-0.00197823,-0.00116935,-0.00003128,0.00014367,-0.0000159
 4,-0.00006486,-0.00006127,0.00000774,0.00003327,-0.00003194,-0.0000050
 5,0.00011101,-0.00031635,0.00075340,-0.00059785,0.00657890,0.00005422,
 0.00158921,-0.00780695,-0.00168533,0.00118837,0.00252061,0.00015388,-0
 .40641879,0.02827461,0.15685700,0.41011298,0.00044132,-0.00218156,0.00
 027549,-0.00074880,0.00062454,-0.00014368,0.00044457,-0.00013688,-0.00
 001127,-0.00036143,-0.00028956,0.00003487,-0.00036529,0.00036196,-0.00
 009585,-0.00021814,-0.00341714,0.00036988,-0.00009110,-0.00019597,0.00
 000250,0.00000940,-0.00002279,-0.00004681,0.00000650,0.00001573,0.0000
 3043,-0.00016150,-0.00001571,-0.00008121,0.00022033,0.00014386,-0.0000
 1576,0.00204489,-0.00771035,-0.00133550,-0.00003275,-0.00001440,0.0000
 0705,0.00003082,0.00002305,0.00000570,-0.00003270,0.00000494,-0.000043
 63,0.00002377,0.00002310,-0.00000111,-0.00000912,-0.00001720,-0.000049
 44,0.00004563,0.00004575,0.00001199,0.00002387,0.00004741,-0.00000096,
 -0.00091899,-0.00215791,-0.00155164,0.00000132,0.00011801,-0.00002427,
 -0.00001772,-0.00004853,0.00000192,-0.00003690,0.00003944,-0.00001987,
 -0.00005210,-0.00005526,0.00012133,0.00299815,0.00587310,-0.00140783,-
 0.00079918,-0.00006809,0.00017489,0.00334322,0.00209489,-0.00050963,0.
 07717661,-0.06541973,-0.02602942,-0.04221579,0.06872022,0.00065549,-0.
 00031560,0.00025669,-0.00044858,0.00039964,-0.00021739,0.00021119,0.00
 009280,-0.00000027,-0.00005442,0.00006458,-0.00004194,0.00014331,-0.00
 001415,0.00008064,0.00036532,0.00054886,0.00012408,-0.00038435,0.00016
 969,0.00033383,-0.00004750,-0.00002633,0.00005595,-0.00002363,-0.00000
 052,0.00003291,0.00027918,0.00004241,0.00009074,-0.00021284,-0.0010356
 1,-0.00023349,-0.00204499,-0.00342240,-0.00357916,0.00009239,0.0000043
 5,-0.00003223,0.00000503,-0.00002736,-0.00003075,-0.00001900,0.0000134
 9,0.00006739,0.00002442,0.00000433,-0.00003581,0.00003889,-0.00003225,
 -0.00008839,-0.00005519,-0.00003999,-0.00002861,0.00007570,-0.00012737
 ,-0.00007704,-0.00108465,-0.00152397,0.00050100,-0.00002361,-0.0000144
 3,0.00003292,0.00001452,0.00002323,0.00000517,-0.00003893,0.00005653,0
 .00000572,0.00006797,0.00006351,-0.00008250,0.00001583,-0.00236039,-0.
 00012876,-0.00065986,0.00286756,-0.00053772,0.00059734,-0.00046263,-0.
 00022404,0.15218894,-0.00627569,-0.06839265,-0.15701261,0.01427334,0.0
 7558341,-0.00086890,-0.00013768,-0.00016800,0.00007737,0.00005283,-0.0
 0008449,-0.00001448,-0.00001981,0.00002598,-0.00008569,0.00022973,-0.0
 0015790,0.00084790,0.00000966,0.00014056,-0.00010124,0.00430517,0.0004
 3539,-0.00004275,0.00000121,-0.00001357,-0.00000233,-0.00001555,-0.000
 00885,-0.00001083,-0.00002944,0.00001916,-0.00004433,-0.00000922,-0.00
 001902,0.00010453,0.00011900,-0.00001998,-0.00140553,0.00098428,0.0003
 8189,-0.00000306,-0.00000924,0.00000525,0.00001144,0.00000919,-0.00000
 134,-0.00001361,0.00000922,-0.00001110,0.00000899,0.00001462,-0.000004
 24,0.00000634,-0.00001572,-0.00001755,0.00001329,0.00001998,-0.0000057
 7,0.00002031,0.00001798,-0.00000454,-0.00001954,-0.00014161,0.00013769
 ,-0.00000380,0.00007505,0.00001825,0.00004704,0.00005358,-0.00003011,0
 .00000073,-0.00000421,0.00001015,-0.00000597,-0.00002843,0.00005833,0.
 00182620,-0.00490739,-0.00119127,-0.00023014,-0.00012590,-0.00000655,-
 0.00057010,-0.00036392,0.00024236,-0.09670984,-0.12546267,0.05255602,-
 0.00846779,-0.04079062,0.00732594,0.10562366,0.00062596,0.00016734,0.0
 0006012,-0.00013326,0.00012209,0.00000029,0.00009892,-0.00001908,-0.00
 000536,0.00004966,-0.00014430,0.00010250,-0.00046426,-0.00013534,-0.00
 021203,0.00066886,-0.00172463,-0.00008550,0.00003115,-0.00007345,-0.00
 003658,-0.00001475,-0.00001479,0.00000843,-0.00000267,-0.00001236,0.00
 000518,-0.00008619,-0.00001068,-0.00002112,0.00011017,0.00022603,0.000
 01017,0.00160699,0.00047293,-0.00035162,-0.00001608,-0.00001117,-0.000
 00147,0.00000979,0.00001485,0.00000257,-0.00002109,0.00001034,-0.00001
 547,0.00000560,0.00000941,-0.00000401,0.00000370,-0.00000733,-0.000014
 28,0.00001942,0.00002102,-0.00000137,-0.00000685,0.00002998,0.00000117
 ,-0.00006598,-0.00026574,0.00004746,0.00003318,-0.00005089,0.00000045,
 -0.00002695,-0.00002890,0.00002317,0.00000097,0.00000843,-0.00000253,-
 0.00001286,-0.00002575,0.00006321,-0.00182258,0.00061081,0.00094338,0.
 00004234,-0.00042182,-0.00006711,0.00015562,0.00020449,-0.00005291,-0.
 17309876,-0.46726194,0.11637743,0.00614946,0.00361847,-0.00300166,0.16
 615220,0.46469387,0.00005071,-0.00019807,-0.00006432,0.00012884,-0.000
 16104,0.00005303,-0.00008012,0.00000321,0.00001443,0.00012459,-0.00008
 861,0.00000751,-0.00030451,-0.00023403,0.00007912,0.00018255,-0.001907
 63,0.00064829,0.00004536,0.00001680,0.00001256,-0.00002104,-0.00000614
 ,0.00003916,-0.00001164,-0.00003861,-0.00000935,0.00005068,0.00000490,
 0.00004024,-0.00007668,-0.00003766,-0.00004400,0.00031326,-0.00022483,
 -0.00028834,-0.00000286,-0.00000283,0.00000318,-0.00000978,0.00000349,
 -0.00000313,-0.00000345,0.00001768,0.00001302,-0.00000601,0.00000120,-
 0.00000633,0.00002058,-0.00000389,0.00001426,-0.00001235,-0.00000255,-
 0.00001049,-0.00001620,-0.00000449,-0.00000562,0.00029887,0.00012527,0
 .00003299,0.00000860,0.00000842,0.00005979,-0.00001720,-0.00002435,0.0
 0001462,0.00000852,-0.00001135,0.00001059,0.00001109,0.00000827,0.0000
 1392,-0.00139274,0.00235554,-0.00064918,0.00007291,-0.00001347,-0.0000
 0741,0.00026244,0.00013489,0.00022363,0.05745718,0.09806404,-0.0334186
 7,0.00254899,0.01599685,-0.00337726,-0.05962691,-0.11378541,0.03661353
 ,0.00017706,0.00026014,-0.00003761,0.00018278,-0.00004992,-0.00003104,
 0.00008097,-0.00014533,0.00003162,0.00003427,-0.00003476,0.00001409,-0
 .00000330,0.00004149,-0.00000395,-0.00008042,-0.00011592,-0.00000128,0
 .00036196,-0.00029627,-0.00076692,0.00013054,0.00017597,-0.00036535,0.
 00005933,-0.00010632,0.00003360,0.00082207,-0.00096310,-0.00078741,0.0
 0012059,-0.00271523,-0.00220873,-0.00003884,-0.00007517,-0.00071551,0.
 00022794,0.00022707,0.00006306,0.00001204,-0.00001152,-0.00000471,-0.0
 0002782,-0.00000688,0.00003541,0.00003432,-0.00003148,0.00003199,-0.00
 000530,0.00000236,-0.00009314,-0.00002378,-0.00008678,0.00011183,-0.00
 011096,0.00020886,0.00001285,-0.00002600,0.00007636,0.00001784,0.00000
 649,-0.00000058,0.00000193,-0.00000433,-0.00000634,-0.00000295,-0.0000
 1408,-0.00004348,-0.00001286,-0.09703851,0.08667206,0.06349739,-0.0000
 0625,0.00018178,0.00000599,0.00014810,0.00039454,0.00075685,0.00010069
 ,-0.00019712,0.00024738,0.00010118,-0.00009095,-0.00008772,-0.00015649
 ,-0.00001217,0.00010503,0.00000314,-0.00001091,0.00001281,0.09915301,-
 0.00000777,-0.00005499,0.00000856,0.00006714,0.00008783,0.00007548,-0.
 00003404,-0.00009638,-0.00000171,-0.00001093,0.00003698,-0.00001135,-0
 .00001520,-0.00001464,-0.00000399,0.00005890,0.00004999,0.00000611,0.0
 0010969,0.00005914,0.00158766,0.00015015,0.00053663,0.00045696,-0.0003
 2271,0.00009289,-0.00019234,-0.00006241,0.00071822,0.00033546,-0.00561
 585,0.00843090,0.00676940,0.00021193,0.00012241,-0.00010421,-0.0001518
 5,0.00006379,-0.00032661,-0.00000522,-0.00000823,-0.00002355,-0.000006
 54,-0.00001490,0.00001888,0.00000633,-0.00001168,0.00017703,-0.0000766
 8,0.00006866,-0.00000319,0.00010392,-0.00045035,0.00001243,0.00005505,
 0.00062884,0.00032055,0.00001175,0.00000540,0.00000299,-0.00000085,0.0
 0000571,-0.00000083,-0.00000684,-0.00000049,-0.00000066,-0.00005427,0.
 00006298,0.00003741,0.08754001,-0.19943638,-0.10936534,-0.00000593,-0.
 00003711,0.00000457,-0.00014483,0.00008786,0.00014086,-0.00002637,-0.0
 0004982,0.00004112,0.00005165,0.00003404,-0.00001074,-0.00007694,-0.00
 002313,0.00001582,-0.00000876,-0.00000897,0.00000240,-0.09327114,0.207
 98474,0.00009618,0.00010614,0.00003684,-0.00084377,-0.00011457,-0.0000
 0262,0.00016100,0.00009535,0.00008627,0.00004302,-0.00003222,0.0000337
 4,0.00006701,-0.00000778,-0.00000584,0.00001106,0.00006428,0.00000098,
 -0.00221032,0.00295759,-0.00501081,0.00072550,-0.00122661,-0.00089072,
 0.00038080,0.00006901,0.00009945,0.00125698,-0.00140107,0.00103203,0.0
 1683842,-0.02444660,-0.02369312,-0.00015342,0.00035023,0.00045078,-0.0
 0055280,0.00050859,-0.00017929,-0.00004792,0.00005623,0.00008556,-0.00
 004712,0.00003363,0.00001271,-0.00011764,0.00012218,-0.00044246,-0.000
 13389,0.00003606,-0.00028221,-0.00029751,0.00004710,-0.00006039,-0.000
 14200,0.00000519,0.00008954,0.00000006,-0.00008992,-0.00003051,-0.0000
 0473,-0.00000391,-0.00000252,0.00002043,0.00000285,-0.00000456,-0.0000
 0721,-0.00003696,-0.00005616,0.05820984,-0.10114214,-0.12099169,0.0000
 1870,-0.00008964,-0.00001126,0.00012326,-0.00079934,-0.00074422,0.0000
 7534,0.00027383,-0.00014953,-0.00009098,0.00003784,0.00004429,0.000151
 06,0.00002162,-0.00005753,0.00000277,0.00000868,-0.00000039,-0.0673595
 0,0.11355828,0.14153850,0.00041340,0.00030419,0.00013468,-0.00017190,-
 0.00033127,0.00031673,-0.00014854,0.00006458,0.00024245,0.00016422,0.0
 0008995,0.00011437,0.00006114,-0.00015647,-0.00002260,-0.00017500,0.00
 000767,-0.00010809,-0.00001154,0.00075023,0.00044300,-0.00010866,-0.00
 006978,-0.00019354,-0.00004669,0.00007516,0.00024170,0.00155391,-0.000
 24907,-0.00043499,0.00142462,0.00073511,-0.00119377,0.00029072,0.00024
 683,0.00021963,0.00008545,-0.00011074,0.00012928,0.00003346,-0.0000237
 4,-0.00007089,0.00004438,-0.00000646,-0.00009964,0.00000881,-0.0000210
 6,-0.00001489,0.00005856,-0.00001007,-0.00003377,0.00034074,0.00010921
 ,0.00024576,-0.00016972,-0.00018944,0.00008752,-0.00003577,0.00000465,
 0.00000460,0.00000347,-0.00000741,0.00000252,0.00002105,-0.00000808,-0
 .00002882,0.00000508,-0.00008525,-0.00009748,-0.29873615,0.01927334,-0
 .06829171,-0.00000073,0.00004179,-0.00001305,-0.00039019,-0.00035346,-
 0.00025346,-0.00007389,0.00000924,-0.00005109,0.00003146,-0.00003230,0
 .00003080,-0.00004767,0.00001640,-0.00003147,-0.00000234,0.00000402,-0
 .00001229,-0.01095831,-0.00081376,-0.00340199,0.31879299,0.00019175,0.
 00023438,-0.00004591,0.00010684,0.00002305,-0.00003479,-0.00008593,0.0
 0007640,-0.00018984,0.00018066,0.00001990,0.00001267,-0.00002009,-0.00
 006151,0.00006121,-0.00033154,-0.00011844,-0.00001456,-0.00045258,0.00
 028173,-0.00037768,0.00001585,-0.00013745,0.00005613,0.00065662,0.0005
 3389,0.00011097,-0.00075530,0.00027745,0.00158724,0.00961122,-0.002721
 09,0.00269407,-0.00033870,0.00002216,-0.00046065,-0.00034197,0.0002394
 6,-0.00012909,-0.00005192,-0.00000677,0.00024899,0.00001086,-0.0000329
 1,-0.00012561,-0.00001395,0.00001366,0.00001088,-0.00000013,0.00002025
 ,0.00001844,0.00051942,0.00017052,0.00013347,-0.00025860,-0.00011277,0
 .00025200,-0.00001287,0.00000131,0.00004095,0.00000150,-0.00001126,0.0
 0000363,0.00000903,-0.00000320,0.00000051,-0.00002324,-0.00009224,-0.0
 0004737,0.01651135,-0.04900046,0.00519711,-0.00001671,0.00015429,0.000
 03682,0.00066005,0.00025829,0.00042623,0.00011207,-0.00001961,0.000051
 49,0.00007197,-0.00004347,-0.00010448,-0.00007523,-0.00003678,0.000121
 71,-0.00000564,-0.00001760,0.00001043,0.02212574,-0.00096670,0.0071001
 8,-0.02175099,0.04801447,0.00010331,0.00029112,-0.00018780,0.00018021,
 -0.00025501,-0.00054237,0.00038950,-0.00020295,-0.00001634,0.00000363,
 -0.00016091,0.00002127,-0.00001270,0.00009913,-0.00004492,0.00005344,-
 0.00013219,0.00005441,-0.00133137,0.00020391,0.00127604,-0.00018525,0.
 00032657,0.00017154,-0.00202608,0.00019987,-0.00057724,0.00282895,-0.0
 0002413,-0.00570945,-0.03627910,0.00598490,-0.01333501,0.00032323,0.00
 021564,0.00004130,-0.00004630,0.00027475,0.00010794,0.00015308,0.00007
 717,-0.00063207,0.00000363,0.00001587,-0.00009675,0.00004782,-0.000017
 15,0.00005836,0.00008099,-0.00002596,-0.00002299,-0.00001341,-0.000218
 31,-0.00004346,0.00016409,-0.00024367,-0.00018731,-0.00008936,0.000026
 43,-0.00000925,0.00001194,-0.00000113,0.00000558,-0.00000170,0.0000010
 4,0.00001135,-0.00001487,-0.00000513,0.00001645,-0.05997150,0.00456114
 ,-0.06439772,0.00002643,0.00019449,-0.00003199,-0.00051534,-0.00052706
 ,-0.00020439,0.00001931,0.00002234,0.00000775,0.00002112,-0.00013451,-
 0.00000722,-0.00005718,0.00004282,0.00001026,0.00001469,0.00000679,-0.
 00000306,0.01628259,-0.00005816,0.00530337,0.07493893,-0.00926828,0.07
 714382,-0.00000492,-0.00010771,0.00004056,-0.00014739,0.00016544,-0.00
 016911,-0.00002243,-0.00033922,0.00004668,-0.00001909,0.00002393,-0.00
 003238,0.00001956,0.00001388,-0.00002210,0.00018097,0.00010707,-0.0000
 4811,0.00009655,-0.00105114,-0.00031019,0.00009501,0.00017409,0.000003
 89,-0.00003569,-0.00001935,-0.00021559,0.00276018,0.00264681,-0.000554
 94,0.00168511,0.00214937,0.00192079,-0.00007878,-0.00034838,0.00006263
 ,-0.00010729,-0.00010957,0.00003013,-0.00001294,-0.00002944,0.00001421
 ,-0.00010853,-0.00003177,-0.00002595,0.00001238,0.00002453,0.00005041,
 -0.00008300,0.00007640,-0.00006706,0.00040659,-0.00083584,0.00073598,-
 0.00028141,0.00047737,0.00061957,0.00004907,0.00000724,-0.00004469,0.0
 0000520,0.00001193,0.00000254,-0.00001422,-0.00000839,0.00000461,-0.00
 005334,0.00009329,0.00008107,-0.10690310,-0.10221235,0.01895038,0.0000
 2287,-0.00004447,-0.00001938,0.00008978,0.00061158,-0.00006135,-0.0000
 4414,0.00001112,0.00002839,-0.00007352,-0.00000728,0.00005211,0.000086
 28,0.00003749,-0.00006485,0.00001132,0.00001517,-0.00000418,0.00673791
 ,0.01235240,-0.00277063,-0.01225636,-0.02624955,0.00489726,0.10798738,
 0.00006693,-0.00017530,-0.00002926,0.00004697,0.00000444,0.00001104,-0
 .00000682,-0.00018787,0.00005401,-0.00008705,-0.00002432,-0.00003104,-
 0.00002448,0.00006598,-0.00002497,0.00003360,0.00003376,0.00003505,0.0
 0152100,0.00259395,-0.00185381,0.00016843,0.00014160,-0.00025026,0.000
 25986,0.00030654,-0.00007187,-0.00129852,0.00058832,-0.00090824,-0.002
 87557,-0.00822259,0.01098702,-0.00036897,-0.00087575,0.00006604,-0.000
 00746,-0.00016683,-0.00009850,0.00001122,0.00003136,0.00014063,0.00008
 792,0.00002054,-0.00024939,-0.00000362,-0.00001194,0.00008560,-0.00003
 170,0.00002725,-0.00007650,0.00125053,-0.00017368,0.00071486,-0.000876
 99,0.00068100,0.00145176,0.00009731,0.00001257,-0.00006745,0.00000364,
 0.00000659,-0.00000231,-0.00001059,-0.00000676,0.00000632,-0.00001078,
 0.00003236,0.00005054,-0.10131371,-0.23279548,0.03324697,0.00002013,-0
 .00002338,0.00000651,0.00056941,0.00154856,0.00010962,-0.00010395,0.00
 011231,-0.00008096,-0.00017210,-0.00002145,0.00005433,0.00024594,0.000
 05650,-0.00008151,0.00002208,0.00002471,-0.00000843,-0.01209499,-0.017
 90326,0.00393590,0.00248699,0.00304105,-0.00126942,0.11239535,0.251259
 20,-0.00006305,0.00024323,-0.00006827,-0.00004466,-0.00063233,-0.00003
 651,0.00004261,0.00010154,0.00001259,0.00008393,0.00001423,0.00003385,
 0.00007167,-0.00007599,-0.00000055,-0.00003002,-0.00009438,0.00001233,
 -0.00060402,0.00605923,0.00235329,-0.00032837,-0.00029714,0.00047293,-
 0.00019338,-0.00035365,0.00023223,0.00459215,0.00091840,0.00137676,0.0
 1550286,0.03314588,-0.02268849,0.00061335,0.00114955,0.00064797,-0.000
 39961,-0.00016008,-0.00011471,-0.00003538,-0.00013663,-0.00007969,-0.0
 0003374,-0.00012162,0.00019084,-0.00006556,-0.00006388,-0.00007600,0.0
 0003819,-0.00004981,0.00016104,-0.00113593,-0.00116245,0.00045739,-0.0
 0033187,-0.00192762,0.00041260,-0.00012376,-0.00008688,0.00002537,0.00
 000374,-0.00000967,0.00000725,0.00000868,-0.00000279,0.00000091,0.0000
 1749,-0.00002437,-0.00000539,0.01799016,0.03183222,-0.05455591,-0.0000
 1564,0.00000641,-0.00002186,-0.00087329,-0.00172762,-0.00124912,0.0000
 6308,0.00016343,-0.00016199,0.00006308,-0.00000339,0.00002611,-0.00009
 674,-0.00000282,-0.00001516,-0.00000324,-0.00000259,-0.00000631,-0.008
 78358,-0.01346926,0.00380176,-0.00279843,-0.00737686,0.00181989,-0.023
 13070,-0.04585227,0.06703484\\-0.00000145,-0.00000246,-0.00000036,0.,-
 0.00000022,-0.00000186,-0.00000006,-0.00000071,0.00000013,-0.00000111,
 -0.00000069,-0.00000065,-0.00000022,0.00000048,-0.00000190,-0.00000249
 ,-0.00000119,0.00000059,-0.00000031,0.00000133,0.00000104,-0.00000040,
 0.00000234,0.00000174,-0.00000015,0.00000038,-0.00000009,0.00000025,-0
 .00000002,-0.00000083,0.00000177,0.00000022,0.00000049,0.00000279,0.00
 000069,-0.00000101,0.00000035,0.00000050,0.00000070,0.00000024,0.00000
 078,0.00000078,-0.00000042,0.00000022,0.00000106,-0.00000106,0.0000003
 7,0.00000006,-0.00000040,-0.00000047,-0.00000041,0.00000004,0.00000064
 ,0.00000094,-0.00000105,-0.00000013,0.00000041,-0.00000163,0.00000327,
 -0.00000078,0.00000056,-0.00000068,-0.00000111,-0.00000023,-0.00000101
 ,-0.00000106,-0.00000060,0.00000002,-0.00000062,-0.00000018,0.00000057
 ,0.00000080,0.00000305,-0.00000072,-0.00000094,-0.00000217,-0.00000440
 ,0.00000206,0.00000027,0.00000013,0.00000041,0.00000730,0.00000189,-0.
 00000200,-0.00000925,-0.00000142,0.00000253,0.00000371,-0.00000091,-0.
 00000203,0.00000048,0.00000094,0.00000113,0.00000190,0.,0.00000055,0.0
 0000048,0.00000026,0.00000025\\\@


 In the race for quality, there is no finish line.
                               -- David T. Kearns
 Job cpu time:       0 days 18 hours 31 minutes 42.4 seconds.
 Elapsed time:       0 days  0 hours 39 minutes 45.4 seconds.
 File lengths (MBytes):  RWF=    908 Int=      0 D2E=      0 Chk=     24 Scr=      8
 Normal termination of Gaussian 16 at Sun Nov 14 14:09:03 2021.
