 Entering Gaussian System, Link 0=g16
 Input=NicPyrNa2h2wB97XDaVDZ180K.gjf
 Output=NicPyrNa2h2wB97XDaVDZ180K.log
 Initial command:
 /sw/contrib/gaussian/g16/A03/g16/l1.exe "/gscratch/scrubbed/gds001/Gau-26876.inp" -scrdir="/gscratch/scrubbed/gds001/"
 Entering Link 1 = /sw/contrib/gaussian/g16/A03/g16/l1.exe PID=     26877.
  
 Copyright (c) 1988,1990,1992,1993,1995,1998,2003,2009,2016,
            Gaussian, Inc.  All Rights Reserved.
  
 This is part of the Gaussian(R) 16 program.  It is based on
 the Gaussian(R) 09 system (copyright 2009, Gaussian, Inc.),
 the Gaussian(R) 03 system (copyright 2003, Gaussian, Inc.),
 the Gaussian(R) 98 system (copyright 1998, Gaussian, Inc.),
 the Gaussian(R) 94 system (copyright 1995, Gaussian, Inc.),
 the Gaussian 92(TM) system (copyright 1992, Gaussian, Inc.),
 the Gaussian 90(TM) system (copyright 1990, Gaussian, Inc.),
 the Gaussian 88(TM) system (copyright 1988, Gaussian, Inc.),
 the Gaussian 86(TM) system (copyright 1986, Carnegie Mellon
 University), and the Gaussian 82(TM) system (copyright 1983,
 Carnegie Mellon University). Gaussian is a federally registered
 trademark of Gaussian, Inc.
  
 This software contains proprietary and confidential information,
 including trade secrets, belonging to Gaussian, Inc.
  
 This software is provided under written license and may be
 used, copied, transmitted, or stored only in accord with that
 written license.
  
 The following legend is applicable only to US Government
 contracts under FAR:
  
                    RESTRICTED RIGHTS LEGEND
  
 Use, reproduction and disclosure by the US Government is
 subject to restrictions as set forth in subparagraphs (a)
 and (c) of the Commercial Computer Software - Restricted
 Rights clause in FAR 52.227-19.
  
 Gaussian, Inc.
 340 Quinnipiac St., Bldg. 40, Wallingford CT 06492
  
  
 ---------------------------------------------------------------
 Warning -- This program may not be used in any manner that
 competes with the business of Gaussian, Inc. or will provide
 assistance to any competitor of Gaussian, Inc.  The licensee
 of this program is prohibited from giving any competitor of
 Gaussian, Inc. access to this program.  By using this program,
 the user acknowledges that Gaussian, Inc. is engaged in the
 business of creating and licensing software in the field of
 computational chemistry and represents and warrants to the
 licensee that it is not a competitor of Gaussian, Inc. and that
 it will not use this program in any manner prohibited above.
 ---------------------------------------------------------------
  

 Cite this work as:
 Gaussian 16, Revision A.03,
 M. J. Frisch, G. W. Trucks, H. B. Schlegel, G. E. Scuseria, 
 M. A. Robb, J. R. Cheeseman, G. Scalmani, V. Barone, 
 G. A. Petersson, H. Nakatsuji, X. Li, M. Caricato, A. V. Marenich, 
 J. Bloino, B. G. Janesko, R. Gomperts, B. Mennucci, H. P. Hratchian, 
 J. V. Ortiz, A. F. Izmaylov, J. L. Sonnenberg, D. Williams-Young, 
 F. Ding, F. Lipparini, F. Egidi, J. Goings, B. Peng, A. Petrone, 
 T. Henderson, D. Ranasinghe, V. G. Zakrzewski, J. Gao, N. Rega, 
 G. Zheng, W. Liang, M. Hada, M. Ehara, K. Toyota, R. Fukuda, 
 J. Hasegawa, M. Ishida, T. Nakajima, Y. Honda, O. Kitao, H. Nakai, 
 T. Vreven, K. Throssell, J. A. Montgomery, Jr., J. E. Peralta, 
 F. Ogliaro, M. J. Bearpark, J. J. Heyd, E. N. Brothers, K. N. Kudin, 
 V. N. Staroverov, T. A. Keith, R. Kobayashi, J. Normand, 
 K. Raghavachari, A. P. Rendell, J. C. Burant, S. S. Iyengar, 
 J. Tomasi, M. Cossi, J. M. Millam, M. Klene, C. Adamo, R. Cammi, 
 J. W. Ochterski, R. L. Martin, K. Morokuma, O. Farkas, 
 J. B. Foresman, and D. J. Fox, Gaussian, Inc., Wallingford CT, 2016.
 
 ******************************************
 Gaussian 16:  ES64L-G16RevA.03 25-Dec-2016
                14-Nov-2021 
 ******************************************
 %nprocshared=28
 Will use up to   28 processors via shared memory.
 %mem=41GB
 ---------------------------------------------
 # wB97XD/aug-cc-pVDZ opt freq temperature=180
 ---------------------------------------------
 1/18=20,19=15,26=3,38=1,112=180000/1,3;
 2/9=110,12=2,17=6,18=5,40=1/2;
 3/5=16,7=10,11=2,25=1,30=1,71=1,74=-58/1,2,3;
 4//1;
 5/5=2,38=5/2;
 6/7=2,8=2,9=2,10=2,28=1/1;
 7//1,2,3,16;
 1/18=20,19=15,26=3/3(2);
 2/9=110/2;
 99//99;
 2/9=110/2;
 3/5=16,7=10,11=2,25=1,30=1,71=1,74=-58/1,2,3;
 4/5=5,16=3,69=1/1;
 5/5=2,38=5/2;
 7//1,2,3,16;
 1/18=20,19=15,26=3/3(-5);
 2/9=110/2;
 6/7=2,8=2,9=2,10=2,19=2,28=1/1;
 99/9=1/99;
 --------
 Nicotine
 --------
 Symbolic Z-matrix:
 Charge =  1 Multiplicity = 1
 C                     1.1729    0.12148  -0.65853 
 C                     0.52223  -1.03978  -0.24319 
 C                     1.30718  -2.07173   0.27113 
 C                     2.685    -1.89432   0.35356 
 C                     3.22661  -0.67471  -0.04773 
 N                     2.48472   0.32228  -0.54204 
 C                    -0.97973  -1.124    -0.30443 
 C                    -1.65672  -0.782    -1.6519 
 C                    -2.82444   0.17185  -1.31461 
 C                    -3.00773   0.03111   0.19131 
 N                    -1.61066  -0.15754   0.68152 
 O                    -0.62509   2.39881   0.63227 
 H                    -3.5781   -0.86626   0.46297 
 H                    -3.74334  -0.07538  -1.85365 
 H                    -2.55869   1.20721  -1.55791 
 H                    -0.94836  -0.31985  -2.34534 
 H                    -2.00909  -1.70616  -2.12082 
 H                    -3.44776   0.9029    0.68522 
 H                    -1.30154  -2.1173    0.03403 
 H                     0.60698   0.94935  -1.09035 
 H                     4.29752  -0.48733   0.03372 
 H                     3.33178  -2.6802    0.73874 
 H                     0.85061  -3.00542   0.60312 
 C                    -1.49681  -0.5748    2.09547 
 H                    -1.14194   0.77829   0.60499 
 H                    -1.0152    3.11752   1.13481 
 H                     0.28453   2.69513   0.39564 
 O                     1.90318   3.02748  -0.0564 
 H                     2.44784   2.26522  -0.32648 
 H                     2.29564   3.81493  -0.43894 
 H                    -1.95961   0.18845   2.72784 
 H                    -0.4375   -0.66946   2.35176 
 H                    -2.00786  -1.53383   2.23078 
 
 Add virtual bond connecting atoms H25        and O12        Dist= 3.21D+00.
 Add virtual bond connecting atoms O28        and H27        Dist= 3.24D+00.

 GradGradGradGradGradGradGradGradGradGradGradGradGradGradGradGradGradGrad
 Berny optimization.
 Initialization pass.
                           ----------------------------
                           !    Initial Parameters    !
                           ! (Angstroms and Degrees)  !
 --------------------------                            --------------------------
 ! Name  Definition              Value          Derivative Info.                !
 --------------------------------------------------------------------------------
 ! R1    R(1,2)                  1.3944         estimate D2E/DX2                !
 ! R2    R(1,6)                  1.3322         estimate D2E/DX2                !
 ! R3    R(1,20)                 1.0918         estimate D2E/DX2                !
 ! R4    R(2,3)                  1.3948         estimate D2E/DX2                !
 ! R5    R(2,7)                  1.5056         estimate D2E/DX2                !
 ! R6    R(3,4)                  1.3916         estimate D2E/DX2                !
 ! R7    R(3,23)                 1.0911         estimate D2E/DX2                !
 ! R8    R(4,5)                  1.3935         estimate D2E/DX2                !
 ! R9    R(4,22)                 1.0883         estimate D2E/DX2                !
 ! R10   R(5,6)                  1.3374         estimate D2E/DX2                !
 ! R11   R(5,21)                 1.0902         estimate D2E/DX2                !
 ! R12   R(7,8)                  1.5463         estimate D2E/DX2                !
 ! R13   R(7,11)                 1.518          estimate D2E/DX2                !
 ! R14   R(7,19)                 1.0976         estimate D2E/DX2                !
 ! R15   R(8,9)                  1.545          estimate D2E/DX2                !
 ! R16   R(8,16)                 1.0937         estimate D2E/DX2                !
 ! R17   R(8,17)                 1.0946         estimate D2E/DX2                !
 ! R18   R(9,10)                 1.5236         estimate D2E/DX2                !
 ! R19   R(9,14)                 1.0936         estimate D2E/DX2                !
 ! R20   R(9,15)                 1.0963         estimate D2E/DX2                !
 ! R21   R(10,11)                1.4925         estimate D2E/DX2                !
 ! R22   R(10,13)                1.0975         estimate D2E/DX2                !
 ! R23   R(10,18)                1.0943         estimate D2E/DX2                !
 ! R24   R(11,24)                1.4786         estimate D2E/DX2                !
 ! R25   R(11,25)                1.0494         estimate D2E/DX2                !
 ! R26   R(12,25)                1.7012         estimate D2E/DX2                !
 ! R27   R(12,26)                0.9598         estimate D2E/DX2                !
 ! R28   R(12,27)                0.9855         estimate D2E/DX2                !
 ! R29   R(24,31)                1.0939         estimate D2E/DX2                !
 ! R30   R(24,32)                1.094          estimate D2E/DX2                !
 ! R31   R(24,33)                1.0951         estimate D2E/DX2                !
 ! R32   R(27,28)                1.7131         estimate D2E/DX2                !
 ! R33   R(28,29)                0.975          estimate D2E/DX2                !
 ! R34   R(28,30)                0.9594         estimate D2E/DX2                !
 ! A1    A(2,1,6)              123.9846         estimate D2E/DX2                !
 ! A2    A(2,1,20)             120.4902         estimate D2E/DX2                !
 ! A3    A(6,1,20)             115.5111         estimate D2E/DX2                !
 ! A4    A(1,2,3)              117.6039         estimate D2E/DX2                !
 ! A5    A(1,2,7)              119.9984         estimate D2E/DX2                !
 ! A6    A(3,2,7)              122.3454         estimate D2E/DX2                !
 ! A7    A(2,3,4)              118.9921         estimate D2E/DX2                !
 ! A8    A(2,3,23)             120.6521         estimate D2E/DX2                !
 ! A9    A(4,3,23)             120.3558         estimate D2E/DX2                !
 ! A10   A(3,4,5)              118.6416         estimate D2E/DX2                !
 ! A11   A(3,4,22)             121.1531         estimate D2E/DX2                !
 ! A12   A(5,4,22)             120.1966         estimate D2E/DX2                !
 ! A13   A(4,5,6)              122.9062         estimate D2E/DX2                !
 ! A14   A(4,5,21)             120.7102         estimate D2E/DX2                !
 ! A15   A(6,5,21)             116.3832         estimate D2E/DX2                !
 ! A16   A(1,6,5)              117.7867         estimate D2E/DX2                !
 ! A17   A(2,7,8)              117.3774         estimate D2E/DX2                !
 ! A18   A(2,7,11)             110.6472         estimate D2E/DX2                !
 ! A19   A(2,7,19)             109.3028         estimate D2E/DX2                !
 ! A20   A(8,7,11)             104.0767         estimate D2E/DX2                !
 ! A21   A(8,7,19)             109.9076         estimate D2E/DX2                !
 ! A22   A(11,7,19)            104.7159         estimate D2E/DX2                !
 ! A23   A(7,8,9)              106.0937         estimate D2E/DX2                !
 ! A24   A(7,8,16)             111.2478         estimate D2E/DX2                !
 ! A25   A(7,8,17)             109.1187         estimate D2E/DX2                !
 ! A26   A(9,8,16)             111.5327         estimate D2E/DX2                !
 ! A27   A(9,8,17)             111.8057         estimate D2E/DX2                !
 ! A28   A(16,8,17)            107.076          estimate D2E/DX2                !
 ! A29   A(8,9,10)             104.458          estimate D2E/DX2                !
 ! A30   A(8,9,14)             112.8216         estimate D2E/DX2                !
 ! A31   A(8,9,15)             110.5736         estimate D2E/DX2                !
 ! A32   A(10,9,14)            111.4208         estimate D2E/DX2                !
 ! A33   A(10,9,15)            109.6197         estimate D2E/DX2                !
 ! A34   A(14,9,15)            107.9261         estimate D2E/DX2                !
 ! A35   A(9,10,11)            102.9269         estimate D2E/DX2                !
 ! A36   A(9,10,13)            112.5031         estimate D2E/DX2                !
 ! A37   A(9,10,18)            114.8906         estimate D2E/DX2                !
 ! A38   A(11,10,13)           107.5674         estimate D2E/DX2                !
 ! A39   A(11,10,18)           109.1977         estimate D2E/DX2                !
 ! A40   A(13,10,18)           109.311          estimate D2E/DX2                !
 ! A41   A(7,11,10)            104.8443         estimate D2E/DX2                !
 ! A42   A(7,11,24)            114.1697         estimate D2E/DX2                !
 ! A43   A(7,11,25)            109.5572         estimate D2E/DX2                !
 ! A44   A(10,11,24)           114.9492         estimate D2E/DX2                !
 ! A45   A(10,11,25)           106.344          estimate D2E/DX2                !
 ! A46   A(24,11,25)           106.6779         estimate D2E/DX2                !
 ! A47   A(25,12,26)           126.741          estimate D2E/DX2                !
 ! A48   A(25,12,27)           124.2638         estimate D2E/DX2                !
 ! A49   A(26,12,27)           106.005          estimate D2E/DX2                !
 ! A50   A(11,24,31)           108.8645         estimate D2E/DX2                !
 ! A51   A(11,24,32)           108.8445         estimate D2E/DX2                !
 ! A52   A(11,24,33)           109.2297         estimate D2E/DX2                !
 ! A53   A(31,24,32)           109.5487         estimate D2E/DX2                !
 ! A54   A(31,24,33)           110.0095         estimate D2E/DX2                !
 ! A55   A(32,24,33)           110.314          estimate D2E/DX2                !
 ! A56   A(27,28,29)           116.6948         estimate D2E/DX2                !
 ! A57   A(27,28,30)           130.614          estimate D2E/DX2                !
 ! A58   A(29,28,30)           107.6201         estimate D2E/DX2                !
 ! A59   L(11,25,12,1,-1)      190.2578         estimate D2E/DX2                !
 ! A60   L(12,27,28,1,-1)      173.658          estimate D2E/DX2                !
 ! A61   L(11,25,12,1,-2)      180.3854         estimate D2E/DX2                !
 ! A62   L(12,27,28,1,-2)      180.7814         estimate D2E/DX2                !
 ! D1    D(6,1,2,3)             -2.8843         estimate D2E/DX2                !
 ! D2    D(6,1,2,7)            174.5466         estimate D2E/DX2                !
 ! D3    D(20,1,2,3)           178.5453         estimate D2E/DX2                !
 ! D4    D(20,1,2,7)            -4.0239         estimate D2E/DX2                !
 ! D5    D(2,1,6,5)              2.9111         estimate D2E/DX2                !
 ! D6    D(20,1,6,5)          -178.4539         estimate D2E/DX2                !
 ! D7    D(1,2,3,4)              0.4183         estimate D2E/DX2                !
 ! D8    D(1,2,3,23)          -179.4924         estimate D2E/DX2                !
 ! D9    D(7,2,3,4)           -176.9481         estimate D2E/DX2                !
 ! D10   D(7,2,3,23)             3.1412         estimate D2E/DX2                !
 ! D11   D(1,2,7,8)             52.3868         estimate D2E/DX2                !
 ! D12   D(1,2,7,11)           -66.8115         estimate D2E/DX2                !
 ! D13   D(1,2,7,19)           178.3785         estimate D2E/DX2                !
 ! D14   D(3,2,7,8)           -130.3081         estimate D2E/DX2                !
 ! D15   D(3,2,7,11)           110.4936         estimate D2E/DX2                !
 ! D16   D(3,2,7,19)            -4.3164         estimate D2E/DX2                !
 ! D17   D(2,3,4,5)              1.75           estimate D2E/DX2                !
 ! D18   D(2,3,4,22)          -179.3191         estimate D2E/DX2                !
 ! D19   D(23,3,4,5)          -178.3391         estimate D2E/DX2                !
 ! D20   D(23,3,4,22)            0.5919         estimate D2E/DX2                !
 ! D21   D(3,4,5,6)             -1.7991         estimate D2E/DX2                !
 ! D22   D(3,4,5,21)           177.9483         estimate D2E/DX2                !
 ! D23   D(22,4,5,6)           179.2594         estimate D2E/DX2                !
 ! D24   D(22,4,5,21)           -0.9931         estimate D2E/DX2                !
 ! D25   D(4,5,6,1)             -0.4913         estimate D2E/DX2                !
 ! D26   D(21,5,6,1)           179.7511         estimate D2E/DX2                !
 ! D27   D(2,7,8,9)           -133.1111         estimate D2E/DX2                !
 ! D28   D(2,7,8,16)           -11.6412         estimate D2E/DX2                !
 ! D29   D(2,7,8,17)           106.2787         estimate D2E/DX2                !
 ! D30   D(11,7,8,9)           -10.4796         estimate D2E/DX2                !
 ! D31   D(11,7,8,16)          110.9902         estimate D2E/DX2                !
 ! D32   D(11,7,8,17)         -131.0898         estimate D2E/DX2                !
 ! D33   D(19,7,8,9)           101.1954         estimate D2E/DX2                !
 ! D34   D(19,7,8,16)         -137.3347         estimate D2E/DX2                !
 ! D35   D(19,7,8,17)          -19.4148         estimate D2E/DX2                !
 ! D36   D(2,7,11,10)          159.9544         estimate D2E/DX2                !
 ! D37   D(2,7,11,24)          -73.3721         estimate D2E/DX2                !
 ! D38   D(2,7,11,25)           46.1825         estimate D2E/DX2                !
 ! D39   D(8,7,11,10)           33.0047         estimate D2E/DX2                !
 ! D40   D(8,7,11,24)          159.6781         estimate D2E/DX2                !
 ! D41   D(8,7,11,25)          -80.7672         estimate D2E/DX2                !
 ! D42   D(19,7,11,10)         -82.3873         estimate D2E/DX2                !
 ! D43   D(19,7,11,24)          44.2862         estimate D2E/DX2                !
 ! D44   D(19,7,11,25)         163.8408         estimate D2E/DX2                !
 ! D45   D(7,8,9,10)           -15.0856         estimate D2E/DX2                !
 ! D46   D(7,8,9,14)          -136.263          estimate D2E/DX2                !
 ! D47   D(7,8,9,15)           102.7643         estimate D2E/DX2                !
 ! D48   D(16,8,9,10)         -136.3725         estimate D2E/DX2                !
 ! D49   D(16,8,9,14)          102.45           estimate D2E/DX2                !
 ! D50   D(16,8,9,15)          -18.5226         estimate D2E/DX2                !
 ! D51   D(17,8,9,10)          103.7689         estimate D2E/DX2                !
 ! D52   D(17,8,9,14)          -17.4085         estimate D2E/DX2                !
 ! D53   D(17,8,9,15)         -138.3812         estimate D2E/DX2                !
 ! D54   D(8,9,10,11)           35.3676         estimate D2E/DX2                !
 ! D55   D(8,9,10,13)          -80.1181         estimate D2E/DX2                !
 ! D56   D(8,9,10,18)          153.9501         estimate D2E/DX2                !
 ! D57   D(14,9,10,11)         157.4692         estimate D2E/DX2                !
 ! D58   D(14,9,10,13)          41.9835         estimate D2E/DX2                !
 ! D59   D(14,9,10,18)         -83.9483         estimate D2E/DX2                !
 ! D60   D(15,9,10,11)         -83.1339         estimate D2E/DX2                !
 ! D61   D(15,9,10,13)         161.3804         estimate D2E/DX2                !
 ! D62   D(15,9,10,18)          35.4486         estimate D2E/DX2                !
 ! D63   D(9,10,11,7)          -42.8678         estimate D2E/DX2                !
 ! D64   D(9,10,11,24)        -169.0587         estimate D2E/DX2                !
 ! D65   D(9,10,11,25)          73.1476         estimate D2E/DX2                !
 ! D66   D(13,10,11,7)          76.1159         estimate D2E/DX2                !
 ! D67   D(13,10,11,24)        -50.0749         estimate D2E/DX2                !
 ! D68   D(13,10,11,25)       -167.8686         estimate D2E/DX2                !
 ! D69   D(18,10,11,7)        -165.3596         estimate D2E/DX2                !
 ! D70   D(18,10,11,24)         68.4495         estimate D2E/DX2                !
 ! D71   D(18,10,11,25)        -49.3442         estimate D2E/DX2                !
 ! D72   D(7,11,12,26)         172.6115         estimate D2E/DX2                !
 ! D73   D(7,11,12,27)         -29.904          estimate D2E/DX2                !
 ! D74   D(10,11,12,26)         59.3183         estimate D2E/DX2                !
 ! D75   D(10,11,12,27)       -143.1971         estimate D2E/DX2                !
 ! D76   D(24,11,12,26)        -60.8872         estimate D2E/DX2                !
 ! D77   D(24,11,12,27)         96.5974         estimate D2E/DX2                !
 ! D78   D(7,11,24,31)         178.9011         estimate D2E/DX2                !
 ! D79   D(7,11,24,32)          59.5446         estimate D2E/DX2                !
 ! D80   D(7,11,24,33)         -60.9565         estimate D2E/DX2                !
 ! D81   D(10,11,24,31)        -59.8673         estimate D2E/DX2                !
 ! D82   D(10,11,24,32)       -179.2238         estimate D2E/DX2                !
 ! D83   D(10,11,24,33)         60.2751         estimate D2E/DX2                !
 ! D84   D(25,11,24,31)         57.7379         estimate D2E/DX2                !
 ! D85   D(25,11,24,32)        -61.6187         estimate D2E/DX2                !
 ! D86   D(25,11,24,33)        177.8803         estimate D2E/DX2                !
 ! D87   D(25,12,28,29)          1.2653         estimate D2E/DX2                !
 ! D88   D(25,12,28,30)        151.5353         estimate D2E/DX2                !
 ! D89   D(26,12,28,29)        162.5325         estimate D2E/DX2                !
 ! D90   D(26,12,28,30)        -47.1975         estimate D2E/DX2                !
 --------------------------------------------------------------------------------
 Trust Radius=3.00D-01 FncErr=1.00D-07 GrdErr=1.00D-06 EigMax=2.50D+02 EigMin=1.00D-04
 Number of steps in this run=    196 maximum allowed number of steps=    198.
 GradGradGradGradGradGradGradGradGradGradGradGradGradGradGradGradGradGrad

                          Input orientation:                          
 ---------------------------------------------------------------------
 Center     Atomic      Atomic             Coordinates (Angstroms)
 Number     Number       Type             X           Y           Z
 ---------------------------------------------------------------------
      1          6           0        1.172902    0.121482   -0.658528
      2          6           0        0.522225   -1.039784   -0.243191
      3          6           0        1.307175   -2.071728    0.271130
      4          6           0        2.685004   -1.894315    0.353560
      5          6           0        3.226612   -0.674706   -0.047730
      6          7           0        2.484722    0.322282   -0.542044
      7          6           0       -0.979732   -1.123996   -0.304432
      8          6           0       -1.656723   -0.782000   -1.651897
      9          6           0       -2.824436    0.171850   -1.314611
     10          6           0       -3.007725    0.031108    0.191312
     11          7           0       -1.610661   -0.157537    0.681523
     12          8           0       -0.625088    2.398810    0.632273
     13          1           0       -3.578097   -0.866263    0.462971
     14          1           0       -3.743336   -0.075379   -1.853649
     15          1           0       -2.558694    1.207205   -1.557907
     16          1           0       -0.948364   -0.319848   -2.345337
     17          1           0       -2.009088   -1.706155   -2.120816
     18          1           0       -3.447757    0.902895    0.685217
     19          1           0       -1.301539   -2.117299    0.034027
     20          1           0        0.606984    0.949345   -1.090345
     21          1           0        4.297516   -0.487325    0.033721
     22          1           0        3.331785   -2.680202    0.738742
     23          1           0        0.850613   -3.005422    0.603116
     24          6           0       -1.496811   -0.574801    2.095472
     25          1           0       -1.141945    0.778290    0.604994
     26          1           0       -1.015199    3.117515    1.134809
     27          1           0        0.284531    2.695127    0.395637
     28          8           0        1.903176    3.027481   -0.056397
     29          1           0        2.447844    2.265222   -0.326475
     30          1           0        2.295641    3.814925   -0.438943
     31          1           0       -1.959607    0.188447    2.727844
     32          1           0       -0.437504   -0.669462    2.351758
     33          1           0       -2.007863   -1.533826    2.230778
 ---------------------------------------------------------------------
                    Distance matrix (angstroms):
                    1          2          3          4          5
     1  C    0.000000
     2  C    1.394426   0.000000
     3  C    2.385888   1.394841   0.000000
     4  C    2.715550   2.400822   1.391648   0.000000
     5  C    2.285763   2.735909   2.395325   1.393492   0.000000
     6  N    1.332202   2.407474   2.789113   2.399067   1.337435
     7  C    2.512057   1.505562   2.541537   3.802188   4.238052
     8  C    3.132066   2.607435   3.761133   4.910163   5.141189
     9  C    4.051135   3.717007   4.961696   6.116025   6.239938
    10  C    4.267088   3.714317   4.800693   6.011717   6.278716
    11  N    3.101904   2.486495   3.513733   4.645072   4.919195
    12  O    3.175714   3.729168   4.883623   5.428196   4.974384
    13  H    4.980501   4.164302   5.035457   6.347858   6.826535
    14  H    5.063246   4.660329   5.831617   7.035898   7.225006
    15  H    3.989046   4.033547   5.389037   6.385100   6.268332
    16  H    2.745882   2.664575   3.873298   4.792114   4.778634
    17  H    3.950140   3.221346   4.105198   5.309655   5.724869
    18  H    4.875115   4.516271   5.623987   6.748714   6.897336
    19  H    3.408025   2.136353   2.619863   4.005540   4.753095
    20  H    1.091827   2.163675   3.386852   3.806499   3.253773
    21  H    3.257770   3.825534   3.392467   2.163819   1.090221
    22  H    3.802969   3.398351   2.165167   1.088260   2.156760
    23  H    3.387203   2.165134   1.091077   2.159127   3.391343
    24  C    3.898294   3.124430   3.664881   4.718363   5.187872
    25  H    2.717793   2.606583   3.772566   4.674567   4.649896
    26  H    4.120687   4.641734   5.750444   6.278558   5.811394
    27  H    2.919609   3.796598   4.876906   5.179481   4.495352
    28  O    3.056255   4.299368   5.144358   5.000340   3.931634
    29  H    2.516219   3.825965   4.524090   4.221426   3.054072
    30  H    3.866559   5.172187   6.011152   5.777117   4.601798
    31  H    4.613525   4.061415   4.670728   5.616719   5.945226
    32  H    3.504400   2.791412   3.056022   3.904243   4.379876
    33  H    4.604932   3.572946   3.888320   5.067238   5.773163
                    6          7          8          9         10
     6  N    0.000000
     7  C    3.761731   0.000000
     8  C    4.427503   1.546266   0.000000
     9  C    5.367183   2.470346   1.545039   0.000000
    10  C    5.548835   2.385955   2.425648   1.523551   0.000000
    11  N    4.301105   1.517966   2.415973   2.359300   1.492542
    12  O    3.919427   3.662424   4.049599   3.686033   3.387834
    13  H    6.259430   2.721550   2.858574   2.192141   1.097450
    14  H    6.377080   3.337241   2.212232   1.093646   2.175851
    15  H    5.220260   3.082015   2.186166   1.096253   2.155133
    16  H    3.930684   2.193839   1.093717   2.196317   3.286142
    17  H    5.177007   2.167426   1.094581   2.200378   3.059623
    18  H    6.085851   3.343477   3.392459   2.218618   1.094341
    19  H    4.540835   1.097618   2.179798   3.062392   2.747992
    20  H    2.054201   2.726549   2.904697   3.525541   3.943593
    21  H    2.067170   5.326260   6.195248   7.278373   7.325309
    22  H    3.372364   4.700975   5.848379   7.088689   6.916666
    23  H    3.880118   2.777331   4.039235   5.222903   4.927156
    24  C    4.859409   2.515656   3.756498   3.734801   2.505157
    25  H    3.830973   2.114725   2.791605   2.623629   2.051962
    26  H    4.782741   4.479184   4.835649   4.236737   3.792922
    27  H    3.369047   4.083400   4.477865   4.354027   4.240011
    28  O    2.809297   5.060380   5.452582   5.664631   5.758173
    29  H    1.955210   4.820328   5.281077   5.758086   5.917990
    30  H    3.499277   5.927824   6.182569   6.344602   6.545241
    31  H    5.519252   3.446355   4.496180   4.133963   2.749055
    32  H    4.230491   2.748810   4.186695   4.455055   3.429921
    33  H    5.596159   2.766280   3.970353   4.018197   2.758290
                   11         12         13         14         15
    11  N    0.000000
    12  O    2.740199   0.000000
    13  H    2.102585   4.405636   0.000000
    14  H    3.313933   4.693068   2.453473   0.000000
    15  H    2.788608   3.155256   3.069593   1.770836   0.000000
    16  H    3.102719   4.044968   3.885957   2.848401   2.354804
    17  H    3.226463   5.132806   3.137382   2.395501   3.017714
    18  H    2.121191   3.195000   1.787820   2.736828   2.432004
    19  H    2.086977   4.605510   2.632831   3.700693   3.894486
    20  H    3.046745   2.566391   4.819142   4.534090   3.210393
    21  H    5.952727   5.737601   7.896400   8.269653   7.239636
    22  H    5.549314   6.439297   7.149328   7.972636   7.421878
    23  H    3.764899   5.602166   4.920276   5.977057   5.834348
    24  C    1.478622   3.426837   2.661158   4.570761   4.201228
    25  H    1.049440   1.701167   2.942713   3.679798   2.620932
    26  H    3.359466   0.959826   4.784381   5.154434   3.644500
    27  H    3.436739   0.985498   5.254325   5.381329   3.756884
    28  O    4.799575   2.694738   6.743541   6.688868   5.047397
    29  H    4.832937   3.221794   6.836767   6.792745   5.263197
    30  H    5.682877   3.418120   7.564904   7.321550   5.622886
    31  H    2.104495   3.325367   2.976839   4.923553   4.445721
    32  H    2.104293   3.522231   3.670091   5.382091   4.827712
    33  H    2.110008   4.464629   2.456912   4.671346   4.708588
                   16         17         18         19         20
    16  H    0.000000
    17  H    1.759941   0.000000
    18  H    4.114161   4.092766   0.000000
    19  H    3.002821   2.304997   3.761897   0.000000
    20  H    2.367480   3.867478   4.426703   3.782985   0.000000
    21  H    5.762571   6.775015   7.895974   5.831486   4.116743
    22  H    5.779489   6.136022   7.668353   4.720294   4.893231
    23  H    4.375157   4.157618   5.810135   2.396744   4.308984
    24  C    4.481805   4.395392   2.824641   2.582051   4.110767
    25  H    3.154019   3.788726   2.310569   2.955657   2.441759
    26  H    4.891968   5.903787   3.320243   5.356957   3.504818
    27  H    4.257117   5.564576   4.150413   5.079943   2.315140
    28  O    4.957332   6.478807   5.804855   6.061942   2.658536
    29  H    4.721506   6.233437   6.134946   5.778782   2.388262
    30  H    5.590550   7.200119   6.536840   6.953753   3.389312
    31  H    5.197898   5.205907   2.626281   3.606407   4.663145
    32  H    4.737711   4.852682   3.783026   2.866124   3.944561
    33  H    4.851506   4.355005   3.224851   2.380136   4.902389
                   21         22         23         24         25
    21  H    0.000000
    22  H    2.497679   0.000000
    23  H    4.306526   2.506068   0.000000
    24  C    6.150829   5.439556   3.693974   0.000000
    25  H    5.613900   5.656263   4.276303   2.044091   0.000000
    26  H    6.514001   7.257180   6.422952   3.845520   2.401821
    27  H    5.134494   6.188509   5.732343   4.093293   2.398526
    28  O    4.253804   5.937240   6.159445   5.400638   3.843053
    29  H    3.335797   5.135490   5.585246   5.430641   3.995646
    30  H    4.768676   6.681857   7.049193   6.330533   4.704036
    31  H    6.845915   6.339125   4.755271   1.093902   2.350102
    32  H    5.275119   4.566447   3.189624   1.093972   2.375586
    33  H    6.758700   5.661465   3.603576   1.095085   2.956158
                   26         27         28         29         30
    26  H    0.000000
    27  H    1.553733   0.000000
    28  O    3.153409   1.713127   0.000000
    29  H    3.854143   2.320816   0.975010   0.000000
    30  H    3.731586   2.448476   0.959395   1.561216   0.000000
    31  H    3.465416   4.093750   5.543754   5.750433   6.425498
    32  H    4.019439   3.958308   4.994535   4.910248   5.947085
    33  H    4.880728   5.148481   6.429068   6.389494   7.365914
                   31         32         33
    31  H    0.000000
    32  H    1.787245   0.000000
    33  H    1.793217   1.796605   0.000000
 Stoichiometry    C10H19N2O2(1+)
 Framework group  C1[X(C10H19N2O2)]
 Deg. of freedom    93
 Full point group                 C1      NOp   1
 Largest Abelian subgroup         C1      NOp   1
 Largest concise Abelian subgroup C1      NOp   1
                         Standard orientation:                         
 ---------------------------------------------------------------------
 Center     Atomic      Atomic             Coordinates (Angstroms)
 Number     Number       Type             X           Y           Z
 ---------------------------------------------------------------------
      1          6           0        1.172902    0.121482   -0.658528
      2          6           0        0.522225   -1.039784   -0.243191
      3          6           0        1.307175   -2.071728    0.271130
      4          6           0        2.685004   -1.894315    0.353560
      5          6           0        3.226612   -0.674706   -0.047730
      6          7           0        2.484722    0.322282   -0.542044
      7          6           0       -0.979732   -1.123996   -0.304432
      8          6           0       -1.656723   -0.782000   -1.651897
      9          6           0       -2.824436    0.171850   -1.314611
     10          6           0       -3.007725    0.031108    0.191312
     11          7           0       -1.610661   -0.157537    0.681523
     12          8           0       -0.625088    2.398810    0.632273
     13          1           0       -3.578097   -0.866263    0.462971
     14          1           0       -3.743336   -0.075379   -1.853649
     15          1           0       -2.558694    1.207205   -1.557907
     16          1           0       -0.948364   -0.319848   -2.345337
     17          1           0       -2.009088   -1.706155   -2.120816
     18          1           0       -3.447757    0.902895    0.685217
     19          1           0       -1.301539   -2.117299    0.034027
     20          1           0        0.606984    0.949345   -1.090345
     21          1           0        4.297516   -0.487324    0.033721
     22          1           0        3.331785   -2.680202    0.738742
     23          1           0        0.850613   -3.005422    0.603116
     24          6           0       -1.496811   -0.574801    2.095472
     25          1           0       -1.141945    0.778290    0.604994
     26          1           0       -1.015199    3.117515    1.134809
     27          1           0        0.284531    2.695127    0.395637
     28          8           0        1.903176    3.027481   -0.056397
     29          1           0        2.447844    2.265222   -0.326475
     30          1           0        2.295641    3.814925   -0.438943
     31          1           0       -1.959607    0.188447    2.727844
     32          1           0       -0.437504   -0.669462    2.351758
     33          1           0       -2.007863   -1.533826    2.230778
 ---------------------------------------------------------------------
 Rotational constants (GHZ):           0.8138398           0.5099595           0.3985891
 Standard basis: Aug-CC-pVDZ (5D, 7F)
 There are   521 symmetry adapted cartesian basis functions of A   symmetry.
 There are   493 symmetry adapted basis functions of A   symmetry.
   493 basis functions,   811 primitive gaussians,   521 cartesian basis functions
    54 alpha electrons       54 beta electrons
       nuclear repulsion energy       977.9213674491 Hartrees.
 NAtoms=   33 NActive=   33 NUniq=   33 SFac= 1.00D+00 NAtFMM=   60 NAOKFM=F Big=F
 Integral buffers will be    131072 words long.
 Raffenetti 2 integral format.
 Two-electron integral symmetry is turned on.
 Nuclear repulsion after empirical dispersion term =      977.8945516323 Hartrees.
 One-electron integrals computed using PRISM.
 NBasis=   493 RedAO= T EigKep=  2.41D-06  NBF=   493
 NBsUse=   493 1.00D-06 EigRej= -1.00D+00 NBFU=   493
 ExpMin= 2.97D-02 ExpMax= 1.17D+04 ExpMxC= 4.01D+02 IAcc=3 IRadAn=         5 AccDes= 0.00D+00
 Harris functional with IExCor= 4639 and IRadAn=       5 diagonalized for initial guess.
 HarFok:  IExCor= 4639 AccDes= 0.00D+00 IRadAn=         5 IDoV= 1 UseB2=F ITyADJ=14
 ICtDFT=  3500011 ScaDFX=  1.000000  1.000000  1.000000  1.000000
 FoFCou: FMM=F IPFlag=           0 FMFlag=      100000 FMFlg1=           0
         NFxFlg=           0 DoJE=T BraDBF=F KetDBF=T FulRan=T
         wScrn=  0.000000 ICntrl=       500 IOpCl=  0 I1Cent=   200000004 NGrid=           0
         NMat0=    1 NMatS0=      1 NMatT0=    0 NMatD0=    1 NMtDS0=    0 NMtDT0=    0
 Petite list used in FoFCou.
 Requested convergence on RMS density matrix=1.00D-08 within 128 cycles.
 Requested convergence on MAX density matrix=1.00D-06.
 Requested convergence on             energy=1.00D-06.
 No special actions if energy rises.
 SCF Done:  E(RwB97XD) =  -652.160981748     A.U. after   14 cycles
            NFock= 14  Conv=0.80D-08     -V/T= 2.0063

 **********************************************************************

            Population analysis using the SCF density.

 **********************************************************************

 Orbital symmetries:
       Occupied  (A) (A) (A) (A) (A) (A) (A) (A) (A) (A) (A) (A)
                 (A) (A) (A) (A) (A) (A) (A) (A) (A) (A) (A) (A)
                 (A) (A) (A) (A) (A) (A) (A) (A) (A) (A) (A) (A)
                 (A) (A) (A) (A) (A) (A) (A) (A) (A) (A) (A) (A)
                 (A) (A) (A) (A) (A) (A)
       Virtual   (A) (A) (A) (A) (A) (A) (A) (A) (A) (A) (A) (A)
                 (A) (A) (A) (A) (A) (A) (A) (A) (A) (A) (A) (A)
                 (A) (A) (A) (A) (A) (A) (A) (A) (A) (A) (A) (A)
                 (A) (A) (A) (A) (A) (A) (A) (A) (A) (A) (A) (A)
                 (A) (A) (A) (A) (A) (A) (A) (A) (A) (A) (A) (A)
                 (A) (A) (A) (A) (A) (A) (A) (A) (A) (A) (A) (A)
                 (A) (A) (A) (A) (A) (A) (A) (A) (A) (A) (A) (A)
                 (A) (A) (A) (A) (A) (A) (A) (A) (A) (A) (A) (A)
                 (A) (A) (A) (A) (A) (A) (A) (A) (A) (A) (A) (A)
                 (A) (A) (A) (A) (A) (A) (A) (A) (A) (A) (A) (A)
                 (A) (A) (A) (A) (A) (A) (A) (A) (A) (A) (A) (A)
                 (A) (A) (A) (A) (A) (A) (A) (A) (A) (A) (A) (A)
                 (A) (A) (A) (A) (A) (A) (A) (A) (A) (A) (A) (A)
                 (A) (A) (A) (A) (A) (A) (A) (A) (A) (A) (A) (A)
                 (A) (A) (A) (A) (A) (A) (A) (A) (A) (A) (A) (A)
                 (A) (A) (A) (A) (A) (A) (A) (A) (A) (A) (A) (A)
                 (A) (A) (A) (A) (A) (A) (A) (A) (A) (A) (A) (A)
                 (A) (A) (A) (A) (A) (A) (A) (A) (A) (A) (A) (A)
                 (A) (A) (A) (A) (A) (A) (A) (A) (A) (A) (A) (A)
                 (A) (A) (A) (A) (A) (A) (A) (A) (A) (A) (A) (A)
                 (A) (A) (A) (A) (A) (A) (A) (A) (A) (A) (A) (A)
                 (A) (A) (A) (A) (A) (A) (A) (A) (A) (A) (A) (A)
                 (A) (A) (A) (A) (A) (A) (A) (A) (A) (A) (A) (A)
                 (A) (A) (A) (A) (A) (A) (A) (A) (A) (A) (A) (A)
                 (A) (A) (A) (A) (A) (A) (A) (A) (A) (A) (A) (A)
                 (A) (A) (A) (A) (A) (A) (A) (A) (A) (A) (A) (A)
                 (A) (A) (A) (A) (A) (A) (A) (A) (A) (A) (A) (A)
                 (A) (A) (A) (A) (A) (A) (A) (A) (A) (A) (A) (A)
                 (A) (A) (A) (A) (A) (A) (A) (A) (A) (A) (A) (A)
                 (A) (A) (A) (A) (A) (A) (A) (A) (A) (A) (A) (A)
                 (A) (A) (A) (A) (A) (A) (A) (A) (A) (A) (A) (A)
                 (A) (A) (A) (A) (A) (A) (A) (A) (A) (A) (A) (A)
                 (A) (A) (A) (A) (A) (A) (A) (A) (A) (A) (A) (A)
                 (A) (A) (A) (A) (A) (A) (A) (A) (A) (A) (A) (A)
                 (A) (A) (A) (A) (A) (A) (A) (A) (A) (A) (A) (A)
                 (A) (A) (A) (A) (A) (A) (A) (A) (A) (A) (A) (A)
                 (A) (A) (A) (A) (A) (A) (A)
 The electronic state is 1-A.
 Alpha  occ. eigenvalues --  -19.40484 -19.38838 -14.69624 -14.58768 -10.50438
 Alpha  occ. eigenvalues --  -10.49089 -10.48792 -10.47054 -10.46551 -10.45641
 Alpha  occ. eigenvalues --  -10.45528 -10.44452 -10.44302 -10.43859  -1.26322
 Alpha  occ. eigenvalues --   -1.24714  -1.22842  -1.18579  -1.06945  -1.05155
 Alpha  occ. eigenvalues --   -1.01818  -0.97341  -0.95046  -0.89457  -0.86325
 Alpha  occ. eigenvalues --   -0.85959  -0.83636  -0.78554  -0.76245  -0.75535
 Alpha  occ. eigenvalues --   -0.74330  -0.73442  -0.72301  -0.70851  -0.69140
 Alpha  occ. eigenvalues --   -0.67414  -0.66108  -0.65705  -0.63853  -0.63223
 Alpha  occ. eigenvalues --   -0.62724  -0.62350  -0.61688  -0.60525  -0.59666
 Alpha  occ. eigenvalues --   -0.58314  -0.57786  -0.57104  -0.55907  -0.54219
 Alpha  occ. eigenvalues --   -0.52130  -0.50303  -0.48182  -0.47150
 Alpha virt. eigenvalues --   -0.09989  -0.09229  -0.07245  -0.06160  -0.05277
 Alpha virt. eigenvalues --   -0.05068  -0.03576  -0.03462  -0.03203  -0.02997
 Alpha virt. eigenvalues --   -0.02638  -0.01905  -0.01301  -0.01195  -0.00550
 Alpha virt. eigenvalues --   -0.00087   0.00095   0.00602   0.01008   0.01158
 Alpha virt. eigenvalues --    0.01577   0.02243   0.02415   0.02974   0.03162
 Alpha virt. eigenvalues --    0.03435   0.03795   0.04098   0.04712   0.05079
 Alpha virt. eigenvalues --    0.05125   0.05338   0.05658   0.05760   0.06016
 Alpha virt. eigenvalues --    0.06319   0.06624   0.06823   0.06935   0.07119
 Alpha virt. eigenvalues --    0.07618   0.07822   0.07932   0.08030   0.08828
 Alpha virt. eigenvalues --    0.09350   0.09673   0.09746   0.10468   0.10654
 Alpha virt. eigenvalues --    0.10981   0.11057   0.11191   0.11972   0.12007
 Alpha virt. eigenvalues --    0.12717   0.12958   0.13265   0.13847   0.14372
 Alpha virt. eigenvalues --    0.14497   0.14941   0.15684   0.15848   0.16132
 Alpha virt. eigenvalues --    0.16628   0.16858   0.17256   0.17422   0.17760
 Alpha virt. eigenvalues --    0.18348   0.18531   0.18868   0.19054   0.19249
 Alpha virt. eigenvalues --    0.19513   0.19820   0.20189   0.20706   0.21043
 Alpha virt. eigenvalues --    0.21451   0.21598   0.22041   0.22190   0.22526
 Alpha virt. eigenvalues --    0.23369   0.23654   0.24167   0.24261   0.24931
 Alpha virt. eigenvalues --    0.25673   0.25909   0.26423   0.26800   0.27119
 Alpha virt. eigenvalues --    0.27569   0.27927   0.28048   0.28948   0.29290
 Alpha virt. eigenvalues --    0.29648   0.30484   0.31008   0.31223   0.31410
 Alpha virt. eigenvalues --    0.31819   0.32058   0.32742   0.33123   0.33526
 Alpha virt. eigenvalues --    0.34016   0.34257   0.34528   0.35267   0.35551
 Alpha virt. eigenvalues --    0.36015   0.36403   0.37138   0.37855   0.38808
 Alpha virt. eigenvalues --    0.38943   0.39573   0.39754   0.40608   0.40715
 Alpha virt. eigenvalues --    0.41094   0.41536   0.42028   0.42664   0.42753
 Alpha virt. eigenvalues --    0.43257   0.43719   0.43958   0.45176   0.45463
 Alpha virt. eigenvalues --    0.45924   0.46057   0.46724   0.47503   0.47713
 Alpha virt. eigenvalues --    0.47818   0.48455   0.48616   0.49476   0.49715
 Alpha virt. eigenvalues --    0.50261   0.50730   0.51052   0.51974   0.52136
 Alpha virt. eigenvalues --    0.52428   0.52863   0.53541   0.53736   0.54867
 Alpha virt. eigenvalues --    0.54937   0.55381   0.55461   0.56092   0.56428
 Alpha virt. eigenvalues --    0.56673   0.56987   0.57930   0.58019   0.58471
 Alpha virt. eigenvalues --    0.58841   0.59355   0.59652   0.59861   0.60718
 Alpha virt. eigenvalues --    0.61049   0.61374   0.61858   0.62268   0.62737
 Alpha virt. eigenvalues --    0.63418   0.63835   0.63927   0.65255   0.65414
 Alpha virt. eigenvalues --    0.65800   0.66213   0.66995   0.67571   0.67911
 Alpha virt. eigenvalues --    0.68501   0.69140   0.69165   0.69875   0.70116
 Alpha virt. eigenvalues --    0.70908   0.71239   0.71815   0.72071   0.72525
 Alpha virt. eigenvalues --    0.73599   0.74622   0.74779   0.75106   0.75388
 Alpha virt. eigenvalues --    0.76219   0.77081   0.77689   0.77902   0.78003
 Alpha virt. eigenvalues --    0.78835   0.79938   0.80844   0.81205   0.82505
 Alpha virt. eigenvalues --    0.83058   0.84213   0.84968   0.85380   0.85941
 Alpha virt. eigenvalues --    0.86282   0.86925   0.87679   0.88449   0.89488
 Alpha virt. eigenvalues --    0.90696   0.90947   0.91227   0.92248   0.93592
 Alpha virt. eigenvalues --    0.93890   0.94786   0.95364   0.96481   0.97079
 Alpha virt. eigenvalues --    0.97882   0.99410   0.99886   1.00867   1.02085
 Alpha virt. eigenvalues --    1.03139   1.04187   1.04307   1.05137   1.05913
 Alpha virt. eigenvalues --    1.06968   1.07403   1.07759   1.09307   1.10408
 Alpha virt. eigenvalues --    1.12311   1.13123   1.13335   1.13945   1.14441
 Alpha virt. eigenvalues --    1.15077   1.16136   1.17835   1.19063   1.19684
 Alpha virt. eigenvalues --    1.20772   1.21526   1.22580   1.24586   1.25633
 Alpha virt. eigenvalues --    1.27661   1.29837   1.29974   1.30138   1.31020
 Alpha virt. eigenvalues --    1.32298   1.33647   1.34057   1.35882   1.36559
 Alpha virt. eigenvalues --    1.38780   1.39056   1.39617   1.40702   1.40747
 Alpha virt. eigenvalues --    1.41642   1.42845   1.43505   1.45165   1.46185
 Alpha virt. eigenvalues --    1.46603   1.47859   1.49579   1.50634   1.51129
 Alpha virt. eigenvalues --    1.51894   1.52564   1.53768   1.54894   1.55575
 Alpha virt. eigenvalues --    1.56408   1.57464   1.58683   1.59240   1.60714
 Alpha virt. eigenvalues --    1.61297   1.61642   1.62926   1.63403   1.63827
 Alpha virt. eigenvalues --    1.64668   1.65735   1.66131   1.68039   1.69241
 Alpha virt. eigenvalues --    1.69587   1.71952   1.72982   1.73548   1.73872
 Alpha virt. eigenvalues --    1.75252   1.75998   1.76239   1.77065   1.78534
 Alpha virt. eigenvalues --    1.79363   1.80260   1.80968   1.82596   1.82810
 Alpha virt. eigenvalues --    1.83284   1.83834   1.85500   1.86071   1.86496
 Alpha virt. eigenvalues --    1.86976   1.88165   1.88985   1.89891   1.90537
 Alpha virt. eigenvalues --    1.90682   1.91680   1.93589   1.94229   1.95673
 Alpha virt. eigenvalues --    1.96396   1.96923   1.98342   1.99112   2.00146
 Alpha virt. eigenvalues --    2.01929   2.02995   2.03251   2.03955   2.06138
 Alpha virt. eigenvalues --    2.07062   2.07867   2.08894   2.09465   2.10647
 Alpha virt. eigenvalues --    2.11195   2.12047   2.13938   2.14847   2.16124
 Alpha virt. eigenvalues --    2.17357   2.17890   2.19451   2.21096   2.22798
 Alpha virt. eigenvalues --    2.23082   2.23359   2.23911   2.25599   2.26205
 Alpha virt. eigenvalues --    2.28222   2.29074   2.29236   2.30137   2.30998
 Alpha virt. eigenvalues --    2.33108   2.34953   2.35458   2.36287   2.37351
 Alpha virt. eigenvalues --    2.40408   2.42148   2.42873   2.43438   2.45343
 Alpha virt. eigenvalues --    2.47155   2.47656   2.50123   2.51360   2.53055
 Alpha virt. eigenvalues --    2.53376   2.54063   2.55697   2.56564   2.58339
 Alpha virt. eigenvalues --    2.60153   2.60526   2.62759   2.64975   2.65307
 Alpha virt. eigenvalues --    2.67437   2.68149   2.69239   2.69846   2.72410
 Alpha virt. eigenvalues --    2.73984   2.74222   2.75151   2.77024   2.77514
 Alpha virt. eigenvalues --    2.80245   2.80808   2.81249   2.84396   2.85485
 Alpha virt. eigenvalues --    2.86738   2.88255   2.89423   2.91245   2.92551
 Alpha virt. eigenvalues --    2.97606   3.03216   3.06774   3.10161   3.14109
 Alpha virt. eigenvalues --    3.17967   3.30509   3.32267   3.36261   3.37104
 Alpha virt. eigenvalues --    3.38114   3.43255   3.48161   3.49849   3.53387
 Alpha virt. eigenvalues --    3.55530   3.59552   3.67793   3.78987   3.84383
 Alpha virt. eigenvalues --    3.97177   4.08109   4.18285   4.76029
          Condensed to atoms (all electrons):
               1          2          3          4          5          6
     1  C   13.052635  -3.232730  -1.364592  -0.066781  -1.142815   0.400821
     2  C   -3.232730  19.406183  -7.726274  -0.188224  -0.906296  -0.139176
     3  C   -1.364592  -7.726274  20.294240  -2.581627   1.021740  -0.605570
     4  C   -0.066781  -0.188224  -2.581627  10.026180  -1.775380   0.269941
     5  C   -1.142815  -0.906296   1.021740  -1.775380   8.968857   0.211409
     6  N    0.400821  -0.139176  -0.605570   0.269941   0.211409   7.404427
     7  C   -0.667433  -5.012277  -1.824214   0.399065  -0.562160   0.226949
     8  C   -0.003600   0.726965  -0.188699  -0.045080  -0.101499  -0.001855
     9  C   -0.177967   0.263296  -0.052489  -0.019431   0.019386  -0.009378
    10  C   -0.038084  -0.080738  -0.067014   0.014560  -0.031602   0.030996
    11  N   -0.330607   0.698880  -0.320863  -0.086443   0.137450  -0.018547
    12  O   -0.054084   0.031345  -0.029196  -0.004050   0.007165   0.009310
    13  H   -0.008415   0.052654   0.013073  -0.004650   0.000918   0.000325
    14  H    0.021255  -0.035710   0.010225   0.000070   0.001292  -0.001252
    15  H   -0.022129   0.013056  -0.004812  -0.002614   0.000908  -0.001112
    16  H   -0.003416  -0.343496   0.045367  -0.010014  -0.002752   0.017557
    17  H    0.009374   0.190016  -0.024667  -0.001091  -0.002070  -0.007972
    18  H   -0.014851  -0.065847   0.003077   0.004649  -0.004562   0.000652
    19  H   -0.040617   0.758588  -0.050807  -0.023737   0.023626   0.002197
    20  H   -0.777044  -0.689705  -0.043732  -0.048799   0.108708  -0.281498
    21  H    0.155448  -0.124632   0.252375  -0.065451  -0.256151  -0.184042
    22  H    0.032620   0.050312   0.404603  -0.938100   0.278581  -0.076305
    23  H   -0.068785   0.900702  -2.115563   0.469883  -0.208497   0.022112
    24  C   -0.038348   0.130819  -0.010304   0.062791  -0.022444   0.003877
    25  H   -0.057645  -0.038667  -0.178543   0.007110  -0.004951  -0.016980
    26  H    0.014772  -0.010075   0.007059  -0.000930   0.000104  -0.004690
    27  H    0.008346   0.044270  -0.022785   0.009880  -0.012761   0.006006
    28  O   -0.030828  -0.024266  -0.002640  -0.011300   0.039938  -0.022489
    29  H   -0.090978   0.003858   0.001565  -0.026595   0.044538   0.113589
    30  H    0.009589   0.007644  -0.002588   0.004006  -0.004396  -0.005400
    31  H   -0.004420  -0.042393  -0.031763   0.013063  -0.006205  -0.001499
    32  H    0.026260   0.024821   0.043443   0.010212  -0.011564   0.004486
    33  H    0.004397   0.030807   0.075826  -0.016558   0.006615   0.001349
               7          8          9         10         11         12
     1  C   -0.667433  -0.003600  -0.177967  -0.038084  -0.330607  -0.054084
     2  C   -5.012277   0.726965   0.263296  -0.080738   0.698880   0.031345
     3  C   -1.824214  -0.188699  -0.052489  -0.067014  -0.320863  -0.029196
     4  C    0.399065  -0.045080  -0.019431   0.014560  -0.086443  -0.004050
     5  C   -0.562160  -0.101499   0.019386  -0.031602   0.137450   0.007165
     6  N    0.226949  -0.001855  -0.009378   0.030996  -0.018547   0.009310
     7  C   19.598185  -2.249476  -0.118983  -0.454519  -2.732412   0.043061
     8  C   -2.249476   7.936918  -0.347856   0.373724  -1.159313   0.037357
     9  C   -0.118983  -0.347856   5.814171   0.213105  -0.258037   0.032618
    10  C   -0.454519   0.373724   0.213105   5.503405   0.004845   0.020175
    11  N   -2.732412  -1.159313  -0.258037   0.004845  12.134696  -0.275096
    12  O    0.043061   0.037357   0.032618   0.020175  -0.275096   8.009093
    13  H    0.213283  -0.149813   0.048279  -0.286863   0.011452  -0.015220
    14  H    0.054221   0.227393  -0.289843   0.102497   0.012167  -0.002414
    15  H    0.078595   0.110214  -0.169480  -0.136441   0.041347  -0.004830
    16  H    0.059668  -0.365515   0.266642   0.040726   0.165334   0.005902
    17  H    0.350116  -0.725355   0.084160  -0.140242   0.239760   0.000164
    18  H    0.302767   0.188325  -0.009613  -0.121807  -0.907454   0.069715
    19  H   -2.724586   0.670963   0.007771  -0.014108  -0.025995   0.008527
    20  H    0.408787  -0.001556   0.010279   0.025031  -0.328394   0.041229
    21  H    0.002250   0.000925   0.000279  -0.000460   0.006174  -0.000279
    22  H   -0.022385   0.006154   0.000651  -0.001366  -0.004171   0.000091
    23  H    0.240534  -0.035362  -0.015281   0.019624  -0.001811  -0.001753
    24  C   -0.403209  -0.209122   0.062233  -0.083301   0.858714  -0.037082
    25  H   -0.066910   0.115521  -0.121017  -0.255223   0.625286  -0.077946
    26  H    0.016697   0.002907  -0.002106  -0.000650   0.001396   0.351482
    27  H   -0.050250   0.003234  -0.002582   0.008889   0.032312   0.335654
    28  O   -0.000640  -0.008364   0.006578  -0.003767   0.005016  -0.059836
    29  H    0.014163  -0.005541   0.002091   0.000380  -0.004130   0.007627
    30  H   -0.002972   0.000863  -0.000337  -0.000178   0.003097  -0.000312
    31  H    0.105142  -0.043418   0.039127   0.034974  -0.267569   0.009115
    32  H    0.047423   0.088123  -0.043016  -0.066301   0.107947   0.002892
    33  H   -0.003345  -0.013679   0.055408   0.100016  -0.512442  -0.001502
              13         14         15         16         17         18
     1  C   -0.008415   0.021255  -0.022129  -0.003416   0.009374  -0.014851
     2  C    0.052654  -0.035710   0.013056  -0.343496   0.190016  -0.065847
     3  C    0.013073   0.010225  -0.004812   0.045367  -0.024667   0.003077
     4  C   -0.004650   0.000070  -0.002614  -0.010014  -0.001091   0.004649
     5  C    0.000918   0.001292   0.000908  -0.002752  -0.002070  -0.004562
     6  N    0.000325  -0.001252  -0.001112   0.017557  -0.007972   0.000652
     7  C    0.213283   0.054221   0.078595   0.059668   0.350116   0.302767
     8  C   -0.149813   0.227393   0.110214  -0.365515  -0.725355   0.188325
     9  C    0.048279  -0.289843  -0.169480   0.266642   0.084160  -0.009613
    10  C   -0.286863   0.102497  -0.136441   0.040726  -0.140242  -0.121807
    11  N    0.011452   0.012167   0.041347   0.165334   0.239760  -0.907454
    12  O   -0.015220  -0.002414  -0.004830   0.005902   0.000164   0.069715
    13  H    2.111803  -0.165392   0.163057  -0.043689   0.046771  -0.491936
    14  H   -0.165392   1.938820  -0.496101   0.125223  -0.288659   0.043447
    15  H    0.163057  -0.496101   2.085953  -0.370250   0.196901  -0.223387
    16  H   -0.043689   0.125223  -0.370250   2.316558  -0.594219   0.022285
    17  H    0.046771  -0.288659   0.196901  -0.594219   2.372693  -0.015605
    18  H   -0.491936   0.043447  -0.223387   0.022285  -0.015605   2.609488
    19  H   -0.110510   0.043029  -0.068696   0.212427  -0.377713   0.064802
    20  H    0.005948   0.008166   0.019435  -0.119801   0.024021  -0.010110
    21  H    0.000107   0.000063  -0.000015   0.000658   0.000557  -0.000152
    22  H   -0.000286  -0.000006   0.000008  -0.000106  -0.000749   0.000073
    23  H    0.001406   0.000279   0.000660  -0.003069   0.003480  -0.002212
    24  C   -0.029160  -0.002577  -0.008325   0.013621   0.023705  -0.072249
    25  H   -0.010844   0.000344   0.069703  -0.028016   0.009189   0.042498
    26  H    0.000639  -0.000421   0.000441   0.001067  -0.000341  -0.001634
    27  H   -0.001662  -0.000438   0.001789  -0.001726   0.000417  -0.001143
    28  O   -0.000378   0.000295   0.001007   0.000519  -0.000271   0.000188
    29  H   -0.000356   0.000045  -0.000305  -0.000732  -0.000033   0.001137
    30  H    0.000096  -0.000049   0.000196   0.000634   0.000010  -0.000313
    31  H    0.004121  -0.001349   0.005731  -0.000608  -0.000578  -0.002929
    32  H   -0.014651   0.002488  -0.012709   0.011660  -0.006222   0.005221
    33  H    0.055674  -0.002084   0.004531  -0.003688   0.010114   0.032710
              19         20         21         22         23         24
     1  C   -0.040617  -0.777044   0.155448   0.032620  -0.068785  -0.038348
     2  C    0.758588  -0.689705  -0.124632   0.050312   0.900702   0.130819
     3  C   -0.050807  -0.043732   0.252375   0.404603  -2.115563  -0.010304
     4  C   -0.023737  -0.048799  -0.065451  -0.938100   0.469883   0.062791
     5  C    0.023626   0.108708  -0.256151   0.278581  -0.208497  -0.022444
     6  N    0.002197  -0.281498  -0.184042  -0.076305   0.022112   0.003877
     7  C   -2.724586   0.408787   0.002250  -0.022385   0.240534  -0.403209
     8  C    0.670963  -0.001556   0.000925   0.006154  -0.035362  -0.209122
     9  C    0.007771   0.010279   0.000279   0.000651  -0.015281   0.062233
    10  C   -0.014108   0.025031  -0.000460  -0.001366   0.019624  -0.083301
    11  N   -0.025995  -0.328394   0.006174  -0.004171  -0.001811   0.858714
    12  O    0.008527   0.041229  -0.000279   0.000091  -0.001753  -0.037082
    13  H   -0.110510   0.005948   0.000107  -0.000286   0.001406  -0.029160
    14  H    0.043029   0.008166   0.000063  -0.000006   0.000279  -0.002577
    15  H   -0.068696   0.019435  -0.000015   0.000008   0.000660  -0.008325
    16  H    0.212427  -0.119801   0.000658  -0.000106  -0.003069   0.013621
    17  H   -0.377713   0.024021   0.000557  -0.000749   0.003480   0.023705
    18  H    0.064802  -0.010110  -0.000152   0.000073  -0.002212  -0.072249
    19  H    3.649953  -0.020299   0.000282  -0.000044  -0.150093  -0.008144
    20  H   -0.020299   3.887191   0.013296  -0.005853  -0.020684  -0.041254
    21  H    0.000282   0.013296   1.882972  -0.111166  -0.003870   0.002968
    22  H   -0.000044  -0.005853  -0.111166   2.122187  -0.149930  -0.010397
    23  H   -0.150093  -0.020684  -0.003870  -0.149930   2.945333   0.046640
    24  C   -0.008144  -0.041254   0.002968  -0.010397   0.046640   4.403065
    25  H   -0.030404  -0.027698  -0.003458   0.003224   0.006695  -0.175741
    26  H    0.000799   0.006485   0.000032   0.000060  -0.000280  -0.008817
    27  H   -0.001214  -0.042912  -0.000380  -0.000173   0.000939   0.009875
    28  O    0.000546   0.015040   0.000969   0.000147  -0.000574   0.000779
    29  H   -0.001127  -0.012607  -0.026270   0.004263  -0.001167  -0.003372
    30  H   -0.000053  -0.000946   0.001541  -0.000161   0.000050   0.000341
    31  H    0.013745  -0.000982   0.000410  -0.001344   0.002118   0.232744
    32  H    0.041595   0.008525  -0.002782   0.000598  -0.026211   0.071206
    33  H   -0.007850   0.000010   0.000185   0.000090   0.012577   0.199050
              25         26         27         28         29         30
     1  C   -0.057645   0.014772   0.008346  -0.030828  -0.090978   0.009589
     2  C   -0.038667  -0.010075   0.044270  -0.024266   0.003858   0.007644
     3  C   -0.178543   0.007059  -0.022785  -0.002640   0.001565  -0.002588
     4  C    0.007110  -0.000930   0.009880  -0.011300  -0.026595   0.004006
     5  C   -0.004951   0.000104  -0.012761   0.039938   0.044538  -0.004396
     6  N   -0.016980  -0.004690   0.006006  -0.022489   0.113589  -0.005400
     7  C   -0.066910   0.016697  -0.050250  -0.000640   0.014163  -0.002972
     8  C    0.115521   0.002907   0.003234  -0.008364  -0.005541   0.000863
     9  C   -0.121017  -0.002106  -0.002582   0.006578   0.002091  -0.000337
    10  C   -0.255223  -0.000650   0.008889  -0.003767   0.000380  -0.000178
    11  N    0.625286   0.001396   0.032312   0.005016  -0.004130   0.003097
    12  O   -0.077946   0.351482   0.335654  -0.059836   0.007627  -0.000312
    13  H   -0.010844   0.000639  -0.001662  -0.000378  -0.000356   0.000096
    14  H    0.000344  -0.000421  -0.000438   0.000295   0.000045  -0.000049
    15  H    0.069703   0.000441   0.001789   0.001007  -0.000305   0.000196
    16  H   -0.028016   0.001067  -0.001726   0.000519  -0.000732   0.000634
    17  H    0.009189  -0.000341   0.000417  -0.000271  -0.000033   0.000010
    18  H    0.042498  -0.001634  -0.001143   0.000188   0.001137  -0.000313
    19  H   -0.030404   0.000799  -0.001214   0.000546  -0.001127  -0.000053
    20  H   -0.027698   0.006485  -0.042912   0.015040  -0.012607  -0.000946
    21  H   -0.003458   0.000032  -0.000380   0.000969  -0.026270   0.001541
    22  H    0.003224   0.000060  -0.000173   0.000147   0.004263  -0.000161
    23  H    0.006695  -0.000280   0.000939  -0.000574  -0.001167   0.000050
    24  C   -0.175741  -0.008817   0.009875   0.000779  -0.003372   0.000341
    25  H    1.168571  -0.027073  -0.000569  -0.007420  -0.001599   0.001688
    26  H   -0.027073   0.597799  -0.129671  -0.002284  -0.002101   0.001159
    27  H   -0.000569  -0.129671   0.573936  -0.002013  -0.004169  -0.002844
    28  O   -0.007420  -0.002284  -0.002013   7.811484   0.326289   0.351145
    29  H   -0.001599  -0.002101  -0.004169   0.326289   0.576944  -0.106164
    30  H    0.001688   0.001159  -0.002844   0.351145  -0.106164   0.559023
    31  H    0.030274  -0.000363   0.000842  -0.000551  -0.000821   0.000162
    32  H   -0.027414   0.000966  -0.002524   0.000883   0.000535  -0.000113
    33  H   -0.114220   0.000892   0.001834   0.000297   0.000234  -0.000084
              31         32         33
     1  C   -0.004420   0.026260   0.004397
     2  C   -0.042393   0.024821   0.030807
     3  C   -0.031763   0.043443   0.075826
     4  C    0.013063   0.010212  -0.016558
     5  C   -0.006205  -0.011564   0.006615
     6  N   -0.001499   0.004486   0.001349
     7  C    0.105142   0.047423  -0.003345
     8  C   -0.043418   0.088123  -0.013679
     9  C    0.039127  -0.043016   0.055408
    10  C    0.034974  -0.066301   0.100016
    11  N   -0.267569   0.107947  -0.512442
    12  O    0.009115   0.002892  -0.001502
    13  H    0.004121  -0.014651   0.055674
    14  H   -0.001349   0.002488  -0.002084
    15  H    0.005731  -0.012709   0.004531
    16  H   -0.000608   0.011660  -0.003688
    17  H   -0.000578  -0.006222   0.010114
    18  H   -0.002929   0.005221   0.032710
    19  H    0.013745   0.041595  -0.007850
    20  H   -0.000982   0.008525   0.000010
    21  H    0.000410  -0.002782   0.000185
    22  H   -0.001344   0.000598   0.000090
    23  H    0.002118  -0.026211   0.012577
    24  C    0.232744   0.071206   0.199050
    25  H    0.030274  -0.027414  -0.114220
    26  H   -0.000363   0.000966   0.000892
    27  H    0.000842  -0.002524   0.001834
    28  O   -0.000551   0.000883   0.000297
    29  H   -0.000821   0.000535   0.000234
    30  H    0.000162  -0.000113  -0.000084
    31  H    1.952042  -0.516243  -0.368154
    32  H   -0.516243   1.779794  -0.428962
    33  H   -0.368154  -0.428962   2.065845
 Mulliken charges:
               1
     1  C    0.500653
     2  C    1.326289
     3  C    1.076149
     4  C    0.625444
     5  C    0.184866
     6  N   -0.348239
     7  C    0.734862
     8  C    1.165517
     9  C    0.711340
    10  C    1.289715
    11  N   -0.852588
    12  O   -0.458923
    13  H   -0.395783
    14  H   -0.305022
    15  H   -0.272329
    16  H   -0.414755
    17  H   -0.375661
    18  H   -0.445229
    19  H   -0.842852
    20  H   -1.108275
    21  H   -0.542385
    22  H   -0.581123
    23  H   -0.867893
    24  C    1.041416
    25  H    0.192232
    26  H    0.186679
    27  H    0.241593
    28  O   -0.383498
    29  H    0.190808
    30  H    0.185668
    31  H   -0.152420
    32  H   -0.120365
    33  H   -0.185894
 Sum of Mulliken charges =   1.00000
 Mulliken charges with hydrogens summed into heavy atoms:
               1
     1  C   -0.607622
     2  C    1.326289
     3  C    0.208256
     4  C    0.044321
     5  C   -0.357519
     6  N   -0.348239
     7  C   -0.107990
     8  C    0.375101
     9  C    0.133989
    10  C    0.448702
    11  N   -0.660355
    12  O   -0.030650
    24  C    0.582737
    28  O   -0.007022
 Electronic spatial extent (au):  <R**2>=           3083.2403
 Charge=              1.0000 electrons
 Dipole moment (field-independent basis, Debye):
    X=             -3.6752    Y=             -0.7102    Z=              1.8487  Tot=              4.1748
 Quadrupole moment (field-independent basis, Debye-Ang):
   XX=            -50.2449   YY=            -59.0180   ZZ=            -75.3864
   XY=              0.3210   XZ=             -2.5390   YZ=             -2.4210
 Traceless Quadrupole moment (field-independent basis, Debye-Ang):
   XX=             11.3048   YY=              2.5318   ZZ=            -13.8366
   XY=              0.3210   XZ=             -2.5390   YZ=             -2.4210
 Octapole moment (field-independent basis, Debye-Ang**2):
  XXX=              3.7726  YYY=             72.2979  ZZZ=             14.2731  XYY=             21.0350
  XXY=              4.8648  XXZ=              6.6251  XZZ=            -24.6320  YZZ=              9.1869
  YYZ=              9.7155  XYZ=            -17.5525
 Hexadecapole moment (field-independent basis, Debye-Ang**3):
 XXXX=          -1797.8508 YYYY=           -803.7798 ZZZZ=           -522.4951 XXXY=              6.9649
 XXXZ=             14.4111 YYYX=             87.0056 YYYZ=            -15.7187 ZZZX=            -18.5213
 ZZZY=              6.8661 XXYY=           -428.8939 XXZZ=           -436.8697 YYZZ=           -268.1854
 XXYZ=            -23.8042 YYXZ=            -37.3683 ZZXY=              9.3917
 N-N= 9.778945516323D+02 E-N=-3.458805324110D+03  KE= 6.480506884100D+02
 Calling FoFJK, ICntrl=      2127 FMM=F ISym2X=0 I1Cent= 0 IOpClX= 0 NMat=1 NMatS=1 NMatT=0.
 ***** Axes restored to original set *****
 -------------------------------------------------------------------
 Center     Atomic                   Forces (Hartrees/Bohr)
 Number     Number              X              Y              Z
 -------------------------------------------------------------------
      1        6           0.000001146   -0.000000326    0.000000916
      2        6          -0.000000109   -0.000000328    0.000000737
      3        6           0.000000319    0.000000361    0.000001694
      4        6          -0.000000695    0.000000369    0.000002192
      5        6          -0.000000315   -0.000001224    0.000002728
      6        7           0.000000282    0.000000287    0.000001393
      7        6          -0.000000614   -0.000000563   -0.000000474
      8        6           0.000002979   -0.000000302   -0.000000438
      9        6          -0.000001714   -0.000002111   -0.000002166
     10        6          -0.000000654    0.000001804   -0.000001571
     11        7           0.000000142   -0.000000190   -0.000000368
     12        8           0.000000322    0.000000272    0.000000439
     13        1           0.000000327    0.000000415   -0.000002185
     14        1           0.000000973    0.000000295   -0.000001812
     15        1           0.000001747    0.000000035   -0.000001430
     16        1           0.000001263   -0.000000756   -0.000000099
     17        1           0.000001652   -0.000000680   -0.000000089
     18        1          -0.000000604    0.000000594   -0.000002852
     19        1           0.000000091    0.000000490   -0.000000149
     20        1           0.000000899    0.000000400    0.000000435
     21        1           0.000000273   -0.000000252    0.000002964
     22        1          -0.000000448   -0.000000224    0.000003255
     23        1          -0.000000670   -0.000000128    0.000001791
     24        6          -0.000000743   -0.000000002    0.000000182
     25        1          -0.000001387   -0.000000210   -0.000001144
     26        1           0.000000111    0.000000475   -0.000002128
     27        1          -0.000000965    0.000000076   -0.000001040
     28        8          -0.000000085   -0.000001063    0.000000107
     29        1          -0.000000268    0.000000794    0.000000482
     30        1           0.000001035   -0.000001463    0.000000405
     31        1          -0.000001461    0.000000984   -0.000001173
     32        1          -0.000001597    0.000000818    0.000000067
     33        1          -0.000001232    0.000001352   -0.000000666
 -------------------------------------------------------------------
 Cartesian Forces:  Max     0.000003255 RMS     0.000001158

 GradGradGradGradGradGradGradGradGradGradGradGradGradGradGradGradGradGrad
 Berny optimization.
 FormGI is forming the generalized inverse of G from B-inverse, IUseBI=4.
 Internal  Forces:  Max     0.000005518 RMS     0.000000803
 Search for a local minimum.
 Step number   1 out of a maximum of  196
 All quantities printed in internal units (Hartrees-Bohrs-Radians)
 Mixed Optimization -- En-DIIS/RFO-DIIS
 Second derivative matrix not updated -- first step.
 ITU=  0
     Eigenvalues ---    0.00230   0.00230   0.00230   0.00230   0.00230
     Eigenvalues ---    0.00230   0.00280   0.00466   0.00591   0.00652
     Eigenvalues ---    0.00692   0.01015   0.01556   0.02041   0.02168
     Eigenvalues ---    0.02177   0.02188   0.02188   0.02217   0.02277
     Eigenvalues ---    0.02306   0.02471   0.03698   0.03862   0.04093
     Eigenvalues ---    0.04353   0.04585   0.04935   0.05088   0.05508
     Eigenvalues ---    0.05741   0.05935   0.06045   0.06113   0.06302
     Eigenvalues ---    0.06988   0.07020   0.07219   0.07220   0.07391
     Eigenvalues ---    0.09023   0.09991   0.11562   0.13793   0.15468
     Eigenvalues ---    0.15997   0.15997   0.16000   0.16000   0.16000
     Eigenvalues ---    0.16000   0.16000   0.16000   0.16000   0.16000
     Eigenvalues ---    0.16542   0.20098   0.22000   0.23188   0.23430
     Eigenvalues ---    0.24957   0.26212   0.26647   0.28991   0.29707
     Eigenvalues ---    0.31467   0.31798   0.33947   0.33966   0.34100
     Eigenvalues ---    0.34232   0.34289   0.34316   0.34358   0.34366
     Eigenvalues ---    0.34387   0.34395   0.34602   0.34689   0.34728
     Eigenvalues ---    0.34787   0.35015   0.39952   0.42643   0.44459
     Eigenvalues ---    0.46631   0.46764   0.50331   0.52366   0.55511
     Eigenvalues ---    0.55604   0.55930   0.57698
 RFO step:  Lambda=-2.49136422D-08 EMin= 2.30000000D-03
 Linear search not attempted -- first point.
 Iteration  1 RMS(Cart)=  0.00277427 RMS(Int)=  0.00000168
 Iteration  2 RMS(Cart)=  0.00000319 RMS(Int)=  0.00000007
 Iteration  3 RMS(Cart)=  0.00000000 RMS(Int)=  0.00000007
 Variable       Old X    -DE/DX   Delta X   Delta X   Delta X     New X
                                 (Linear)    (Quad)   (Total)
    R1        2.63508   0.00000   0.00000   0.00000   0.00000   2.63509
    R2        2.51750   0.00000   0.00000   0.00000   0.00000   2.51750
    R3        2.06325   0.00000   0.00000   0.00000   0.00000   2.06326
    R4        2.63587   0.00000   0.00000   0.00000   0.00000   2.63587
    R5        2.84510   0.00000   0.00000   0.00000   0.00000   2.84510
    R6        2.62983  -0.00000   0.00000  -0.00000  -0.00000   2.62983
    R7        2.06184   0.00000   0.00000   0.00000   0.00000   2.06184
    R8        2.63332  -0.00000   0.00000  -0.00000  -0.00000   2.63332
    R9        2.05651   0.00000   0.00000   0.00000   0.00000   2.05651
   R10        2.52739   0.00000   0.00000   0.00000   0.00000   2.52739
   R11        2.06022   0.00000   0.00000   0.00000   0.00000   2.06022
   R12        2.92202  -0.00000   0.00000  -0.00000  -0.00000   2.92202
   R13        2.86854  -0.00000   0.00000  -0.00000  -0.00000   2.86854
   R14        2.07420  -0.00000   0.00000  -0.00000  -0.00000   2.07420
   R15        2.91970   0.00000   0.00000   0.00001   0.00001   2.91971
   R16        2.06682  -0.00000   0.00000  -0.00000  -0.00000   2.06682
   R17        2.06846  -0.00000   0.00000  -0.00000  -0.00000   2.06846
   R18        2.87909  -0.00000   0.00000   0.00000   0.00000   2.87910
   R19        2.06669  -0.00000   0.00000  -0.00000  -0.00000   2.06669
   R20        2.07162   0.00000   0.00000   0.00000   0.00000   2.07162
   R21        2.82050   0.00000   0.00000   0.00000   0.00000   2.82050
   R22        2.07388  -0.00000   0.00000  -0.00000  -0.00000   2.07388
   R23        2.06801  -0.00000   0.00000  -0.00000  -0.00000   2.06801
   R24        2.79419   0.00000   0.00000   0.00000   0.00000   2.79419
   R25        1.98315  -0.00000   0.00000  -0.00000  -0.00000   1.98315
   R26        3.21474  -0.00000   0.00000  -0.00001  -0.00001   3.21473
   R27        1.81381  -0.00000   0.00000  -0.00000  -0.00000   1.81381
   R28        1.86232  -0.00000   0.00000  -0.00000  -0.00000   1.86232
   R29        2.06718  -0.00000   0.00000  -0.00000  -0.00000   2.06718
   R30        2.06731  -0.00000   0.00000  -0.00000  -0.00000   2.06731
   R31        2.06941  -0.00000   0.00000  -0.00000  -0.00000   2.06941
   R32        3.23734  -0.00000   0.00000  -0.00001  -0.00001   3.23733
   R33        1.84250  -0.00000   0.00000  -0.00000  -0.00000   1.84250
   R34        1.81299  -0.00000   0.00000  -0.00000  -0.00000   1.81299
    A1        2.16394  -0.00000   0.00000   0.00000   0.00000   2.16394
    A2        2.10295   0.00000   0.00000   0.00000   0.00000   2.10295
    A3        2.01605  -0.00000   0.00000  -0.00000  -0.00000   2.01605
    A4        2.05258  -0.00000   0.00000  -0.00000  -0.00000   2.05257
    A5        2.09437   0.00000   0.00000   0.00001   0.00001   2.09437
    A6        2.13533  -0.00000   0.00000  -0.00000  -0.00000   2.13533
    A7        2.07680   0.00000   0.00000   0.00000   0.00000   2.07681
    A8        2.10578  -0.00000   0.00000  -0.00000  -0.00000   2.10577
    A9        2.10061  -0.00000   0.00000  -0.00000  -0.00000   2.10060
   A10        2.07069   0.00000   0.00000  -0.00000  -0.00000   2.07069
   A11        2.11452  -0.00000   0.00000  -0.00000  -0.00000   2.11452
   A12        2.09783  -0.00000   0.00000   0.00000   0.00000   2.09783
   A13        2.14512   0.00000   0.00000   0.00000   0.00000   2.14512
   A14        2.10679  -0.00000   0.00000  -0.00000  -0.00000   2.10679
   A15        2.03127  -0.00000   0.00000  -0.00000  -0.00000   2.03127
   A16        2.05577  -0.00000   0.00000  -0.00000  -0.00000   2.05577
   A17        2.04862   0.00000   0.00000   0.00001   0.00001   2.04863
   A18        1.93116  -0.00000   0.00000  -0.00001  -0.00001   1.93115
   A19        1.90769  -0.00000   0.00000  -0.00000  -0.00000   1.90769
   A20        1.81648   0.00000   0.00000  -0.00000  -0.00000   1.81648
   A21        1.91825  -0.00000   0.00000   0.00000   0.00000   1.91825
   A22        1.82764   0.00000   0.00000   0.00001   0.00001   1.82764
   A23        1.85168   0.00000   0.00000   0.00000   0.00000   1.85168
   A24        1.94164   0.00000   0.00000   0.00000   0.00000   1.94164
   A25        1.90448  -0.00000   0.00000  -0.00001  -0.00001   1.90447
   A26        1.94661  -0.00000   0.00000   0.00000   0.00000   1.94661
   A27        1.95138   0.00000   0.00000   0.00000   0.00000   1.95138
   A28        1.86883   0.00000   0.00000   0.00000   0.00000   1.86883
   A29        1.82314   0.00000   0.00000   0.00000   0.00000   1.82314
   A30        1.96911   0.00000   0.00000   0.00001   0.00001   1.96912
   A31        1.92987  -0.00000   0.00000  -0.00001  -0.00001   1.92986
   A32        1.94466  -0.00000   0.00000   0.00000   0.00000   1.94466
   A33        1.91322  -0.00000   0.00000  -0.00001  -0.00001   1.91321
   A34        1.88367   0.00000   0.00000  -0.00000  -0.00000   1.88367
   A35        1.79641  -0.00000   0.00000  -0.00000  -0.00000   1.79641
   A36        1.96355   0.00000   0.00000  -0.00000  -0.00000   1.96355
   A37        2.00522  -0.00000   0.00000  -0.00000  -0.00000   2.00522
   A38        1.87741  -0.00000   0.00000  -0.00000  -0.00000   1.87740
   A39        1.90586   0.00000   0.00000   0.00001   0.00001   1.90587
   A40        1.90784   0.00000   0.00000   0.00000   0.00000   1.90784
   A41        1.82988   0.00000   0.00000   0.00000   0.00000   1.82988
   A42        1.99264   0.00000   0.00000   0.00000   0.00000   1.99264
   A43        1.91213  -0.00000   0.00000  -0.00003  -0.00003   1.91211
   A44        2.00624  -0.00000   0.00000   0.00001   0.00001   2.00625
   A45        1.85605  -0.00000   0.00000  -0.00000  -0.00000   1.85605
   A46        1.86188   0.00000   0.00000   0.00001   0.00001   1.86189
   A47        2.21205   0.00000   0.00000   0.00001   0.00001   2.21206
   A48        2.16881  -0.00000   0.00000  -0.00003  -0.00003   2.16879
   A49        1.85014   0.00000   0.00000   0.00001   0.00001   1.85014
   A50        1.90004   0.00000   0.00000   0.00000   0.00000   1.90004
   A51        1.89969  -0.00000   0.00000  -0.00000  -0.00000   1.89969
   A52        1.90642  -0.00000   0.00000  -0.00000  -0.00000   1.90642
   A53        1.91199  -0.00000   0.00000  -0.00000  -0.00000   1.91199
   A54        1.92003   0.00000   0.00000   0.00000   0.00000   1.92003
   A55        1.92534   0.00000   0.00000   0.00000   0.00000   1.92534
   A56        2.03671  -0.00000   0.00000   0.00001   0.00001   2.03671
   A57        2.27964   0.00000   0.00000   0.00001   0.00001   2.27966
   A58        1.87833  -0.00000   0.00000   0.00000   0.00000   1.87833
   A59        3.32063  -0.00001   0.00000  -0.00241  -0.00241   3.31821
   A60        3.03090  -0.00000   0.00000  -0.00178  -0.00178   3.02913
   A61        3.14832  -0.00000   0.00000  -0.00052  -0.00052   3.14779
   A62        3.15523  -0.00000   0.00000  -0.00022  -0.00022   3.15501
    D1       -0.05034   0.00000   0.00000   0.00001   0.00001  -0.05033
    D2        3.04641  -0.00000   0.00000  -0.00001  -0.00001   3.04640
    D3        3.11620   0.00000   0.00000   0.00002   0.00002   3.11622
    D4       -0.07023   0.00000   0.00000   0.00000   0.00000  -0.07023
    D5        0.05081   0.00000   0.00000   0.00000   0.00000   0.05081
    D6       -3.11461  -0.00000   0.00000  -0.00001  -0.00001  -3.11462
    D7        0.00730  -0.00000   0.00000  -0.00001  -0.00001   0.00729
    D8       -3.13273  -0.00000   0.00000  -0.00001  -0.00001  -3.13274
    D9       -3.08833   0.00000   0.00000   0.00001   0.00001  -3.08832
   D10        0.05482   0.00000   0.00000   0.00001   0.00001   0.05483
   D11        0.91432   0.00000   0.00000   0.00006   0.00006   0.91438
   D12       -1.16608   0.00000   0.00000   0.00006   0.00006  -1.16602
   D13        3.11329   0.00000   0.00000   0.00006   0.00006   3.11335
   D14       -2.27431   0.00000   0.00000   0.00004   0.00004  -2.27427
   D15        1.92848   0.00000   0.00000   0.00005   0.00005   1.92852
   D16       -0.07534   0.00000   0.00000   0.00004   0.00004  -0.07529
   D17        0.03054   0.00000   0.00000   0.00000   0.00000   0.03055
   D18       -3.12971   0.00000   0.00000   0.00000   0.00000  -3.12971
   D19       -3.11260   0.00000   0.00000   0.00000   0.00000  -3.11260
   D20        0.01033   0.00000   0.00000   0.00000   0.00000   0.01033
   D21       -0.03140   0.00000   0.00000   0.00000   0.00000  -0.03140
   D22        3.10578  -0.00000   0.00000  -0.00000  -0.00000   3.10578
   D23        3.12867   0.00000   0.00000   0.00000   0.00000   3.12867
[...]
 0.00040073,0.00085638,0.00424881,0.00031182,-0.00087229,-0.00176307,-0
 .00034528,-0.00185111,0.00290100,-0.00427544,0.32484975,0.00176370,-0.
 00155395,-0.00007971,-0.00003696,-0.00013419,0.00049573,0.00006053,-0.
 00026953,0.00022888,0.00020427,-0.00095679,0.00117796,-0.00419366,-0.0
 0037500,-0.00111358,0.00473823,-0.01557532,-0.00417500,0.00094747,-0.0
 0035268,-0.00026975,-0.00005165,0.00010390,0.00014634,-0.00002992,-0.0
 0016583,-0.00011014,0.00023908,0.00003660,0.00019142,-0.00033070,0.000
 43347,0.00007884,-0.00555317,0.00680706,0.00179912,-0.00000282,0.00000
 119,-0.00003040,-0.00007078,0.00002951,0.00000577,0.00002304,0.0000139
 9,0.00002478,0.00005365,-0.00001570,0.00017135,-0.00006222,-0.00000824
 ,0.00001998,-0.00007186,0.00001541,0.00001377,-0.00019068,-0.00001820,
 0.00005127,0.00060716,-0.00025037,0.00018516,0.00030918,-0.00022135,-0
 .00025971,-0.00018028,-0.00030828,0.00017117,-0.00001838,-0.00014102,-
 0.00005062,0.00005321,0.00006391,-0.00011008,0.00015043,-0.00076344,-0
 .00015907,-0.00228018,-0.00134849,0.00049905,0.00363241,-0.01336237,-0
 .00032067,-0.02101227,0.70328180,-0.00044011,0.00037275,-0.00018342,0.
 00021172,-0.00051601,0.00022798,-0.00024544,-0.00006724,0.00003965,0.0
 0043016,-0.00036294,-0.00002300,-0.00116658,-0.00078393,0.00001204,0.0
 0090266,-0.00182536,0.00300938,0.00037032,-0.00020621,-0.00030522,0.00
 005421,0.00004772,-0.00005458,0.00004642,0.00002082,-0.00002875,-0.000
 15673,-0.00001575,-0.00009006,0.00013186,0.00065520,0.00016599,0.00938
 321,0.00283824,0.00100179,0.00002622,0.00001000,0.00003637,-0.00001012
 ,0.00001941,0.00002581,0.00003504,-0.00000849,-0.00008085,-0.00000792,
 0.00004687,0.00007268,-0.00002668,-0.00000775,0.00004350,-0.00008751,-
 0.00000218,0.00003338,-0.00007924,0.00001978,0.00007160,0.00077660,0.0
 0053437,-0.00043680,0.00012243,-0.00003655,0.00002243,-0.00004999,-0.0
 0013719,-0.00000618,0.00001876,-0.00007040,0.00000502,-0.00000917,0.00
 004689,-0.00003113,-0.00029516,-0.00146457,-0.00024866,-0.00011221,0.0
 0035816,-0.00006703,-0.00357705,-0.00040927,-0.00328669,-0.20129254,-0
 .07894323,0.15080084,0.00096626,-0.00470845,0.00124837,-0.00168431,-0.
 00020455,0.00019529,-0.00031218,0.00026040,-0.00021351,0.00006539,0.00
 023860,-0.00014723,0.00001618,0.00100015,0.00012895,-0.00530590,-0.001
 00485,-0.00199061,0.00003627,-0.00030769,0.00014858,-0.00001505,0.0000
 1611,0.00004224,-0.00001270,-0.00004752,0.00000375,-0.00000635,0.00001
 673,0.00001840,-0.00002439,0.00008534,-0.00000100,-0.00120962,-0.00140
 214,0.00011831,0.00000840,0.00001008,-0.00000578,0.00000196,0.00002016
 ,-0.00000434,-0.00003420,0.00002020,-0.00000955,-0.00000015,-0.0000449
 0,-0.00004303,0.00001792,0.00002119,-0.00001593,-0.00002125,-0.0000043
 5,0.00000235,-0.00005673,0.00000333,-0.00000962,-0.00194229,-0.0010841
 9,-0.00107413,-0.00004113,0.00024815,-0.00001526,-0.00000726,-0.000070
 78,-0.00005046,-0.00008258,0.00002680,-0.00005561,0.00000178,0.0000021
 2,0.00003350,-0.00022456,-0.00026054,0.00005992,0.00011825,0.00007926,
 -0.00000019,-0.00040137,0.00405184,0.00081764,-0.18121656,0.20706498,0
 .08772658,0.18070222,-0.00639444,-0.00200832,-0.00213933,0.00141131,0.
 00026640,-0.00110350,0.00000185,0.00035274,-0.00013881,-0.00007667,0.0
 0131994,-0.00171924,0.00588920,-0.00048929,0.00118894,-0.00517658,0.00
 380028,0.00512256,-0.00130395,0.00074725,0.00037050,0.00011004,-0.0001
 3480,-0.00018605,0.00002519,0.00025635,0.00012753,-0.00011453,-0.00006
 041,-0.00017170,0.00028327,-0.00105586,-0.00017484,-0.00545706,-0.0041
 3292,0.00125905,-0.00002142,-0.00003675,0.00001999,0.00007600,-0.00008
 529,-0.00001582,0.00003434,-0.00005476,0.00004508,-0.00003975,0.000063
 10,-0.00016877,0.00006287,-0.00001019,-0.00002080,0.00017739,0.0000114
 6,-0.00004070,0.00027240,-0.00000489,-0.00007944,0.00052184,0.00041480
 ,0.00104365,-0.00048901,0.00041847,0.00043513,0.00023947,0.00052311,-0
 .00018476,0.00007829,0.00016605,0.00018586,-0.00008063,-0.00009504,0.0
 0000463,0.00032968,0.00233578,0.00024449,0.00044247,-0.00008283,-0.000
 18653,0.00839516,0.00506449,-0.00248686,0.16360091,-0.29627753,-0.0740
 1662,-0.18352115,0.31155062,-0.00001891,-0.00073162,0.00079091,0.00007
 862,0.00047024,0.00031264,0.00003485,-0.00001504,-0.00004056,-0.000662
 03,0.00082587,0.00023009,0.00173781,0.00172634,-0.00018348,-0.00196403
 ,0.00076021,-0.00553008,-0.00012708,0.00012742,0.00008921,-0.00003235,
 -0.00001513,0.00001386,-0.00002189,0.00000653,0.00000813,0.00002824,-0
 .00001609,0.00000247,0.00000823,-0.00010466,-0.00007235,-0.00011548,0.
 00002425,0.00007176,-0.00000778,0.00000544,-0.00000596,0.00001100,-0.0
 0000302,-0.00000935,-0.00001459,0.00001154,0.00001193,-0.00001707,-0.0
 0001438,-0.00003683,0.00002012,0.00001055,-0.00001820,0.00001977,-0.00
 000512,-0.00001072,0.00005508,0.00000406,-0.00002831,-0.00080067,-0.00
 059363,0.00007909,-0.00018308,-0.00001764,-0.00017343,0.00007912,0.000
 20316,-0.00003656,0.00000701,0.00003041,-0.00008271,0.00006036,-0.0000
 4027,0.00007571,0.00011579,0.00024044,0.00012853,-0.00006308,-0.000019
 90,-0.00004560,0.00016008,-0.00078341,-0.00037859,0.09466661,-0.103493
 10,-0.05637625,-0.08218690,0.08382460,0.05716872,-0.00039825,-0.000256
 50,-0.00019325,0.00002612,-0.00005413,-0.00013089,0.00000387,0.0000482
 7,0.00001456,-0.00002334,0.00005856,-0.00018520,0.00047250,0.00002331,
 0.00012642,-0.00071817,0.00190900,0.00084854,-0.00002748,0.00003113,0.
 00003494,-0.00000573,-0.00000690,0.00001383,-0.00001558,-0.00004050,0.
 00000845,0.00004067,0.00000232,0.00002611,-0.00001830,-0.00008342,-0.0
 0003106,-0.00387900,0.00041253,0.00068084,-0.00000558,0.00000304,-0.00
 001366,0.00000062,0.00000137,-0.00000540,-0.00001048,0.00000273,0.0000
 1428,0.00001152,-0.00001565,-0.00000789,0.00000298,0.00000814,-0.00000
 753,0.00000963,-0.00000128,0.00000125,0.00000902,-0.00000258,-0.000013
 80,0.00002965,-0.00011353,0.00023010,-0.00004436,0.00008048,0.00004008
 ,0.00001745,0.00003775,-0.00002491,-0.00000197,0.00000947,0.00002703,-
 0.00000245,-0.00000904,0.00000303,0.00002819,0.00020488,0.00003546,-0.
 00060892,-0.00053583,0.00031136,0.00591663,-0.00221723,-0.00046262,-0.
 12359657,-0.18573513,0.10737338,0.01065632,0.02066939,-0.01087603,0.11
 212469,0.00030708,-0.00014496,0.00011383,-0.00003020,0.00020913,-0.000
 07756,0.00012041,-0.00004164,0.00001890,-0.00005736,-0.00001054,0.0001
 0035,-0.00007197,-0.00009074,-0.00015405,0.00065252,-0.00101458,-0.000
 55593,-0.00007798,-0.00001925,-0.00002802,-0.00000967,-0.00002088,-0.0
 0000226,0.00000614,0.00000098,0.00001847,-0.00007983,0.00000034,-0.000
 03871,0.00011571,0.00012871,-0.00000169,0.00311172,0.00055309,-0.00069
 760,0.00000765,0.00000890,0.00000414,0.00001325,0.00001241,0.00000011,
 -0.00002789,0.00000917,-0.00001718,-0.00000658,-0.00001063,-0.00002865
 ,0.00001216,0.00000955,-0.00000556,-0.00001251,-0.00000869,0.00000325,
 0.00001113,0.00001293,-0.00000363,-0.00014948,-0.00009086,0.00008455,0
 .00001286,-0.00006251,-0.00004235,-0.00000585,0.00001778,0.00003073,0.
 00000702,0.00001798,-0.00000695,0.00000111,-0.00000623,0.00005578,-0.0
 0011792,-0.00030057,-0.00000720,0.00007459,0.00025639,-0.00005785,-0.0
 0458872,-0.00045428,0.00105123,-0.14430157,-0.37865281,0.15402333,-0.0
 2047337,-0.02290222,0.01750652,0.16555975,0.40261063,-0.00004105,-0.00
 031706,-0.00014671,0.00002642,-0.00003140,0.00000202,0.00003852,-0.000
 03773,0.00003218,-0.00002148,-0.00007309,0.00010922,-0.00015866,-0.000
 04955,-0.00002669,0.00043595,-0.00120396,-0.00048076,0.00005244,-0.000
 00563,-0.00000760,-0.00002269,-0.00000196,0.00002851,-0.00001083,-0.00
 003640,-0.00000785,0.00002378,0.00000830,0.00003004,-0.00003262,0.0000
 1373,-0.00002742,0.00014560,-0.00000008,0.00028393,-0.00000217,0.00000
 657,-0.00000866,-0.00000680,0.00000572,-0.00000097,-0.00001152,0.00000
 849,0.00001209,0.00001168,-0.00001772,0.00000867,-0.00000359,0.0000008
 7,-0.00000407,-0.00000741,-0.00000464,0.00000247,-0.00000953,0.0000027
 8,-0.00000514,0.00011126,0.00000960,0.00022632,0.00001287,0.00000667,-
 0.00001139,-0.00000763,-0.00000726,0.00002366,0.00000287,-0.00000709,0
 .00001328,-0.00000294,-0.00000358,0.00002978,0.00001207,-0.00004451,0.
 00000311,0.00012783,0.00014266,0.00018513,-0.00059358,0.00012736,-0.00
 140684,0.10249037,0.18403448,-0.09436288,-0.00472290,-0.01121008,0.004
 05195,-0.09784103,-0.17131719,0.09145538,0.00018205,0.00023043,-0.0000
 4586,0.00020590,0.00004236,-0.00001244,0.00000853,-0.00012488,0.000058
 30,0.00008908,0.00000753,0.00003855,0.00002526,-0.00001048,0.00002420,
 -0.00011094,-0.00010850,-0.00003869,-0.00014602,0.00017731,-0.00058320
 ,0.00013383,0.00007377,-0.00038617,0.00003090,-0.00006614,0.00000484,0
 .00082405,-0.00062427,-0.00052979,0.00058968,-0.00388118,-0.00405764,0
 .00011079,0.00013522,-0.00066054,0.00000465,-0.00012901,0.00008372,-0.
 00000066,-0.00000487,-0.00000483,-0.00001562,-0.00000417,0.00003937,-0
 .00001690,0.00001058,-0.00009728,0.00002510,-0.00002837,-0.00000908,0.
 00014450,0.00022113,-0.00016976,-0.00008636,0.00018111,-0.00001744,0.0
 0000518,-0.00000143,0.00003177,-0.00000395,-0.00000448,0.00000034,-0.0
 0000504,-0.00000308,0.00000181,-0.00001243,-0.00007499,-0.00003206,-0.
 10054704,0.08613981,0.07081917,-0.00000018,0.00040386,0.00088917,0.000
 10529,-0.00025614,0.00023027,-0.00029672,-0.00001939,0.00011776,0.0001
 2846,-0.00006738,-0.00009094,-0.00001662,0.00014951,0.00003055,0.00001
 041,-0.00000838,0.00000787,0.10106454,0.00000140,-0.00002880,0.0000136
 4,0.00007988,0.00014108,0.00003498,-0.00000274,-0.00012784,0.00002788,
 -0.00005470,0.00002549,-0.00000744,-0.00002892,0.00000487,-0.00002304,
 0.00003824,0.00001910,-0.00000976,0.00061383,-0.00137250,0.00161875,0.
 00003005,0.00066903,0.00055122,-0.00026961,0.00008462,-0.00020314,-0.0
 0047340,0.00051155,0.00006482,-0.00650524,0.00943068,0.01104029,0.0002
 8401,0.00002782,-0.00020923,0.00014340,-0.00025034,-0.00009681,0.00000
 146,-0.00000752,-0.00000660,-0.00000292,-0.00001611,0.00002231,-0.0000
 4809,0.00006642,0.00005580,0.00003095,-0.00003682,0.00021943,-0.000058
 84,0.00012659,-0.00014889,0.00011054,0.00056670,0.00013015,0.00001318,
 0.00001517,0.00000267,0.00000497,0.00000785,0.00000113,-0.00000854,-0.
 00000327,-0.00000679,-0.00005656,0.00008347,0.00002515,0.08727097,-0.1
 9351861,-0.11689186,-0.00030175,0.00079189,-0.00022406,-0.00006044,-0.
 00012283,0.00014259,-0.00016705,0.00001167,0.00002368,0.00007152,0.000
 01176,-0.00003494,-0.00000042,0.00001527,0.00000447,0.00000340,-0.0000
 0805,0.00000384,-0.09257964,0.19891651,0.00013982,0.00006901,0.0000535
 5,-0.00046094,-0.00015499,0.00006875,0.00004583,0.00017319,0.00005244,
 0.00012450,0.00001166,0.00007071,0.00005855,-0.00006147,0.00000480,-0.
 00003180,0.00004393,0.00001588,-0.00260121,0.00435066,-0.00309868,0.00
 072809,-0.00115503,-0.00081968,0.00033128,0.00002801,-0.00005522,0.001
 43509,-0.00113098,0.00116871,0.01563952,-0.02415730,-0.02686789,-0.000
 37331,0.00008468,0.00043125,-0.00025364,0.00001632,-0.00006105,-0.0000
 5345,0.00005412,0.00006687,-0.00004290,0.00002326,0.00002304,-0.000156
 74,0.00003361,-0.00026564,-0.00012082,0.00012955,-0.00040132,-0.000534
 21,0.00045348,-0.00019870,-0.00012905,0.00004633,0.00008034,-0.0000066
 2,-0.00004438,-0.00001734,-0.00000262,-0.00000910,-0.00000104,0.000020
 34,0.00000382,-0.00000455,-0.00001243,-0.00007395,-0.00006251,0.064500
 48,-0.10608089,-0.13558915,0.00020365,-0.00131984,0.00007669,0.0001154
 0,0.00030743,-0.00010573,0.00025361,0.00003494,-0.00003670,-0.00012204
 ,0.00001074,0.00004661,0.00000694,-0.00006212,-0.00001206,-0.00000588,
 0.00000843,0.00000149,-0.07326231,0.11881592,0.15584697,0.00027338,0.0
 0012633,0.00001253,0.00020333,-0.00009028,0.00093480,-0.00036044,0.000
 27146,0.00030838,0.00005584,0.00008981,0.00001776,-0.00003617,-0.00015
 311,0.00002432,-0.00016814,0.00002192,-0.00009032,-0.00016163,0.000345
 60,0.00039595,-0.00015291,-0.00002687,-0.00008065,0.00006705,0.0000362
 5,0.00026347,0.00094729,-0.00006453,0.00022723,0.00106224,-0.00000045,
 -0.00014882,0.00002593,0.00001950,0.00023407,0.00022425,0.00016090,0.0
 0011438,0.00000857,0.00000552,-0.00000308,0.00002505,-0.00000665,-0.00
 006438,0.00005218,-0.00002302,0.00001217,0.00000570,-0.00000689,0.0000
 0719,0.00001775,-0.00005932,0.00011514,-0.00008654,-0.00010433,-0.0000
 8234,-0.00001264,0.00002008,0.00000258,-0.00000373,-0.00000495,0.00000
 240,0.00000198,0.00000714,-0.00000342,0.00002377,-0.00009856,-0.000026
 88,-0.31660981,0.02288425,-0.06357588,0.00002298,-0.00006179,-0.000551
 80,-0.00005374,0.00005540,-0.00006742,0.00009377,0.00002570,-0.0000359
 6,-0.00003948,0.00002644,0.00000151,0.00001040,-0.00004594,0.00000639,
 -0.00000329,0.00000153,-0.00000468,-0.00949136,-0.00114704,-0.00292028
 ,0.33398479,0.00022532,0.00011954,-0.00008263,-0.00003042,0.00002620,-
 0.00023950,0.00003215,0.00017324,-0.00017690,0.00016522,-0.00003027,0.
 00009891,-0.00000580,-0.00004647,0.00003945,-0.00028051,-0.00018187,-0
 .00005801,-0.00020935,0.00025950,-0.00058473,0.00003012,-0.00014717,-0
 .00000058,0.00077225,0.00050797,0.00018834,-0.00128519,-0.00022879,0.0
 0166131,0.01154736,-0.00295598,0.00395236,-0.00024894,0.00021528,-0.00
 048942,0.00037473,0.00020719,0.00005745,-0.00007777,-0.00002854,0.0002
 5114,0.00002280,-0.00003455,-0.00011109,0.00000444,0.00001355,0.000007
 83,-0.00000926,0.00000489,0.00000997,-0.00028286,0.00019580,-0.0001800
 7,-0.00023997,-0.00008404,0.00017010,0.00000286,-0.00002039,0.00004620
 ,-0.00001020,-0.00001655,0.00000597,0.00001321,-0.00000050,-0.00000301
 ,-0.00000414,-0.00024186,-0.00013025,0.01914009,-0.05110780,0.00541017
 ,0.00105927,0.00028794,0.00015562,0.00013229,-0.00008489,0.00005745,-0
 .00016132,-0.00011607,0.00020721,0.00010658,-0.00004478,-0.00012134,-0
 .00003791,0.00015750,0.00007939,0.00000889,-0.00001752,0.00000126,0.02
 113875,-0.00081367,0.00617152,-0.02538003,0.04923343,0.00023533,0.0004
 9070,-0.00006820,-0.00000929,-0.00012794,-0.00062771,0.00052234,-0.000
 31701,-0.00006549,0.00006998,-0.00010064,0.00005114,0.00004131,-0.0000
 3767,-0.00000045,-0.00018383,-0.00009959,-0.00001597,-0.00132711,0.000
 42218,0.00122573,-0.00020629,0.00020846,0.00017122,-0.00210059,0.00013
 185,-0.00048730,0.00356703,0.00123169,-0.00493868,-0.03783786,0.004561
 06,-0.01405259,0.00024830,0.00010595,-0.00001614,0.00013785,-0.0001582
 0,-0.00003608,0.00018729,0.00009931,-0.00060709,0.00001300,0.00001238,
 -0.00005907,0.00006393,-0.00003217,-0.00001779,0.00004010,-0.00002427,
 0.00003232,-0.00018981,0.00024446,-0.00008380,0.00008668,-0.00021487,-
 0.00007195,-0.00002380,-0.00005294,0.00004297,-0.00001320,-0.00000731,
 0.00000963,-0.00001870,0.00001305,0.00001762,0.00001743,-0.00005678,-0
 .00000049,-0.05108523,0.00495171,-0.06121269,-0.00065542,-0.00074464,0
 .00081219,0.00003562,0.00002968,0.00000730,-0.00011807,0.00011024,0.00
 003568,0.00005646,-0.00016456,-0.00004702,-0.00000232,0.00020500,0.000
 02242,0.00000622,0.00001894,0.00000114,0.01766241,-0.00021600,0.005853
 13,0.06695370,-0.00919321,0.07284686,0.00005198,0.00001093,0.00008173,
 -0.00016848,0.00011972,0.00007028,0.00004960,-0.00035969,0.00005542,0.
 00001745,0.00007279,-0.00005247,0.00002644,-0.00002532,-0.00000705,0.0
 0008292,0.00011105,-0.00003432,-0.00027580,-0.00081781,0.00001088,0.00
 005932,0.00017706,0.00003532,-0.00001797,-0.00000439,-0.00017372,0.001
 35254,0.00160723,-0.00029070,0.00086112,0.00433664,-0.00120028,0.00007
 493,-0.00007120,0.00012834,0.00004647,-0.00022024,-0.00021777,-0.00002
 350,-0.00001323,0.00001210,-0.00006859,-0.00002467,0.00001167,-0.00007
 715,0.00006786,-0.00005513,0.00000685,0.00001101,0.00002436,-0.0000638
 1,0.00001244,-0.00002393,0.00003228,0.00031180,0.00055275,-0.00000700,
 0.00001771,-0.00000608,0.00000571,0.00001511,0.00000131,-0.00000943,-0
 .00000650,0.00000157,-0.00003843,0.00016218,0.00007232,-0.11192767,-0.
 11702456,0.01515716,0.00026008,0.00057889,-0.00088248,-0.00002544,-0.0
 0001316,0.00002786,0.00002899,0.00005493,-0.00009171,-0.00002752,0.000
 01425,0.00003630,0.00001385,-0.00004947,-0.00002862,-0.00000081,0.0000
 0468,0.00000159,0.00706164,0.01306806,-0.00251284,-0.00992637,-0.02651
 265,0.00382656,0.11262579,0.00008967,-0.00002780,0.00000264,-0.0000150
 9,-0.00009661,-0.00002046,-0.00003044,-0.00003338,0.00001098,-0.000010
 56,0.00000689,0.00001728,0.00001055,-0.00001055,-0.00001053,-0.0000359
 4,0.00004037,0.00002218,0.00057685,0.00095875,-0.00132314,0.00012329,0
 .00023440,-0.00013678,0.00023329,0.00031884,0.00000558,-0.00080080,-0.
 00010278,-0.00073357,-0.00395457,-0.00965951,0.00295426,-0.00016159,-0
 .00038154,0.00011712,0.00072530,0.00010620,0.00048237,-0.00000995,0.00
 000762,0.00008152,0.00006458,0.00000974,-0.00020025,-0.00001693,0.0000
 2194,-0.00006544,0.00000275,-0.00001828,0.00005938,-0.00000534,-0.0000
 2932,0.00002236,-0.00022688,0.00051837,0.00024053,-0.00001259,0.000009
 55,-0.00001948,-0.00000067,-0.00000020,-0.00000257,0.00000385,0.000003
 91,0.00000172,-0.00000378,0.00001490,-0.00000093,-0.11415448,-0.261854
 79,0.02747370,0.00091106,0.00162878,0.00128594,-0.00006220,0.00009842,
 -0.00006913,0.00019723,0.00000997,-0.00007215,-0.00009116,-0.00000271,
 0.00003643,0.00000736,-0.00003253,-0.00000843,-0.00000271,0.00000897,-
 0.00000338,-0.01091458,-0.01522121,0.00337946,0.00317593,0.00479968,-0
 .00128887,0.12438855,0.27867390,-0.00004980,0.00016914,-0.00008809,-0.
 00002745,-0.00034067,0.00002576,-0.00003373,0.00006515,0.00006089,0.00
 004922,-0.00000936,0.00001397,0.00003492,-0.00003556,0.00001088,-0.000
 04279,-0.00006980,0.00002453,-0.00017782,0.00317813,0.00168860,-0.0001
 9295,-0.00026545,0.00027412,-0.00011171,-0.00020980,0.00012671,0.00254
 054,0.00049436,0.00131417,0.01763583,0.03587604,-0.01313362,0.00026314
 ,0.00080742,0.00055944,-0.00080868,-0.00038584,0.00000874,0.00000231,-
 0.00007205,-0.00002520,-0.00001592,-0.00010162,0.00011660,0.00003302,-
 0.00005350,0.00012548,-0.00003677,-0.00000491,-0.00005741,-0.00025821,
 -0.00010026,-0.00006658,0.00011450,-0.00104317,-0.00039207,-0.00002839
 ,-0.00004706,0.00005850,-0.00000109,-0.00000782,0.00000119,-0.00000166
 ,-0.00000139,0.00000311,0.00003804,-0.00004295,-0.00000622,0.00934215,
 0.01720737,-0.05102441,-0.00184011,-0.00124946,-0.00618625,0.00014295,
 0.00027238,-0.00014471,-0.00006275,0.00012359,0.00004889,0.00004298,-0
 .00002617,0.00001343,-0.00000248,0.00002894,-0.00001638,0.00000329,0.0
 0000384,-0.00000342,-0.01004208,-0.01472020,0.00373601,-0.00197809,-0.
 00720095,0.00127916,-0.01453041,-0.03223835,0.06165417\\-0.00000114,0.
 00000003,-0.00000099,0.00000003,-0.00000003,-0.00000076,0.00000032,0.0
 0000015,-0.00000161,0.00000027,0.00000024,-0.00000273,0.00000023,0.000
 00016,-0.00000238,-0.00000088,0.00000045,-0.00000059,-0.00000013,-0.00
 000061,0.00000037,-0.00000103,0.00000100,0.00000046,-0.00000124,0.0000
 0002,0.00000167,0.00000068,0.00000063,0.00000135,0.00000109,-0.0000013
 6,0.00000028,0.00000109,0.00000160,0.00000075,0.00000042,-0.00000031,0
 .00000164,-0.00000126,0.00000044,0.00000186,-0.00000113,0.00000029,0.0
 0000216,-0.00000128,0.00000047,0.00000016,-0.00000141,0.00000066,0.000
 00077,0.00000015,-0.00000040,0.00000226,0.00000041,-0.00000003,-0.0000
 0033,-0.00000111,0.00000111,0.00000015,0.00000003,0.00000038,-0.000002
 81,0.00000067,-0.00000002,-0.00000313,0.00000052,-0.00000013,-0.000001
 70,0.00000142,-0.00000093,0.00000054,-0.00000185,0.00000062,0.00000161
 ,-0.00000053,-0.00000097,0.00000193,0.00000111,-0.00000274,-0.00000124
 ,-0.00000045,0.00000092,0.00000112,0.00000118,0.00000090,-0.00000227,-
 0.00000089,0.00000015,-0.00000028,0.00000165,-0.00000104,0.00000106,0.
 00000150,-0.00000090,0.00000006,0.00000156,-0.00000078,0.00000063\\\@


 IF THE FACTS DO NOT CONFORM TO THE THEORY, THEY MUST BE DISPOSED OF.
 Job cpu time:       0 days 18 hours 28 minutes 55.6 seconds.
 Elapsed time:       0 days  0 hours 39 minutes 39.5 seconds.
 File lengths (MBytes):  RWF=    908 Int=      0 D2E=      0 Chk=     28 Scr=      8
 Normal termination of Gaussian 16 at Sun Nov 14 16:58:42 2021.
