 Entering Gaussian System, Link 0=g16
 Input=NicPyWa5h17wB97XD130K.gjf
 Output=NicPyWa5h17wB97XD130K.log
 Initial command:
 /sw/contrib/gaussian/g16/A03/g16/l1.exe "/gscratch/scrubbed/gds001/Gau-14251.inp" -scrdir="/gscratch/scrubbed/gds001/"
 Entering Link 1 = /sw/contrib/gaussian/g16/A03/g16/l1.exe PID=     14253.
  
 Copyright (c) 1988,1990,1992,1993,1995,1998,2003,2009,2016,
            Gaussian, Inc.  All Rights Reserved.
  
 This is part of the Gaussian(R) 16 program.  It is based on
 the Gaussian(R) 09 system (copyright 2009, Gaussian, Inc.),
 the Gaussian(R) 03 system (copyright 2003, Gaussian, Inc.),
 the Gaussian(R) 98 system (copyright 1998, Gaussian, Inc.),
 the Gaussian(R) 94 system (copyright 1995, Gaussian, Inc.),
 the Gaussian 92(TM) system (copyright 1992, Gaussian, Inc.),
 the Gaussian 90(TM) system (copyright 1990, Gaussian, Inc.),
 the Gaussian 88(TM) system (copyright 1988, Gaussian, Inc.),
 the Gaussian 86(TM) system (copyright 1986, Carnegie Mellon
 University), and the Gaussian 82(TM) system (copyright 1983,
 Carnegie Mellon University). Gaussian is a federally registered
 trademark of Gaussian, Inc.
  
 This software contains proprietary and confidential information,
 including trade secrets, belonging to Gaussian, Inc.
  
 This software is provided under written license and may be
 used, copied, transmitted, or stored only in accord with that
 written license.
  
 The following legend is applicable only to US Government
 contracts under FAR:
  
                    RESTRICTED RIGHTS LEGEND
  
 Use, reproduction and disclosure by the US Government is
 subject to restrictions as set forth in subparagraphs (a)
 and (c) of the Commercial Computer Software - Restricted
 Rights clause in FAR 52.227-19.
  
 Gaussian, Inc.
 340 Quinnipiac St., Bldg. 40, Wallingford CT 06492
  
  
 ---------------------------------------------------------------
 Warning -- This program may not be used in any manner that
 competes with the business of Gaussian, Inc. or will provide
 assistance to any competitor of Gaussian, Inc.  The licensee
 of this program is prohibited from giving any competitor of
 Gaussian, Inc. access to this program.  By using this program,
 the user acknowledges that Gaussian, Inc. is engaged in the
 business of creating and licensing software in the field of
 computational chemistry and represents and warrants to the
 licensee that it is not a competitor of Gaussian, Inc. and that
 it will not use this program in any manner prohibited above.
 ---------------------------------------------------------------
  

 Cite this work as:
 Gaussian 16, Revision A.03,
 M. J. Frisch, G. W. Trucks, H. B. Schlegel, G. E. Scuseria, 
 M. A. Robb, J. R. Cheeseman, G. Scalmani, V. Barone, 
 G. A. Petersson, H. Nakatsuji, X. Li, M. Caricato, A. V. Marenich, 
 J. Bloino, B. G. Janesko, R. Gomperts, B. Mennucci, H. P. Hratchian, 
 J. V. Ortiz, A. F. Izmaylov, J. L. Sonnenberg, D. Williams-Young, 
 F. Ding, F. Lipparini, F. Egidi, J. Goings, B. Peng, A. Petrone, 
 T. Henderson, D. Ranasinghe, V. G. Zakrzewski, J. Gao, N. Rega, 
 G. Zheng, W. Liang, M. Hada, M. Ehara, K. Toyota, R. Fukuda, 
 J. Hasegawa, M. Ishida, T. Nakajima, Y. Honda, O. Kitao, H. Nakai, 
 T. Vreven, K. Throssell, J. A. Montgomery, Jr., J. E. Peralta, 
 F. Ogliaro, M. J. Bearpark, J. J. Heyd, E. N. Brothers, K. N. Kudin, 
 V. N. Staroverov, T. A. Keith, R. Kobayashi, J. Normand, 
 K. Raghavachari, A. P. Rendell, J. C. Burant, S. S. Iyengar, 
 J. Tomasi, M. Cossi, J. M. Millam, M. Klene, C. Adamo, R. Cammi, 
 J. W. Ochterski, R. L. Martin, K. Morokuma, O. Farkas, 
 J. B. Foresman, and D. J. Fox, Gaussian, Inc., Wallingford CT, 2016.
 
 ******************************************
 Gaussian 16:  ES64L-G16RevA.03 25-Dec-2016
                15-Jul-2021 
 ******************************************
 %nprocshared=28
 Will use up to   28 processors via shared memory.
 %mem=41GB
 %chk=NicPyWa5h17.chk
 ---------------------------------------------
 # wB97XD/aug-cc-pVDZ opt freq temperature=130
 ---------------------------------------------
 1/18=20,19=15,26=3,38=1,112=130000/1,3;
 2/9=110,12=2,17=6,18=5,40=1/2;
 3/5=16,7=10,11=2,25=1,30=1,71=1,74=-58/1,2,3;
 4//1;
 5/5=2,38=5/2;
 6/7=2,8=2,9=2,10=2,28=1/1;
 7//1,2,3,16;
 1/18=20,19=15,26=3/3(2);
 2/9=110/2;
 99//99;
 2/9=110/2;
 3/5=16,7=10,11=2,25=1,30=1,71=1,74=-58/1,2,3;
 4/5=5,16=3,69=1/1;
 5/5=2,38=5/2;
 7//1,2,3,16;
 1/18=20,19=15,26=3/3(-5);
 2/9=110/2;
 6/7=2,8=2,9=2,10=2,19=2,28=1/1;
 99/9=1/99;
 --------
 Nicotine
 --------
 Symbolic Z-matrix:
 Charge =  1 Multiplicity = 1
 C                    -2.42538  -0.10146   1.57027 
 C                    -2.32273   0.95421   0.44391 
 N                    -2.89656   0.26587  -0.72842 
 C                    -4.0561   -0.47197  -0.19668 
 C                    -3.4883   -1.10935   1.07384 
 C                    -0.93757   1.4859    0.14878 
 C                    -0.70875   2.85104  -0.03214 
 C                     0.56648   3.3314   -0.33317 
 C                     1.60321   2.42546  -0.44471 
 N                     1.37053   1.11699  -0.26066 
 C                     0.15648   0.63325   0.02582 
 O                     3.39257  -0.47541  -0.49024 
 O                     2.63246  -3.00657  -0.06535 
 O                    -0.05786  -2.69673   0.43164 
 O                    -1.25863  -1.74192  -1.74292 
 H                    -4.41183  -1.20405  -0.93034 
 H                    -4.26818  -1.30076   1.81747 
 H                    -3.01537  -2.06745   0.82864 
 H                    -2.71352   0.38157   2.50972 
 H                    -1.46686  -0.60244   1.74232 
 H                    -4.88853   0.20881   0.04669 
 H                    -2.953     1.81805   0.71654 
 H                     0.09393  -0.44568   0.16341 
 H                     2.62861   2.7057   -0.67436 
 H                     0.75317   4.3929   -0.47674 
 H                    -1.53795   3.55275   0.06586 
 C                    -3.30862   1.20353  -1.78799 
 H                     2.20788   0.4327   -0.33636 
 H                    -0.57095  -2.5496   -0.39269 
 H                    -0.52428  -3.36628   0.93703 
 H                     3.19768  -1.43377  -0.38109 
 H                     4.2153   -0.2846   -0.00384 
 H                     2.81434  -3.74355  -0.65242 
 H                     1.67051  -3.01701   0.10604 
 H                    -1.86531  -1.0056   -1.4826 
 H                    -1.58187  -2.11248  -2.56634 
 O                     5.7025    0.27215   0.83563 
 H                     6.52609   0.29298   0.34 
 H                     5.93472  -0.06904   1.70387 
 H                    -3.76065   0.64124  -2.63287 
 H                    -2.42397   1.74424  -2.18499 
 H                    -4.04762   1.94574  -1.4126 
 
 Add virtual bond connecting atoms H28        and O12        Dist= 2.84D+00.
 Add virtual bond connecting atoms H31        and O13        Dist= 3.21D+00.
 Add virtual bond connecting atoms H29        and O15        Dist= 3.24D+00.
 Add virtual bond connecting atoms N3         and H35        Dist= 3.41D+00.
 Add virtual bond connecting atoms H34        and O14        Dist= 3.38D+00.
 Add virtual bond connecting atoms O37        and H32        Dist= 3.39D+00.

 GradGradGradGradGradGradGradGradGradGradGradGradGradGradGradGradGradGrad
 Berny optimization.
 Initialization pass.
                           ----------------------------
                           !    Initial Parameters    !
                           ! (Angstroms and Degrees)  !
 --------------------------                            --------------------------
 ! Name  Definition              Value          Derivative Info.                !
 --------------------------------------------------------------------------------
 ! R1    R(1,2)                  1.5471         estimate D2E/DX2                !
 ! R2    R(1,5)                  1.5466         estimate D2E/DX2                !
 ! R3    R(1,19)                 1.0949         estimate D2E/DX2                !
 ! R4    R(1,20)                 1.0952         estimate D2E/DX2                !
 ! R5    R(2,3)                  1.4756         estimate D2E/DX2                !
 ! R6    R(2,6)                  1.5128         estimate D2E/DX2                !
 ! R7    R(2,22)                 1.1035         estimate D2E/DX2                !
 ! R8    R(3,4)                  1.4737         estimate D2E/DX2                !
 ! R9    R(3,27)                 1.4737         estimate D2E/DX2                !
 ! R10   R(3,35)                 1.8025         estimate D2E/DX2                !
 ! R11   R(4,5)                  1.5306         estimate D2E/DX2                !
 ! R12   R(4,16)                 1.0958         estimate D2E/DX2                !
 ! R13   R(4,21)                 1.1026         estimate D2E/DX2                !
 ! R14   R(5,17)                 1.0945         estimate D2E/DX2                !
 ! R15   R(5,18)                 1.0962         estimate D2E/DX2                !
 ! R16   R(6,7)                  1.396          estimate D2E/DX2                !
 ! R17   R(6,11)                 1.3925         estimate D2E/DX2                !
 ! R18   R(7,8)                  1.3956         estimate D2E/DX2                !
 ! R19   R(7,26)                 1.0907         estimate D2E/DX2                !
 ! R20   R(8,9)                  1.3813         estimate D2E/DX2                !
 ! R21   R(8,25)                 1.0873         estimate D2E/DX2                !
 ! R22   R(9,10)                 1.3417         estimate D2E/DX2                !
 ! R23   R(9,24)                 1.0875         estimate D2E/DX2                !
 ! R24   R(10,11)                1.3379         estimate D2E/DX2                !
 ! R25   R(10,28)                1.084          estimate D2E/DX2                !
 ! R26   R(11,23)                1.0895         estimate D2E/DX2                !
 ! R27   R(12,28)                1.5006         estimate D2E/DX2                !
 ! R28   R(12,31)                0.984          estimate D2E/DX2                !
 ! R29   R(12,32)                0.9746         estimate D2E/DX2                !
 ! R30   R(13,31)                1.7008         estimate D2E/DX2                !
 ! R31   R(13,33)                0.9596         estimate D2E/DX2                !
 ! R32   R(13,34)                0.9772         estimate D2E/DX2                !
 ! R33   R(14,29)                0.9821         estimate D2E/DX2                !
 ! R34   R(14,30)                0.9598         estimate D2E/DX2                !
 ! R35   R(14,34)                1.7877         estimate D2E/DX2                !
 ! R36   R(15,29)                1.7171         estimate D2E/DX2                !
 ! R37   R(15,35)                0.9889         estimate D2E/DX2                !
 ! R38   R(15,36)                0.9591         estimate D2E/DX2                !
 ! R39   R(27,40)                1.111          estimate D2E/DX2                !
 ! R40   R(27,41)                1.1102         estimate D2E/DX2                !
 ! R41   R(27,42)                1.1126         estimate D2E/DX2                !
 ! R42   R(32,37)                1.7962         estimate D2E/DX2                !
 ! R43   R(37,38)                0.9615         estimate D2E/DX2                !
 ! R44   R(37,39)                0.9613         estimate D2E/DX2                !
 ! A1    A(2,1,5)              104.8669         estimate D2E/DX2                !
 ! A2    A(2,1,19)             109.9435         estimate D2E/DX2                !
 ! A3    A(2,1,20)             111.6191         estimate D2E/DX2                !
 ! A4    A(5,1,19)             112.459          estimate D2E/DX2                !
 ! A5    A(5,1,20)             110.7216         estimate D2E/DX2                !
 ! A6    A(19,1,20)            107.2974         estimate D2E/DX2                !
 ! A7    A(1,2,3)              103.5499         estimate D2E/DX2                !
 ! A8    A(1,2,6)              116.2702         estimate D2E/DX2                !
 ! A9    A(1,2,22)             108.4434         estimate D2E/DX2                !
 ! A10   A(3,2,6)              111.4096         estimate D2E/DX2                !
 ! A11   A(3,2,22)             109.836          estimate D2E/DX2                !
 ! A12   A(6,2,22)             107.2196         estimate D2E/DX2                !
 ! A13   A(2,3,4)              104.6481         estimate D2E/DX2                !
 ! A14   A(2,3,27)             112.5287         estimate D2E/DX2                !
 ! A15   A(2,3,35)             116.039          estimate D2E/DX2                !
 ! A16   A(4,3,27)             110.977          estimate D2E/DX2                !
 ! A17   A(4,3,35)             104.3577         estimate D2E/DX2                !
 ! A18   A(27,3,35)            107.9367         estimate D2E/DX2                !
 ! A19   A(3,4,5)              102.4808         estimate D2E/DX2                !
 ! A20   A(3,4,16)             110.3864         estimate D2E/DX2                !
 ! A21   A(3,4,21)             111.381          estimate D2E/DX2                !
 ! A22   A(5,4,16)             113.451          estimate D2E/DX2                !
 ! A23   A(5,4,21)             110.73           estimate D2E/DX2                !
 ! A24   A(16,4,21)            108.3736         estimate D2E/DX2                !
 ! A25   A(1,5,4)              104.4775         estimate D2E/DX2                !
 ! A26   A(1,5,17)             112.6807         estimate D2E/DX2                !
 ! A27   A(1,5,18)             110.1726         estimate D2E/DX2                !
 ! A28   A(4,5,17)             111.8686         estimate D2E/DX2                !
 ! A29   A(4,5,18)             109.7745         estimate D2E/DX2                !
 ! A30   A(17,5,18)            107.8506         estimate D2E/DX2                !
 ! A31   A(2,6,7)              121.2705         estimate D2E/DX2                !
 ! A32   A(2,6,11)             121.427          estimate D2E/DX2                !
 ! A33   A(7,6,11)             117.2951         estimate D2E/DX2                !
 ! A34   A(6,7,8)              120.9539         estimate D2E/DX2                !
 ! A35   A(6,7,26)             119.5317         estimate D2E/DX2                !
 ! A36   A(8,7,26)             119.5142         estimate D2E/DX2                !
 ! A37   A(7,8,9)              118.5222         estimate D2E/DX2                !
 ! A38   A(7,8,25)             121.4273         estimate D2E/DX2                !
 ! A39   A(9,8,25)             120.0503         estimate D2E/DX2                !
 ! A40   A(8,9,10)             119.893          estimate D2E/DX2                !
 ! A41   A(8,9,24)             123.7599         estimate D2E/DX2                !
 ! A42   A(10,9,24)            116.3465         estimate D2E/DX2                !
 ! A43   A(9,10,11)            122.6404         estimate D2E/DX2                !
 ! A44   A(9,10,28)            118.1687         estimate D2E/DX2                !
 ! A45   A(11,10,28)           119.1861         estimate D2E/DX2                !
 ! A46   A(6,11,10)            120.6936         estimate D2E/DX2                !
 ! A47   A(6,11,23)            123.3761         estimate D2E/DX2                !
 ! A48   A(10,11,23)           115.9263         estimate D2E/DX2                !
 ! A49   A(28,12,31)           114.938          estimate D2E/DX2                !
 ! A50   A(28,12,32)           119.7875         estimate D2E/DX2                !
 ! A51   A(31,12,32)           107.6073         estimate D2E/DX2                !
 ! A52   A(31,13,33)           122.2499         estimate D2E/DX2                !
 ! A53   A(31,13,34)           111.6901         estimate D2E/DX2                !
 ! A54   A(33,13,34)           106.5996         estimate D2E/DX2                !
 ! A55   A(29,14,30)           107.0137         estimate D2E/DX2                !
 ! A56   A(29,14,34)           112.2769         estimate D2E/DX2                !
 ! A57   A(30,14,34)           116.1514         estimate D2E/DX2                !
 ! A58   A(29,15,35)           112.8871         estimate D2E/DX2                !
 ! A59   A(29,15,36)           128.9299         estimate D2E/DX2                !
 ! A60   A(35,15,36)           107.8734         estimate D2E/DX2                !
 ! A61   A(3,27,40)            109.7868         estimate D2E/DX2                !
 ! A62   A(3,27,41)            110.1325         estimate D2E/DX2                !
 ! A63   A(3,27,42)            111.5667         estimate D2E/DX2                !
 ! A64   A(40,27,41)           107.3829         estimate D2E/DX2                !
 ! A65   A(40,27,42)           108.9024         estimate D2E/DX2                !
 ! A66   A(41,27,42)           108.9659         estimate D2E/DX2                !
 ! A67   A(14,29,15)           160.014          estimate D2E/DX2                !
 ! A68   A(32,37,38)           118.3613         estimate D2E/DX2                !
 ! A69   A(32,37,39)           120.8029         estimate D2E/DX2                !
 ! A70   A(38,37,39)           105.4469         estimate D2E/DX2                !
 ! A71   L(10,28,12,14,-1)     182.1147         estimate D2E/DX2                !
 ! A72   L(12,31,13,1,-1)      170.8797         estimate D2E/DX2                !
 ! A73   L(12,32,37,24,-1)     173.3188         estimate D2E/DX2                !
 ! A74   L(13,34,14,8,-1)      169.1798         estimate D2E/DX2                !
 ! A75   L(3,35,15,9,-1)       178.0212         estimate D2E/DX2                !
 ! A76   L(10,28,12,14,-2)     178.5072         estimate D2E/DX2                !
 ! A77   L(12,31,13,1,-2)      181.5769         estimate D2E/DX2                !
 ! A78   L(12,32,37,24,-2)     181.5977         estimate D2E/DX2                !
 ! A79   L(13,34,14,8,-2)      181.7152         estimate D2E/DX2                !
 ! A80   L(3,35,15,9,-2)       170.6094         estimate D2E/DX2                !
 ! D1    D(5,1,2,3)            -19.3842         estimate D2E/DX2                !
 ! D2    D(5,1,2,6)           -141.9104         estimate D2E/DX2                !
 ! D3    D(5,1,2,22)            97.2515         estimate D2E/DX2                !
 ! D4    D(19,1,2,3)          -140.5016         estimate D2E/DX2                !
 ! D5    D(19,1,2,6)            96.9723         estimate D2E/DX2                !
 ! D6    D(19,1,2,22)          -23.8659         estimate D2E/DX2                !
 ! D7    D(20,1,2,3)           100.549          estimate D2E/DX2                !
 ! D8    D(20,1,2,6)           -21.9772         estimate D2E/DX2                !
 ! D9    D(20,1,2,22)         -142.8153         estimate D2E/DX2                !
 ! D10   D(2,1,5,4)             -7.4352         estimate D2E/DX2                !
 ! D11   D(2,1,5,17)          -129.0928         estimate D2E/DX2                !
 ! D12   D(2,1,5,18)           110.4114         estimate D2E/DX2                !
 ! D13   D(19,1,5,4)           112.0109         estimate D2E/DX2                !
 ! D14   D(19,1,5,17)           -9.6467         estimate D2E/DX2                !
 ! D15   D(19,1,5,18)         -130.1424         estimate D2E/DX2                !
 ! D16   D(20,1,5,4)          -127.9649         estimate D2E/DX2                !
 ! D17   D(20,1,5,17)          110.3775         estimate D2E/DX2                !
 ! D18   D(20,1,5,18)          -10.1182         estimate D2E/DX2                !
 ! D19   D(1,2,3,4)             40.4472         estimate D2E/DX2                !
 ! D20   D(1,2,3,27)           161.0451         estimate D2E/DX2                !
 ! D21   D(1,2,3,35)           -73.9438         estimate D2E/DX2                !
 ! D22   D(6,2,3,4)            166.1454         estimate D2E/DX2                !
 ! D23   D(6,2,3,27)           -73.2568         estimate D2E/DX2                !
 ! D24   D(6,2,3,35)            51.7543         estimate D2E/DX2                !
 ! D25   D(22,2,3,4)           -75.2037         estimate D2E/DX2                !
 ! D26   D(22,2,3,27)           45.3941         estimate D2E/DX2                !
 ! D27   D(22,2,3,35)          170.4053         estimate D2E/DX2                !
 ! D28   D(1,2,6,7)           -135.0834         estimate D2E/DX2                !
 ! D29   D(1,2,6,11)            45.9337         estimate D2E/DX2                !
 ! D30   D(3,2,6,7)            106.6112         estimate D2E/DX2                !
 ! D31   D(3,2,6,11)           -72.3717         estimate D2E/DX2                !
 ! D32   D(22,2,6,7)           -13.5943         estimate D2E/DX2                !
 ! D33   D(22,2,6,11)          167.4228         estimate D2E/DX2                !
 ! D34   D(2,3,4,5)            -45.3295         estimate D2E/DX2                !
 ! D35   D(2,3,4,16)          -166.4666         estimate D2E/DX2                !
 ! D36   D(2,3,4,21)            73.094          estimate D2E/DX2                !
 ! D37   D(27,3,4,5)          -166.9533         estimate D2E/DX2                !
 ! D38   D(27,3,4,16)           71.9095         estimate D2E/DX2                !
 ! D39   D(27,3,4,21)          -48.5298         estimate D2E/DX2                !
 ! D40   D(35,3,4,5)            77.0322         estimate D2E/DX2                !
 ! D41   D(35,3,4,16)          -44.105          estimate D2E/DX2                !
 ! D42   D(35,3,4,21)         -164.5443         estimate D2E/DX2                !
 ! D43   D(2,3,15,29)           39.7407         estimate D2E/DX2                !
 ! D44   D(2,3,15,36)         -172.8299         estimate D2E/DX2                !
 ! D45   D(4,3,15,29)          -73.0485         estimate D2E/DX2                !
 ! D46   D(4,3,15,36)           74.3808         estimate D2E/DX2                !
 ! D47   D(27,3,15,29)         167.7439         estimate D2E/DX2                !
 ! D48   D(27,3,15,36)         -44.8268         estimate D2E/DX2                !
 ! D49   D(2,3,27,40)         -178.306          estimate D2E/DX2                !
 ! D50   D(2,3,27,41)           63.6565         estimate D2E/DX2                !
 ! D51   D(2,3,27,42)          -57.4822         estimate D2E/DX2                !
 ! D52   D(4,3,27,40)          -61.4184         estimate D2E/DX2                !
 ! D53   D(4,3,27,41)         -179.4559         estimate D2E/DX2                !
 ! D54   D(4,3,27,42)           59.4054         estimate D2E/DX2                !
 ! D55   D(35,3,27,40)          52.363          estimate D2E/DX2                !
 ! D56   D(35,3,27,41)         -65.6745         estimate D2E/DX2                !
 ! D57   D(35,3,27,42)         173.1869         estimate D2E/DX2                !
 ! D58   D(3,4,5,1)             31.5941         estimate D2E/DX2                !
 ! D59   D(3,4,5,17)           153.7856         estimate D2E/DX2                !
 ! D60   D(3,4,5,18)           -86.5249         estimate D2E/DX2                !
 ! D61   D(16,4,5,1)           150.6013         estimate D2E/DX2                !
 ! D62   D(16,4,5,17)          -87.2071         estimate D2E/DX2                !
 ! D63   D(16,4,5,18)           32.4824         estimate D2E/DX2                !
 ! D64   D(21,4,5,1)           -87.2881         estimate D2E/DX2                !
 ! D65   D(21,4,5,17)           34.9034         estimate D2E/DX2                !
 ! D66   D(21,4,5,18)          154.5929         estimate D2E/DX2                !
 ! D67   D(2,6,7,8)           -178.5793         estimate D2E/DX2                !
 ! D68   D(2,6,7,26)             1.5899         estimate D2E/DX2                !
 ! D69   D(11,6,7,8)             0.444          estimate D2E/DX2                !
 ! D70   D(11,6,7,26)         -179.3867         estimate D2E/DX2                !
 ! D71   D(2,6,11,10)          178.7168         estimate D2E/DX2                !
 ! D72   D(2,6,11,23)           -2.0354         estimate D2E/DX2                !
 ! D73   D(7,6,11,10)           -0.3049         estimate D2E/DX2                !
 ! D74   D(7,6,11,23)          178.9429         estimate D2E/DX2                !
 ! D75   D(6,7,8,9)             -0.2101         estimate D2E/DX2                !
 ! D76   D(6,7,8,25)           179.9304         estimate D2E/DX2                !
 ! D77   D(26,7,8,9)           179.6207         estimate D2E/DX2                !
 ! D78   D(26,7,8,25)           -0.2388         estimate D2E/DX2                !
 ! D79   D(7,8,9,10)            -0.1782         estimate D2E/DX2                !
 ! D80   D(7,8,9,24)          -179.9057         estimate D2E/DX2                !
 ! D81   D(25,8,9,10)          179.6833         estimate D2E/DX2                !
 ! D82   D(25,8,9,24)           -0.0442         estimate D2E/DX2                !
 ! D83   D(8,9,10,11)            0.3281         estimate D2E/DX2                !
 ! D84   D(8,9,10,28)         -178.867          estimate D2E/DX2                !
 ! D85   D(24,9,10,11)        -179.9247         estimate D2E/DX2                !
 ! D86   D(24,9,10,28)           0.8802         estimate D2E/DX2                !
 ! D87   D(9,10,11,6)           -0.0782         estimate D2E/DX2                !
 ! D88   D(9,10,11,23)        -179.3798         estimate D2E/DX2                !
 ! D89   D(28,10,11,6)         179.109          estimate D2E/DX2                !
 ! D90   D(28,10,11,23)         -0.1926         estimate D2E/DX2                !
 ! D91   D(9,10,12,31)        -178.0762         estimate D2E/DX2                !
 ! D92   D(9,10,12,32)          50.4134         estimate D2E/DX2                !
 ! D93   D(11,10,12,31)          1.7531         estimate D2E/DX2                !
 ! D94   D(11,10,12,32)       -129.7572         estimate D2E/DX2                !
 ! D95   D(28,12,13,33)        129.0626         estimate D2E/DX2                !
 ! D96   D(28,12,13,34)          1.9203         estimate D2E/DX2                !
 ! D97   D(32,12,13,33)        -97.2492         estimate D2E/DX2                !
 ! D98   D(32,12,13,34)        135.6085         estimate D2E/DX2                !
 ! D99   D(28,12,37,38)       -129.8035         estimate D2E/DX2                !
 ! D100  D(28,12,37,39)         95.5061         estimate D2E/DX2                !
 ! D101  D(31,12,37,38)         94.9184         estimate D2E/DX2                !
 ! D102  D(31,12,37,39)        -39.772          estimate D2E/DX2                !
 ! D103  D(31,13,14,29)         76.0362         estimate D2E/DX2                !
 ! D104  D(31,13,14,30)       -157.7104         estimate D2E/DX2                !
 ! D105  D(33,13,14,29)        -58.8467         estimate D2E/DX2                !
 ! D106  D(33,13,14,30)         67.4067         estimate D2E/DX2                !
 ! D107  D(30,14,29,15)        146.5113         estimate D2E/DX2                !
 ! D108  D(34,14,29,15)        -84.9206         estimate D2E/DX2                !
 ! D109  D(35,15,29,14)        -60.6395         estimate D2E/DX2                !
 ! D110  D(36,15,29,14)        159.074          estimate D2E/DX2                !
 --------------------------------------------------------------------------------
 Trust Radius=3.00D-01 FncErr=1.00D-07 GrdErr=1.00D-06 EigMax=2.50D+02 EigMin=1.00D-04
 Number of steps in this run=    244 maximum allowed number of steps=    252.
 GradGradGradGradGradGradGradGradGradGradGradGradGradGradGradGradGradGrad

                          Input orientation:                          
 ---------------------------------------------------------------------
 Center     Atomic      Atomic             Coordinates (Angstroms)
 Number     Number       Type             X           Y           Z
 ---------------------------------------------------------------------
      1          6           0       -2.425384   -0.101456    1.570269
      2          6           0       -2.322729    0.954211    0.443907
      3          7           0       -2.896564    0.265865   -0.728415
      4          6           0       -4.056104   -0.471965   -0.196681
      5          6           0       -3.488304   -1.109347    1.073839
      6          6           0       -0.937565    1.485899    0.148775
      7          6           0       -0.708748    2.851035   -0.032137
      8          6           0        0.566481    3.331400   -0.333172
      9          6           0        1.603214    2.425458   -0.444712
     10          7           0        1.370528    1.116987   -0.260655
     11          6           0        0.156482    0.633245    0.025824
     12          8           0        3.392570   -0.475405   -0.490243
     13          8           0        2.632461   -3.006572   -0.065345
     14          8           0       -0.057864   -2.696731    0.431644
     15          8           0       -1.258628   -1.741920   -1.742920
     16          1           0       -4.411825   -1.204048   -0.930337
     17          1           0       -4.268180   -1.300757    1.817468
     18          1           0       -3.015366   -2.067446    0.828644
     19          1           0       -2.713518    0.381573    2.509724
     20          1           0       -1.466856   -0.602437    1.742318
     21          1           0       -4.888532    0.208812    0.046693
     22          1           0       -2.952996    1.818045    0.716538
     23          1           0        0.093928   -0.445680    0.163413
     24          1           0        2.628612    2.705702   -0.674355
     25          1           0        0.753172    4.392897   -0.476741
     26          1           0       -1.537953    3.552748    0.065864
     27          6           0       -3.308624    1.203528   -1.787990
     28          1           0        2.207880    0.432701   -0.336362
     29          1           0       -0.570950   -2.549599   -0.392687
     30          1           0       -0.524283   -3.366278    0.937028
     31          1           0        3.197684   -1.433768   -0.381094
     32          1           0        4.215296   -0.284598   -0.003840
     33          1           0        2.814341   -3.743548   -0.652420
     34          1           0        1.670513   -3.017010    0.106040
     35          1           0       -1.865311   -1.005604   -1.482598
     36          1           0       -1.581868   -2.112476   -2.566335
     37          8           0        5.702495    0.272149    0.835633
     38          1           0        6.526088    0.292980    0.339998
     39          1           0        5.934717   -0.069043    1.703865
     40          1           0       -3.760653    0.641240   -2.632874
     41          1           0       -2.423971    1.744244   -2.184994
     42          1           0       -4.047618    1.945736   -1.412602
 ---------------------------------------------------------------------
                    Distance matrix (angstroms):
                    1          2          3          4          5
     1  C    0.000000
     2  C    1.547146   0.000000
     3  N    2.375054   1.475617   0.000000
     4  C    2.432825   2.334292   1.473658   0.000000
     5  C    1.546637   2.452275   2.342965   1.530645   0.000000
     6  C    2.598836   1.512770   2.468931   3.698359   3.754639
     7  C    3.772499   2.535645   3.457520   4.719555   4.963239
     8  C    4.935468   3.821310   4.641810   5.987696   6.175856
     9  C    5.164789   4.285702   4.999233   6.362740   6.381567
    10  N    4.387007   3.763383   4.376218   5.654838   5.508692
    11  C    3.096955   2.534620   3.166218   4.360835   4.173659
    12  O    6.183376   5.964988   6.337146   7.454457   7.084819
    13  O    6.057782   6.364043   6.458996   7.153907   6.508530
    14  O    3.692840   4.296410   4.263910   4.618474   3.834074
    15  O    3.876811   3.630929   2.782671   3.439406   3.647703
    16  H    3.378563   3.303173   2.120715   1.095780   2.208751
    17  H    2.212539   3.279684   3.288944   2.188303   1.094453
    18  H    2.182476   3.123809   2.807648   2.163328   1.096241
    19  H    1.094949   2.179043   3.245372   3.139378   2.210181
    20  H    1.095152   2.200351   2.983712   3.237429   2.188624
    21  H    2.912842   2.701249   2.138220   1.102554   2.180186
    22  H    2.166037   1.103528   2.121400   2.700919   2.997306
    23  H    2.905971   2.806885   3.200734   4.165708   3.755225
    24  H    6.201721   5.369731   6.040140   7.416951   7.418048
    25  H    5.873047   4.704606   5.515098   6.846492   7.118224
    26  H    4.050182   2.740654   3.644215   4.754822   5.153156
    27  C    3.709582   2.452654   1.473671   2.428635   3.683985
    28  H    5.038621   4.626793   5.122196   6.330516   6.067379
    29  H    3.644932   4.005659   3.667156   4.062177   3.568750
    30  H    3.830697   4.705763   4.646922   4.704902   3.727985
    31  H    6.099325   6.071081   6.336343   7.319598   6.850147
    32  H    6.827151   6.669400   7.169838   8.275769   7.822216
    33  H    6.757211   7.047011   6.978224   7.623252   7.045731
    34  H    5.236487   5.641873   5.686104   6.273997   5.584730
    35  H    3.232826   2.785952   1.802473   2.595752   3.029891
    36  H    4.676239   4.360619   3.280683   3.798471   4.229850
    37  O    8.169559   8.063676   8.740143   9.841221   9.297100
    38  H    9.044225   8.874096   9.483070  10.623368  10.138693
    39  H    8.361231   8.415459   9.166225  10.177963   9.501184
    40  H    4.472243   3.410595   2.124740   2.694727   4.108339
    41  H    4.184329   2.746911   2.128514   3.395413   4.460468
    42  H    3.964865   2.721211   2.148256   2.706254   3.978536
                    6          7          8          9         10
     6  C    0.000000
     7  C    1.395952   0.000000
     8  C    2.429054   1.395558   0.000000
     9  C    2.773185   2.386735   1.381299   0.000000
    10  N    2.372978   2.717081   2.356984   1.341684   0.000000
    11  C    1.392507   2.381297   2.752638   2.350843   1.337903
    12  O    4.796366   5.300554   4.743755   3.408647   2.584004
    13  O    5.742232   6.743615   6.671574   5.541680   4.316753
    14  O    4.283490   5.605038   6.108446   5.455639   4.130863
    15  O    3.755051   4.931975   5.572880   5.219437   4.157273
    16  H    4.524465   5.564462   6.760949   7.042005   6.266680
    17  H    4.652202   5.773038   7.032502   7.312688   6.477585
    18  H    4.172019   5.500262   6.582323   6.568021   5.528404
    19  H    3.153986   4.071658   5.248041   5.616078   4.989516
    20  H    2.679678   3.955994   4.890521   4.834933   3.875444
    21  H    4.153494   4.945518   6.296985   6.877337   6.332067
    22  H    2.120056   2.581517   3.972260   4.740939   4.487677
    23  H    2.189792   3.398655   3.838781   3.300181   2.061909
    24  H    3.857860   3.401696   2.181808   1.087526   2.068318
    25  H    3.420599   2.170765   1.087309   2.143458   3.340570
    26  H    2.153881   1.090682   2.153339   3.376152   3.807730
    27  C    3.074527   3.543537   4.654114   5.236761   4.922876
    28  H    3.352374   3.801001   3.331164   2.085292   1.084037
    29  H    4.088133   5.414410   5.990279   5.429631   4.150978
    30  H    4.933129   6.295100   6.903772   6.322947   5.012426
    31  H    5.089745   5.808745   5.443561   4.176123   3.139961
    32  H    5.450681   5.837740   5.147597   3.789689   3.181682
    33  H    6.485817   7.502362   7.430322   6.290199   5.085556
    34  H    5.203853   6.333556   6.458646   5.470678   4.161056
    35  H    3.119243   4.279619   5.103371   4.987992   4.058225
    36  H    4.553598   5.641005   6.264041   5.936234   4.945931
    37  O    6.784936   6.964748   6.091286   4.804178   4.547696
    38  H    7.560803   7.682772   6.723248   5.421985   5.255432
    39  H    7.215567   7.461648   6.673117   5.440665   5.108603
    40  H    4.052265   4.578335   5.590141   6.061564   5.672987
    41  H    2.778960   2.966777   3.858900   4.439690   4.300552
    42  H    3.510239   3.724688   4.937119   5.753160   5.600903
                   11         12         13         14         15
    11  C    0.000000
    12  O    3.459436   0.000000
    13  O    4.403073   2.676772   0.000000
    14  O    3.361454   4.205908   2.753334   0.000000
    15  O    3.282134   4.980653   4.422010   2.661245   0.000000
    16  H    5.015907   7.850681   7.322518   4.800007   3.300341
    17  H    5.150533   8.043247   7.353478   4.647151   4.682776
    18  H    4.242508   6.733179   5.794750   3.049660   3.131300
    19  H    3.803945   6.857005   6.833008   4.565837   4.971007
    20  H    2.666175   5.349251   5.084477   2.844151   3.672692
    21  H    5.062879   8.326650   8.180256   5.650285   4.492691
    22  H    3.398484   6.854374   7.421967   5.370862   4.646845
    23  H    1.089460   3.362914   3.613122   2.272052   2.672780
    24  H    3.301023   3.276732   5.744648   6.134058   6.002817
    25  H    3.839739   5.537776   7.645464   7.193453   6.579250
    26  H    3.375827   6.391035   7.773947   6.432763   5.602074
    27  C    3.952481   7.029151   7.482576   5.541321   3.588897
    28  H    2.092757   1.500609   3.475963   3.939134   4.327131
    29  H    3.291626   4.474515   3.252356   0.982052   1.717083
    30  H    4.158115   5.073065   3.331542   0.959819   3.218683
    31  H    3.699599   0.984050   1.700849   3.585277   4.669930
    32  H    4.161404   0.974614   3.149332   4.926249   5.925541
    33  H    5.165322   3.322862   0.959620   3.243545   4.667417
    34  H    3.952605   3.127425   0.977152   1.787703   3.691121
    35  H    3.008124   5.376913   5.122737   3.129073   0.988935
    36  H    4.156938   5.633400   4.981458   3.413476   0.959066
    37  O    5.616444   2.766322   4.581144   6.493011   7.691726
    38  H    6.386420   3.331464   5.119734   7.231542   8.311508
    39  H    6.057807   3.382566   4.760680   6.665907   8.150034
    40  H    4.734204   7.550256   7.795553   5.851835   3.568137
    41  H    3.575020   6.452222   7.254699   5.671641   3.702269
    42  H    4.633159   7.878392   8.424008   6.393112   4.635341
                   16         17         18         19         20
    16  H    0.000000
    17  H    2.753256   0.000000
    18  H    2.406152   1.770629   0.000000
    19  H    4.151200   2.392995   2.985772   0.000000
    20  H    4.022171   2.888030   2.319253   1.763903   0.000000
    21  H    1.782698   2.408169   3.049844   3.290449   3.903990
    22  H    3.738105   3.559309   3.887608   2.310047   3.019863
    23  H    4.698215   4.742894   3.569365   3.751170   2.225660
    24  H    8.057259   8.356233   7.542973   6.639148   5.792836
    25  H    7.629465   7.930641   7.592229   6.085034   5.899670
    26  H    5.646119   5.837702   5.860987   4.172620   4.481196
    27  C    2.783711   4.493498   4.199053   4.415893   4.372264
    28  H    6.844870   7.041535   5.906799   5.685330   4.346965
    29  H    4.105106   4.484852   2.774760   4.648264   3.025282
    30  H    4.824445   4.365583   2.811442   4.616547   3.029151
    31  H    7.632763   7.783989   6.361368   6.826024   5.192102
    32  H    8.725308   8.736081   7.493601   7.400693   5.952893
    33  H    7.664449   7.888579   6.244065   7.587688   5.824946
    34  H    6.430843   6.414249   4.835420   6.045477   4.283766
    35  H    2.613256   4.092839   2.791411   4.310725   3.274354
    36  H    3.392696   5.205083   3.685489   5.767780   4.567049
    37  O   10.372911  10.141617   9.026342   8.581598   7.279188
    38  H   11.112731  11.010864   9.841226   9.491358   8.164277
    39  H   10.736768  10.277603   9.212145   8.697381   7.420867
    40  H    2.593790   4.882057   4.458087   5.254544   5.094168
    41  H    3.770697   5.356570   4.894971   4.897049   4.674052
    42  H    3.207236   4.584944   4.711088   4.428438   4.806978
                   21         22         23         24         25
    21  H    0.000000
    22  H    2.604731   0.000000
    23  H    5.026618   3.835902   0.000000
    24  H    7.953730   5.820384   4.130095   0.000000
    25  H    7.043392   4.667918   4.925061   2.530406   0.000000
    26  H    4.733778   2.331291   4.319720   4.315747   2.499905
    27  C    2.617562   2.603222   4.255023   6.224748   5.328192
    28  H    7.110269   5.446321   2.343101   2.336191   4.221260
    29  H    5.142315   5.097140   2.275475   6.159117   7.068141
    30  H    5.711448   5.729264   3.083919   7.028957   7.989708
    31  H    8.262443   7.043433   3.302440   4.188682   6.319400
    32  H    9.117329   7.504963   4.127904   3.450949   5.838570
    33  H    8.685860   8.128194   4.352260   6.451961   8.395297
    34  H    7.309618   6.717686   3.016728   5.854605   7.489184
    35  H    3.599084   3.740622   2.619444   5.884080   6.083750
    36  H    4.811478   5.301532   3.610821   6.672523   7.220713
    37  O   10.620560   8.793265   5.694136   4.201309   6.572571
    38  H   11.418698   9.608363   6.476842   4.694727   7.127618
    39  H   10.952906   9.139330   6.052245   4.928029   7.177211
    40  H    2.939249   3.640844   4.884507   6.994320   6.252876
    41  H    3.662245   2.950288   4.080514   5.360506   4.475235
    42  H    2.419418   2.397444   5.035384   6.759779   5.469188
                   26         27         28         29         30
    26  H    0.000000
    27  C    3.477195   0.000000
    28  H    4.891599   5.756146   0.000000
    29  H    6.195482   4.850536   4.076663   0.000000
    30  H    7.046941   6.005115   4.849585   1.561180   0.000000
    31  H    6.891398   7.160079   2.113154   3.930371   4.396030
    32  H    6.915921   7.874458   2.157500   5.309386   5.731108
    33  H    8.526097   7.953225   4.231872   3.599051   3.716865
    34  H    7.311470   6.796477   3.519231   2.343365   2.372690
    35  H    4.825295   2.656442   4.469168   2.290676   3.636719
    36  H    6.247012   3.818821   5.080639   2.436755   3.868340
    37  O    7.986173   9.431391   3.689401   6.987642   7.212572
    38  H    8.702298  10.103415   4.373089   7.680171   7.965824
    39  H    8.464113   9.962522   4.278269   7.271340   7.292358
    40  H    4.549776   1.111003   6.398503   5.037271   6.267256
    41  H    3.020277   1.110224   5.156707   5.008307   6.282776
    42  H    3.326675   1.112610   6.525245   5.773689   6.793537
                   31         32         33         34         35
    31  H    0.000000
    32  H    1.580647   0.000000
    33  H    2.357043   3.787831   0.000000
    34  H    2.253044   3.735515   1.552888   0.000000
    35  H    5.199092   6.299235   5.484950   4.367102   0.000000
    36  H    5.299060   6.596562   5.064595   4.305549   1.574799
    37  O    3.265678   1.796230   5.165419   5.254308   8.017390
    38  H    3.818364   2.406570   5.572748   5.881104   8.684685
    39  H    3.701470   2.432926   5.365707   5.424665   8.477684
    40  H    7.602278   8.448950   8.147338   7.098028   2.761802
    41  H    6.704984   7.276915   7.739803   6.684547   2.892598
    42  H    8.060984   8.673797   8.946078   7.722185   3.671208
                   36         37         38         39         40
    36  H    0.000000
    37  O    8.385807   0.000000
    38  H    8.942703   0.961454   0.000000
    39  H    8.883089   0.961335   1.530004   0.000000
    40  H    3.512048  10.085531  10.713370  10.644811   0.000000
    41  H    3.965961   8.793787   9.411976   9.395685   1.789954
    42  H    4.886728  10.144957  10.844652  10.649822   1.809178
                   41         42
    41  H    0.000000
    42  H    1.809259   0.000000
 Stoichiometry    C10H25N2O5(1+)
 Framework group  C1[X(C10H25N2O5)]
 Deg. of freedom   120
 Full point group                 C1      NOp   1
 Largest Abelian subgroup         C1      NOp   1
 Largest concise Abelian subgroup C1      NOp   1
                         Standard orientation:                         
 ---------------------------------------------------------------------
 Center     Atomic      Atomic             Coordinates (Angstroms)
 Number     Number       Type             X           Y           Z
 ---------------------------------------------------------------------
      1          6           0        2.128824   -0.383874   -1.778210
      2          6           0        2.142598    0.727389   -0.701842
      3          7           0        2.737537    0.062770    0.473647
      4          6           0        3.825801   -0.764358   -0.076994
      5          6           0        3.159007   -1.426769   -1.285079
      6          6           0        0.805813    1.350828   -0.365978
      7          6           0        0.661955    2.733795   -0.241920
      8          6           0       -0.567721    3.300023    0.096995
      9          6           0       -1.645494    2.461216    0.303863
     10          7           0       -1.494830    1.134391    0.173671
     11          6           0       -0.325596    0.568982   -0.147561
     12          8           0       -3.586709   -0.326977    0.580513
     13          8           0       -2.989704   -2.914640    0.244813
     14          8           0       -0.315682   -2.783118   -0.397962
     15          8           0        1.046391   -1.798223    1.665279
     16          1           0        4.178193   -1.480573    0.673733
     17          1           0        3.887752   -1.697100   -2.055585
     18          1           0        2.647462   -2.343677   -0.969885
     19          1           0        2.394151    0.037440   -2.753407
     20          1           0        1.136627   -0.836556   -1.878126
     21          1           0        4.680678   -0.144541   -0.394227
     22          1           0        2.804431    1.539987   -1.047435
     23          1           0       -0.329574   -0.517001   -0.234442
     24          1           0       -2.640727    2.810213    0.569245
     25          1           0       -0.688175    4.376023    0.196778
     26          1           0        1.522275    3.381464   -0.415012
     27          6           0        3.254632    1.023720    1.464048
     28          1           0       -2.363467    0.503527    0.324059
     29          1           0        0.246591   -2.627314    0.391975
     30          1           0        0.086544   -3.501177   -0.891782
     31          1           0       -3.450643   -1.298988    0.509558
     32          1           0       -4.421734   -0.112232    0.126099
     33          1           0       -3.181221   -3.611754    0.875863
     34          1           0       -2.039916   -2.988211    0.027289
     35          1           0        1.678340   -1.110866    1.339435
     36          1           0        1.390883   -2.147846    2.489231
     37          8           0       -5.917477    0.489063   -0.666137
     38          1           0       -6.711989    0.580207   -0.132436
     39          1           0       -6.212610    0.121575   -1.504001
     40          1           0        3.718126    0.476507    2.312612
     41          1           0        2.422690    1.632220    1.876598
     42          1           0        4.012897    1.703991    1.016650
 ---------------------------------------------------------------------
 Rotational constants (GHZ):           0.4991387           0.2396379           0.1854710
 Standard basis: Aug-CC-pVDZ (5D, 7F)
 There are   650 symmetry adapted cartesian basis functions of A   symmetry.
 There are   616 symmetry adapted basis functions of A   symmetry.
   616 basis functions,  1006 primitive gaussians,   650 cartesian basis functions
    69 alpha electrons       69 beta electrons
       nuclear repulsion energy      1363.2737280396 Hartrees.
 NAtoms=   42 NActive=   42 NUniq=   42 SFac= 1.00D+00 NAtFMM=   60 NAOKFM=F Big=F
 Integral buffers will be    131072 words long.
 Raffenetti 2 integral format.
 Two-electron integral symmetry is turned on.
 Nuclear repulsion after empirical dispersion term =     1363.2414000453 Hartrees.
 One-electron integrals computed using PRISM.
 NBasis=   616 RedAO= T EigKep=  1.68D-06  NBF=   616
 NBsUse=   616 1.00D-06 EigRej= -1.00D+00 NBFU=   616
 ExpMin= 2.97D-02 ExpMax= 1.17D+04 ExpMxC= 4.01D+02 IAcc=3 IRadAn=         5 AccDes= 0.00D+00
 Harris functional with IExCor= 4639 and IRadAn=       5 diagonalized for initial guess.
 HarFok:  IExCor= 4639 AccDes= 0.00D+00 IRadAn=         5 IDoV= 1 UseB2=F ITyADJ=14
 ICtDFT=  3500011 ScaDFX=  1.000000  1.000000  1.000000  1.000000
 FoFCou: FMM=F IPFlag=           0 FMFlag=      100000 FMFlg1=           0
         NFxFlg=           0 DoJE=T BraDBF=F KetDBF=T FulRan=T
         wScrn=  0.000000 ICntrl=       500 IOpCl=  0 I1Cent=   200000004 NGrid=           0
         NMat0=    1 NMatS0=      1 NMatT0=    0 NMatD0=    1 NMtDS0=    0 NMtDT0=    0
 Petite list used in FoFCou.
 Requested convergence on RMS density matrix=1.00D-08 within 128 cycles.
 Requested convergence on MAX density matrix=1.00D-06.
 Requested convergence on             energy=1.00D-06.
 No special actions if energy rises.
 SCF Done:  E(RwB97XD) =  -881.469530744     A.U. after   15 cycles
            NFock= 15  Conv=0.29D-08     -V/T= 2.0063

 **********************************************************************

            Population analysis using the SCF density.

 **********************************************************************

 Orbital symmetries:
       Occupied  (A) (A) (A) (A) (A) (A) (A) (A) (A) (A) (A) (A)
                 (A) (A) (A) (A) (A) (A) (A) (A) (A) (A) (A) (A)
                 (A) (A) (A) (A) (A) (A) (A) (A) (A) (A) (A) (A)
                 (A) (A) (A) (A) (A) (A) (A) (A) (A) (A) (A) (A)
                 (A) (A) (A) (A) (A) (A) (A) (A) (A) (A) (A) (A)
                 (A) (A) (A) (A) (A) (A) (A) (A) (A)
       Virtual   (A) (A) (A) (A) (A) (A) (A) (A) (A) (A) (A) (A)
                 (A) (A) (A) (A) (A) (A) (A) (A) (A) (A) (A) (A)
                 (A) (A) (A) (A) (A) (A) (A) (A) (A) (A) (A) (A)
                 (A) (A) (A) (A) (A) (A) (A) (A) (A) (A) (A) (A)
                 (A) (A) (A) (A) (A) (A) (A) (A) (A) (A) (A) (A)
                 (A) (A) (A) (A) (A) (A) (A) (A) (A) (A) (A) (A)
                 (A) (A) (A) (A) (A) (A) (A) (A) (A) (A) (A) (A)
                 (A) (A) (A) (A) (A) (A) (A) (A) (A) (A) (A) (A)
                 (A) (A) (A) (A) (A) (A) (A) (A) (A) (A) (A) (A)
                 (A) (A) (A) (A) (A) (A) (A) (A) (A) (A) (A) (A)
                 (A) (A) (A) (A) (A) (A) (A) (A) (A) (A) (A) (A)
                 (A) (A) (A) (A) (A) (A) (A) (A) (A) (A) (A) (A)
                 (A) (A) (A) (A) (A) (A) (A) (A) (A) (A) (A) (A)
                 (A) (A) (A) (A) (A) (A) (A) (A) (A) (A) (A) (A)
                 (A) (A) (A) (A) (A) (A) (A) (A) (A) (A) (A) (A)
                 (A) (A) (A) (A) (A) (A) (A) (A) (A) (A) (A) (A)
                 (A) (A) (A) (A) (A) (A) (A) (A) (A) (A) (A) (A)
                 (A) (A) (A) (A) (A) (A) (A) (A) (A) (A) (A) (A)
                 (A) (A) (A) (A) (A) (A) (A) (A) (A) (A) (A) (A)
                 (A) (A) (A) (A) (A) (A) (A) (A) (A) (A) (A) (A)
                 (A) (A) (A) (A) (A) (A) (A) (A) (A) (A) (A) (A)
                 (A) (A) (A) (A) (A) (A) (A) (A) (A) (A) (A) (A)
                 (A) (A) (A) (A) (A) (A) (A) (A) (A) (A) (A) (A)
                 (A) (A) (A) (A) (A) (A) (A) (A) (A) (A) (A) (A)
                 (A) (A) (A) (A) (A) (A) (A) (A) (A) (A) (A) (A)
                 (A) (A) (A) (A) (A) (A) (A) (A) (A) (A) (A) (A)
                 (A) (A) (A) (A) (A) (A) (A) (A) (A) (A) (A) (A)
                 (A) (A) (A) (A) (A) (A) (A) (A) (A) (A) (A) (A)
                 (A) (A) (A) (A) (A) (A) (A) (A) (A) (A) (A) (A)
                 (A) (A) (A) (A) (A) (A) (A) (A) (A) (A) (A) (A)
                 (A) (A) (A) (A) (A) (A) (A) (A) (A) (A) (A) (A)
                 (A) (A) (A) (A) (A) (A) (A) (A) (A) (A) (A) (A)
                 (A) (A) (A) (A) (A) (A) (A) (A) (A) (A) (A) (A)
                 (A) (A) (A) (A) (A) (A) (A) (A) (A) (A) (A) (A)
                 (A) (A) (A) (A) (A) (A) (A) (A) (A) (A) (A) (A)
                 (A) (A) (A) (A) (A) (A) (A) (A) (A) (A) (A) (A)
                 (A) (A) (A) (A) (A) (A) (A) (A) (A) (A) (A) (A)
                 (A) (A) (A) (A) (A) (A) (A) (A) (A) (A) (A) (A)
                 (A) (A) (A) (A) (A) (A) (A) (A) (A) (A) (A) (A)
                 (A) (A) (A) (A) (A) (A) (A) (A) (A) (A) (A) (A)
                 (A) (A) (A) (A) (A) (A) (A) (A) (A) (A) (A) (A)
                 (A) (A) (A) (A) (A) (A) (A) (A) (A) (A) (A) (A)
                 (A) (A) (A) (A) (A) (A) (A) (A) (A) (A) (A) (A)
                 (A) (A) (A) (A) (A) (A) (A) (A) (A) (A) (A) (A)
                 (A) (A) (A) (A) (A) (A) (A) (A) (A) (A) (A) (A)
                 (A) (A) (A) (A) (A) (A) (A)
 The electronic state is 1-A.
 Alpha  occ. eigenvalues --  -19.39699 -19.38202 -19.37756 -19.36673 -19.36478
 Alpha  occ. eigenvalues --  -14.65714 -14.57928 -10.49851 -10.49484 -10.46891
 Alpha  occ. eigenvalues --  -10.46318 -10.45920 -10.45901 -10.43359 -10.43025
 Alpha  occ. eigenvalues --  -10.40886 -10.40194  -1.24395  -1.23987  -1.23087
 Alpha  occ. eigenvalues --   -1.21767  -1.21225  -1.20044  -1.16828  -1.07240
 Alpha  occ. eigenvalues --   -1.03614  -0.99865  -0.95345  -0.89509  -0.88933
 Alpha  occ. eigenvalues --   -0.87793  -0.81351  -0.79453  -0.78869  -0.74393
 Alpha  occ. eigenvalues --   -0.74287  -0.73769  -0.73259  -0.73059  -0.72330
 Alpha  occ. eigenvalues --   -0.72009  -0.70212  -0.68920  -0.68034  -0.67011
 Alpha  occ. eigenvalues --   -0.65055  -0.64059  -0.63368  -0.62654  -0.61342
 Alpha  occ. eigenvalues --   -0.60873  -0.60143  -0.58741  -0.58269  -0.56945
 Alpha  occ. eigenvalues --   -0.56662  -0.55646  -0.55550  -0.54923  -0.53308
 Alpha  occ. eigenvalues --   -0.52606  -0.52397  -0.51747  -0.51656  -0.51121
 Alpha  occ. eigenvalues --   -0.50578  -0.50141  -0.48539  -0.44528
 Alpha virt. eigenvalues --   -0.12718  -0.10104  -0.05912  -0.05109  -0.04953
 Alpha virt. eigenvalues --   -0.04104  -0.03672  -0.02880  -0.02799  -0.02307
 Alpha virt. eigenvalues --   -0.02068  -0.01510  -0.01108  -0.00707  -0.00562
 Alpha virt. eigenvalues --    0.00330   0.00456   0.00695   0.01026   0.01507
 Alpha virt. eigenvalues --    0.01889   0.02128   0.02400   0.02724   0.03058
 Alpha virt. eigenvalues --    0.03550   0.03707   0.04252   0.04363   0.04653
 Alpha virt. eigenvalues --    0.04774   0.05119   0.05381   0.05503   0.05789
 Alpha virt. eigenvalues --    0.06017   0.06477   0.06701   0.06742   0.07108
 Alpha virt. eigenvalues --    0.07560   0.07840   0.08018   0.08380   0.08487
 Alpha virt. eigenvalues --    0.08776   0.09130   0.09363   0.09709   0.09990
 Alpha virt. eigenvalues --    0.10147   0.10460   0.11131   0.11327   0.11404
 Alpha virt. eigenvalues --    0.11820   0.11996   0.12143   0.12422   0.12797
 Alpha virt. eigenvalues --    0.13234   0.13303   0.13849   0.13975   0.14255
 Alpha virt. eigenvalues --    0.14509   0.14792   0.15292   0.15391   0.15552
 Alpha virt. eigenvalues --    0.15932   0.16107   0.16410   0.16720   0.16767
 Alpha virt. eigenvalues --    0.17241   0.17335   0.18044   0.18259   0.18608
 Alpha virt. eigenvalues --    0.18722   0.19034   0.19174   0.19304   0.19613
 Alpha virt. eigenvalues --    0.19840   0.20204   0.20748   0.20771   0.21022
 Alpha virt. eigenvalues --    0.21364   0.21629   0.21650   0.22291   0.22875
 Alpha virt. eigenvalues --    0.23101   0.23283   0.23455   0.24086   0.24452
 Alpha virt. eigenvalues --    0.24619   0.24897   0.25024   0.25519   0.25829
 Alpha virt. eigenvalues --    0.26025   0.26312   0.26534   0.27161   0.27439
 Alpha virt. eigenvalues --    0.27536   0.27986   0.28221   0.28619   0.28932
 Alpha virt. eigenvalues --    0.29417   0.29580   0.30036   0.30401   0.30701
 Alpha virt. eigenvalues --    0.30866   0.31455   0.31614   0.32041   0.32227
 Alpha virt. eigenvalues --    0.32768   0.33005   0.33343   0.33389   0.33695
 Alpha virt. eigenvalues --    0.34331   0.34755   0.34985   0.35362   0.35761
 Alpha virt. eigenvalues --    0.36023   0.36536   0.37050   0.37651   0.37900
 Alpha virt. eigenvalues --    0.37953   0.38565   0.38953   0.39391   0.39765
 Alpha virt. eigenvalues --    0.40481   0.40890   0.41108   0.41358   0.41887
 Alpha virt. eigenvalues --    0.42262   0.42738   0.43136   0.43486   0.43772
 Alpha virt. eigenvalues --    0.44134   0.44243   0.44812   0.45610   0.45736
 Alpha virt. eigenvalues --    0.46037   0.46200   0.46607   0.47063   0.47452
 Alpha virt. eigenvalues --    0.47770   0.47977   0.48271   0.49016   0.49034
 Alpha virt. eigenvalues --    0.49536   0.49823   0.50069   0.50446   0.50707
 Alpha virt. eigenvalues --    0.51110   0.51418   0.51734   0.52017   0.52262
 Alpha virt. eigenvalues --    0.53011   0.53302   0.53894   0.54062   0.54120
 Alpha virt. eigenvalues --    0.54390   0.54919   0.55286   0.55461   0.55766
 Alpha virt. eigenvalues --    0.56321   0.56460   0.56985   0.57088   0.57604
 Alpha virt. eigenvalues --    0.58262   0.58386   0.58641   0.59199   0.59731
 Alpha virt. eigenvalues --    0.60152   0.60607   0.61192   0.61409   0.62022
 Alpha virt. eigenvalues --    0.62061   0.62501   0.62905   0.63245   0.64456
 Alpha virt. eigenvalues --    0.64791   0.65059   0.65536   0.65741   0.66188
 Alpha virt. eigenvalues --    0.66411   0.67423   0.67879   0.68263   0.68534
 Alpha virt. eigenvalues --    0.68949   0.69253   0.69600   0.70081   0.70716
 Alpha virt. eigenvalues --    0.70910   0.71299   0.71634   0.72631   0.72865
 Alpha virt. eigenvalues --    0.73125   0.73686   0.73739   0.74340   0.74391
 Alpha virt. eigenvalues --    0.75188   0.75331   0.76518   0.76699   0.77297
 Alpha virt. eigenvalues --    0.77879   0.78468   0.78543   0.79346   0.79462
 Alpha virt. eigenvalues --    0.79878   0.80824   0.81517   0.81981   0.82209
 Alpha virt. eigenvalues --    0.82476   0.83208   0.83750   0.84099   0.84213
 Alpha virt. eigenvalues --    0.85262   0.85905   0.86434   0.86935   0.87404
 Alpha virt. eigenvalues --    0.87951   0.89286   0.90122   0.90615   0.91059
 Alpha virt. eigenvalues --    0.92101   0.92430   0.93186   0.93984   0.94213
 Alpha virt. eigenvalues --    0.95453   0.96018   0.96623   0.97171   0.97621
 Alpha virt. eigenvalues --    0.98541   0.98986   0.99088   1.00396   1.01628
 Alpha virt. eigenvalues --    1.01807   1.02225   1.03035   1.03753   1.04048
 Alpha virt. eigenvalues --    1.04628   1.05621   1.06376   1.06436   1.07658
 Alpha virt. eigenvalues --    1.08138   1.09255   1.10003   1.10570   1.10898
 Alpha virt. eigenvalues --    1.11592   1.12532   1.12870   1.14209   1.14401
 Alpha virt. eigenvalues --    1.15219   1.15808   1.17060   1.17913   1.18260
 Alpha virt. eigenvalues --    1.19160   1.19726   1.20605   1.21099   1.21225
 Alpha virt. eigenvalues --    1.22388   1.22770   1.23711   1.24790   1.25495
 Alpha virt. eigenvalues --    1.26603   1.27328   1.28075   1.28430   1.29613
 Alpha virt. eigenvalues --    1.30645   1.31038   1.31510   1.32964   1.33948
 Alpha virt. eigenvalues --    1.34493   1.35333   1.35976   1.36468   1.37443
 Alpha virt. eigenvalues --    1.37930   1.39280   1.40046   1.40615   1.41041
 Alpha virt. eigenvalues --    1.41774   1.43273   1.43759   1.44717   1.45595
 Alpha virt. eigenvalues --    1.46357   1.47153   1.48675   1.49491   1.49803
 Alpha virt. eigenvalues --    1.51247   1.52526   1.53190   1.53276   1.53790
 Alpha virt. eigenvalues --    1.55172   1.55957   1.57889   1.58295   1.59522
 Alpha virt. eigenvalues --    1.60141   1.60278   1.61362   1.62299   1.63580
 Alpha virt. eigenvalues --    1.64059   1.64479   1.65263   1.66762   1.66846
 Alpha virt. eigenvalues --    1.68012   1.68238   1.70318   1.70605   1.71189
 Alpha virt. eigenvalues --    1.71923   1.72727   1.73140   1.73925   1.74459
 Alpha virt. eigenvalues --    1.75315   1.75495   1.76644   1.77089   1.77424
 Alpha virt. eigenvalues --    1.78365   1.79128   1.80522   1.80606   1.81407
 Alpha virt. eigenvalues --    1.82366   1.82727   1.83125   1.83522   1.84257
 Alpha virt. eigenvalues --    1.85028   1.86324   1.87148   1.87634   1.88173
 Alpha virt. eigenvalues --    1.89223   1.89634   1.90165   1.90298   1.90642
 Alpha virt. eigenvalues --    1.91967   1.93425   1.93525   1.94311   1.95253
 Alpha virt. eigenvalues --    1.95588   1.96693   1.96986   1.98360   1.98726
 Alpha virt. eigenvalues --    1.99573   2.01244   2.01535   2.02608   2.03492
 Alpha virt. eigenvalues --    2.03806   2.05334   2.06716   2.06821   2.07353
 Alpha virt. eigenvalues --    2.08154   2.09490   2.10630   2.11229   2.11495
 Alpha virt. eigenvalues --    2.11929   2.13389   2.14208   2.14997   2.15080
 Alpha virt. eigenvalues --    2.15726   2.16496   2.17584   2.18879   2.19537
 Alpha virt. eigenvalues --    2.19625   2.20459   2.21973   2.23318   2.24268
 Alpha virt. eigenvalues --    2.24839   2.25754   2.27207   2.27634   2.28595
 Alpha virt. eigenvalues --    2.29289   2.29433   2.30814   2.31407   2.31464
 Alpha virt. eigenvalues --    2.33565   2.35047   2.35686   2.36358   2.38388
 Alpha virt. eigenvalues --    2.39560   2.39946   2.40630   2.42364   2.42664
 Alpha virt. eigenvalues --    2.43485   2.45322   2.46403   2.47238   2.48737
 Alpha virt. eigenvalues --    2.49574   2.50745   2.52326   2.52953   2.55700
 Alpha virt. eigenvalues --    2.56053   2.56195   2.56834   2.57182   2.58386
 Alpha virt. eigenvalues --    2.59841   2.60663   2.62083   2.63531   2.64025
 Alpha virt. eigenvalues --    2.65323   2.66033   2.67266   2.69934   2.70629
 Alpha virt. eigenvalues --    2.71058   2.71770   2.72708   2.73335   2.74844
 Alpha virt. eigenvalues --    2.76253   2.76929   2.77350   2.79287   2.80913
 Alpha virt. eigenvalues --    2.82639   2.84402   2.84756   2.85851   2.87328
 Alpha virt. eigenvalues --    2.88107   2.89555   2.91375   2.92853   2.93680
 Alpha virt. eigenvalues --    2.98682   2.98906   3.03031   3.06004   3.08435
 Alpha virt. eigenvalues --    3.12156   3.15442   3.16926   3.24043   3.25751
 Alpha virt. eigenvalues --    3.30824   3.33385   3.35438   3.38336   3.39175
 Alpha virt. eigenvalues --    3.40898   3.41783   3.43171   3.44679   3.44693
 Alpha virt. eigenvalues --    3.45546   3.49046   3.51542   3.52508   3.55643
 Alpha virt. eigenvalues --    3.61110   3.66706   3.66796   3.67173   3.69467
 Alpha virt. eigenvalues --    3.77383   3.81468   3.85469   3.90041   3.92020
 Alpha virt. eigenvalues --    3.95163   4.02300   4.05030   4.10915   4.13236
 Alpha virt. eigenvalues --    4.42096   5.02529
          Condensed to atoms (all electrons):
               1          2          3          4          5          6
     1  C   10.548076  -3.552453  -0.455840   1.027848  -1.432092   0.862794
     2  C   -3.552453  25.754118  -4.877731  -0.592787   0.462464  -7.460897
     3  N   -0.455840  -4.877731  14.557117  -0.180566  -0.652149   1.966605
     4  C    1.027848  -0.592787  -0.180566   6.117926  -0.352786  -0.295712
     5  C   -1.432092   0.462464  -0.652149  -0.352786   6.788307   0.230256
     6  C    0.862794  -7.460897   1.966605  -0.295712   0.230256  25.509518
     7  C   -0.162097  -0.938606  -0.901550   0.023224  -0.094307 -12.664075
     8  C   -0.050224  -0.535733   0.197834   0.003722  -0.016738   2.314222
     9  C   -0.078078  -0.058928  -0.077702  -0.029795   0.010853  -2.473834
    10  N   -0.012589   0.680419  -0.096121   0.040567   0.003324  -0.285933
    11  C   -1.217121  -1.542328  -0.385917  -0.375168   0.236842  -4.353972
    12  O   -0.003633   0.005826  -0.001351  -0.000030  -0.000361  -0.111396
    13  O    0.000623   0.000976  -0.000148   0.000003  -0.000166   0.014744
    14  O   -0.001174   0.013612   0.023370  -0.000164  -0.023238  -0.007071
    15  O    0.011480   0.065812  -0.048071  -0.016770   0.022483   0.060456
    16  H    0.139337   0.584083  -0.836551  -0.286014   0.146669  -0.195275
    17  H    0.263507   0.147487  -0.176165   0.210302  -0.351166  -0.089478
    18  H    0.265783  -0.119875   0.227628  -0.074493  -0.486223   0.043275
    19  H   -1.392714   0.603840   0.356950  -0.287393   0.171276   0.139521
    20  H    0.013982   0.024387  -0.155770   0.136025   0.323770  -0.210252
    21  H   -0.012799  -0.117617  -0.142817  -0.183699   0.012549   0.152467
    22  H    0.739552  -3.034510   0.102717  -0.039085   0.042111   1.076186
    23  H   -0.365149  -0.176246  -0.136695  -0.025004   0.090476  -0.303594
    24  H    0.000624  -0.010271   0.002177  -0.000372   0.000462  -0.132039
    25  H    0.007258   0.054620  -0.002492  -0.001408   0.001518  -0.024781
    26  H   -0.076189   0.016193   0.027455   0.006053  -0.009616   1.704256
    27  C   -0.371499  -0.794628   1.069818  -0.221398   0.043840   0.492481
    28  H   -0.008697   0.043990  -0.009177  -0.005586  -0.003508  -0.368732
    29  H    0.050800   0.010105  -0.027258   0.018566  -0.032967   0.008974
    30  H   -0.010265  -0.003710   0.003685   0.006256  -0.000776  -0.003296
    31  H    0.003749   0.010519  -0.000994   0.001618  -0.001922  -0.000650
    32  H   -0.001070  -0.005625   0.000997  -0.000339   0.000446   0.008589
    33  H   -0.000136  -0.001063   0.000052   0.000146  -0.000176  -0.000503
    34  H    0.002687   0.003831  -0.000091  -0.002008   0.003416   0.006098
    35  H    0.142685   0.380699  -0.152935  -0.076290  -0.059245  -0.132138
    36  H   -0.003734  -0.024169  -0.047103   0.017078   0.010280  -0.002164
    37  O   -0.000065   0.000411   0.000000   0.000006  -0.000000   0.002539
    38  H    0.000002   0.000189  -0.000013   0.000005  -0.000004  -0.000116
    39  H    0.000005  -0.000088   0.000010  -0.000001  -0.000002   0.000803
    40  H   -0.076018   0.087002  -0.414988  -0.026903   0.064342   0.082867
    41  H    0.089288   0.069058   0.315530  -0.024573  -0.040545  -0.030762
    42  H   -0.029561  -0.052970  -0.596258   0.101107   0.026987  -0.014736
               7          8          9         10         11         12
     1  C   -0.162097  -0.050224  -0.078078  -0.012589  -1.217121  -0.003633
     2  C   -0.938606  -0.535733  -0.058928   0.680419  -1.542328   0.005826
     3  N   -0.901550   0.197834  -0.077702  -0.096121  -0.385917  -0.001351
     4  C    0.023224   0.003722  -0.029795   0.040567  -0.375168  -0.000030
     5  C   -0.094307  -0.016738   0.010853   0.003324   0.236842  -0.000361
     6  C  -12.664075   2.314222  -2.473834  -0.285933  -4.353972  -0.111396
     7  C   26.970346  -5.530365   2.622546  -0.168039  -1.949820   0.045791
     8  C   -5.530365  12.776897  -3.426396  -0.109994   0.123484  -0.034813
     9  C    2.622546  -3.426396  10.639788   0.308714  -0.900531   0.057607
    10  N   -0.168039  -0.109994   0.308714   7.744325  -0.671897  -0.214403
    11  C   -1.949820   0.123484  -0.900531  -0.671897  16.446273   0.010762
    12  O    0.045791  -0.034813   0.057607  -0.214403   0.010762   8.007920
    13  O    0.002963  -0.003417  -0.002068   0.005271   0.003437  -0.089042
    14  O   -0.000764   0.012162  -0.015419   0.000546  -0.036966   0.001956
    15  O   -0.030072   0.003512  -0.000466   0.006401  -0.085534  -0.000802
    16  H    0.026382  -0.001023  -0.000527   0.004346  -0.023476   0.000100
    17  H    0.008498   0.001084   0.000990   0.000661   0.017298  -0.000001
    18  H   -0.005688  -0.001432  -0.002116  -0.004421  -0.011018  -0.000163
    19  H   -0.007889  -0.010382  -0.003364  -0.010949   0.335726   0.000346
    20  H   -0.002447  -0.031894   0.023630   0.019722  -0.272748  -0.003812
    21  H    0.009483  -0.004572   0.000232  -0.001941   0.003424  -0.000045
    22  H    0.020185   0.036747   0.029029  -0.017528  -0.139717   0.000054
    23  H   -0.224341   0.224155  -0.354649  -0.153353  -0.733611   0.065311
    24  H    0.228348   0.193448  -0.654072  -0.169598   0.191738   0.016701
    25  H    0.631290  -1.245761   0.470215   0.007535  -0.170491  -0.000477
    26  H   -3.104238   0.853714  -0.383433  -0.050684   0.064028   0.000356
    27  C   -0.258134   0.119513  -0.066636  -0.031907   0.067337   0.000133
    28  H   -0.001721  -0.089213  -0.491533   0.161213   0.250565   0.004466
    29  H   -0.006800   0.001312  -0.003825  -0.003218  -0.046876   0.000472
    30  H   -0.000682   0.000646   0.000543   0.001744   0.025166   0.000791
    31  H   -0.001529   0.015569  -0.012035  -0.007392   0.008483   0.330701
    32  H    0.000264  -0.000474  -0.014916  -0.002629  -0.003454   0.358154
    33  H   -0.000682   0.000239  -0.000205  -0.001667   0.002979   0.002063
    34  H    0.004523  -0.003831   0.003150   0.003126  -0.011219  -0.008736
    35  H   -0.046028  -0.014120   0.017378   0.006954  -0.004721  -0.002067
    36  H    0.007948  -0.000031  -0.000502  -0.001115   0.025172   0.000162
    37  O   -0.000613   0.000104  -0.001374   0.009116  -0.005887  -0.050455
    38  H   -0.000274   0.000580  -0.002344   0.000558   0.000409  -0.000818
    39  H   -0.000183  -0.000115   0.001206  -0.000225  -0.001107   0.002575
    40  H   -0.061938   0.018893  -0.004156  -0.005146   0.021220  -0.000014
    41  H    0.072831  -0.029955   0.002880   0.004847  -0.004752   0.000028
    42  H    0.105338  -0.009468  -0.000887   0.001056   0.026220   0.000000
              13         14         15         16         17         18
     1  C    0.000623  -0.001174   0.011480   0.139337   0.263507   0.265783
     2  C    0.000976   0.013612   0.065812   0.584083   0.147487  -0.119875
     3  N   -0.000148   0.023370  -0.048071  -0.836551  -0.176165   0.227628
     4  C    0.000003  -0.000164  -0.016770  -0.286014   0.210302  -0.074493
     5  C   -0.000166  -0.023238   0.022483   0.146669  -0.351166  -0.486223
     6  C    0.014744  -0.007071   0.060456  -0.195275  -0.089478   0.043275
     7  C    0.002963  -0.000764  -0.030072   0.026382   0.008498  -0.005688
     8  C   -0.003417   0.012162   0.003512  -0.001023   0.001084  -0.001432
     9  C   -0.002068  -0.015419  -0.000466  -0.000527   0.000990  -0.002116
    10  N    0.005271   0.000546   0.006401   0.004346   0.000661  -0.004421
    11  C    0.003437  -0.036966  -0.085534  -0.023476   0.017298  -0.011018
    12  O   -0.089042   0.001956  -0.000802   0.000100  -0.000001  -0.000163
    13  O    7.803931  -0.040729  -0.001242  -0.000106  -0.000021   0.000159
    14  O   -0.040729   7.927367  -0.039163  -0.000421  -0.003231   0.035950
    15  O   -0.001242  -0.039163   7.948718   0.001200  -0.001665   0.012468
    16  H   -0.000106  -0.000421   0.001200   2.815827   0.107382  -0.341272
    17  H   -0.000021  -0.003231  -0.001665   0.107382   2.093558  -0.620573
    18  H    0.000159   0.035950   0.012468  -0.341272  -0.620573   2.461246
    19  H   -0.000143  -0.001009  -0.002336  -0.035278  -0.332159   0.241586
    20  H    0.004462  -0.002355   0.013730   0.052949   0.188981  -0.472025
    21  H    0.000033   0.000658   0.001573  -0.610340  -0.216723   0.237820
    22  H    0.000047   0.002565   0.003211   0.071059   0.059110  -0.083497
    23  H   -0.028703  -0.023513  -0.060962  -0.041291  -0.010684   0.063027
    24  H    0.000338   0.000089   0.000368  -0.000091   0.000025   0.000162
    25  H   -0.000079   0.000265   0.000039   0.000092   0.000066  -0.000085
    26  H    0.000080  -0.000163  -0.001800  -0.003138   0.000439   0.001301
    27  C   -0.000199   0.003696  -0.001831  -0.168285  -0.022340   0.045675
    28  H    0.011733   0.007006   0.001637   0.000989   0.000384  -0.002944
    29  H   -0.002527   0.330850   0.024548   0.001775   0.003079  -0.006074
    30  H    0.003111   0.310521  -0.004087  -0.000890   0.002773  -0.002820
    31  H    0.009518  -0.003218   0.001560   0.000261   0.000071  -0.001238
    32  H    0.002785  -0.000594  -0.000640  -0.000086  -0.000056   0.000543
    33  H    0.367297  -0.006728  -0.000640  -0.000026   0.000023  -0.000116
    34  H    0.277525   0.051914   0.002087   0.000208  -0.000754   0.004293
    35  H    0.000311  -0.018731   0.092922   0.124080   0.020667  -0.040660
    36  H    0.000661   0.012056   0.415128  -0.003787  -0.001788   0.008410
    37  O    0.000469   0.000031   0.000003   0.000002   0.000001  -0.000027
    38  H    0.000064   0.000012   0.000004   0.000001   0.000000  -0.000008
    39  H   -0.000218   0.000027   0.000003   0.000000   0.000001  -0.000009
    40  H   -0.000008  -0.000084   0.001783  -0.015236  -0.002404   0.011523
    41  H    0.000002   0.000039   0.007720   0.002559   0.001533  -0.007383
    42  H   -0.000026   0.000032  -0.003616   0.017844  -0.002383   0.002114
              19         20         21         22         23         24
     1  C   -1.392714   0.013982  -0.012799   0.739552  -0.365149   0.000624
     2  C    0.603840   0.024387  -0.117617  -3.034510  -0.176246  -0.010271
     3  N    0.356950  -0.155770  -0.142817   0.102717  -0.136695   0.002177
     4  C   -0.287393   0.136025  -0.183699  -0.039085  -0.025004  -0.000372
     5  C    0.171276   0.323770   0.012549   0.042111   0.090476   0.000462
     6  C    0.139521  -0.210252   0.152467   1.076186  -0.303594  -0.132039
     7  C   -0.007889  -0.002447   0.009483   0.020185  -0.224341   0.228348
     8  C   -0.010382  -0.031894  -0.004572   0.036747   0.224155   0.193448
     9  C   -0.003364   0.023630   0.000232   0.029029  -0.354649  -0.654072
    10  N   -0.010949   0.019722  -0.001941  -0.017528  -0.153353  -0.169598
    11  C    0.335726  -0.272748   0.003424  -0.139717  -0.733611   0.191738
    12  O    0.000346  -0.003812  -0.000045   0.000054   0.065311   0.016701
    13  O   -0.000143   0.004462   0.000033   0.000047  -0.028703   0.000338
    14  O   -0.001009  -0.002355   0.000658   0.002565  -0.023513   0.000089
    15  O   -0.002336   0.013730   0.001573   0.003211  -0.060962   0.000368
    16  H   -0.035278   0.052949  -0.610340   0.071059  -0.041291  -0.000091
    17  H   -0.332159   0.188981  -0.216723   0.059110  -0.010684   0.000025
    18  H    0.241586  -0.472025   0.237820  -0.083497   0.063027   0.000162
    19  H    2.735792  -0.892666   0.054107  -0.423059   0.172369   0.000460
    20  H   -0.892666   2.826059  -0.040967   0.301631  -0.414669  -0.002664
    21  H    0.054107  -0.040967   2.378322  -0.093516   0.008238   0.000130
    22  H   -0.423059   0.301631  -0.093516   3.362709  -0.087173  -0.001367
    23  H    0.172369  -0.414669   0.008238  -0.087173   4.901386   0.040195
    24  H    0.000460  -0.002664   0.000130  -0.001367   0.040195   2.343686
    25  H   -0.001517   0.001581  -0.000555   0.008643  -0.007958  -0.123857
    26  H    0.009323  -0.016399   0.004590  -0.143812  -0.012214  -0.009916
    27  C    0.093985  -0.105985  -0.004877  -0.056279   0.091204   0.001590
    28  H   -0.000785   0.002697  -0.000529   0.004184  -0.184140  -0.233233
    29  H   -0.007733   0.012175  -0.000172   0.004962  -0.000984  -0.000346
    30  H    0.000003   0.013273  -0.000603  -0.000920  -0.020966   0.000072
    31  H   -0.000608   0.004408   0.000010   0.000265  -0.021362   0.003829
    32  H    0.000269  -0.001611   0.000017  -0.000164   0.012213   0.003608
    33  H    0.000044  -0.000749  -0.000002  -0.000052   0.005156  -0.000199
    34  H   -0.000356   0.002508   0.000145   0.000272  -0.013527  -0.000133
    35  H   -0.027835   0.074141  -0.017296   0.021366  -0.191168  -0.001223
    36  H    0.001569  -0.005924   0.003718  -0.001375   0.028864   0.000053
    37  O   -0.000009   0.000159  -0.000000   0.000009  -0.002576  -0.000051
    38  H   -0.000001   0.000020  -0.000000   0.000005  -0.000016   0.000255
    39  H   -0.000005   0.000061  -0.000000  -0.000003  -0.000846  -0.000169
    40  H    0.002411  -0.009950   0.012348   0.011260   0.015846   0.000355
    41  H   -0.006240   0.013580  -0.002307   0.005126  -0.000794  -0.002441
    42  H    0.014656  -0.012201   0.063640   0.024838   0.016532   0.000181
              25         26         27         28         29         30
     1  C    0.007258  -0.076189  -0.371499  -0.008697   0.050800  -0.010265
     2  C    0.054620   0.016193  -0.794628   0.043990   0.010105  -0.003710
     3  N   -0.002492   0.027455   1.069818  -0.009177  -0.027258   0.003685
     4  C   -0.001408   0.006053  -0.221398  -0.005586   0.018566   0.006256
     5  C    0.001518  -0.009616   0.043840  -0.003508  -0.032967  -0.000776
     6  C   -0.024781   1.704256   0.492481  -0.368732   0.008974  -0.003296
     7  C    0.631290  -3.104238  -0.258134  -0.001721  -0.006800  -0.000682
     8  C   -1.245761   0.853714   0.119513  -0.089213   0.001312   0.000646
     9  C    0.470215  -0.383433  -0.066636  -0.491533  -0.003825   0.000543
    10  N    0.007535  -0.050684  -0.031907   0.161213  -0.003218   0.001744
    11  C   -0.170491   0.064028   0.067337   0.250565  -0.046876   0.025166
    12  O   -0.000477   0.000356   0.000133   0.004466   0.000472   0.000791
    13  O   -0.000079   0.000080  -0.000199   0.011733  -0.002527   0.003111
    14  O    0.000265  -0.000163   0.003696   0.007006   0.330850   0.310521
    15  O    0.000039  -0.001800  -0.001831   0.001637   0.024548  -0.004087
    16  H    0.000092  -0.003138  -0.168285   0.000989   0.001775  -0.000890
    17  H    0.000066   0.000439  -0.022340   0.000384   0.003079   0.002773
    18  H   -0.000085   0.001301   0.045675  -0.002944  -0.006074  -0.002820
    19  H   -0.001517   0.009323   0.093985  -0.000785  -0.007733   0.000003
    20  H    0.001581  -0.016399  -0.105985   0.002697   0.012175   0.013273
    21  H   -0.000555   0.004590  -0.004877  -0.000529  -0.000172  -0.000603
    22  H    0.008643  -0.143812  -0.056279   0.004184   0.004962  -0.000920
    23  H   -0.007958  -0.012214   0.091204  -0.184140  -0.000984  -0.020966
    24  H   -0.123857  -0.009916   0.001590  -0.233233  -0.000346   0.000072
    25  H    2.112461  -0.139494  -0.008983   0.014204   0.000056  -0.000008
    26  H   -0.139494   3.150142   0.070415   0.003003  -0.000535   0.000140
    27  C   -0.008983   0.070415   4.762832  -0.004370  -0.007734   0.000991
    28  H    0.014204   0.003003  -0.004370   1.740740   0.002673  -0.000595
    29  H    0.000056  -0.000535  -0.007734   0.002673   0.488296  -0.101059
    30  H   -0.000008   0.000140   0.000991  -0.000595  -0.101059   0.593072
    31  H   -0.000266  -0.000121  -0.000990  -0.009144   0.002183  -0.000163
    32  H    0.000203  -0.000106   0.000678   0.006466  -0.000251   0.000099
    33  H    0.000010  -0.000007   0.000094  -0.002077   0.000919  -0.000191
    34  H   -0.000068  -0.000018  -0.000927   0.001505  -0.019899   0.003780
    35  H    0.000700   0.001956  -0.186412   0.005516   0.021694   0.001515
    36  H   -0.000046   0.000368   0.013649  -0.000682  -0.012789  -0.000451
    37  O    0.000026  -0.000019  -0.000009   0.006126   0.000104   0.000022
    38  H   -0.000031   0.000003  -0.000009   0.003816   0.000022   0.000002
    39  H    0.000020  -0.000007  -0.000000   0.000929   0.000009   0.000004
    40  H   -0.001190   0.005080   0.247051  -0.000701  -0.000057  -0.000030
    41  H    0.000801  -0.040735  -0.022788   0.001832  -0.000133  -0.000177
    42  H   -0.000266   0.016147   0.272057   0.000071  -0.000498   0.000264
              31         32         33         34         35         36
     1  C    0.003749  -0.001070  -0.000136   0.002687   0.142685  -0.003734
     2  C    0.010519  -0.005625  -0.001063   0.003831   0.380699  -0.024169
     3  N   -0.000994   0.000997   0.000052  -0.000091  -0.152935  -0.047103
     4  C    0.001618  -0.000339   0.000146  -0.002008  -0.076290   0.017078
     5  C   -0.001922   0.000446  -0.000176   0.003416  -0.059245   0.010280
     6  C   -0.000650   0.008589  -0.000503   0.006098  -0.132138  -0.002164
     7  C   -0.001529   0.000264  -0.000682   0.004523  -0.046028   0.007948
     8  C    0.015569  -0.000474   0.000239  -0.003831  -0.014120  -0.000031
     9  C   -0.012035  -0.014916  -0.000205   0.003150   0.017378  -0.000502
    10  N   -0.007392  -0.002629  -0.001667   0.003126   0.006954  -0.001115
    11  C    0.008483  -0.003454   0.002979  -0.011219  -0.004721   0.025172
    12  O    0.330701   0.358154   0.002063  -0.008736  -0.002067   0.000162
    13  O    0.009518   0.002785   0.367297   0.277525   0.000311   0.000661
[...]
 ,-0.00000321,-0.00176771,-0.00064334,-0.00245273,0.00002165,-0.0000915
 9,-0.00009521,-0.00002149,-0.00000358,-0.00004341,0.00001155,-0.000003
 08,-0.00004451,-0.00000164,-0.00000119,-0.00000220,0.00000026,-0.00000
 020,-0.00000046,-0.00000009,-0.00000055,0.00000121,0.00000402,-0.00000
 218,-0.00000292,-0.00000210,0.00000388,0.00000352,0.00000033,0.0000007
 4,-0.00000031,-0.00000110,-0.00000173,-0.00000244,0.00001147,0.0000022
 8,0.00000840,-0.00002619,0.00000481,0.00007468,-0.00000684,0.00000329,
 0.00001190,0.00000301,0.00000053,0.00000361,-0.00000263,-0.00000763,0.
 00000938,0.00020336,-0.00015517,0.00004240,0.00001427,-0.00001085,0.00
 003877,0.00000575,0.00000318,0.00001237,-0.00007167,0.00016916,0.00001
 878,0.00166188,0.00109013,0.00449300,-0.00005840,-0.00003369,0.0000550
 2,0.00000460,0.00000962,0.00001739,-0.00001110,0.00001457,0.00001516,-
 0.00001328,0.00000061,0.00001223,0.18632917,0.02357597,-0.16447474,-0.
 22688880,-0.02401532,0.18265437,-0.00001425,0.00001227,0.00000156,-0.0
 0002163,0.00000147,-0.00001393,0.00002561,-0.00000810,0.00001673,-0.00
 001028,0.00000259,0.00000323,-0.00000386,-0.00000597,0.00000328,-0.000
 01115,-0.00004464,0.00000885,0.00000378,0.00002768,-0.00000935,-0.0000
 2534,0.00000890,0.00001815,0.00004729,0.00005026,-0.00004356,-0.000042
 40,0.00007396,0.00004938,-0.00005848,0.00002009,-0.00001019,-0.0022005
 2,-0.00153718,0.00027039,0.00002532,-0.00009017,0.00020608,0.00009155,
 -0.00000664,0.00008418,0.00002105,-0.00001248,0.00005201,0.00000190,0.
 00000285,0.00000536,0.00000332,0.00000002,-0.00000098,-0.00000284,-0.0
 0000174,-0.00000107,-0.00000745,0.00000255,0.00000296,0.00000389,-0.00
 000918,-0.00000794,0.00000386,-0.00000611,-0.00000069,0.00000413,-0.00
 000346,0.00000460,-0.00001873,-0.00000428,-0.00002802,0.00003973,-0.00
 002527,-0.00001854,0.00000147,0.00000196,-0.00000719,-0.00000077,-0.00
 000073,-0.00000310,-0.00000672,0.00001728,-0.00001227,0.00012424,-0.00
 011586,-0.00018568,-0.00003529,0.00003370,-0.00007146,-0.00002393,-0.0
 0001568,-0.00001931,-0.00035877,0.00026599,-0.00056834,0.00339419,0.00
 317348,-0.00126403,0.00003732,-0.00002286,-0.00001175,-0.00006994,-0.0
 0000949,-0.00005230,-0.00000632,0.00000245,-0.00000550,0.00000311,-0.0
 0000628,-0.00001020,-0.07565028,0.05702632,-0.12851650,0.00644999,-0.0
 1587947,0.04068002,0.06828223,-0.00001754,0.00000283,-0.00000583,0.000
 03303,0.00001758,0.00000995,-0.00000168,-0.00004686,-0.00001058,-0.000
 00011,0.00000939,-0.00000965,-0.00000333,0.00001154,0.00000875,0.00003
 322,-0.00005142,0.00000601,0.00003989,0.00002752,-0.00001138,-0.000055
 92,-0.00000518,0.00000155,0.00005509,-0.00002261,-0.00001028,0.0000436
 8,0.00000649,-0.00002380,-0.00003120,0.00004742,0.00001484,-0.00166361
 ,-0.00096865,-0.00024137,0.00030300,-0.00021289,0.00016977,0.00018150,
 -0.00010929,0.00003163,0.00005118,-0.00008417,0.00001621,-0.00000589,-
 0.00000101,-0.00000107,-0.00000201,-0.00000300,-0.00000031,-0.00000415
 ,-0.00001011,-0.00000460,0.00000525,-0.00000213,-0.00000251,0.00000191
 ,0.00001342,0.00000218,0.00000136,-0.00000467,0.00000222,-0.00000004,-
 0.00001020,0.00000024,-0.00001051,0.00004380,-0.00000489,-0.00000747,0
 .00001573,0.00004889,0.00000965,-0.00000509,0.00001176,0.00000216,0.00
 000175,0.00000417,-0.00000221,0.00000758,-0.00000785,-0.00014285,0.000
 10168,0.00004779,-0.00005418,0.00006370,-0.00007112,-0.00003725,0.0000
 1435,-0.00000624,-0.00023762,0.00041652,-0.00035233,0.00229461,0.00120
 225,-0.00060987,-0.00007567,-0.00000166,-0.00006133,-0.00021968,0.0000
 6724,0.00003510,-0.00002975,0.00006319,0.00002995,-0.00000793,0.000007
 63,0.00000073,0.03848026,-0.07720608,0.18518628,0.00399133,-0.00068898
 ,0.00003557,-0.04291513,0.07729583,0.00000511,0.00000171,0.00001172,-0
 .00002601,-0.00000612,0.00001779,0.00003460,-0.00000443,-0.00003002,-0
 .00001535,-0.00000947,0.00001516,-0.00000243,0.00000705,-0.00000633,0.
 00000930,-0.00000684,-0.00000946,-0.00000100,-0.00001411,0.00000191,0.
 00005588,-0.00000946,-0.00001731,-0.00002539,0.00006272,0.00001257,0.0
 0025975,-0.00021774,-0.00003833,-0.00004764,-0.00004982,0.00002196,0.0
 0133437,-0.00020469,0.00059937,0.00027117,0.00014205,-0.00012059,0.000
 10206,-0.00001355,-0.00007912,0.00004779,-0.00001261,-0.00001937,-0.00
 000023,0.00000211,-0.00000188,0.00000604,0.00000030,-0.00000135,-0.000
 00302,-0.00000247,0.00000268,0.00001202,-0.00000709,-0.00000468,-0.000
 00200,0.00000535,0.00001564,0.00000530,-0.00000254,-0.00000241,0.00001
 097,-0.00000155,-0.00000212,-0.00001576,0.00000828,0.00001793,-0.00003
 319,0.00003446,0.00000761,0.00000338,-0.00000220,0.00000822,0.00000615
 ,-0.00000015,0.00000348,-0.00001015,0.00000416,0.00000243,-0.00059878,
 0.00043766,0.00009865,-0.00002125,-0.00000111,0.00000647,0.00000381,0.
 00000306,0.00003619,-0.00038653,-0.00023005,-0.00008645,-0.00168840,0.
 00046042,-0.00174016,-0.00005762,-0.00003679,0.00000495,-0.00015941,0.
 00002733,0.00009854,-0.00002930,0.00002648,0.00002081,-0.00001391,-0.0
 0000304,0.00000432,-0.07587905,0.17358345,-0.43758640,-0.01261382,0.01
 025906,-0.02034609,0.08945922,-0.18423289,0.45909079,0.00016394,-0.000
 52453,-0.00029374,0.00031528,0.00139703,-0.00017733,-0.00574146,-0.003
 82828,-0.00634424,0.00065525,0.00002239,0.00106407,-0.00013526,0.00007
 450,0.00007836,0.00035421,0.00015450,-0.00013058,-0.00005229,0.0002012
 7,0.00008795,0.00004203,0.00001090,-0.00002264,0.00001309,-0.00001863,
 -0.00002817,-0.00018028,0.00005255,0.00007229,0.00024789,-0.00013912,-
 0.00007283,-0.00007128,0.00009487,0.00002799,0.00002269,0.00002480,0.0
 0002062,0.00006040,0.00001395,0.00017189,0.00003016,-0.00004620,0.0007
 0790,0.00033224,0.00004371,-0.00014796,0.00002735,0.00001534,0.0000383
 0,-0.00001243,0.00003279,-0.00002209,0.00000724,0.00016813,-0.00012184
 ,0.00000741,-0.00003629,0.00003779,0.00000261,0.00023428,-0.00003591,0
 .00002551,-0.00026767,-0.00026918,-0.00000478,-0.00005317,-0.00001206,
 0.00000333,0.00000196,-0.00000099,-0.00001385,0.00000063,0.00000082,-0
 .00005481,0.00001760,0.00002422,-0.09949737,-0.06219264,-0.08768865,0.
 00015149,-0.00013696,-0.00002637,-0.00012057,0.00007635,-0.00026678,0.
 00001957,-0.00000716,-0.00001278,-0.00002132,-0.00005413,-0.00001133,0
 .00001318,0.00000075,0.00000088,-0.00000691,0.00000504,-0.00001250,-0.
 00001841,-0.00000510,-0.00001305,0.00006390,-0.00038405,-0.00091162,-0
 .00011049,0.00038678,-0.00009148,-0.00001089,0.00000513,0.00000313,0.0
 0000222,-0.00000189,-0.00000428,0.00000339,-0.00000356,-0.00000144,0.1
 0425411,0.00023819,0.00052906,0.00120039,0.00025429,-0.00288842,0.0026
 7971,0.01301206,0.01220982,0.02094014,0.00057837,0.00147129,0.00074583
 ,0.00033124,0.00025802,-0.00021764,-0.00043294,-0.00002441,0.00009371,
 0.00012702,-0.00014782,-0.00007703,0.00003720,0.00010517,-0.00005363,0
 .00003897,0.00002194,-0.00001321,-0.00018534,0.00001914,0.00005569,0.0
 0026400,-0.00009568,-0.00008198,-0.00006820,0.00004636,0.00000520,-0.0
 0001838,0.00001978,-0.00000200,-0.00002672,0.00003169,-0.00006450,-0.0
 0020966,-0.00002788,-0.00013691,-0.00006711,-0.00011056,-0.00028215,-0
 .00002339,-0.00000188,-0.00005567,-0.00002901,-0.00002159,-0.00000836,
 0.00006820,-0.00024260,0.00028077,0.00004838,-0.00000114,0.00008335,-0
 .00013815,-0.00041006,-0.00016435,-0.00014926,0.00027300,0.00042898,-0
 .00002586,-0.00000311,0.00001594,-0.00000602,0.00001227,0.00000252,0.0
 0001200,0.00000656,-0.00000675,0.00002270,0.00014755,0.00010986,-0.066
 70722,-0.12780420,-0.11097497,0.00010857,-0.00008634,-0.00000691,0.000
 04075,-0.00004516,0.00008831,-0.00000330,-0.00000115,0.00001124,-0.000
 00100,-0.00002066,-0.00000131,0.00002439,0.00000692,0.00000909,0.00000
 696,-0.00000533,-0.00000177,0.00002202,-0.00001037,0.00000009,0.000089
 33,0.00033611,0.00024790,0.00012506,-0.00004709,-0.00004298,-0.0000166
 6,-0.00000127,-0.00000502,0.00000364,0.00000005,-0.00000192,0.00000320
 ,-0.00000112,0.00000158,0.06686818,0.13343223,-0.00071639,-0.00069541,
 -0.00086719,0.00033563,0.00452155,-0.00214095,-0.01352892,-0.01115584,
 -0.02217733,-0.00079121,-0.00161959,0.00050496,-0.00017250,0.00002835,
 0.00011073,0.00070739,0.00014776,0.00002396,-0.00005301,0.00000095,0.0
 0012610,-0.00005728,-0.00003472,0.00006483,-0.00003788,-0.00007258,-0.
 00001534,0.00000479,0.00007656,-0.00000562,-0.00022500,0.00002999,0.00
 010781,-0.00003191,0.00003167,0.00000914,-0.00000120,0.00001436,0.0000
 0568,0.00000732,0.00004238,0.00007134,-0.00011341,0.00033682,0.0002838
 5,0.00033339,0.00073521,-0.00010683,0.00005034,0.00001666,0.00006822,0
 .00004782,0.00001809,0.00002185,-0.00000167,0.00028935,-0.00024748,0.0
 0004887,0.00017349,-0.00018410,0.00022506,-0.00011199,-0.00015541,0.00
 011896,0.00017693,0.00037754,0.00001569,-0.00002978,-0.00002705,0.0000
 0427,-0.00000023,-0.00000635,-0.00001572,-0.00000447,-0.00000428,0.000
 06046,0.00001057,-0.00006324,-0.08544841,-0.10261147,-0.18955362,0.000
 04564,-0.00005070,-0.00000919,-0.00004855,0.00001604,-0.00008234,-0.00
 000060,-0.00001748,-0.00001311,-0.00000440,-0.00001919,-0.00000349,0.0
 0001039,0.00000196,0.00000239,-0.00000047,-0.00000249,-0.00000212,0.00
 000430,-0.00000730,-0.00000631,0.00009777,-0.00052009,-0.00053262,-0.0
 0013283,0.00013239,0.00006039,-0.00000811,0.00000059,-0.00000048,0.000
 00197,-0.00000034,-0.00000116,0.00000288,-0.00000118,-0.00000017,0.098
 35632,0.10904079,0.21085626,-0.00001689,0.00007493,0.00025899,0.000197
 98,-0.00054697,-0.00025791,0.01112522,0.00545177,-0.00390226,0.0001576
 7,0.00091496,-0.00123134,0.00045992,0.00021013,-0.00048516,-0.00064870
 ,0.00050170,-0.00084407,-0.00054958,-0.00045798,-0.00046950,0.00022667
 ,-0.00002460,-0.00020362,-0.00001339,0.00025313,0.00001742,-0.00036638
 ,-0.00019407,0.00016078,0.00067805,-0.00006052,-0.00017937,-0.00001031
 ,0.00003387,-0.00000664,0.00002856,0.00001286,-0.00001182,0.00005729,-
 0.00000840,-0.00000150,0.00015989,-0.00015571,-0.00016111,-0.00001857,
 0.00015911,0.00000839,-0.00005216,0.00007907,-0.00009762,0.00005460,-0
 .00001864,0.00006889,0.00000075,-0.00000703,0.00004169,0.00002340,-0.0
 0001311,0.00001006,0.00035118,0.00004007,-0.00035562,-0.00023166,0.000
 06929,-0.00009252,-0.00002502,-0.00002528,-0.00001534,-0.00000437,0.00
 000429,0.00000518,0.00002980,0.00001414,0.00003499,-0.00002510,0.00012
 536,0.00016007,-0.23931005,-0.09650127,0.08314348,0.00004112,-0.000046
 18,-0.00001412,-0.00003176,0.00001661,-0.00001314,-0.00001617,0.000014
 21,0.00000093,-0.00001310,-0.00002608,0.00000357,0.00000230,-0.0000010
 1,0.00000314,-0.00000353,0.00000017,0.00000371,-0.00003639,0.00000079,
 0.00001024,-0.00007093,0.00010354,0.00017605,-0.00004801,-0.00006750,0
 .00005941,-0.00000085,0.00000404,-0.00000458,0.00000035,-0.00000218,0.
 00000206,-0.00000082,-0.00000217,0.00000188,-0.01009045,-0.00360667,0.
 00548960,0.25230576,-0.00008480,-0.00018578,-0.00012776,-0.00051619,0.
 00021500,-0.00073439,-0.01898470,-0.01413977,0.00900312,0.00310036,-0.
 00072806,0.00316344,-0.00133822,-0.00020877,0.00063371,-0.00006479,0.0
 0030071,-0.00009109,-0.00016465,0.00022501,-0.00023579,-0.00001176,-0.
 00004410,-0.00000861,0.00001643,0.00003252,0.00003000,0.00011721,-0.00
 003623,-0.00003473,0.00012542,-0.00003599,-0.00002305,-0.00001334,-0.0
 0000318,-0.00003156,0.00000752,0.00001747,-0.00003161,0.00002706,0.000
 00886,-0.00014311,0.00048193,0.00012562,-0.00062867,0.00020321,0.00026
 383,-0.00014521,0.00023756,-0.00022944,0.00039387,-0.00000792,-0.00003
 630,-0.00002329,0.00002272,0.00003910,0.00001058,0.00003727,0.00002704
 ,0.00002941,-0.00037254,0.00007638,0.00023383,0.00028152,-0.00000123,0
 .00021366,-0.00000468,-0.00002646,0.00003104,0.00001041,-0.00000697,0.
 00000177,-0.00000802,0.00000526,0.00000364,0.00006173,-0.00006664,-0.0
 0012538,-0.09008272,-0.09374016,0.03976461,-0.00000193,0.00000806,0.00
 002453,0.00004748,-0.00005979,0.00018350,-0.00003908,0.00002466,0.0000
 1688,0.00000400,-0.00001088,0.00001513,0.00001686,0.00000788,0.0000096
 7,0.00000405,-0.00000865,0.00001142,-0.00002245,-0.00000585,0.00002187
 ,-0.00094707,0.00021873,0.00079027,-0.00009236,-0.00023686,0.00006314,
 -0.00000728,-0.00000479,-0.00001179,0.00000119,0.00000102,0.00000335,-
 0.00000124,0.00000066,0.00000421,-0.01314250,-0.00648403,0.00654464,0.
 10251102,0.10421349,0.00012712,0.00018735,0.00018132,0.00155124,0.0003
 4178,0.00084730,0.02192396,0.01467485,-0.01171136,-0.00336606,0.001208
 08,-0.00330489,0.00114128,0.00089890,-0.00036934,-0.00018985,-0.000114
 97,-0.00072514,-0.00055468,-0.00022775,-0.00033809,-0.00005139,-0.0001
 6701,0.00007592,-0.00001895,-0.00001162,-0.00000576,0.00036820,-0.0000
 8123,-0.00009734,-0.00049790,0.00027968,0.00013654,0.00016545,-0.00017
 824,-0.00002075,-0.00003403,-0.00006412,0.00000323,-0.00010485,-0.0000
 4966,-0.00001778,-0.00029437,0.00027878,0.00004032,0.00013743,0.000310
 85,0.00017871,-0.00021034,0.00020398,-0.00031864,-0.00005528,0.0000762
 5,-0.00015460,-0.00001220,-0.00004621,0.00003152,-0.00005960,-0.000021
 65,-0.00002279,-0.00023946,-0.00017861,0.00005393,0.00001587,-0.000200
 86,-0.00013756,0.00008954,0.00005007,-0.00001321,0.00000448,-0.0000132
 2,0.00000399,-0.00000249,-0.00000190,0.00001397,0.00006053,-0.00013439
 ,-0.00012589,0.07675979,0.03870312,-0.08133566,-0.00031396,0.00026050,
 0.00003211,0.00007940,0.00000040,0.00007034,0.00002852,-0.00002279,-0.
 00000996,0.00003329,0.00010275,0.00000492,-0.00004715,-0.00000988,-0.0
 0001727,0.00000016,0.00000296,0.00000542,0.00004188,0.00001776,-0.0000
 0423,0.00040613,-0.00037990,-0.00020973,-0.00004517,-0.00003239,0.0000
 2749,0.00003260,-0.00000581,0.00000968,-0.00000698,0.00000304,0.000003
 94,-0.00000500,0.00000646,-0.00000338,-0.01941450,-0.00938219,0.010031
 89,-0.08639854,-0.05052077,0.09070634,0.00029865,-0.00025350,-0.000089
 52,0.00045192,0.00134130,0.00205226,-0.00701466,0.01082129,-0.00405756
 ,0.00170412,-0.00218998,-0.00038207,0.00012019,-0.00020625,0.00015092,
 0.00000725,-0.00023480,-0.00004021,-0.00027781,0.00050470,0.00014169,0
 .00005364,-0.00010264,0.00002828,0.00000369,0.00000178,-0.00000363,0.0
 0017602,-0.00007072,-0.00001564,-0.00005241,0.00011970,0.00000385,-0.0
 0001669,-0.00004274,-0.00001626,-0.00006077,-0.00000122,-0.00000675,-0
 .00011832,0.00005449,-0.00012031,-0.00052024,0.00081729,0.00046024,-0.
 00000310,0.00010609,0.00000414,-0.00001729,0.00002112,-0.00005004,-0.0
 0004393,-0.00006495,0.00009837,0.00000789,0.00002060,-0.00009693,-0.00
 004123,-0.00016581,0.00009216,0.00058332,0.00091652,-0.00047297,-0.000
 23556,-0.00068888,-0.00104375,0.00006673,-0.00000680,0.00002643,0.0000
 1614,-0.00001591,-0.00000262,-0.00002460,0.00000481,0.00001331,-0.0000
 6461,-0.00018830,-0.00017292,-0.14647252,0.10635429,0.05404552,-0.0000
 2111,0.00003628,0.00001712,0.00013531,-0.00011808,0.00018152,0.0000052
 6,-0.00002045,0.00001696,0.00002543,0.00003249,0.00000355,0.00002148,0
 .00000979,0.00001211,0.00001319,-0.00001046,0.00000274,0.00007082,-0.0
 0001258,0.00000101,0.00086282,-0.00123100,-0.00097856,-0.00014842,0.00
 004080,-0.00002490,-0.00001305,-0.00001194,-0.00000828,0.00000271,0.00
 000422,0.00000072,0.00000239,0.00000432,0.00000288,0.00932433,-0.01060
 981,-0.00457940,-0.01431631,0.01859329,0.00895587,0.15550936,-0.000412
 62,0.00032068,-0.00015306,-0.00205843,0.00067454,-0.00188706,0.0174671
 2,-0.02455261,0.00410930,0.00345752,0.00100928,-0.00192102,-0.00040192
 ,0.00038394,0.00012571,-0.00022098,-0.00001184,0.00010941,0.00007400,-
 0.00010504,-0.00000154,0.00007474,0.00003413,-0.00003024,0.00001191,0.
 00006273,-0.00001177,0.00000363,-0.00000641,0.00002883,0.00001137,-0.0
 0012209,-0.00001542,0.00005790,0.00001370,-0.00000036,0.00008171,-0.00
 000729,-0.00000060,0.00015776,-0.00010038,0.00015726,0.00086716,-0.001
 16896,-0.00096249,-0.00018423,-0.00006295,-0.00004160,0.00000879,-0.00
 000059,0.00017819,-0.00016824,0.00014699,-0.00019640,-0.00000904,-0.00
 004211,0.00009954,-0.00001457,0.00010277,-0.00013459,-0.00142801,0.000
 02217,0.00069718,0.00042441,0.00092099,0.00142640,-0.00007694,0.000002
 79,-0.00003250,-0.00000423,0.00000538,-0.00000071,0.00001231,0.0000050
 1,0.00000012,0.00002145,0.00002831,0.00003539,0.10539225,-0.16663828,-
 0.05950358,-0.00004569,0.00002217,0.00001116,-0.00017964,0.00016783,-0
 .00023255,0.00000128,0.00002728,-0.00002424,-0.00002596,-0.00002684,0.
 00000189,-0.00003245,-0.00001067,-0.00001395,-0.00001720,0.00001255,0.
 00000064,-0.00010066,0.00002018,0.00000506,-0.00143169,0.00172185,0.00
 181002,0.00012539,-0.00007565,0.00004640,0.00002107,0.00001041,0.00000
 753,-0.00000462,-0.00000357,0.00000138,-0.00000506,-0.00000299,-0.0000
 0272,0.01093841,-0.01044508,-0.00543224,-0.00882966,0.01048862,0.00423
 759,-0.12355835,0.18717907,0.00028540,-0.00020464,0.00004608,-0.001097
 12,0.00465813,0.00404106,-0.01925685,0.02464127,0.00199038,-0.00371144
 ,0.00005382,0.00186265,0.00011629,-0.00023028,0.00005071,0.00008343,-0
 .00044076,-0.00028906,0.00006623,-0.00007353,0.00002181,-0.00006323,0.
 00000998,0.00000308,-0.00002527,-0.00007015,-0.00001006,0.00008246,-0.
 00000012,-0.00000469,-0.00003733,0.00008545,-0.00002511,0.00004282,-0.
 00001876,0.00001507,0.00000873,-0.00001597,0.00001563,0.00000445,-0.00
 000591,0.00005937,-0.00044414,0.00035656,0.00081830,0.00034804,-0.0000
 3280,-0.00029464,0.00003105,-0.00007510,-0.00004978,0.00002721,-0.0000
 8856,0.00000917,0.00006899,-0.00003531,-0.00005954,0.00004406,-0.00008
 155,0.00006916,0.00071746,-0.00133336,0.00012489,0.00133387,-0.0013157
 1,0.00030977,0.00002899,0.00000858,-0.00001290,-0.00000290,-0.00000118
 ,0.00000251,0.00000630,-0.00000656,0.00000098,-0.00001651,0.00000159,0
 .00004520,0.05472210,-0.06071748,-0.07951684,-0.00004104,0.00004361,-0
 .00000336,-0.00001981,0.00001695,-0.00009568,0.00000619,-0.00000263,-0
 .00000581,-0.00000210,0.00001146,-0.00000769,-0.00002365,-0.00000851,-
 0.00001325,-0.00000676,0.00000696,-0.00000603,-0.00000292,0.00000660,-
 0.00000842,0.00047005,-0.00020485,-0.00136130,-0.00013024,0.00029428,-
 0.00002342,0.00001508,0.00000574,0.00001043,-0.00000363,-0.00000162,-0
 .00000155,-0.00000200,-0.00000097,-0.00000358,0.01544180,-0.01445982,-
 0.00652117,0.00508526,-0.00828446,-0.00351548,-0.05414934,0.05750963,0
 .08233312\\-0.00000080,0.00000344,0.00000702,-0.00000927,-0.00000068,-
 0.00001952,-0.00001221,0.00000686,0.00002677,0.00001253,0.00001116,-0.
 00001386,-0.00000432,-0.00000525,0.00000551,0.00000206,0.00000111,0.00
 000056,-0.00000321,-0.00000304,0.00000077,0.00000399,-0.00000091,-0.00
 000018,0.00000007,0.00000360,0.00000117,-0.00000049,-0.00000113,0.0000
 0226,0.00000395,-0.00000068,-0.00000005,0.00000271,-0.00001255,0.00000
 286,-0.00000454,-0.00000596,0.00000132,-0.00001200,0.00000496,0.000000
 70,-0.00001011,0.00000223,0.00000809,-0.00000117,0.00000259,-0.0000012
 9,0.00000107,0.00000048,0.00000019,-0.00000030,-0.00000007,-0.00000081
 ,-0.00000005,-0.00000100,0.00000043,-0.00000096,-0.00000270,-0.0000029
 6,-0.00000116,-0.00000068,-0.00000012,0.00000195,-0.00000134,0.0000023
 9,0.00000018,0.00000217,-0.00000071,0.00000058,-0.00000075,0.00000110,
 0.00000042,-0.00000006,0.00000096,0.00000053,0.00000037,-0.00000008,0.
 00001042,-0.00001765,0.00000654,-0.00000054,-0.00000022,-0.00000055,0.
 00000955,-0.00000394,-0.00000633,0.00000361,-0.00000232,0.00000050,-0.
 00000236,0.00000854,-0.00000302,0.00000030,0.00000679,0.00000118,0.000
 00130,-0.00000033,-0.00000150,0.00000238,-0.00000095,0.00000202,0.0000
 0829,-0.00000496,-0.00001234,0.00000119,0.00000391,-0.00000138,-0.0000
 0140,-0.00000231,0.00000121,0.,-0.00000135,0.00000034,0.00000033,-0.00
 000133,0.00000152,-0.00000226,0.00000192,-0.00000388,0.00000211,0.0000
 0554,-0.00000503,-0.00000239,0.00000648,-0.00000180\\\@


 IT IS BY LOGIC THAT WE PROVE, BUT BY INTUITION THAT WE DISCOVER.
     -- J.H.POINCARE (1854-1912)
 Job cpu time:       1 days 16 hours 44 minutes 21.6 seconds.
 Elapsed time:       0 days  1 hours 27 minutes 30.7 seconds.
 File lengths (MBytes):  RWF=   1440 Int=      0 D2E=      0 Chk=     36 Scr=      8
 Normal termination of Gaussian 16 at Thu Jul 15 15:53:34 2021.
