 Entering Gaussian System, Link 0=g16
 Input=NicPyWa5h10wB97XD130K.gjf
 Output=NicPyWa5h10wB97XD130K.log
 Initial command:
 /sw/contrib/gaussian/g16/A03/g16/l1.exe "/gscratch/scrubbed/gds001/Gau-4557.inp" -scrdir="/gscratch/scrubbed/gds001/"
 Entering Link 1 = /sw/contrib/gaussian/g16/A03/g16/l1.exe PID=      4558.
  
 Copyright (c) 1988,1990,1992,1993,1995,1998,2003,2009,2016,
            Gaussian, Inc.  All Rights Reserved.
  
 This is part of the Gaussian(R) 16 program.  It is based on
 the Gaussian(R) 09 system (copyright 2009, Gaussian, Inc.),
 the Gaussian(R) 03 system (copyright 2003, Gaussian, Inc.),
 the Gaussian(R) 98 system (copyright 1998, Gaussian, Inc.),
 the Gaussian(R) 94 system (copyright 1995, Gaussian, Inc.),
 the Gaussian 92(TM) system (copyright 1992, Gaussian, Inc.),
 the Gaussian 90(TM) system (copyright 1990, Gaussian, Inc.),
 the Gaussian 88(TM) system (copyright 1988, Gaussian, Inc.),
 the Gaussian 86(TM) system (copyright 1986, Carnegie Mellon
 University), and the Gaussian 82(TM) system (copyright 1983,
 Carnegie Mellon University). Gaussian is a federally registered
 trademark of Gaussian, Inc.
  
 This software contains proprietary and confidential information,
 including trade secrets, belonging to Gaussian, Inc.
  
 This software is provided under written license and may be
 used, copied, transmitted, or stored only in accord with that
 written license.
  
 The following legend is applicable only to US Government
 contracts under FAR:
  
                    RESTRICTED RIGHTS LEGEND
  
 Use, reproduction and disclosure by the US Government is
 subject to restrictions as set forth in subparagraphs (a)
 and (c) of the Commercial Computer Software - Restricted
 Rights clause in FAR 52.227-19.
  
 Gaussian, Inc.
 340 Quinnipiac St., Bldg. 40, Wallingford CT 06492
  
  
 ---------------------------------------------------------------
 Warning -- This program may not be used in any manner that
 competes with the business of Gaussian, Inc. or will provide
 assistance to any competitor of Gaussian, Inc.  The licensee
 of this program is prohibited from giving any competitor of
 Gaussian, Inc. access to this program.  By using this program,
 the user acknowledges that Gaussian, Inc. is engaged in the
 business of creating and licensing software in the field of
 computational chemistry and represents and warrants to the
 licensee that it is not a competitor of Gaussian, Inc. and that
 it will not use this program in any manner prohibited above.
 ---------------------------------------------------------------
  

 Cite this work as:
 Gaussian 16, Revision A.03,
 M. J. Frisch, G. W. Trucks, H. B. Schlegel, G. E. Scuseria, 
 M. A. Robb, J. R. Cheeseman, G. Scalmani, V. Barone, 
 G. A. Petersson, H. Nakatsuji, X. Li, M. Caricato, A. V. Marenich, 
 J. Bloino, B. G. Janesko, R. Gomperts, B. Mennucci, H. P. Hratchian, 
 J. V. Ortiz, A. F. Izmaylov, J. L. Sonnenberg, D. Williams-Young, 
 F. Ding, F. Lipparini, F. Egidi, J. Goings, B. Peng, A. Petrone, 
 T. Henderson, D. Ranasinghe, V. G. Zakrzewski, J. Gao, N. Rega, 
 G. Zheng, W. Liang, M. Hada, M. Ehara, K. Toyota, R. Fukuda, 
 J. Hasegawa, M. Ishida, T. Nakajima, Y. Honda, O. Kitao, H. Nakai, 
 T. Vreven, K. Throssell, J. A. Montgomery, Jr., J. E. Peralta, 
 F. Ogliaro, M. J. Bearpark, J. J. Heyd, E. N. Brothers, K. N. Kudin, 
 V. N. Staroverov, T. A. Keith, R. Kobayashi, J. Normand, 
 K. Raghavachari, A. P. Rendell, J. C. Burant, S. S. Iyengar, 
 J. Tomasi, M. Cossi, J. M. Millam, M. Klene, C. Adamo, R. Cammi, 
 J. W. Ochterski, R. L. Martin, K. Morokuma, O. Farkas, 
 J. B. Foresman, and D. J. Fox, Gaussian, Inc., Wallingford CT, 2016.
 
 ******************************************
 Gaussian 16:  ES64L-G16RevA.03 25-Dec-2016
                15-Jul-2021 
 ******************************************
 %nprocshared=28
 Will use up to   28 processors via shared memory.
 %mem=41GB
 %chk=NicPyWa5h10.chk
 ---------------------------------------------
 # wB97XD/aug-cc-pVDZ opt freq temperature=130
 ---------------------------------------------
 1/18=20,19=15,26=3,38=1,112=130000/1,3;
 2/9=110,12=2,17=6,18=5,40=1/2;
 3/5=16,7=10,11=2,25=1,30=1,71=1,74=-58/1,2,3;
 4//1;
 5/5=2,38=5/2;
 6/7=2,8=2,9=2,10=2,28=1/1;
 7//1,2,3,16;
 1/18=20,19=15,26=3/3(2);
 2/9=110/2;
 99//99;
 2/9=110/2;
 3/5=16,7=10,11=2,25=1,30=1,71=1,74=-58/1,2,3;
 4/5=5,16=3,69=1/1;
 5/5=2,38=5/2;
 7//1,2,3,16;
 1/18=20,19=15,26=3/3(-5);
 2/9=110/2;
 6/7=2,8=2,9=2,10=2,19=2,28=1/1;
 99/9=1/99;
 --------
 Nicotine
 --------
 Symbolic Z-matrix:
 Charge =  1 Multiplicity = 1
 C                    -2.97492  -0.44263   0.72729 
 C                    -2.33637   0.07196  -0.58109 
 N                    -1.70511  -1.14033  -1.13557 
 C                    -2.72621  -2.19072  -0.95731 
 C                    -3.22735  -1.94855   0.47314 
 C                    -1.35201   1.20225  -0.40395 
 C                    -1.53458   2.45998  -0.98062 
 C                    -0.59979   3.47838  -0.78107 
 C                     0.51784   3.21821  -0.00956 
 N                     0.67335   2.00459   0.53815 
 C                    -0.21188   1.0189    0.36721 
 O                     2.65557   0.88574   1.79462 
 O                     2.73988  -0.47234  -0.52303 
 O                     0.56434  -2.24545   0.06564 
 O                     0.84416  -1.14081   2.60708 
 H                    -2.2845   -3.18335  -1.10263 
 H                    -4.28288  -2.21876   0.57665 
 H                    -2.65917  -2.55542   1.18689 
 H                    -3.8907    0.11271   0.95476 
 H                    -2.28733  -0.29963   1.56949 
 H                    -3.54725  -2.07286  -1.68252 
 H                    -3.13771   0.42312  -1.25397 
 H                     0.02214   0.09209   0.88444 
 H                     1.29928   3.94801   0.18682 
 H                    -0.7335    4.46178  -1.22539 
 H                    -2.41587   2.65121  -1.59384 
 C                    -1.35557  -0.98099  -2.55914 
 H                     1.5409    1.72277   1.11113 
 H                    -0.23875  -1.85602  -0.37046 
 H                     0.60727  -3.16621  -0.20386 
 H                     2.92441   0.35964   1.0081 
 H                     2.21663   0.22664   2.35843 
 H                     3.51242  -0.83161  -0.99302 
 H                     2.10879  -1.2027   -0.43307 
 H                     0.7975   -1.76558   1.86251 
 H                     0.76775  -1.66061   3.41048 
 O                     4.95253  -1.5707   -1.82398 
 H                     5.24334  -1.30888  -2.70155 
 H                     5.75531  -1.77323  -1.33594 
 H                    -0.92007  -1.92639  -2.94764 
 H                    -0.58769  -0.18722  -2.67618 
 H                    -2.24487  -0.71506  -3.17277 
 
 Add virtual bond connecting atoms H28        and O12        Dist= 2.93D+00.
 Add virtual bond connecting atoms H31        and O13        Dist= 3.31D+00.
 Add virtual bond connecting atoms O14        and H34        Dist= 3.65D+00.
 Add virtual bond connecting atoms H29        and N3         Dist= 3.41D+00.
 Add virtual bond connecting atoms O37        and H33        Dist= 3.44D+00.
 Add virtual bond connecting atoms O15        and H32        Dist= 3.69D+00.
 Add virtual bond connecting atoms H35        and O14        Dist= 3.54D+00.

 GradGradGradGradGradGradGradGradGradGradGradGradGradGradGradGradGradGrad
 Berny optimization.
 Initialization pass.
                           ----------------------------
                           !    Initial Parameters    !
                           ! (Angstroms and Degrees)  !
 --------------------------                            --------------------------
 ! Name  Definition              Value          Derivative Info.                !
 --------------------------------------------------------------------------------
 ! R1    R(1,2)                  1.5442         estimate D2E/DX2                !
 ! R2    R(1,5)                  1.5479         estimate D2E/DX2                !
 ! R3    R(1,19)                 1.0949         estimate D2E/DX2                !
 ! R4    R(1,20)                 1.0966         estimate D2E/DX2                !
 ! R5    R(2,3)                  1.475          estimate D2E/DX2                !
 ! R6    R(2,6)                  1.5093         estimate D2E/DX2                !
 ! R7    R(2,22)                 1.1037         estimate D2E/DX2                !
 ! R8    R(3,4)                  1.4757         estimate D2E/DX2                !
 ! R9    R(3,27)                 1.4745         estimate D2E/DX2                !
 ! R10   R(3,29)                 1.8022         estimate D2E/DX2                !
 ! R11   R(4,5)                  1.5349         estimate D2E/DX2                !
 ! R12   R(4,16)                 1.0961         estimate D2E/DX2                !
 ! R13   R(4,21)                 1.1018         estimate D2E/DX2                !
 ! R14   R(5,17)                 1.0945         estimate D2E/DX2                !
 ! R15   R(5,18)                 1.0957         estimate D2E/DX2                !
 ! R16   R(6,7)                  1.3956         estimate D2E/DX2                !
 ! R17   R(6,11)                 1.3886         estimate D2E/DX2                !
 ! R18   R(7,8)                  1.3967         estimate D2E/DX2                !
 ! R19   R(7,26)                 1.0905         estimate D2E/DX2                !
 ! R20   R(8,9)                  1.3828         estimate D2E/DX2                !
 ! R21   R(8,25)                 1.0874         estimate D2E/DX2                !
 ! R22   R(9,10)                 1.3405         estimate D2E/DX2                !
 ! R23   R(9,24)                 1.0871         estimate D2E/DX2                !
 ! R24   R(10,11)                1.3358         estimate D2E/DX2                !
 ! R25   R(10,28)                1.0772         estimate D2E/DX2                !
 ! R26   R(11,23)                1.0869         estimate D2E/DX2                !
 ! R27   R(12,28)                1.5525         estimate D2E/DX2                !
 ! R28   R(12,31)                0.9837         estimate D2E/DX2                !
 ! R29   R(12,32)                0.9721         estimate D2E/DX2                !
 ! R30   R(13,31)                1.7523         estimate D2E/DX2                !
 ! R31   R(13,33)                0.973          estimate D2E/DX2                !
 ! R32   R(13,34)                0.9694         estimate D2E/DX2                !
 ! R33   R(14,29)                0.9934         estimate D2E/DX2                !
 ! R34   R(14,30)                0.9604         estimate D2E/DX2                !
 ! R35   R(14,34)                1.9291         estimate D2E/DX2                !
 ! R36   R(14,35)                1.8744         estimate D2E/DX2                !
 ! R37   R(15,32)                1.9533         estimate D2E/DX2                !
 ! R38   R(15,35)                0.9731         estimate D2E/DX2                !
 ! R39   R(15,36)                0.9599         estimate D2E/DX2                !
 ! R40   R(27,40)                1.111          estimate D2E/DX2                !
 ! R41   R(27,41)                1.1106         estimate D2E/DX2                !
 ! R42   R(27,42)                1.1127         estimate D2E/DX2                !
 ! R43   R(33,37)                1.8195         estimate D2E/DX2                !
 ! R44   R(37,38)                0.9609         estimate D2E/DX2                !
 ! R45   R(37,39)                0.9611         estimate D2E/DX2                !
 ! A1    A(2,1,5)              104.6269         estimate D2E/DX2                !
 ! A2    A(2,1,19)             110.6634         estimate D2E/DX2                !
 ! A3    A(2,1,20)             110.365          estimate D2E/DX2                !
 ! A4    A(5,1,19)             113.0261         estimate D2E/DX2                !
 ! A5    A(5,1,20)             110.8069         estimate D2E/DX2                !
 ! A6    A(19,1,20)            107.3823         estimate D2E/DX2                !
 ! A7    A(1,2,3)              102.8031         estimate D2E/DX2                !
 ! A8    A(1,2,6)              114.8238         estimate D2E/DX2                !
 ! A9    A(1,2,22)             108.8053         estimate D2E/DX2                !
 ! A10   A(3,2,6)              112.3651         estimate D2E/DX2                !
 ! A11   A(3,2,22)             110.0622         estimate D2E/DX2                !
 ! A12   A(6,2,22)             107.867          estimate D2E/DX2                !
 ! A13   A(2,3,4)              104.0917         estimate D2E/DX2                !
 ! A14   A(2,3,27)             112.0601         estimate D2E/DX2                !
 ! A15   A(2,3,29)             120.9998         estimate D2E/DX2                !
 ! A16   A(4,3,27)             110.9511         estimate D2E/DX2                !
 ! A17   A(4,3,29)             103.241          estimate D2E/DX2                !
 ! A18   A(27,3,29)            105.0648         estimate D2E/DX2                !
 ! A19   A(3,4,5)              103.0727         estimate D2E/DX2                !
 ! A20   A(3,4,16)             110.4706         estimate D2E/DX2                !
 ! A21   A(3,4,21)             111.0985         estimate D2E/DX2                !
 ! A22   A(5,4,16)             113.4528         estimate D2E/DX2                !
 ! A23   A(5,4,21)             110.6852         estimate D2E/DX2                !
 ! A24   A(16,4,21)            108.0528         estimate D2E/DX2                !
 ! A25   A(1,5,4)              104.6705         estimate D2E/DX2                !
 ! A26   A(1,5,17)             112.4537         estimate D2E/DX2                !
 ! A27   A(1,5,18)             110.3231         estimate D2E/DX2                !
 ! A28   A(4,5,17)             111.3498         estimate D2E/DX2                !
 ! A29   A(4,5,18)             110.5102         estimate D2E/DX2                !
 ! A30   A(17,5,18)            107.5633         estimate D2E/DX2                !
 ! A31   A(2,6,7)              122.7576         estimate D2E/DX2                !
 ! A32   A(2,6,11)             120.1191         estimate D2E/DX2                !
 ! A33   A(7,6,11)             117.1215         estimate D2E/DX2                !
 ! A34   A(6,7,8)              120.698          estimate D2E/DX2                !
 ! A35   A(6,7,26)             119.7416         estimate D2E/DX2                !
 ! A36   A(8,7,26)             119.5605         estimate D2E/DX2                !
 ! A37   A(7,8,9)              118.913          estimate D2E/DX2                !
 ! A38   A(7,8,25)             121.2483         estimate D2E/DX2                !
 ! A39   A(9,8,25)             119.8374         estimate D2E/DX2                !
 ! A40   A(8,9,10)             119.4763         estimate D2E/DX2                !
 ! A41   A(8,9,24)             123.7435         estimate D2E/DX2                !
 ! A42   A(10,9,24)            116.7801         estimate D2E/DX2                !
 ! A43   A(9,10,11)            122.6069         estimate D2E/DX2                !
 ! A44   A(9,10,28)            123.2026         estimate D2E/DX2                !
 ! A45   A(11,10,28)           114.1246         estimate D2E/DX2                !
 ! A46   A(6,11,10)            121.1804         estimate D2E/DX2                !
 ! A47   A(6,11,23)            123.6196         estimate D2E/DX2                !
 ! A48   A(10,11,23)           115.1915         estimate D2E/DX2                !
 ! A49   A(28,12,31)            97.6178         estimate D2E/DX2                !
 ! A50   A(28,12,32)           107.2596         estimate D2E/DX2                !
 ! A51   A(31,12,32)           102.9746         estimate D2E/DX2                !
 ! A52   A(31,13,33)           120.9136         estimate D2E/DX2                !
 ! A53   A(31,13,34)           110.1917         estimate D2E/DX2                !
 ! A54   A(33,13,34)           106.4698         estimate D2E/DX2                !
 ! A55   A(29,14,30)           106.7865         estimate D2E/DX2                !
 ! A56   A(29,14,34)           108.7754         estimate D2E/DX2                !
 ! A57   A(29,14,35)           114.901          estimate D2E/DX2                !
 ! A58   A(30,14,34)           114.1996         estimate D2E/DX2                !
 ! A59   A(30,14,35)           120.5917         estimate D2E/DX2                !
 ! A60   A(34,14,35)            90.5645         estimate D2E/DX2                !
 ! A61   A(32,15,35)           112.691          estimate D2E/DX2                !
 ! A62   A(32,15,36)           122.7893         estimate D2E/DX2                !
 ! A63   A(35,15,36)           106.7924         estimate D2E/DX2                !
 ! A64   A(3,27,40)            109.7898         estimate D2E/DX2                !
 ! A65   A(3,27,41)            110.053          estimate D2E/DX2                !
 ! A66   A(3,27,42)            111.6408         estimate D2E/DX2                !
 ! A67   A(40,27,41)           107.4764         estimate D2E/DX2                !
 ! A68   A(40,27,42)           108.8935         estimate D2E/DX2                !
 ! A69   A(41,27,42)           108.8846         estimate D2E/DX2                !
 ! A70   A(10,28,12)           162.453          estimate D2E/DX2                !
 ! A71   A(12,31,13)           157.4843         estimate D2E/DX2                !
 ! A72   A(12,32,15)           149.97           estimate D2E/DX2                !
 ! A73   A(13,34,14)           162.255          estimate D2E/DX2                !
 ! A74   A(14,35,15)           154.6691         estimate D2E/DX2                !
 ! A75   A(33,37,38)           123.09           estimate D2E/DX2                !
 ! A76   A(33,37,39)           120.984          estimate D2E/DX2                !
 ! A77   A(38,37,39)           105.5702         estimate D2E/DX2                !
 ! A78   L(3,29,14,9,-1)       179.6882         estimate D2E/DX2                !
 ! A79   L(13,33,37,40,-1)     179.9998         estimate D2E/DX2                !
 ! A80   L(3,29,14,9,-2)       179.0995         estimate D2E/DX2                !
 ! A81   L(13,33,37,40,-2)     182.8961         estimate D2E/DX2                !
 ! D1    D(5,1,2,3)            -26.0782         estimate D2E/DX2                !
 ! D2    D(5,1,2,6)           -148.4257         estimate D2E/DX2                !
 ! D3    D(5,1,2,22)            90.602          estimate D2E/DX2                !
 ! D4    D(19,1,2,3)          -148.1156         estimate D2E/DX2                !
 ! D5    D(19,1,2,6)            89.5369         estimate D2E/DX2                !
 ! D6    D(19,1,2,22)          -31.4354         estimate D2E/DX2                !
 ! D7    D(20,1,2,3)            93.1619         estimate D2E/DX2                !
 ! D8    D(20,1,2,6)           -29.1856         estimate D2E/DX2                !
 ! D9    D(20,1,2,22)         -150.1579         estimate D2E/DX2                !
 ! D10   D(2,1,5,4)             -0.2913         estimate D2E/DX2                !
 ! D11   D(2,1,5,17)          -121.3149         estimate D2E/DX2                !
 ! D12   D(2,1,5,18)           118.6024         estimate D2E/DX2                !
 ! D13   D(19,1,5,4)           120.1856         estimate D2E/DX2                !
 ! D14   D(19,1,5,17)           -0.8381         estimate D2E/DX2                !
 ! D15   D(19,1,5,18)         -120.9208         estimate D2E/DX2                !
 ! D16   D(20,1,5,4)          -119.2331         estimate D2E/DX2                !
 ! D17   D(20,1,5,17)          119.7433         estimate D2E/DX2                !
 ! D18   D(20,1,5,18)           -0.3394         estimate D2E/DX2                !
 ! D19   D(1,2,3,4)             44.0615         estimate D2E/DX2                !
 ! D20   D(1,2,3,27)           164.0294         estimate D2E/DX2                !
 ! D21   D(1,2,3,29)           -71.1738         estimate D2E/DX2                !
 ! D22   D(6,2,3,4)            168.0521         estimate D2E/DX2                !
 ! D23   D(6,2,3,27)           -71.98           estimate D2E/DX2                !
 ! D24   D(6,2,3,29)            52.8168         estimate D2E/DX2                !
 ! D25   D(22,2,3,4)           -71.7186         estimate D2E/DX2                !
 ! D26   D(22,2,3,27)           48.2493         estimate D2E/DX2                !
 ! D27   D(22,2,3,29)          173.0461         estimate D2E/DX2                !
 ! D28   D(1,2,6,7)           -118.926          estimate D2E/DX2                !
 ! D29   D(1,2,6,11)            60.574          estimate D2E/DX2                !
 ! D30   D(3,2,6,7)            124.051          estimate D2E/DX2                !
 ! D31   D(3,2,6,11)           -56.449          estimate D2E/DX2                !
 ! D32   D(22,2,6,7)             2.5592         estimate D2E/DX2                !
 ! D33   D(22,2,6,11)         -177.9408         estimate D2E/DX2                !
 ! D34   D(2,3,4,5)            -44.4175         estimate D2E/DX2                !
 ! D35   D(2,3,4,16)          -165.938          estimate D2E/DX2                !
 ! D36   D(2,3,4,21)            74.1557         estimate D2E/DX2                !
 ! D37   D(27,3,4,5)          -165.132          estimate D2E/DX2                !
 ! D38   D(27,3,4,16)           73.3475         estimate D2E/DX2                !
 ! D39   D(27,3,4,21)          -46.5588         estimate D2E/DX2                !
 ! D40   D(29,3,4,5)            82.7815         estimate D2E/DX2                !
 ! D41   D(29,3,4,16)          -38.739          estimate D2E/DX2                !
 ! D42   D(29,3,4,21)         -158.6453         estimate D2E/DX2                !
 ! D43   D(2,3,14,30)          158.0762         estimate D2E/DX2                !
 ! D44   D(2,3,14,34)          -77.889          estimate D2E/DX2                !
 ! D45   D(2,3,14,35)           21.712          estimate D2E/DX2                !
 ! D46   D(4,3,14,30)           42.5872         estimate D2E/DX2                !
 ! D47   D(4,3,14,34)          166.6219         estimate D2E/DX2                !
 ! D48   D(4,3,14,35)          -93.7771         estimate D2E/DX2                !
 ! D49   D(27,3,14,30)         -73.8639         estimate D2E/DX2                !
 ! D50   D(27,3,14,34)          50.1709         estimate D2E/DX2                !
 ! D51   D(27,3,14,35)         149.7719         estimate D2E/DX2                !
 ! D52   D(2,3,27,40)         -177.824          estimate D2E/DX2                !
 ! D53   D(2,3,27,41)           64.0702         estimate D2E/DX2                !
 ! D54   D(2,3,27,42)          -56.9607         estimate D2E/DX2                !
 ! D55   D(4,3,27,40)          -61.9453         estimate D2E/DX2                !
 ! D56   D(4,3,27,41)          179.9489         estimate D2E/DX2                !
 ! D57   D(4,3,27,42)           58.918          estimate D2E/DX2                !
 ! D58   D(29,3,27,40)          48.9738         estimate D2E/DX2                !
 ! D59   D(29,3,27,41)         -69.132          estimate D2E/DX2                !
 ! D60   D(29,3,27,42)         169.8371         estimate D2E/DX2                !
 ! D61   D(3,4,5,1)             26.5773         estimate D2E/DX2                !
 ! D62   D(3,4,5,17)           148.3283         estimate D2E/DX2                !
 ! D63   D(3,4,5,18)           -92.1898         estimate D2E/DX2                !
 ! D64   D(16,4,5,1)           146.056          estimate D2E/DX2                !
 ! D65   D(16,4,5,17)          -92.193          estimate D2E/DX2                !
 ! D66   D(16,4,5,18)           27.2888         estimate D2E/DX2                !
 ! D67   D(21,4,5,1)           -92.2839         estimate D2E/DX2                !
 ! D68   D(21,4,5,17)           29.4672         estimate D2E/DX2                !
 ! D69   D(21,4,5,18)          148.949          estimate D2E/DX2                !
 ! D70   D(2,6,7,8)            179.5733         estimate D2E/DX2                !
 ! D71   D(2,6,7,26)            -0.4306         estimate D2E/DX2                !
 ! D72   D(11,6,7,8)             0.0592         estimate D2E/DX2                !
 ! D73   D(11,6,7,26)         -179.9447         estimate D2E/DX2                !
 ! D74   D(2,6,11,10)          179.9991         estimate D2E/DX2                !
 ! D75   D(2,6,11,23)           -1.1164         estimate D2E/DX2                !
 ! D76   D(7,6,11,10)           -0.4733         estimate D2E/DX2                !
 ! D77   D(7,6,11,23)          178.4112         estimate D2E/DX2                !
 ! D78   D(6,7,8,9)              0.484          estimate D2E/DX2                !
 ! D79   D(6,7,8,25)          -179.9501         estimate D2E/DX2                !
 ! D80   D(26,7,8,9)          -179.5122         estimate D2E/DX2                !
 ! D81   D(26,7,8,25)            0.0538         estimate D2E/DX2                !
 ! D82   D(7,8,9,10)            -0.6322         estimate D2E/DX2                !
 ! D83   D(7,8,9,24)           179.2605         estimate D2E/DX2                !
 ! D84   D(25,8,9,10)          179.7956         estimate D2E/DX2                !
 ! D85   D(25,8,9,24)           -0.3117         estimate D2E/DX2                !
 ! D86   D(8,9,10,11)            0.2322         estimate D2E/DX2                !
 ! D87   D(8,9,10,28)          177.1079         estimate D2E/DX2                !
 ! D88   D(24,9,10,11)        -179.6679         estimate D2E/DX2                !
 ! D89   D(24,9,10,28)          -2.7922         estimate D2E/DX2                !
 ! D90   D(9,10,11,6)            0.3389         estimate D2E/DX2                !
 ! D91   D(9,10,11,23)        -178.6345         estimate D2E/DX2                !
 ! D92   D(28,10,11,6)        -176.7969         estimate D2E/DX2                !
 ! D93   D(28,10,11,23)          4.2297         estimate D2E/DX2                !
 ! D94   D(9,10,28,12)        -155.2774         estimate D2E/DX2                !
 ! D95   D(11,10,28,12)         21.8391         estimate D2E/DX2                !
 ! D96   D(31,12,28,10)         50.1053         estimate D2E/DX2                !
 ! D97   D(32,12,28,10)        -56.0805         estimate D2E/DX2                !
 ! D98   D(28,12,31,13)        -30.5801         estimate D2E/DX2                !
 ! D99   D(32,12,31,13)         79.1751         estimate D2E/DX2                !
 ! D100  D(28,12,32,15)         46.6822         estimate D2E/DX2                !
 ! D101  D(31,12,32,15)        -55.6768         estimate D2E/DX2                !
 ! D102  D(33,13,31,12)        172.9634         estimate D2E/DX2                !
 ! D103  D(34,13,31,12)        -62.125          estimate D2E/DX2                !
 ! D104  D(31,13,37,38)       -119.5468         estimate D2E/DX2                !
 ! D105  D(31,13,37,39)         21.0553         estimate D2E/DX2                !
 ! D106  D(34,13,37,38)        115.1637         estimate D2E/DX2                !
 ! D107  D(34,13,37,39)       -104.2342         estimate D2E/DX2                !
 ! D108  D(31,13,34,14)         41.6695         estimate D2E/DX2                !
 ! D109  D(33,13,34,14)        174.4766         estimate D2E/DX2                !
 ! D110  D(29,14,34,13)         66.2221         estimate D2E/DX2                !
 ! D111  D(30,14,34,13)       -174.6209         estimate D2E/DX2                !
 ! D112  D(35,14,34,13)        -50.3988         estimate D2E/DX2                !
 ! D113  D(29,14,35,15)        -48.413          estimate D2E/DX2                !
 ! D114  D(30,14,35,15)       -178.5284         estimate D2E/DX2                !
 ! D115  D(34,14,35,15)         62.6526         estimate D2E/DX2                !
 ! D116  D(35,15,32,12)         45.989          estimate D2E/DX2                !
 ! D117  D(36,15,32,12)        175.9184         estimate D2E/DX2                !
 ! D118  D(32,15,35,14)        -58.8684         estimate D2E/DX2                !
 ! D119  D(36,15,35,14)        163.4592         estimate D2E/DX2                !
 --------------------------------------------------------------------------------
 Trust Radius=3.00D-01 FncErr=1.00D-07 GrdErr=1.00D-06 EigMax=2.50D+02 EigMin=1.00D-04
 Number of steps in this run=    252 maximum allowed number of steps=    252.
 GradGradGradGradGradGradGradGradGradGradGradGradGradGradGradGradGradGrad

                          Input orientation:                          
 ---------------------------------------------------------------------
 Center     Atomic      Atomic             Coordinates (Angstroms)
 Number     Number       Type             X           Y           Z
 ---------------------------------------------------------------------
      1          6           0       -2.974918   -0.442631    0.727292
      2          6           0       -2.336372    0.071961   -0.581092
      3          7           0       -1.705112   -1.140328   -1.135566
      4          6           0       -2.726208   -2.190719   -0.957305
      5          6           0       -3.227352   -1.948549    0.473141
      6          6           0       -1.352006    1.202254   -0.403951
      7          6           0       -1.534577    2.459979   -0.980621
      8          6           0       -0.599793    3.478380   -0.781065
      9          6           0        0.517839    3.218210   -0.009559
     10          7           0        0.673345    2.004588    0.538149
     11          6           0       -0.211878    1.018896    0.367207
     12          8           0        2.655569    0.885739    1.794618
     13          8           0        2.739878   -0.472338   -0.523034
     14          8           0        0.564339   -2.245448    0.065638
     15          8           0        0.844157   -1.140812    2.607084
     16          1           0       -2.284501   -3.183345   -1.102627
     17          1           0       -4.282876   -2.218763    0.576648
     18          1           0       -2.659165   -2.555420    1.186885
     19          1           0       -3.890700    0.112710    0.954757
     20          1           0       -2.287333   -0.299626    1.569486
     21          1           0       -3.547251   -2.072858   -1.682515
     22          1           0       -3.137713    0.423120   -1.253973
     23          1           0        0.022136    0.092092    0.884439
     24          1           0        1.299280    3.948005    0.186816
     25          1           0       -0.733499    4.461780   -1.225391
     26          1           0       -2.415869    2.651208   -1.593843
     27          6           0       -1.355566   -0.980993   -2.559143
     28          1           0        1.540901    1.722767    1.111128
     29          1           0       -0.238751   -1.856022   -0.370461
     30          1           0        0.607272   -3.166210   -0.203864
     31          1           0        2.924407    0.359639    1.008103
     32          1           0        2.216631    0.226638    2.358429
     33          1           0        3.512417   -0.831605   -0.993021
     34          1           0        2.108789   -1.202702   -0.433065
     35          1           0        0.797497   -1.765581    1.862506
     36          1           0        0.767752   -1.660614    3.410476
     37          8           0        4.952534   -1.570704   -1.823984
     38          1           0        5.243337   -1.308877   -2.701547
     39          1           0        5.755307   -1.773229   -1.335938
     40          1           0       -0.920075   -1.926388   -2.947639
     41          1           0       -0.587685   -0.187222   -2.676185
     42          1           0       -2.244868   -0.715061   -3.172766
 ---------------------------------------------------------------------
                    Distance matrix (angstroms):
                    1          2          3          4          5
     1  C    0.000000
     2  C    1.544155   0.000000
     3  N    2.359964   1.474983   0.000000
     4  C    2.440397   2.326635   1.475715   0.000000
     5  C    1.547936   2.446980   2.357620   1.534916   0.000000
     6  C    2.572781   1.509277   2.479442   3.702283   3.770116
     7  C    3.662881   2.550515   3.607672   4.800992   4.941056
     8  C    4.826043   3.828758   4.762338   6.057341   6.158625
     9  C    5.113126   4.286263   5.020583   6.377976   6.399598
    10  N    4.397099   3.747819   4.283559   5.603030   5.554004
    11  C    3.146444   2.511858   3.024950   4.286935   4.232025
    12  O    5.882698   5.587997   5.630849   6.782418   6.662451
    13  O    5.850051   5.105678   4.536446   5.746261   6.227311
    14  O    4.026695   3.768656   2.795459   3.446318   3.825066
    15  O    4.313515   4.663802   4.528377   5.153123   4.667262
    16  H    3.367015   3.297227   2.123840   1.096143   2.212857
    17  H    2.210903   3.221282   3.277128   2.185638   1.094468
    18  H    2.185132   3.183248   2.882097   2.176018   1.095700
    19  H    1.094898   2.185504   3.273584   3.212134   2.218282
    20  H    1.096592   2.182995   2.891897   3.186458   2.191930
    21  H    2.965194   2.698075   2.135940   1.101786   2.182806
    22  H    2.168280   1.103734   2.123849   2.662612   2.935263
    23  H    3.048435   2.776823   2.929619   4.019533   3.859087
    24  H    6.151306   5.369485   6.055262   7.429502   7.439202
    25  H    5.734996   4.717503   5.686450   6.949712   7.084958
    26  H    3.907946   2.772093   3.884706   4.893439   5.107709
    27  C    3.703078   2.446094   1.474497   2.430634   3.692492
    28  H    5.022838   4.541147   4.876633   6.148334   6.051597
    29  H    3.269456   2.856834   1.802170   2.577567   3.106761
    30  H    4.595326   4.392390   3.212380   3.554060   4.079874
    31  H    5.960246   5.503099   5.317675   6.503584   6.592272
    32  H    5.482765   5.421674   5.427399   6.424124   6.158141
    33  H    6.722819   5.932491   5.228598   6.385054   6.987251
    34  H    5.269555   4.626676   3.878561   4.962681   5.463689
    35  H    4.155722   4.378226   3.955051   4.533053   4.261833
    36  H    4.763459   5.345093   5.201178   5.618388   4.967061
    37  O    8.403931   7.574383   6.706966   7.752331   8.504710
    38  H    8.946901   7.990934   7.124721   8.205710   9.068649
    39  H    9.068861   8.333654   7.489897   8.500221   9.164697
    40  H    4.464194   3.405853   2.125507   2.700633   4.126227
    41  H    4.165065   2.741258   2.128511   3.397327   4.470835
    42  H    3.977140   2.710083   2.149970   2.705092   3.972330
                    6          7          8          9         10
     6  C    0.000000
     7  C    1.395619   0.000000
     8  C    2.426683   1.396705   0.000000
     9  C    2.777759   2.393802   1.382755   0.000000
    10  N    2.373466   2.718265   2.352290   1.340539   0.000000
    11  C    1.388595   2.375477   2.741910   2.347642   1.335825
    12  O    4.581980   5.266641   4.894212   3.642165   2.599952
    13  O    4.422890   5.203733   5.179590   4.338347   3.395855
    14  O    3.972347   5.257485   5.902060   5.464373   4.277611
    15  O    4.402206   5.612103   5.907747   5.094544   3.768715
    16  H    4.537750   5.694241   6.878970   7.073034   6.193194
    17  H    4.610307   5.645251   6.918520   7.276756   6.511705
    18  H    4.284803   5.578262   6.672375   6.697734   5.685082
    19  H    3.078662   3.847944   5.017059   5.478070   4.958152
    20  H    2.650459   3.832115   4.758803   4.768390   3.890845
    21  H    4.144899   5.009004   6.349517   6.878891   6.274579
    22  H    2.125638   2.606446   3.999912   4.766986   4.498545
    23  H    2.186475   3.392446   3.824611   3.289007   2.049788
    24  H    3.862314   3.407033   2.182618   1.087113   2.071738
    25  H    3.417868   2.169987   1.087372   2.142559   3.335727
    26  H    2.155717   1.090544   2.154751   3.382024   3.808773
    27  C    3.067806   3.789995   4.859914   5.257693   4.756406
    28  H    3.306858   3.791762   3.353378   2.130480   1.077210
    29  H    3.254767   4.547453   5.362349   5.143006   4.069619
    30  H    4.791898   6.069998   6.777960   6.388002   5.224184
    31  H    4.581660   5.314978   5.034645   3.872807   2.827365
    32  H    4.617114   5.496238   5.325645   4.176454   2.975946
    33  H    5.305299   6.025515   5.960803   5.131832   4.295207
    34  H    4.214471   5.195110   5.419414   4.717514   3.645609
    35  H    4.308739   5.601544   6.036556   5.331136   3.997938
    36  H    5.219123   6.446839   6.771149   5.963390   4.657562
    37  O    7.032284   7.683767   7.576890   6.774390   6.055893
    38  H    7.421811   7.943927   7.794116   7.076132   6.508418
    39  H    7.761185   8.437340   8.262843   7.355598   6.603820
    40  H    4.055282   4.846337   5.831649   6.096457   5.490198
    41  H    2.770898   3.283171   4.126532   4.464308   4.089764
    42  H    3.484198   3.923123   5.100142   5.754046   5.448243
                   11         12         13         14         15
    11  C    0.000000
    12  O    3.205852   0.000000
    13  O    3.424788   2.687562   0.000000
    14  O    3.368887   4.143301   2.867651   0.000000
    15  O    3.285818   2.836939   3.719980   2.785223   0.000000
    16  H    4.910703   7.025366   5.738455   3.218755   5.265206
    17  H    5.205701   7.698273   7.319725   4.874150   5.618818
    18  H    4.408721   6.360606   6.034295   3.426989   4.036254
    19  H    3.834073   6.645042   6.818410   5.118478   5.169175
    20  H    2.737058   5.088031   5.448057   3.765610   3.404473
    21  H    4.988488   7.701865   6.590452   4.471129   6.209173
    22  H    3.397600   6.562777   5.990175   4.750560   5.762719
    23  H    1.086857   2.897114   3.112183   2.535451   2.272284
    24  H    3.300882   3.715107   4.703046   6.238083   5.653397
    25  H    3.829087   5.778781   6.074798   6.952557   6.968924
    26  H    3.371607   6.349648   6.122491   5.967642   6.531077
    27  C    3.724393   6.207184   4.601862   3.489178   5.617315
    28  H    2.030046   1.552501   2.987728   4.218229   3.305060
    29  H    2.968169   4.536729   3.287870   0.993372   3.248075
    30  H    4.302585   4.960619   3.450627   0.960353   3.472719
    31  H    3.268280   0.983698   1.752318   3.639319   3.022505
    32  H    3.238872   0.972092   3.010844   3.754753   1.953314
    33  H    4.375494   3.384433   0.973025   3.436695   4.491768
    34  H    3.310805   3.102116   0.969432   1.929080   3.293270
    35  H    3.317841   3.238292   3.337083   1.874398   0.973093
    36  H    4.171443   3.557916   4.557826   3.401669   0.959933
    37  O    6.178875   4.940085   2.791904   4.825164   6.057882
    38  H    6.677960   5.632795   3.422429   5.516113   6.896564
    39  H    6.804701   5.145762   3.383185   5.397551   6.329832
    40  H    4.490483   6.571323   4.624740   3.374184   5.880866
    41  H    3.295176   5.626546   3.973666   3.616773   5.556297
    42  H    4.435207   7.159033   5.650459   4.552031   6.567344
                   16         17         18         19         20
    16  H    0.000000
    17  H    2.782784   0.000000
    18  H    2.403441   1.766965   0.000000
    19  H    4.204365   2.394271   2.947792   0.000000
    20  H    3.931416   2.941259   2.318027   1.765984   0.000000
    21  H    1.778761   2.380389   3.042206   3.442364   3.912449
    22  H    3.709106   3.412055   3.880528   2.354110   3.036022
    23  H    4.471856   4.895704   3.780234   3.913522   2.440569
    24  H    8.084696   8.327152   7.678799   6.498855   5.728694
    25  H    7.801834   7.776572   7.666052   5.799601   5.735567
    26  H    5.856668   5.649191   5.907674   3.887732   4.327886
    27  C    2.799056   4.464796   4.267425   4.468846   4.286960
    28  H    6.603359   7.052496   5.995763   5.667365   4.353796
    29  H    2.546163   4.169358   2.961906   4.355323   3.222181
    30  H    3.028270   5.041865   3.602341   5.685549   4.443063
    31  H    6.643842   7.666762   6.301254   6.819788   5.283182
    32  H    6.623223   7.169262   5.734610   6.267597   4.602725
    33  H    6.256753   8.071844   6.768453   7.713087   6.362904
    34  H    4.865414   6.550212   5.214160   6.296843   4.914432
    35  H    4.505639   5.260133   3.609546   5.131391   3.427982
    36  H    5.657124   5.818157   4.181961   5.556654   3.817732
    37  O    7.449540   9.564299   8.244572   9.421150   8.096107
    38  H    7.920765  10.115493   8.895128   9.940830   8.716152
    39  H    8.165866  10.228470   8.819286  10.092051   8.677387
    40  H    2.616423   4.880011   4.529283   5.311424   4.992010
    41  H    3.785766   5.325647   4.982238   4.917683   4.574621
    42  H    3.221719   4.524677   4.750276   4.520002   4.760603
                   21         22         23         24         25
    21  H    0.000000
    22  H    2.565400   0.000000
    23  H    4.900692   3.829756   0.000000
    24  H    7.951984   5.847016   4.121388   0.000000
    25  H    7.129352   4.700195   4.910859   2.527941   0.000000
    26  H    4.858466   2.366632   4.316807   4.319116   2.498859
    27  C    2.600794   2.617451   3.861066   6.235665   5.638230
    28  H    6.935452   5.401131   2.239896   2.421656   4.258451
    29  H    3.565764   3.791973   2.331949   6.030160   6.394553
    30  H    4.543335   5.292535   3.484727   7.158461   7.812005
    31  H    7.418816   6.470728   2.917199   4.023919   5.932650
    32  H    7.405353   6.461970   2.646990   4.405225   6.283587
    33  H    7.201043   6.772493   4.069414   5.397653   6.789825
    34  H    5.857396   5.553645   2.786831   5.250651   6.386919
    35  H    5.615908   5.476197   2.238023   5.975348   7.117519
    36  H    6.687881   6.430528   3.163666   6.490848   7.824879
    37  O    8.515780   8.351787   5.865942   6.917061   8.311447
    38  H    8.882372   8.679705   6.487137   7.178651   8.438133
    39  H    9.313833   9.160593   6.424854   7.409958   8.999564
    40  H    2.919597   3.647822   4.432475   7.018463   6.618884
    41  H    3.647195   2.982926   3.623250   5.371919   4.872298
    42  H    2.400138   2.402997   4.717172   6.752182   5.733776
                   26         27         28         29         30
    26  H    0.000000
    27  C    3.904988   0.000000
    28  H    4.882100   5.400994   0.000000
    29  H    5.152827   2.608310   4.262628   0.000000
    30  H    6.701774   3.765003   5.148103   1.568471   0.000000
    31  H    6.367100   5.730682   1.944948   4.100629   4.389714
    32  H    6.554315   6.196893   2.061740   4.220570   4.546075
    33  H    6.901851   5.115889   3.852160   3.938054   3.809595
    34  H    6.055787   4.070764   3.356397   2.437558   2.482428
    35  H    6.463752   4.980185   3.644968   2.463358   2.503564
    36  H    7.332834   6.372340   4.163175   3.917489   3.918677
    37  O    8.495344   6.378115   5.576834   5.398479   4.904256
    38  H    8.693257   6.608579   6.118447   5.982192   5.584013
    39  H    9.295713   7.258677   5.997611   6.071880   5.451995
    40  H    5.002454   1.111014   5.987179   2.666645   3.376129
    41  H    3.545477   1.110591   4.745806   2.867579   4.051501
    42  H    3.722097   1.112704   6.215046   3.630318   4.791369
                   31         32         33         34         35
    31  H    0.000000
    32  H    1.530365   0.000000
    33  H    2.401940   3.745819   0.000000
    34  H    2.276644   3.138006   1.556096   0.000000
    35  H    3.125750   2.495760   4.049338   2.702955   0.000000
    36  H    3.808409   2.601494   5.254639   4.096446   1.551810
    37  O    3.982492   5.311138   1.819534   3.187000   5.558104
    38  H    4.682188   6.092792   2.478494   3.870746   6.387852
    39  H    4.249429   5.492726   2.456584   3.799707   5.899999
    40  H    5.971084   6.529073   4.966494   4.002601   5.110127
    41  H    5.119358   5.777785   4.478739   3.651542   5.000966
    42  H    6.734690   7.168395   6.157207   5.167019   5.976081
                   36         37         38         39         40
    36  H    0.000000
    37  O    6.702243   0.000000
    38  H    7.583627   0.960852   0.000000
    39  H    6.885988   0.961067   1.530563   0.000000
    40  H    6.583693   5.989711   6.199155   6.868898   0.000000
    41  H    6.407459   5.773586   5.937977   6.674221   1.791331
    42  H    7.301303   7.372512   7.526478   8.276259   1.809163
                   41         42
    41  H    0.000000
    42  H    1.808718   0.000000
 Stoichiometry    C10H25N2O5(1+)
 Framework group  C1[X(C10H25N2O5)]
 Deg. of freedom   120
 Full point group                 C1      NOp   1
 Largest Abelian subgroup         C1      NOp   1
 Largest concise Abelian subgroup C1      NOp   1
                         Standard orientation:                         
 ---------------------------------------------------------------------
 Center     Atomic      Atomic             Coordinates (Angstroms)
 Number     Number       Type             X           Y           Z
 ---------------------------------------------------------------------
      1          6           0       -2.858322   -0.189255    1.067194
      2          6           0       -2.275544    0.179077   -0.314513
      3          7           0       -1.718896   -1.102628   -0.786690
      4          6           0       -2.764789   -2.090918   -0.459392
      5          6           0       -3.177141   -1.700663    0.966664
      6          6           0       -1.243816    1.280453   -0.293882
      7          6           0       -1.413786    2.487237   -0.973982
      8          6           0       -0.434219    3.481277   -0.918153
      9          6           0        0.714601    3.247352   -0.185007
     10          7           0        0.857508    2.082922    0.463625
     11          6           0       -0.069872    1.122032    0.430655
     12          8           0        2.865779    1.003731    1.713404
     13          8           0        2.773896   -0.560437   -0.470155
     14          8           0        0.573405   -2.184642    0.391949
     15          8           0        1.032130   -0.867029    2.802537
     16          1           0       -2.366919   -3.109490   -0.535162
     17          1           0       -4.234146   -1.917969    1.149364
     18          1           0       -2.591950   -2.262825    1.702928
     19          1           0       -3.740046    0.420561    1.289652
     20          1           0       -2.120558    0.001615    1.855729
     21          1           0       -3.620090   -2.006292   -1.148762
     22          1           0       -3.100099    0.499799   -0.974419
     23          1           0        0.159754    0.237122    1.018416
     24          1           0        1.530849    3.960047   -0.097723
     25          1           0       -0.557729    4.425078   -1.443856
     26          1           0       -2.320429    2.657400   -1.555642
     27          6           0       -1.443345   -1.086656   -2.235123
     28          1           0        1.745037    1.819525    1.014349
     29          1           0       -0.238439   -1.804381   -0.035951
     30          1           0        0.569005   -3.126962    0.206771
     31          1           0        3.072019    0.398399    0.965942
     32          1           0        2.435875    0.416350    2.357709
     33          1           0        3.506136   -0.991314   -0.944439
     34          1           0        2.123513   -1.253848   -0.280463
     35          1           0        0.922410   -1.554135    2.122274
     36          1           0        0.982136   -1.308657    3.653381
     37          8           0        4.871197   -1.859486   -1.777259
     38          1           0        5.121967   -1.689850   -2.689166
     39          1           0        5.692162   -2.049056   -1.314949
     40          1           0       -1.063485   -2.079946   -2.556737
     41          1           0       -0.655738   -0.338068   -2.464696
     42          1           0       -2.355380   -0.841872   -2.823665
 ---------------------------------------------------------------------
 Rotational constants (GHZ):           0.4026034           0.2856044           0.2331134
 Standard basis: Aug-CC-pVDZ (5D, 7F)
 There are   650 symmetry adapted cartesian basis functions of A   symmetry.
 There are   616 symmetry adapted basis functions of A   symmetry.
   616 basis functions,  1006 primitive gaussians,   650 cartesian basis functions
    69 alpha electrons       69 beta electrons
       nuclear repulsion energy      1392.9981853350 Hartrees.
 NAtoms=   42 NActive=   42 NUniq=   42 SFac= 1.00D+00 NAtFMM=   60 NAOKFM=F Big=F
 Integral buffers will be    131072 words long.
 Raffenetti 2 integral format.
 Two-electron integral symmetry is turned on.
 Nuclear repulsion after empirical dispersion term =     1392.9644331728 Hartrees.
 One-electron integrals computed using PRISM.
 NBasis=   616 RedAO= T EigKep=  1.39D-06  NBF=   616
 NBsUse=   616 1.00D-06 EigRej= -1.00D+00 NBFU=   616
 ExpMin= 2.97D-02 ExpMax= 1.17D+04 ExpMxC= 4.01D+02 IAcc=3 IRadAn=         5 AccDes= 0.00D+00
 Harris functional with IExCor= 4639 and IRadAn=       5 diagonalized for initial guess.
 HarFok:  IExCor= 4639 AccDes= 0.00D+00 IRadAn=         5 IDoV= 1 UseB2=F ITyADJ=14
 ICtDFT=  3500011 ScaDFX=  1.000000  1.000000  1.000000  1.000000
 FoFCou: FMM=F IPFlag=           0 FMFlag=      100000 FMFlg1=           0
         NFxFlg=           0 DoJE=T BraDBF=F KetDBF=T FulRan=T
         wScrn=  0.000000 ICntrl=       500 IOpCl=  0 I1Cent=   200000004 NGrid=           0
         NMat0=    1 NMatS0=      1 NMatT0=    0 NMatD0=    1 NMtDS0=    0 NMtDT0=    0
 Petite list used in FoFCou.
 Requested convergence on RMS density matrix=1.00D-08 within 128 cycles.
 Requested convergence on MAX density matrix=1.00D-06.
 Requested convergence on             energy=1.00D-06.
 No special actions if energy rises.
 SCF Done:  E(RwB97XD) =  -881.469360000     A.U. after   16 cycles
            NFock= 16  Conv=0.12D-08     -V/T= 2.0063

 **********************************************************************

            Population analysis using the SCF density.

 **********************************************************************

 Orbital symmetries:
       Occupied  (A) (A) (A) (A) (A) (A) (A) (A) (A) (A) (A) (A)
                 (A) (A) (A) (A) (A) (A) (A) (A) (A) (A) (A) (A)
                 (A) (A) (A) (A) (A) (A) (A) (A) (A) (A) (A) (A)
                 (A) (A) (A) (A) (A) (A) (A) (A) (A) (A) (A) (A)
                 (A) (A) (A) (A) (A) (A) (A) (A) (A) (A) (A) (A)
                 (A) (A) (A) (A) (A) (A) (A) (A) (A)
       Virtual   (A) (A) (A) (A) (A) (A) (A) (A) (A) (A) (A) (A)
                 (A) (A) (A) (A) (A) (A) (A) (A) (A) (A) (A) (A)
                 (A) (A) (A) (A) (A) (A) (A) (A) (A) (A) (A) (A)
                 (A) (A) (A) (A) (A) (A) (A) (A) (A) (A) (A) (A)
                 (A) (A) (A) (A) (A) (A) (A) (A) (A) (A) (A) (A)
                 (A) (A) (A) (A) (A) (A) (A) (A) (A) (A) (A) (A)
                 (A) (A) (A) (A) (A) (A) (A) (A) (A) (A) (A) (A)
                 (A) (A) (A) (A) (A) (A) (A) (A) (A) (A) (A) (A)
                 (A) (A) (A) (A) (A) (A) (A) (A) (A) (A) (A) (A)
                 (A) (A) (A) (A) (A) (A) (A) (A) (A) (A) (A) (A)
                 (A) (A) (A) (A) (A) (A) (A) (A) (A) (A) (A) (A)
                 (A) (A) (A) (A) (A) (A) (A) (A) (A) (A) (A) (A)
                 (A) (A) (A) (A) (A) (A) (A) (A) (A) (A) (A) (A)
                 (A) (A) (A) (A) (A) (A) (A) (A) (A) (A) (A) (A)
                 (A) (A) (A) (A) (A) (A) (A) (A) (A) (A) (A) (A)
                 (A) (A) (A) (A) (A) (A) (A) (A) (A) (A) (A) (A)
                 (A) (A) (A) (A) (A) (A) (A) (A) (A) (A) (A) (A)
                 (A) (A) (A) (A) (A) (A) (A) (A) (A) (A) (A) (A)
                 (A) (A) (A) (A) (A) (A) (A) (A) (A) (A) (A) (A)
                 (A) (A) (A) (A) (A) (A) (A) (A) (A) (A) (A) (A)
                 (A) (A) (A) (A) (A) (A) (A) (A) (A) (A) (A) (A)
                 (A) (A) (A) (A) (A) (A) (A) (A) (A) (A) (A) (A)
                 (A) (A) (A) (A) (A) (A) (A) (A) (A) (A) (A) (A)
                 (A) (A) (A) (A) (A) (A) (A) (A) (A) (A) (A) (A)
                 (A) (A) (A) (A) (A) (A) (A) (A) (A) (A) (A) (A)
                 (A) (A) (A) (A) (A) (A) (A) (A) (A) (A) (A) (A)
                 (A) (A) (A) (A) (A) (A) (A) (A) (A) (A) (A) (A)
                 (A) (A) (A) (A) (A) (A) (A) (A) (A) (A) (A) (A)
                 (A) (A) (A) (A) (A) (A) (A) (A) (A) (A) (A) (A)
                 (A) (A) (A) (A) (A) (A) (A) (A) (A) (A) (A) (A)
                 (A) (A) (A) (A) (A) (A) (A) (A) (A) (A) (A) (A)
                 (A) (A) (A) (A) (A) (A) (A) (A) (A) (A) (A) (A)
                 (A) (A) (A) (A) (A) (A) (A) (A) (A) (A) (A) (A)
                 (A) (A) (A) (A) (A) (A) (A) (A) (A) (A) (A) (A)
                 (A) (A) (A) (A) (A) (A) (A) (A) (A) (A) (A) (A)
                 (A) (A) (A) (A) (A) (A) (A) (A) (A) (A) (A) (A)
                 (A) (A) (A) (A) (A) (A) (A) (A) (A) (A) (A) (A)
                 (A) (A) (A) (A) (A) (A) (A) (A) (A) (A) (A) (A)
                 (A) (A) (A) (A) (A) (A) (A) (A) (A) (A) (A) (A)
                 (A) (A) (A) (A) (A) (A) (A) (A) (A) (A) (A) (A)
                 (A) (A) (A) (A) (A) (A) (A) (A) (A) (A) (A) (A)
                 (A) (A) (A) (A) (A) (A) (A) (A) (A) (A) (A) (A)
                 (A) (A) (A) (A) (A) (A) (A) (A) (A) (A) (A) (A)
                 (A) (A) (A) (A) (A) (A) (A) (A) (A) (A) (A) (A)
                 (A) (A) (A) (A) (A) (A) (A) (A) (A) (A) (A) (A)
                 (A) (A) (A) (A) (A) (A) (A)
 The electronic state is 1-A.
 Alpha  occ. eigenvalues --  -19.39860 -19.39199 -19.38502 -19.36789 -19.36023
 Alpha  occ. eigenvalues --  -14.66133 -14.58639 -10.50172 -10.49641 -10.47208
 Alpha  occ. eigenvalues --  -10.46625 -10.46358 -10.46173 -10.43747 -10.43656
 Alpha  occ. eigenvalues --  -10.41400 -10.40619  -1.24859  -1.24195  -1.23517
 Alpha  occ. eigenvalues --   -1.22621  -1.21467  -1.19796  -1.17439  -1.07593
 Alpha  occ. eigenvalues --   -1.03978  -1.00309  -0.95761  -0.89677  -0.89369
 Alpha  occ. eigenvalues --   -0.88340  -0.81833  -0.79861  -0.79255  -0.75071
 Alpha  occ. eigenvalues --   -0.74257  -0.74162  -0.73858  -0.72589  -0.72119
 Alpha  occ. eigenvalues --   -0.71428  -0.70703  -0.69475  -0.68188  -0.67127
 Alpha  occ. eigenvalues --   -0.65532  -0.64417  -0.63705  -0.62908  -0.61538
 Alpha  occ. eigenvalues --   -0.61234  -0.60549  -0.59294  -0.58738  -0.58003
 Alpha  occ. eigenvalues --   -0.57046  -0.56430  -0.55759  -0.55384  -0.53843
 Alpha  occ. eigenvalues --   -0.53274  -0.52681  -0.52140  -0.52042  -0.51601
 Alpha  occ. eigenvalues --   -0.50426  -0.49706  -0.48726  -0.45373
 Alpha virt. eigenvalues --   -0.12995  -0.10350  -0.06303  -0.05370  -0.04760
 Alpha virt. eigenvalues --   -0.04441  -0.03757  -0.02961  -0.02809  -0.02491
 Alpha virt. eigenvalues --   -0.02205  -0.01494  -0.00932  -0.00802  -0.00409
 Alpha virt. eigenvalues --   -0.00234   0.00440   0.00496   0.01084   0.01193
 Alpha virt. eigenvalues --    0.01721   0.02202   0.02396   0.02681   0.02839
 Alpha virt. eigenvalues --    0.03308   0.03480   0.03837   0.03889   0.04295
 Alpha virt. eigenvalues --    0.04632   0.04904   0.05295   0.05506   0.05752
 Alpha virt. eigenvalues --    0.06083   0.06451   0.06597   0.06759   0.06833
 Alpha virt. eigenvalues --    0.06947   0.07325   0.07722   0.08107   0.08490
 Alpha virt. eigenvalues --    0.08657   0.08999   0.09405   0.09634   0.10204
 Alpha virt. eigenvalues --    0.10227   0.10645   0.10887   0.11170   0.11286
 Alpha virt. eigenvalues --    0.11581   0.11866   0.12091   0.12360   0.12665
 Alpha virt. eigenvalues --    0.13025   0.13282   0.13770   0.14242   0.14341
 Alpha virt. eigenvalues --    0.14604   0.14931   0.15206   0.15339   0.15940
 Alpha virt. eigenvalues --    0.16066   0.16333   0.16450   0.16584   0.16831
 Alpha virt. eigenvalues --    0.17094   0.17328   0.17740   0.17889   0.18039
 Alpha virt. eigenvalues --    0.18255   0.18453   0.18700   0.19218   0.19337
 Alpha virt. eigenvalues --    0.20053   0.20223   0.20623   0.20826   0.21098
 Alpha virt. eigenvalues --    0.21565   0.21700   0.21854   0.22028   0.22327
 Alpha virt. eigenvalues --    0.22849   0.23231   0.23640   0.23942   0.24115
 Alpha virt. eigenvalues --    0.24214   0.24651   0.24892   0.25050   0.25271
 Alpha virt. eigenvalues --    0.25634   0.26116   0.26535   0.26786   0.26829
 Alpha virt. eigenvalues --    0.27094   0.27705   0.27988   0.28381   0.28583
 Alpha virt. eigenvalues --    0.29068   0.29163   0.29401   0.30249   0.30789
 Alpha virt. eigenvalues --    0.31178   0.31465   0.31739   0.32199   0.32524
 Alpha virt. eigenvalues --    0.32847   0.33108   0.33543   0.34078   0.34439
 Alpha virt. eigenvalues --    0.34732   0.35202   0.35567   0.35818   0.36245
 Alpha virt. eigenvalues --    0.36526   0.36756   0.37322   0.37960   0.38300
 Alpha virt. eigenvalues --    0.38633   0.38911   0.39657   0.39928   0.40271
 Alpha virt. eigenvalues --    0.40792   0.41017   0.41512   0.41819   0.41948
 Alpha virt. eigenvalues --    0.42667   0.43136   0.43475   0.43573   0.44044
 Alpha virt. eigenvalues --    0.44573   0.44720   0.45380   0.45810   0.45951
 Alpha virt. eigenvalues --    0.46332   0.46538   0.46892   0.47002   0.47601
 Alpha virt. eigenvalues --    0.47810   0.48148   0.48196   0.49002   0.49265
 Alpha virt. eigenvalues --    0.49539   0.50135   0.50573   0.51216   0.51228
 Alpha virt. eigenvalues --    0.51542   0.52093   0.52298   0.52642   0.52864
 Alpha virt. eigenvalues --    0.53328   0.53790   0.53887   0.54623   0.54852
 Alpha virt. eigenvalues --    0.55121   0.55480   0.55779   0.56280   0.56721
 Alpha virt. eigenvalues --    0.56912   0.57316   0.57534   0.58234   0.58507
 Alpha virt. eigenvalues --    0.58880   0.59176   0.59392   0.59539   0.60455
 Alpha virt. eigenvalues --    0.60670   0.61177   0.61526   0.62122   0.62792
 Alpha virt. eigenvalues --    0.63201   0.63517   0.63890   0.64138   0.64501
 Alpha virt. eigenvalues --    0.64835   0.65380   0.65448   0.66071   0.66890
 Alpha virt. eigenvalues --    0.66990   0.68101   0.68371   0.68495   0.68985
 Alpha virt. eigenvalues --    0.69259   0.69684   0.70228   0.70653   0.70908
 Alpha virt. eigenvalues --    0.71612   0.71759   0.71884   0.72394   0.73487
 Alpha virt. eigenvalues --    0.73794   0.74268   0.74450   0.74653   0.75228
 Alpha virt. eigenvalues --    0.75571   0.76256   0.76591   0.77002   0.77460
 Alpha virt. eigenvalues --    0.77501   0.78034   0.79135   0.79354   0.79863
 Alpha virt. eigenvalues --    0.80460   0.80825   0.81486   0.82588   0.83171
 Alpha virt. eigenvalues --    0.83459   0.84065   0.84441   0.84594   0.85644
 Alpha virt. eigenvalues --    0.85899   0.86979   0.87281   0.88231   0.88521
 Alpha virt. eigenvalues --    0.89311   0.89634   0.90028   0.90908   0.91771
 Alpha virt. eigenvalues --    0.92583   0.92773   0.93263   0.93780   0.94329
 Alpha virt. eigenvalues --    0.94966   0.95324   0.96412   0.96642   0.97915
 Alpha virt. eigenvalues --    0.98549   0.98875   1.00033   1.00684   1.01314
 Alpha virt. eigenvalues --    1.02441   1.03328   1.03588   1.03854   1.04922
 Alpha virt. eigenvalues --    1.05119   1.05711   1.06592   1.07633   1.08185
 Alpha virt. eigenvalues --    1.08412   1.08966   1.09863   1.10988   1.11552
 Alpha virt. eigenvalues --    1.12752   1.13094   1.13844   1.14538   1.15431
 Alpha virt. eigenvalues --    1.15816   1.16628   1.16818   1.18097   1.18936
 Alpha virt. eigenvalues --    1.19111   1.19478   1.20417   1.21784   1.22239
 Alpha virt. eigenvalues --    1.23217   1.23416   1.25013   1.25066   1.25680
 Alpha virt. eigenvalues --    1.26803   1.27752   1.28949   1.29447   1.30046
 Alpha virt. eigenvalues --    1.30409   1.32132   1.32875   1.33546   1.34447
 Alpha virt. eigenvalues --    1.34894   1.35737   1.36938   1.37367   1.38165
 Alpha virt. eigenvalues --    1.39033   1.39548   1.40115   1.41200   1.41852
 Alpha virt. eigenvalues --    1.42378   1.43661   1.44690   1.45591   1.45817
 Alpha virt. eigenvalues --    1.46405   1.47213   1.48575   1.49511   1.50879
 Alpha virt. eigenvalues --    1.51467   1.53412   1.53836   1.54488   1.55795
 Alpha virt. eigenvalues --    1.56411   1.57499   1.58525   1.59047   1.59827
 Alpha virt. eigenvalues --    1.60273   1.60533   1.61480   1.62463   1.63978
 Alpha virt. eigenvalues --    1.64665   1.65086   1.65538   1.66482   1.66822
 Alpha virt. eigenvalues --    1.68043   1.69342   1.70170   1.70664   1.70954
 Alpha virt. eigenvalues --    1.71626   1.72080   1.72754   1.73272   1.73758
 Alpha virt. eigenvalues --    1.74637   1.75757   1.76244   1.76518   1.76854
 Alpha virt. eigenvalues --    1.78815   1.79131   1.80090   1.80215   1.81587
 Alpha virt. eigenvalues --    1.82806   1.83229   1.84824   1.85348   1.85461
 Alpha virt. eigenvalues --    1.85926   1.87235   1.87412   1.87730   1.88172
 Alpha virt. eigenvalues --    1.88638   1.89576   1.90352   1.91108   1.91942
 Alpha virt. eigenvalues --    1.92245   1.92861   1.94380   1.94545   1.95261
 Alpha virt. eigenvalues --    1.96789   1.97412   1.97772   1.98216   1.98699
 Alpha virt. eigenvalues --    1.99461   2.00462   2.00779   2.00915   2.01885
 Alpha virt. eigenvalues --    2.03179   2.04470   2.04951   2.05463   2.07080
 Alpha virt. eigenvalues --    2.07715   2.09199   2.10054   2.11286   2.11980
 Alpha virt. eigenvalues --    2.12997   2.13291   2.14276   2.14802   2.15752
 Alpha virt. eigenvalues --    2.16438   2.16937   2.17393   2.19091   2.19498
 Alpha virt. eigenvalues --    2.19661   2.21119   2.22832   2.22979   2.24773
 Alpha virt. eigenvalues --    2.25561   2.26330   2.27478   2.28214   2.28724
 Alpha virt. eigenvalues --    2.28889   2.29366   2.30687   2.31419   2.32936
 Alpha virt. eigenvalues --    2.33844   2.34768   2.36584   2.37394   2.37984
 Alpha virt. eigenvalues --    2.39151   2.40004   2.40651   2.42234   2.43308
 Alpha virt. eigenvalues --    2.43635   2.44539   2.45441   2.47824   2.48025
 Alpha virt. eigenvalues --    2.49511   2.51429   2.51545   2.52807   2.53515
 Alpha virt. eigenvalues --    2.54427   2.55521   2.56924   2.57626   2.59173
 Alpha virt. eigenvalues --    2.59553   2.60875   2.62086   2.63482   2.64299
 Alpha virt. eigenvalues --    2.64588   2.65528   2.67633   2.68432   2.68998
 Alpha virt. eigenvalues --    2.70009   2.71316   2.72527   2.73207   2.75718
 Alpha virt. eigenvalues --    2.76201   2.76462   2.78151   2.79685   2.81282
 Alpha virt. eigenvalues --    2.82260   2.82836   2.84884   2.86377   2.89130
 Alpha virt. eigenvalues --    2.89787   2.90887   2.92010   2.93507   2.95727
 Alpha virt. eigenvalues --    2.97242   3.01604   3.04361   3.05474   3.08680
 Alpha virt. eigenvalues --    3.13442   3.14581   3.22060   3.25696   3.26178
 Alpha virt. eigenvalues --    3.30683   3.32613   3.36240   3.38895   3.41953
 Alpha virt. eigenvalues --    3.43555   3.44255   3.45317   3.46395   3.46998
 Alpha virt. eigenvalues --    3.48238   3.48696   3.49129   3.55283   3.55984
 Alpha virt. eigenvalues --    3.58625   3.60507   3.67345   3.67596   3.69978
 Alpha virt. eigenvalues --    3.71417   3.82770   3.87796   3.90298   3.91031
 Alpha virt. eigenvalues --    3.98336   4.02650   4.06455   4.10323   4.14473
 Alpha virt. eigenvalues --    4.39452   5.02399
          Condensed to atoms (all electrons):
               1          2          3          4          5          6
     1  C    9.623125  -1.215241  -1.228224   0.989495  -1.145739  -0.319888
     2  C   -1.215241  30.957491  -5.963289  -0.089577   0.183344 -10.088031
     3  N   -1.228224  -5.963289  14.343077  -0.371339  -0.422245   2.131130
     4  C    0.989495  -0.089577  -0.371339   6.019141   0.074990  -0.671597
     5  C   -1.145739   0.183344  -0.422245   0.074990   6.450887   0.299630
     6  C   -0.319888 -10.088031   2.131130  -0.671597   0.299630  28.636847
     7  C    0.141143  -1.065756  -0.438244   0.035842  -0.127300 -11.072362
     8  C   -0.101245  -0.332418  -0.068463  -0.023812  -0.041263  -0.462017
     9  C   -0.039669  -0.493177   0.065497  -0.024342   0.013308  -0.390390
    10  N    0.006942   0.957379  -0.107977   0.033303   0.019802   0.395515
    11  C   -1.446103  -3.936088   0.820994  -0.357060  -0.041647  -5.479114
    12  O   -0.000283   0.025358   0.002277   0.000335   0.000774  -0.046881
    13  O   -0.000756  -0.012209  -0.000771   0.002090   0.001626   0.081287
    14  O    0.130249  -0.030921  -0.148287   0.025148   0.025750   0.046839
    15  O    0.005491  -0.085868   0.024355  -0.005455  -0.011085  -0.044334
    16  H    0.235996   0.619029  -1.006113  -0.078356   0.009802  -0.282168
    17  H    0.334091  -0.009798  -0.111506   0.203399  -0.357189  -0.046037
    18  H    0.135147   0.138465   0.139541  -0.123809  -0.344356  -0.008415
    19  H   -1.452326   0.042712   0.485385  -0.306743   0.192597   0.463173
    20  H    0.152060   0.167453  -0.232703   0.159961   0.364634  -0.158916
    21  H   -0.113538   0.024109  -0.164599  -0.402906   0.114270   0.226502
    22  H    0.725143  -3.165644  -0.067903   0.026830  -0.075250   1.262649
    23  H   -0.273063  -1.185005   0.050042  -0.133955  -0.023122  -0.896783
    24  H    0.000674  -0.053374   0.006888  -0.001438   0.000326  -0.322590
    25  H    0.005193   0.140961  -0.000573   0.000740   0.000616   0.397355
    26  H   -0.076293  -0.185182   0.032978  -0.009139  -0.007344   1.327703
    27  C   -0.390780  -1.263811   1.042911  -0.328614   0.081273   0.854903
    28  H   -0.014327   0.090846  -0.006172   0.002502  -0.000310  -0.367262
    29  H    0.118989   0.762536  -0.125234  -0.081555  -0.118884  -0.307118
    30  H   -0.003344  -0.045435  -0.053188   0.020729   0.004252   0.009369
    31  H   -0.003989  -0.002600  -0.001817  -0.001799   0.001923   0.002775
    32  H    0.007283   0.000736   0.001582   0.001297  -0.001514   0.004683
    33  H    0.000131  -0.002561   0.005201  -0.000550  -0.003550  -0.012885
    34  H   -0.008991   0.045673  -0.038618   0.008116   0.024540   0.018682
    35  H    0.024762   0.007096  -0.015974   0.012975  -0.027386  -0.002895
    36  H   -0.010021   0.008758   0.003437  -0.000724   0.006567   0.002564
    37  O    0.000007   0.000178  -0.000394   0.000030   0.000006  -0.000793
    38  H   -0.000043   0.000039  -0.000043  -0.000043   0.000036  -0.000238
    39  H    0.000035   0.000031   0.000047   0.000029  -0.000000  -0.000177
    40  H   -0.093602   0.125447  -0.259509  -0.043821   0.058763   0.065541
    41  H    0.103143   0.003956   0.247632  -0.006860  -0.033508  -0.087870
    42  H    0.006982  -0.255922  -0.596413   0.059433   0.021431   0.209986
               7          8          9         10         11         12
     1  C    0.141143  -0.101245  -0.039669   0.006942  -1.446103  -0.000283
     2  C   -1.065756  -0.332418  -0.493177   0.957379  -3.936088   0.025358
     3  N   -0.438244  -0.068463   0.065497  -0.107977   0.820994   0.002277
     4  C    0.035842  -0.023812  -0.024342   0.033303  -0.357060   0.000335
     5  C   -0.127300  -0.041263   0.013308   0.019802  -0.041647   0.000774
     6  C  -11.072362  -0.462017  -0.390390   0.395515  -5.479114  -0.046881
     7  C   24.862922  -3.962325   1.450779  -0.616055  -1.990126   0.033112
     8  C   -3.962325  11.846426  -2.583696  -0.006440   1.340490  -0.029215
     9  C    1.450779  -2.583696  10.438905   0.196358  -2.154079  -0.034482
    10  N   -0.616055  -0.006440   0.196358   7.947766  -1.446491  -0.281343
    11  C   -1.990126   1.340490  -2.154079  -1.446491  20.419184   0.143015
    12  O    0.033112  -0.029215  -0.034482  -0.281343   0.143015   8.361176
    13  O   -0.029389   0.014868   0.004881  -0.006232  -0.097987  -0.110999
    14  O   -0.002420  -0.001801  -0.010222  -0.043996  -0.064859   0.018769
    15  O   -0.003805   0.020008  -0.009991   0.027070  -0.007024  -0.099855
    16  H    0.020504  -0.001727  -0.000593   0.001904  -0.030949  -0.000176
    17  H    0.006251  -0.002749   0.002496  -0.000510   0.012367   0.000027
    18  H   -0.004006   0.000364  -0.002487   0.004403  -0.025778  -0.000092
    19  H   -0.069486   0.000330   0.002534  -0.017710   0.448435  -0.000036
    20  H    0.075914  -0.052274   0.013562   0.014621  -0.456832   0.004460
    21  H    0.030284  -0.001097  -0.000412  -0.000548   0.032943   0.000042
    22  H    0.101128   0.005232   0.028741   0.005580  -0.194722   0.000433
    23  H   -0.382949   0.304322  -0.254238  -0.092049  -0.709369  -0.079747
    24  H    0.281612   0.103747  -0.504470  -0.181831   0.366573   0.001147
    25  H    0.447520  -1.182616   0.368848   0.031010  -0.466010  -0.000108
    26  H   -2.620572   0.703746  -0.230250  -0.064457   0.261626   0.000066
    27  C   -0.363001   0.092588  -0.027002  -0.042877   0.192800  -0.001716
    28  H    0.014465  -0.081235  -0.510668   0.092215   0.460231   0.116026
    29  H    0.025765  -0.020133   0.011017   0.037600  -0.183307   0.009700
    30  H   -0.001606   0.000554   0.000227  -0.000924   0.024756  -0.000870
    31  H    0.005416   0.004283  -0.011458  -0.024344   0.000085   0.293378
    32  H    0.000444   0.000385  -0.003334   0.011193  -0.012181   0.301819
    33  H   -0.012161   0.005497   0.001965   0.013413   0.011765  -0.011165
    34  H    0.012110  -0.008224   0.002019   0.008525  -0.022704   0.009595
    35  H   -0.003370   0.000002   0.001639   0.004144  -0.025649   0.001717
    36  H    0.000115  -0.001044   0.001200   0.000334   0.028552   0.001388
    37  O    0.000818  -0.000327   0.000191  -0.001650   0.002438   0.001021
    38  H    0.000103  -0.000091  -0.000143  -0.000144  -0.000117   0.000355
    39  H    0.000255  -0.000082   0.000141  -0.000150   0.000734   0.000165
    40  H   -0.039279   0.016642  -0.006340   0.001942  -0.046613  -0.000500
    41  H    0.061185   0.023370  -0.023676  -0.001321  -0.022953   0.000601
    42  H    0.003747  -0.014634   0.013008  -0.006682   0.069485  -0.000198
              13         14         15         16         17         18
     1  C   -0.000756   0.130249   0.005491   0.235996   0.334091   0.135147
     2  C   -0.012209  -0.030921  -0.085868   0.619029  -0.009798   0.138465
     3  N   -0.000771  -0.148287   0.024355  -1.006113  -0.111506   0.139541
     4  C    0.002090   0.025148  -0.005455  -0.078356   0.203399  -0.123809
     5  C    0.001626   0.025750  -0.011085   0.009802  -0.357189  -0.344356
     6  C    0.081287   0.046839  -0.044334  -0.282168  -0.046037  -0.008415
     7  C   -0.029389  -0.002420  -0.003805   0.020504   0.006251  -0.004006
     8  C    0.014868  -0.001801   0.020008  -0.001727  -0.002749   0.000364
     9  C    0.004881  -0.010222  -0.009991  -0.000593   0.002496  -0.002487
    10  N   -0.006232  -0.043996   0.027070   0.001904  -0.000510   0.004403
    11  C   -0.097987  -0.064859  -0.007024  -0.030949   0.012367  -0.025778
    12  O   -0.110999   0.018769  -0.099855  -0.000176   0.000027  -0.000092
    13  O    7.954076  -0.028076  -0.005429   0.000021  -0.000092   0.001132
    14  O   -0.028076   8.663776  -0.011124   0.066067  -0.000947  -0.030501
    15  O   -0.005429  -0.011124   7.961871  -0.001491  -0.000534  -0.001075
    16  H    0.000021   0.066067  -0.001491   2.928252   0.117145  -0.340044
    17  H   -0.000092  -0.000947  -0.000534   0.117145   2.132475  -0.649248
    18  H    0.001132  -0.030501  -0.001075  -0.340044  -0.649248   2.388767
    19  H    0.000257   0.000218   0.000593  -0.043919  -0.344454   0.224543
    20  H   -0.001691   0.027986  -0.006633   0.078501   0.226140  -0.500374
    21  H   -0.000157  -0.006265  -0.000013  -0.614892  -0.246721   0.211392
    22  H   -0.000231   0.001437   0.000735   0.085810   0.063403  -0.070938
    23  H    0.042990  -0.006042  -0.004546  -0.078024  -0.029583   0.109704
    24  H    0.002249  -0.000220   0.001664  -0.000150   0.000035   0.000080
    25  H    0.000476  -0.000137   0.000253   0.000143  -0.000008   0.000045
    26  H   -0.001044  -0.001273   0.000136  -0.003639   0.001597   0.000056
    27  C    0.003697  -0.028104   0.001838  -0.212592  -0.016217   0.035167
    28  H   -0.022394  -0.000072  -0.008304   0.001058   0.000337  -0.001350
    29  H   -0.007302  -0.038148  -0.025509   0.124779   0.008296   0.014097
    30  H    0.003070   0.331510   0.008564  -0.017721  -0.001562   0.011042
    31  H    0.033120   0.000399  -0.000973  -0.000348   0.000015   0.000351
    32  H    0.003940   0.000598   0.036088   0.000158  -0.000024  -0.000352
    33  H    0.291113  -0.006408   0.005862  -0.000435  -0.000035  -0.000107
    34  H    0.317476  -0.000078  -0.006838   0.003904  -0.000125  -0.001015
    35  H    0.000481   0.011682   0.317828  -0.000017   0.002143   0.000719
    36  H    0.001133  -0.008338   0.282365   0.000407   0.000158   0.000999
    37  O   -0.071034   0.001921  -0.000051   0.000048  -0.000000  -0.000011
    38  H    0.004865   0.000004  -0.000031  -0.000003   0.000002   0.000001
    39  H    0.005922   0.000145  -0.000021  -0.000001  -0.000000  -0.000003
    40  H    0.004395  -0.027422   0.000374  -0.023864  -0.004009   0.013149
    41  H   -0.009818   0.011677   0.000121   0.007265   0.001165  -0.007320
    42  H    0.000275   0.005471   0.000095   0.011185   0.001995   0.000842
              19         20         21         22         23         24
     1  C   -1.452326   0.152060  -0.113538   0.725143  -0.273063   0.000674
     2  C    0.042712   0.167453   0.024109  -3.165644  -1.185005  -0.053374
     3  N    0.485385  -0.232703  -0.164599  -0.067903   0.050042   0.006888
     4  C   -0.306743   0.159961  -0.402906   0.026830  -0.133955  -0.001438
     5  C    0.192597   0.364634   0.114270  -0.075250  -0.023122   0.000326
     6  C    0.463173  -0.158916   0.226502   1.262649  -0.896783  -0.322590
     7  C   -0.069486   0.075914   0.030284   0.101128  -0.382949   0.281612
     8  C    0.000330  -0.052274  -0.001097   0.005232   0.304322   0.103747
     9  C    0.002534   0.013562  -0.000412   0.028741  -0.254238  -0.504470
    10  N   -0.017710   0.014621  -0.000548   0.005580  -0.092049  -0.181831
    11  C    0.448435  -0.456832   0.032943  -0.194722  -0.709369   0.366573
    12  O   -0.000036   0.004460   0.000042   0.000433  -0.079747   0.001147
    13  O    0.000257  -0.001691  -0.000157  -0.000231   0.042990   0.002249
    14  O    0.000218   0.027986  -0.006265   0.001437  -0.006042  -0.000220
    15  O    0.000593  -0.006633  -0.000013   0.000735  -0.004546   0.001664
    16  H   -0.043919   0.078501  -0.614892   0.085810  -0.078024  -0.000150
    17  H   -0.344454   0.226140  -0.246721   0.063403  -0.029583   0.000035
    18  H    0.224543  -0.500374   0.211392  -0.070938   0.109704   0.000080
    19  H    2.819646  -0.859205   0.062169  -0.380662   0.196472   0.000753
    20  H   -0.859205   2.630951  -0.072709   0.251936  -0.446844  -0.002443
    21  H    0.062169  -0.072709   2.451013  -0.105269   0.050676   0.000088
    22  H   -0.380662   0.251936  -0.105269   3.540563  -0.057125   0.000213
    23  H    0.196472  -0.446844   0.050676  -0.057125   6.398970   0.059735
    24  H    0.000753  -0.002443   0.000088   0.000213   0.059735   2.270699
    25  H   -0.001746   0.001890  -0.000348   0.003645  -0.034116  -0.121923
    26  H    0.010174  -0.014327   0.003236  -0.166658   0.014094  -0.004951
    27  C    0.094023  -0.089720   0.003907  -0.067273   0.183416   0.003281
    28  H   -0.000282  -0.000640  -0.000399  -0.000507  -0.155003  -0.233936
    29  H   -0.023636   0.027792  -0.013167  -0.005194  -0.231042  -0.001742
    30  H    0.001604  -0.004180   0.006590  -0.000491   0.026319   0.000083
    31  H    0.000071  -0.000577   0.000012   0.000046   0.008115   0.005461
    32  H   -0.000970   0.004368   0.000017   0.000398  -0.009034   0.002618
    33  H    0.000079  -0.001192  -0.000121  -0.000321   0.019664  -0.001052
    34  H   -0.001479   0.006063  -0.000563   0.003095  -0.074272   0.000187
    35  H   -0.002506   0.002864  -0.001024   0.001322   0.000493  -0.001049
    36  H    0.000113  -0.001586  -0.000185  -0.000067  -0.017738   0.000010
    37  O    0.000004  -0.000031   0.000009  -0.000044   0.003169   0.000041
    38  H   -0.000000  -0.000014  -0.000005   0.000004   0.000356  -0.000026
    39  H    0.000000   0.000030   0.000007  -0.000008  -0.000911   0.000025
    40  H    0.001845  -0.011492  -0.001813   0.019311   0.029387   0.000303
    41  H   -0.003288   0.014587   0.007444   0.001738  -0.016709  -0.001386
    42  H    0.013550  -0.006481   0.063043   0.059475   0.024730   0.000621
              25         26         27         28         29         30
     1  C    0.005193  -0.076293  -0.390780  -0.014327   0.118989  -0.003344
     2  C    0.140961  -0.185182  -1.263811   0.090846   0.762536  -0.045435
     3  N   -0.000573   0.032978   1.042911  -0.006172  -0.125234  -0.053188
     4  C    0.000740  -0.009139  -0.328614   0.002502  -0.081555   0.020729
     5  C    0.000616  -0.007344   0.081273  -0.000310  -0.118884   0.004252
     6  C    0.397355   1.327703   0.854903  -0.367262  -0.307118   0.009369
     7  C    0.447520  -2.620572  -0.363001   0.014465   0.025765  -0.001606
     8  C   -1.182616   0.703746   0.092588  -0.081235  -0.020133   0.000554
     9  C    0.368848  -0.230250  -0.027002  -0.510668   0.011017   0.000227
    10  N    0.031010  -0.064457  -0.042877   0.092215   0.037600  -0.000924
    11  C   -0.466010   0.261626   0.192800   0.460231  -0.183307   0.024756
    12  O   -0.000108   0.000066  -0.001716   0.116026   0.009700  -0.000870
    13  O    0.000476  -0.001044   0.003697  -0.022394  -0.007302   0.003070
    14  O   -0.000137  -0.001273  -0.028104  -0.000072  -0.038148   0.331510
    15  O    0.000253   0.000136   0.001838  -0.008304  -0.025509   0.008564
    16  H    0.000143  -0.003639  -0.212592   0.001058   0.124779  -0.017721
    17  H   -0.000008   0.001597  -0.016217   0.000337   0.008296  -0.001562
    18  H    0.000045   0.000056   0.035167  -0.001350   0.014097   0.011042
    19  H   -0.001746   0.010174   0.094023  -0.000282  -0.023636   0.001604
    20  H    0.001890  -0.014327  -0.089720  -0.000640   0.027792  -0.004180
    21  H   -0.000348   0.003236   0.003907  -0.000399  -0.013167   0.006590
    22  H    0.003645  -0.166658  -0.067273  -0.000507  -0.005194  -0.000491
    23  H   -0.034116   0.014094   0.183416  -0.155003  -0.231042   0.026319
    24  H   -0.121923  -0.004951   0.003281  -0.233936  -0.001742   0.000083
    25  H    2.133388  -0.139074  -0.006967   0.014991   0.001204  -0.000052
    26  H   -0.139074   3.025732   0.056567   0.002682  -0.004901   0.000357
    27  C   -0.006967   0.056567   4.837092  -0.008216  -0.176478   0.018401
    28  H    0.014991   0.002682  -0.008216   1.466582   0.002255  -0.001026
    29  H    0.001204  -0.004901  -0.176478   0.002255   0.911825  -0.226080
    30  H   -0.000052   0.000357   0.018401  -0.001026  -0.226080   0.579770
    31  H   -0.000312  -0.000644   0.001459   0.004721   0.002054  -0.000122
    32  H   -0.000090   0.000045  -0.000981  -0.011471   0.002360  -0.000415
    33  H   -0.000070   0.000463  -0.000071  -0.003328  -0.003736   0.003187
    34  H    0.000907  -0.002323  -0.011904   0.004211   0.004680   0.005053
    35  H    0.000011  -0.000162  -0.000651   0.000756   0.030036  -0.000430
    36  H   -0.000013   0.000047   0.000424   0.002547   0.001560   0.000346
    37  O   -0.000018   0.000041   0.000391   0.000825  -0.001670   0.000105
    38  H    0.000003  -0.000002  -0.000016   0.000209  -0.000477   0.000157
    39  H   -0.000006   0.000010  -0.000056   0.000141   0.000342  -0.000111
    40  H   -0.000546   0.000981   0.228010  -0.002363   0.048018   0.005392
    41  H   -0.001745  -0.010076   0.092903   0.002126   0.000116  -0.001577
    42  H   -0.000814   0.013586   0.280041  -0.000193  -0.066739   0.007178
              31         32         33         34         35         36
[...]
 0001754,0.00002658,-0.00019717,0.00011179,0.00010871,-0.00097277,0.000
 08779,0.00063016,-0.00022044,-0.00001580,-0.00001955,-0.00008409,-0.00
 001068,0.00002710,0.00000460,-0.00000310,0.00000686,-0.00000336,-0.000
 00076,-0.00000280,0.00000348,0.00000282,-0.00000574,-0.00000131,0.0000
 0102,-0.00000369,-0.00000011,-0.00000304,-0.00000778,-0.00001293,0.000
 00315,-0.00000551,-0.00001136,0.00000207,-0.00000470,0.00003115,-0.000
 00732,-0.00000183,0.00000873,-0.00000822,0.00000182,-0.00000274,0.0000
 0157,0.00000403,-0.00000628,0.00000130,0.00000172,-0.00001678,0.000007
 09,0.00004834,0.00019571,-0.00011788,0.00008832,0.00012943,-0.00006471
 ,0.00007478,0.00004212,0.00001388,0.00001053,0.00011175,-0.00007306,-0
 .00018618,0.00005395,0.00003220,-0.00004259,0.00153798,0.00017251,-0.0
 0162219,0.00022772,0.00004739,0.00000762,0.00004252,0.00000269,-0.0000
 0612,0.00001761,-0.00000158,-0.00001325,0.09974755,0.13697676,-0.46375
 341,-0.11429498,-0.14272852,0.48443075,-0.00000341,0.00000195,-0.00000
 136,-0.00001557,0.00002171,0.00000863,0.00007128,-0.00002665,0.0000218
 5,-0.00002735,-0.00001196,-0.00000289,-0.00000252,0.00000090,-0.000002
 33,0.00001701,-0.00001936,0.00001135,-0.00000080,0.00001591,-0.0000044
 1,-0.00000770,-0.00000504,-0.00000516,0.00001009,0.00002420,0.00000394
 ,0.00005318,-0.00002650,0.00002428,-0.00002903,-0.00000304,-0.00001185
 ,0.00010455,-0.00009092,-0.00005282,0.00037689,0.00015400,0.00086591,0
 .00018834,-0.00006013,-0.00001213,0.00005753,-0.00002920,-0.00006365,-
 0.00000397,-0.00000412,-0.00000255,0.00000585,-0.00000099,0.00000052,-
 0.00000485,-0.00000192,0.00000372,0.00000452,-0.00000234,0.00000082,-0
 .00000232,0.00000240,0.00000269,0.00000813,-0.00000219,0.00000501,0.00
 000838,-0.00000677,0.00000351,-0.00001532,0.00001253,0.00000708,0.0000
 0039,0.00000518,0.00000235,0.00000017,0.00000220,0.00000217,-0.0000007
 6,0.00000265,0.00000180,-0.00001364,0.00000209,-0.00000757,-0.00008219
 ,0.00006238,-0.00003565,-0.00010516,0.00006483,-0.00005424,-0.00008355
 ,-0.00000602,0.00001158,-0.00016314,0.00013025,0.00012064,-0.00002376,
 0.00001361,0.00003828,-0.00133249,-0.00047453,-0.00214682,-0.00016595,
 0.00005799,-0.00005063,-0.00004647,0.00002321,0.00005202,-0.00001043,0
 .00000453,0.00002845,-0.41185365,0.10401501,-0.22159243,0.00754031,-0.
 00527721,0.01376158,0.40554563,0.00000553,-0.00000867,-0.00000999,0.00
 001339,0.00003346,0.00002476,-0.00000559,-0.00005702,0.00000598,0.0000
 1095,0.00003258,-0.00000307,-0.00000891,0.00000425,0.00000291,0.000021
 30,0.00001262,0.00000835,0.00001087,0.00001051,-0.00000231,-0.00003667
 ,-0.00001499,-0.00001362,0.00002772,-0.00003801,0.00002642,-0.00009821
 ,0.00004447,-0.00005424,0.00001342,0.00003951,-0.00000956,-0.00029098,
 -0.00003233,0.00010863,-0.00009796,-0.00030533,-0.00042952,0.00002540,
 -0.00018273,0.00006197,-0.00003579,-0.00011511,0.00002177,0.00000104,-
 0.00000964,-0.00000273,-0.00000326,-0.00000335,0.00000021,0.00000141,-
 0.00000287,0.00000465,0.00000008,-0.00000158,-0.00000088,-0.00000093,0
 .00000192,-0.00000557,-0.00000315,-0.00000275,-0.00000128,-0.00000071,
 -0.00000849,-0.00000257,0.00001584,0.00001845,-0.00000696,0.00001683,-
 0.00001311,-0.00000761,0.00000329,-0.00000291,-0.00000227,-0.00000085,
 0.00000147,-0.00000197,0.00001364,0.00002151,-0.00000219,0.00019030,-0
 .00008805,0.00007080,-0.00004033,0.00005561,-0.00004182,-0.00009749,0.
 00006131,-0.00000912,0.00031582,0.00003857,-0.00013750,0.00007891,0.00
 011839,-0.00007236,0.00083419,-0.00008351,0.00134447,0.00007284,0.0001
 9134,-0.00027413,-0.00001198,0.00005656,0.00001931,-0.00001419,0.00001
 971,0.00000126,0.08545384,-0.02765731,0.06185948,0.01218886,-0.0024523
 6,0.00551662,-0.09856921,0.03033008,0.00000706,-0.00000301,0.00000427,
 -0.00000146,0.00002372,0.00000805,0.00000245,0.00001002,-0.00004116,0.
 00000011,-0.00000896,-0.00000169,0.00000405,-0.00000251,0.00000571,-0.
 00000236,0.00000854,-0.00001233,-0.00000323,-0.00000157,-0.00000215,-0
 .00001018,0.00000253,-0.00001216,-0.00000475,-0.00002605,0.00001532,-0
 .00011840,0.00005764,-0.00009610,0.00001929,0.00002236,0.00000463,-0.0
 0035124,0.00006179,-0.00030508,0.00139792,-0.00065790,-0.00266852,-0.0
 0001403,0.00010002,-0.00018009,-0.00015978,0.00001614,-0.00006869,0.00
 000202,-0.00000365,0.00000485,0.00000049,-0.00000015,-0.00000296,-0.00
 000005,0.00000400,-0.00000348,0.00000106,-0.00000024,-0.00000342,-0.00
 000030,-0.00000330,-0.00000361,-0.00000332,0.00000248,-0.00000265,-0.0
 0000322,-0.00000108,-0.00000298,0.00000595,-0.00001080,0.00004023,0.00
 000537,-0.00000190,0.00001089,-0.00000462,0.00000239,0.00000235,-0.000
 00405,0.00000185,0.00000252,-0.00002854,-0.00000577,0.00003866,0.00022
 817,-0.00013140,0.00017746,0.00002588,-0.00003878,0.00005166,0.0000358
 0,-0.00001715,0.00006570,0.00037504,0.00003794,0.00036381,0.00011545,-
 0.00002564,0.00001466,-0.00172618,0.00103089,0.00438052,0.00003567,-0.
 00015419,0.00013167,0.00008527,0.00000471,0.00010742,0.00006102,-0.000
 00897,-0.00001031,-0.16777381,0.05833546,-0.15163658,-0.04126018,0.009
 36501,-0.01969633,0.20907513,-0.06799136,0.16932108,0.00010075,0.00055
 534,0.00039858,-0.00050835,-0.00141065,0.00196281,-0.00555923,0.009332
 84,0.00544169,0.00033721,0.00134449,-0.00010777,0.00000904,-0.00000419
 ,0.00001783,-0.00007436,-0.00019956,-0.00008585,-0.00002759,0.00018475
 ,-0.00011654,0.00002213,0.00001826,-0.00002854,0.00000911,0.00000563,0
 .00002501,-0.00001259,0.00001814,-0.00000689,0.00019710,0.00002140,0.0
 0010013,-0.00004024,0.00006676,0.00003964,0.00007660,0.00012087,0.0001
 9538,0.00000515,-0.00010279,0.00036230,-0.00000095,0.00002997,0.000055
 86,0.00002901,-0.00040053,0.00031768,0.00001017,-0.00001050,-0.0000364
 9,0.00000197,-0.00003506,-0.00004174,-0.00005248,-0.00005749,0.0001210
 5,-0.00010192,-0.00007924,0.00014964,-0.00023364,0.00016466,-0.0002055
 4,0.00040682,-0.00039843,-0.00012784,0.00000100,-0.00002504,-0.0000073
 3,0.00000206,0.00000082,0.00000360,-0.00000472,0.00000320,0.00000459,-
 0.00001850,-0.00004373,-0.00000296,-0.08519526,0.08891326,0.03043581,0
 .00007158,-0.00004193,0.00003837,0.00008540,0.00008446,-0.00023811,0.0
 0011356,0.00004804,-0.00007427,0.00000794,-0.00005973,-0.00008673,-0.0
 0000076,-0.00000869,-0.00000752,-0.00007770,-0.00001190,-0.00004651,-0
 .00002424,-0.00005364,-0.00013922,0.00000084,-0.00003385,-0.00008968,0
 .00000383,0.00000603,-0.00000742,0.00006079,0.00001028,0.00003072,-0.0
 0003790,-0.00001460,-0.00000386,-0.00000607,0.00000560,-0.00001038,0.0
 8868319,-0.00029493,0.00010238,0.00038568,-0.00076010,0.00070457,0.000
 91914,-0.00324863,0.00575900,0.00201544,-0.00072589,0.00123715,0.00058
 230,0.00008853,0.00021326,-0.00016007,0.00004176,0.00017905,0.00007413
 ,0.00001723,0.00012647,-0.00006564,-0.00001589,0.00004916,-0.00003937,
 0.00002070,-0.00002352,0.00002315,-0.00018587,0.00001176,-0.00008602,0
 .00024075,-0.00002364,0.00014166,-0.00013850,0.00014375,0.00001589,0.0
 0003021,0.00014261,0.00028056,-0.00049673,0.00010330,0.00031817,-0.000
 03092,0.00006282,0.00002728,0.00042353,0.00016609,-0.00019675,0.000006
 95,0.00001756,-0.00000400,-0.00000267,-0.00000837,-0.00001855,-0.00001
 323,0.00005534,0.00008566,0.00001452,0.00005228,0.00000247,0.00015541,
 -0.00023878,0.00001973,-0.00026042,0.00010651,0.00008901,0.00003141,-0
 .00005842,-0.00000181,0.00000258,0.00000692,-0.00000042,-0.00000382,0.
 00000098,0.00000196,-0.00004489,0.00005580,0.00001100,0.09225038,-0.26
 029259,-0.07445432,0.00021778,-0.00013448,0.00012830,0.00059356,-0.000
 19275,-0.00018826,0.00007024,0.00013902,-0.00018324,0.00003084,-0.0000
 9661,-0.00013339,0.00001348,-0.00001777,0.00000544,-0.00005956,-0.0000
 2831,-0.00008765,-0.00004955,-0.00005327,-0.00022892,0.00001433,-0.000
 05928,-0.00008742,0.00000564,0.00000084,0.00000152,0.00005565,0.000023
 86,0.00006111,-0.00005356,-0.00001905,-0.00001940,-0.00000582,0.000000
 24,-0.00001669,-0.09838281,0.27440041,0.00108608,-0.00151154,-0.000424
 33,0.00151169,0.00307278,-0.00477572,0.01336761,-0.03190181,-0.0159121
 4,-0.00032065,-0.00153120,0.00114185,-0.00041464,-0.00020678,-0.000042
 96,0.00052026,0.00060370,0.00017406,-0.00020104,0.00000422,0.00000831,
 -0.00001763,-0.00005199,0.00002604,-0.00001917,-0.00005854,-0.00000873
 ,-0.00006537,0.00003590,-0.00004802,-0.00009519,-0.00001879,0.00004672
 ,-0.00005155,0.00008995,0.00002852,0.00016679,0.00012167,0.00010446,-0
 .00037590,0.00050465,0.00054729,-0.00001783,0.00009058,0.00011720,0.00
 010102,0.00061753,-0.00006345,-0.00003938,0.00006652,0.00007777,0.0000
 1745,0.00005963,0.00001105,0.00019182,0.00021733,-0.00054991,0.0000119
 3,0.00000864,-0.00006471,0.00009243,0.00036456,-0.00008021,0.00032579,
 -0.00011181,0.00006087,0.00006137,-0.00004765,-0.00000613,0.00000539,-
 0.00000080,0.00000109,-0.00001264,-0.00001482,-0.00001006,0.00005630,-
 0.00004966,-0.00004530,0.02863171,-0.06539404,-0.07102374,0.00009500,-
 0.00007221,0.00004855,0.00098128,-0.00097447,-0.00034405,-0.00010429,0
 .00019810,-0.00040209,0.00000362,-0.00006432,-0.00008846,-0.00000678,-
 0.00002534,-0.00000242,-0.00008561,0.00000625,0.00002506,-0.00014888,-
 0.00013335,-0.00007881,-0.00001174,-0.00010290,-0.00022577,0.00000959,
 0.00000557,-0.00001243,0.00003850,-0.00000205,-0.00002872,0.00000143,-
 0.00000086,0.00001626,-0.00000536,-0.00000146,0.00000073,-0.03781693,0
 .07869908,0.08499027,-0.00004679,-0.00014623,0.00002841,-0.00001831,-0
 .00120130,-0.00050238,-0.00753365,-0.00680343,0.00257292,0.00040523,0.
 00136795,0.00203118,-0.00006169,-0.00064768,0.00009021,-0.00014561,0.0
 0013448,-0.00002445,0.00006011,0.00012939,-0.00016702,0.00011057,0.000
 17883,-0.00004507,-0.00006183,0.00001144,-0.00000025,-0.00026408,-0.00
 006359,-0.00009840,0.00055286,0.00001645,0.00017461,-0.00016117,0.0001
 9139,0.00000998,0.00022908,0.00001101,0.00035278,0.00017831,-0.0001921
 1,0.00024229,0.00000660,0.00008001,0.00001741,0.00001995,-0.00027802,-
 0.00000801,-0.00002771,0.00002518,0.00013722,-0.00009633,0.00006111,0.
 00017884,0.00000007,0.00002755,-0.00001386,0.00002144,0.00003827,0.000
 02537,0.00048120,0.00027524,-0.00000441,-0.00017485,0.00001061,-0.0001
 7540,-0.00003547,-0.00002882,0.00003953,0.00000179,0.00001133,-0.00000
 199,-0.00000331,0.00000876,0.00001029,-0.00011772,0.00004447,0.0000480
 4,-0.19037122,-0.13514043,0.00313964,0.00027530,-0.00017145,0.00017312
 ,-0.00022269,0.00021054,-0.00014106,0.00001939,-0.00000019,0.00002520,
 0.00003211,-0.00012988,-0.00016918,-0.00000093,-0.00003597,0.00001243,
 -0.00011573,0.00003104,0.00000264,0.00002968,0.00007024,-0.00013465,-0
 .00000531,-0.00005470,-0.00008060,-0.00001195,0.00000183,-0.00000783,0
 .00004895,-0.00000883,0.00000263,-0.00002034,-0.00000264,0.00000486,-0
 .00000399,0.00000006,-0.00000836,0.00995448,0.00932201,-0.00091652,0.2
 0206679,-0.00009930,-0.00000515,0.00009728,0.00060066,0.00012466,-0.00
 016484,-0.00096908,-0.00260894,0.00144261,0.00028386,0.00120260,0.0009
 1436,-0.00032099,0.00001343,-0.00035044,0.00009473,-0.00019632,-0.0005
 7256,0.00011758,-0.00005466,-0.00025349,0.00005269,-0.00004115,-0.0000
 0731,-0.00007499,0.00003974,0.00002783,0.00018503,0.00003001,0.0001455
 9,0.00005899,-0.00001329,-0.00035561,0.00013262,-0.00015824,-0.0001241
 7,-0.00038844,-0.00007245,-0.00060201,0.00062043,0.00004707,-0.0002076
 6,0.00006754,-0.00001765,-0.00004761,0.00010723,0.00036814,-0.00018711
 ,-0.00004850,0.00004311,0.00015686,0.00003514,-0.00001173,-0.00000067,
 -0.00001247,0.00003975,0.00001834,0.00000197,0.00000638,0.00001333,-0.
 00006152,-0.00008760,-0.00010889,-0.00002890,0.00002737,0.00009419,-0.
 00001275,-0.00000994,0.00005127,0.00000086,-0.00000036,-0.00000633,-0.
 00000187,0.00000371,0.00001023,-0.00000716,0.00001859,0.00004028,-0.13
 597023,-0.17697171,0.00369157,-0.00018857,0.00012658,-0.00008998,-0.00
 086375,-0.00004771,0.00003429,-0.00012229,-0.00006726,0.00001545,-0.00
 001992,0.00016563,0.00026089,-0.00002858,-0.00001154,0.00002811,0.0001
 8398,-0.00004095,0.00004284,0.00012056,-0.00021141,0.00044715,-0.00003
 591,0.00002643,0.00007694,-0.00001786,-0.00000257,0.00000560,-0.000113
 54,0.00003338,-0.00003115,0.00006305,0.00000028,0.00000667,0.00000956,
 -0.00001137,0.00002093,-0.02038019,-0.01658145,0.00073969,0.14886326,0
 .18798885,-0.00022237,0.00038142,0.00008764,0.00020595,0.00084622,0.00
 138101,0.02669447,0.02810161,-0.00465297,0.00096479,-0.00224217,-0.005
 60980,0.00158728,0.00125592,-0.00000165,0.00019609,-0.00032567,-0.0006
 4541,-0.00011054,-0.00054146,0.00000047,0.00028386,0.00006610,0.000112
 84,-0.00012922,0.00017099,-0.00016144,-0.00012299,-0.00028063,0.000091
 96,0.00017985,-0.00007930,-0.00030579,0.00006899,-0.00002851,0.0001123
 6,0.00044314,-0.00009629,0.00009461,-0.00051815,-0.00002164,-0.0000538
 1,-0.00004059,-0.00003844,0.00005466,-0.00019682,0.00011883,0.00000407
 ,0.00013788,-0.00006661,-0.00058599,0.00005012,0.00001446,-0.00007921,
 -0.00004565,-0.00004345,0.00005140,-0.00001254,-0.00005219,-0.00002890
 ,0.00042933,-0.00003482,0.00006811,0.00005094,-0.00029680,-0.00025107,
 -0.00001330,0.00010290,-0.00002360,-0.00000770,-0.00000100,-0.00000360
 ,-0.00000290,0.00001478,0.00000806,-0.00006548,0.00003707,0.00002402,-
 0.00333911,-0.00323194,-0.04836499,-0.00011558,0.00004394,-0.00009332,
 0.00097003,-0.00009341,0.00029057,0.00000698,0.00001276,-0.00001613,-0
 .00003164,-0.00003315,-0.00008208,0.00001287,0.00002887,-0.00003890,-0
 .00008759,0.00001756,0.00017075,-0.00010069,0.00020210,-0.00013816,0.0
 0001717,0.00002738,-0.00002712,0.00001806,-0.00000247,-0.00000723,0.00
 003342,-0.00001950,-0.00008419,0.00003621,-0.00001182,0.00002630,-0.00
 000311,0.00000319,0.00000783,-0.00772016,-0.00555717,0.00012915,-0.007
 31234,-0.00485717,0.05728001,0.00009003,-0.00004182,0.00003176,0.00251
 672,-0.00160929,0.00153195,0.00967346,-0.00371596,0.00752889,0.0034183
 7,0.00035454,0.00212668,0.00000580,0.00003563,0.00000948,-0.00014543,0
 .00004117,-0.00001699,-0.00013845,0.00018955,-0.00017462,-0.00007600,-
 0.00005904,0.00002706,0.00002098,-0.00001208,0.00004733,0.00015247,0.0
 0010499,0.00005996,-0.00014619,0.00000261,-0.00005177,0.00002655,-0.00
 010541,-0.00010149,-0.00036099,-0.00006514,-0.00028844,0.00000563,0.00
 016384,-0.00042096,-0.00000014,-0.00005288,-0.00012591,-0.00035507,0.0
 0001081,-0.00006569,-0.00000907,0.00002962,-0.00006614,-0.00004586,0.0
 0002914,0.00001553,-0.00002821,-0.00000068,-0.00007725,-0.00007859,-0.
 00006545,0.00003419,0.00015383,0.00104409,-0.00129901,-0.00000398,-0.0
 0066766,-0.00151384,0.00000552,0.00002948,0.00005180,0.00001019,-0.000
 00319,-0.00000041,-0.00000625,-0.00001031,-0.00001425,0.00008993,-0.00
 008676,-0.00005345,-0.19472299,0.05115306,-0.11133242,-0.00006065,0.00
 005617,-0.00002000,0.00019030,-0.00042929,0.00082254,-0.00002103,-0.00
 013443,0.00013071,0.00001451,0.00011123,0.00017219,0.00001032,0.000014
 14,0.00002642,0.00018314,-0.00003497,-0.00004482,0.00019312,-0.0000381
 3,0.00021375,0.00002221,0.00005810,0.00018225,-0.00000647,-0.00000546,
 0.00002579,-0.00009325,0.00002534,0.00003216,0.00002323,0.00000501,-0.
 00001823,0.00001182,-0.00000492,0.00000524,-0.00821323,0.00112630,-0.0
 0654997,-0.01499321,0.00816708,-0.01218898,0.20268695,0.00010406,-0.00
 003271,-0.00015631,-0.00211433,0.00123549,-0.00189376,0.00161121,-0.00
 110785,0.00513742,0.00241423,0.00058545,0.00107226,-0.00028601,0.00005
 104,-0.00010924,0.00003305,-0.00020529,0.00014092,-0.00005493,0.000115
 56,-0.00000860,-0.00002982,-0.00002374,0.00001172,0.00001793,-0.000018
 55,0.00003514,0.00015330,0.00013134,0.00007117,-0.00011656,-0.00007088
 ,-0.00003368,0.00004844,-0.00001969,-0.00001015,-0.00007463,0.00010037
 ,-0.00013842,0.00024821,-0.00015215,0.00022068,0.00002655,0.00003219,0
 .00006880,0.00006053,-0.00004671,-0.00008367,-0.00006461,0.00002398,0.
 00004946,-0.00002116,-0.00007372,-0.00014988,0.00001002,-0.00001356,0.
 00002285,0.00003291,-0.00006533,-0.00000878,-0.00056827,-0.00009115,-0
 .00018733,-0.00004488,0.00044072,0.00064852,-0.00001248,-0.00000459,-0
 .00000308,0.00000677,-0.00000247,-0.00000063,0.00000010,-0.00000310,-0
 .00000291,0.00004595,-0.00005662,-0.00001443,0.05022274,-0.06808462,0.
 03874004,-0.00005664,0.00004058,-0.00001996,-0.00052059,0.00028502,-0.
 00025271,0.00004653,0.00009444,-0.00013372,-0.00001293,0.00001707,0.00
 003984,-0.00002144,-0.00001642,0.00000164,0.00001051,-0.00002057,-0.00
 000179,-0.00005481,-0.00015639,0.00007996,-0.00003603,-0.00003504,-0.0
 0010755,0.00000208,0.00000400,-0.00001084,0.00000482,0.00001471,-0.000
 00177,-0.00000017,-0.00000754,0.00000326,-0.00000317,-0.00000105,0.000
 00265,0.02081974,-0.00603281,0.01677006,-0.01621720,0.00691776,-0.0134
 9052,-0.05560903,0.06625284,0.00044812,-0.00002709,0.00055334,-0.00333
 974,0.00382596,0.00118313,-0.01857075,0.01093875,-0.03757601,-0.003354
 72,-0.00255178,0.00052115,0.00025357,-0.00019863,0.00055518,0.00038024
 ,-0.00025447,0.00011048,-0.00018978,0.00004734,-0.00014218,-0.00005175
 ,-0.00006200,0.00004590,0.00000122,-0.00007353,-0.00001223,0.00012132,
 -0.00003015,0.00007735,-0.00011981,0.00019818,-0.00012103,-0.00003199,
 -0.00003638,0.00004299,-0.00004755,-0.00008367,0.00020789,-0.00202231,
 0.00096718,-0.00033905,-0.00007623,-0.00007423,-0.00011797,0.00028725,
 0.00017801,0.00006520,0.00011106,-0.00005885,-0.00007407,-0.00006445,-
 0.00001216,0.00023744,0.00015381,0.00000025,-0.00006430,-0.00006784,-0
 .00008393,0.00027505,0.00152026,0.00051780,0.00068689,0.00147176,-0.00
 130443,0.00038849,0.00010621,0.00005846,0.00007893,0.00000650,-0.00000
 777,0.00001079,-0.00000463,-0.00001178,-0.00000896,0.00004254,-0.00007
 412,-0.00001869,-0.10954831,0.03860741,-0.13238043,-0.00001060,0.00002
 690,-0.00002248,0.00323724,-0.00158727,0.00034523,-0.00008896,-0.00000
 968,-0.00018740,0.00001863,-0.00000382,-0.00004037,0.00004803,0.000048
 79,-0.00001084,-0.00000089,-0.00001402,-0.00005207,0.00015691,0.000158
 34,-0.00020338,0.00008024,0.00005872,0.00018417,0.00000543,-0.00000686
 ,0.00002332,0.00001002,0.00000371,0.00003522,-0.00002050,-0.00000094,-
 0.00000886,0.00000167,0.00000331,-0.00000974,0.00730760,-0.00235960,0.
 00668289,0.00049220,-0.00041529,0.00125952,0.12134898,-0.04629667,0.15
 781949\\-0.00000451,-0.00000174,0.00000538,0.00000840,-0.00000875,-0.0
 0001070,-0.00001370,0.00000996,0.00000121,0.00001376,0.00000388,-0.000
 00949,-0.00000655,-0.00000132,0.00000754,0.00000107,0.00000137,-0.0000
 0149,-0.00000049,-0.00000231,-0.00000211,0.00000043,-0.00000063,-0.000
 00037,-0.00000187,0.00000007,0.00000024,0.00000076,0.00000443,0.000000
 44,-0.00000105,-0.00000120,-0.00000108,-0.00000470,0.00000741,0.000005
 65,0.00000428,0.00000151,-0.00000012,0.00000257,-0.00001285,-0.0000063
 1,-0.00000303,-0.00000044,0.00000250,0.00000037,0.00000101,0.00000018,
 0.00000025,0.00000111,0.00000161,0.00000100,0.00000070,0.00000082,-0.0
 0000029,-0.00000124,-0.00000007,0.00000025,-0.00000050,0.00000030,0.00
 000022,-0.00000042,0.00000254,-0.00000009,0.00000021,0.00000376,-0.000
 00176,0.00000109,0.00000099,-0.00000019,0.00000057,-0.00000200,0.00000
 006,-0.00000005,-0.00000086,-0.00000032,0.00000017,-0.00000006,-0.0000
 0211,-0.00000721,0.00000660,0.00000366,-0.00000542,-0.00000356,0.00000
 034,0.00000324,0.00000267,-0.00000413,0.00000051,0.00000486,0.00000564
 ,-0.00000332,-0.00000248,-0.00000400,-0.00000463,-0.00000540,-0.000001
 41,-0.00000114,-0.00000105,-0.00000208,0.00000884,0.00000805,0.0000049
 8,0.00000327,-0.00000335,0.00000101,0.00000203,0.00000097,0.00000182,-
 0.00000210,-0.00000366,-0.00000119,-0.00000066,-0.00000007,-0.00000112
 ,0.00000199,0.00000322,0.00000210,0.00000030,0.00000036,0.00000084,0.0
 0000126,-0.00000450,0.00000077,0.00000099,-0.00000117\\\@


 BRING ME INTO THE COMPANY OF THOSE WHO SEEK TRUTH,
 AND DELIVER ME FROM THOSE WHO HAVE FOUND IT.
 Job cpu time:       1 days 19 hours 26 minutes 22.5 seconds.
 Elapsed time:       0 days  1 hours 33 minutes 15.7 seconds.
 File lengths (MBytes):  RWF=   1444 Int=      0 D2E=      0 Chk=     36 Scr=      8
 Normal termination of Gaussian 16 at Thu Jul 15 17:09:43 2021.
