 Entering Gaussian System, Link 0=g16
 Input=NicPyr5hdEDon.gjf
 Output=NicPyr5hdEDon.log
 Initial command:
 /sw/contrib/gaussian/g16/A03/g16/l1.exe "/gscratch/scrubbed/gds001/Gau-21294.inp" -scrdir="/gscratch/scrubbed/gds001/"
 Entering Link 1 = /sw/contrib/gaussian/g16/A03/g16/l1.exe PID=     21295.
  
 Copyright (c) 1988,1990,1992,1993,1995,1998,2003,2009,2016,
            Gaussian, Inc.  All Rights Reserved.
  
 This is part of the Gaussian(R) 16 program.  It is based on
 the Gaussian(R) 09 system (copyright 2009, Gaussian, Inc.),
 the Gaussian(R) 03 system (copyright 2003, Gaussian, Inc.),
 the Gaussian(R) 98 system (copyright 1998, Gaussian, Inc.),
 the Gaussian(R) 94 system (copyright 1995, Gaussian, Inc.),
 the Gaussian 92(TM) system (copyright 1992, Gaussian, Inc.),
 the Gaussian 90(TM) system (copyright 1990, Gaussian, Inc.),
 the Gaussian 88(TM) system (copyright 1988, Gaussian, Inc.),
 the Gaussian 86(TM) system (copyright 1986, Carnegie Mellon
 University), and the Gaussian 82(TM) system (copyright 1983,
 Carnegie Mellon University). Gaussian is a federally registered
 trademark of Gaussian, Inc.
  
 This software contains proprietary and confidential information,
 including trade secrets, belonging to Gaussian, Inc.
  
 This software is provided under written license and may be
 used, copied, transmitted, or stored only in accord with that
 written license.
  
 The following legend is applicable only to US Government
 contracts under FAR:
  
                    RESTRICTED RIGHTS LEGEND
  
 Use, reproduction and disclosure by the US Government is
 subject to restrictions as set forth in subparagraphs (a)
 and (c) of the Commercial Computer Software - Restricted
 Rights clause in FAR 52.227-19.
  
 Gaussian, Inc.
 340 Quinnipiac St., Bldg. 40, Wallingford CT 06492
  
  
 ---------------------------------------------------------------
 Warning -- This program may not be used in any manner that
 competes with the business of Gaussian, Inc. or will provide
 assistance to any competitor of Gaussian, Inc.  The licensee
 of this program is prohibited from giving any competitor of
 Gaussian, Inc. access to this program.  By using this program,
 the user acknowledges that Gaussian, Inc. is engaged in the
 business of creating and licensing software in the field of
 computational chemistry and represents and warrants to the
 licensee that it is not a competitor of Gaussian, Inc. and that
 it will not use this program in any manner prohibited above.
 ---------------------------------------------------------------
  

 Cite this work as:
 Gaussian 16, Revision A.03,
 M. J. Frisch, G. W. Trucks, H. B. Schlegel, G. E. Scuseria, 
 M. A. Robb, J. R. Cheeseman, G. Scalmani, V. Barone, 
 G. A. Petersson, H. Nakatsuji, X. Li, M. Caricato, A. V. Marenich, 
 J. Bloino, B. G. Janesko, R. Gomperts, B. Mennucci, H. P. Hratchian, 
 J. V. Ortiz, A. F. Izmaylov, J. L. Sonnenberg, D. Williams-Young, 
 F. Ding, F. Lipparini, F. Egidi, J. Goings, B. Peng, A. Petrone, 
 T. Henderson, D. Ranasinghe, V. G. Zakrzewski, J. Gao, N. Rega, 
 G. Zheng, W. Liang, M. Hada, M. Ehara, K. Toyota, R. Fukuda, 
 J. Hasegawa, M. Ishida, T. Nakajima, Y. Honda, O. Kitao, H. Nakai, 
 T. Vreven, K. Throssell, J. A. Montgomery, Jr., J. E. Peralta, 
 F. Ogliaro, M. J. Bearpark, J. J. Heyd, E. N. Brothers, K. N. Kudin, 
 V. N. Staroverov, T. A. Keith, R. Kobayashi, J. Normand, 
 K. Raghavachari, A. P. Rendell, J. C. Burant, S. S. Iyengar, 
 J. Tomasi, M. Cossi, J. M. Millam, M. Klene, C. Adamo, R. Cammi, 
 J. W. Ochterski, R. L. Martin, K. Morokuma, O. Farkas, 
 J. B. Foresman, and D. J. Fox, Gaussian, Inc., Wallingford CT, 2016.
 
 ******************************************
 Gaussian 16:  ES64L-G16RevA.03 25-Dec-2016
                 9-Dec-2022 
 ******************************************
 %nprocshared=28
 Will use up to   28 processors via shared memory.
 %mem=41GB
 -----------------------------
 # wB97XD/aug-cc-pVDZ opt freq
 -----------------------------
 1/18=20,19=15,26=3,38=1/1,3;
 2/9=110,12=2,17=6,18=5,40=1/2;
 3/5=16,7=10,11=2,25=1,30=1,71=1,74=-58/1,2,3;
 4//1;
 5/5=2,38=5/2;
 6/7=2,8=2,9=2,10=2,28=1/1;
 7//1,2,3,16;
 1/18=20,19=15,26=3/3(2);
 2/9=110/2;
 99//99;
 2/9=110/2;
 3/5=16,7=10,11=2,25=1,30=1,71=1,74=-58/1,2,3;
 4/5=5,16=3,69=1/1;
 5/5=2,38=5/2;
 7//1,2,3,16;
 1/18=20,19=15,26=3/3(-5);
 2/9=110/2;
 6/7=2,8=2,9=2,10=2,19=2,28=1/1;
 99/9=1/99;
 ----
 blah
 ----
 Symbolic Z-matrix:
 Charge =  1 Multiplicity = 1
 N                     1.90665  -0.0623    0.72186 
 C                     1.61801   0.92397  -0.37962 
 C                     2.01497   0.13468  -1.63218 
 C                     3.17511  -0.78427  -1.1794 
 C                     3.22406  -0.65891   0.35156 
 C                     0.21147   1.46069  -0.31673 
 C                    -0.88379   0.63186  -0.5598 
 N                    -2.15091   1.04166  -0.48313 
 C                    -2.38582   2.32208  -0.17835 
 C                    -1.36485   3.2366    0.06343 
 C                    -0.04705   2.79426   0.00112 
 O                     0.35422  -2.20808   0.7557 
 O                    -1.10181  -2.62216  -1.53437 
 O                    -3.34358  -1.40457  -0.40987 
 H                     4.00594   0.03324   0.68692 
 H                     4.13205  -0.48118  -1.61481 
 H                     2.98952  -1.82014  -1.47909 
 H                     1.16543  -0.45915  -1.98801 
 H                     2.29823   0.81759  -2.43838 
 H                     3.33541  -1.61006   0.88011 
 H                     2.32483   1.7509   -0.21971 
 H                    -0.74115  -0.41474  -0.82743 
 H                    -3.43138   2.62584  -0.12628 
 H                    -1.60157   4.2717    0.3011 
 H                     0.77373   3.4863    0.19498 
 C                     1.84557   0.48836   2.08969 
 H                     1.20163  -0.86237   0.67214 
 H                    -0.42712  -2.10762   1.34042 
 H                    -0.03403  -2.53469  -0.07908 
 H                    -3.14587  -0.44087  -0.52542 
 H                    -4.2725   -1.53037  -0.61794 
 H                    -2.00171  -2.3519   -1.27105 
 H                    -1.19965  -3.39708  -2.09244 
 O                    -1.9808   -1.66263   2.02322 
 H                    -2.62493  -1.6465    1.29183 
 H                    -2.39526  -2.15133   2.73816 
 H                     2.55943   1.31453   2.18271 
 H                     2.09947  -0.30585   2.79802 
 H                     0.82896   0.84188   2.28632 
 O                    -1.28715   1.02003   2.18129 
 H                    -1.71017   1.42087   2.95671 
 H                    -1.51873   0.07913   2.13687 
 
 Add virtual bond connecting atoms H27        and O12        Dist= 3.01D+00.
 Add virtual bond connecting atoms O34        and H28        Dist= 3.32D+00.
 Add virtual bond connecting atoms O14        and H35        Dist= 3.52D+00.
 Add virtual bond connecting atoms H30        and N8         Dist= 3.37D+00.
 Add virtual bond connecting atoms H42        and O34        Dist= 3.41D+00.
 Add virtual bond connecting atoms O14        and H32        Dist= 3.50D+00.
 Add virtual bond connecting atoms H29        and O13        Dist= 3.41D+00.

 GradGradGradGradGradGradGradGradGradGradGradGradGradGradGradGradGradGrad
 Berny optimization.
 Initialization pass.
                           ----------------------------
                           !    Initial Parameters    !
                           ! (Angstroms and Degrees)  !
 --------------------------                            --------------------------
 ! Name  Definition              Value          Derivative Info.                !
 --------------------------------------------------------------------------------
 ! R1    R(1,2)                  1.5064         estimate D2E/DX2                !
 ! R2    R(1,5)                  1.4929         estimate D2E/DX2                !
 ! R3    R(1,26)                 1.4758         estimate D2E/DX2                !
 ! R4    R(1,27)                 1.0675         estimate D2E/DX2                !
 ! R5    R(2,3)                  1.5328         estimate D2E/DX2                !
 ! R6    R(2,6)                  1.5068         estimate D2E/DX2                !
 ! R7    R(2,21)                 1.0995         estimate D2E/DX2                !
 ! R8    R(3,4)                  1.5477         estimate D2E/DX2                !
 ! R9    R(3,18)                 1.0959         estimate D2E/DX2                !
 ! R10   R(3,19)                 1.0939         estimate D2E/DX2                !
 ! R11   R(4,5)                  1.5369         estimate D2E/DX2                !
 ! R12   R(4,16)                 1.0942         estimate D2E/DX2                !
 ! R13   R(4,17)                 1.0942         estimate D2E/DX2                !
 ! R14   R(5,15)                 1.0968         estimate D2E/DX2                !
 ! R15   R(5,20)                 1.0938         estimate D2E/DX2                !
 ! R16   R(6,7)                  1.3949         estimate D2E/DX2                !
 ! R17   R(6,11)                 1.3951         estimate D2E/DX2                !
 ! R18   R(7,8)                  1.3339         estimate D2E/DX2                !
 ! R19   R(7,22)                 1.0897         estimate D2E/DX2                !
 ! R20   R(8,9)                  1.337          estimate D2E/DX2                !
 ! R21   R(8,30)                 1.786          estimate D2E/DX2                !
 ! R22   R(9,10)                 1.3918         estimate D2E/DX2                !
 ! R23   R(9,23)                 1.09           estimate D2E/DX2                !
 ! R24   R(10,11)                1.3915         estimate D2E/DX2                !
 ! R25   R(10,24)                1.0881         estimate D2E/DX2                !
 ! R26   R(11,25)                1.091          estimate D2E/DX2                !
 ! R27   R(12,27)                1.5925         estimate D2E/DX2                !
 ! R28   R(12,28)                0.9811         estimate D2E/DX2                !
 ! R29   R(12,29)                0.9769         estimate D2E/DX2                !
 ! R30   R(13,29)                1.8071         estimate D2E/DX2                !
 ! R31   R(13,32)                0.9758         estimate D2E/DX2                !
 ! R32   R(13,33)                0.96           estimate D2E/DX2                !
 ! R33   R(14,30)                0.9905         estimate D2E/DX2                !
 ! R34   R(14,31)                0.9602         estimate D2E/DX2                !
 ! R35   R(14,32)                1.8546         estimate D2E/DX2                !
 ! R36   R(14,35)                1.863          estimate D2E/DX2                !
 ! R37   R(26,37)                1.0958         estimate D2E/DX2                !
 ! R38   R(26,38)                1.0941         estimate D2E/DX2                !
 ! R39   R(26,39)                1.0941         estimate D2E/DX2                !
 ! R40   R(28,34)                1.7545         estimate D2E/DX2                !
 ! R41   R(34,35)                0.9747         estimate D2E/DX2                !
 ! R42   R(34,36)                0.9601         estimate D2E/DX2                !
 ! R43   R(34,42)                1.8056         estimate D2E/DX2                !
 ! R44   R(40,41)                0.97           estimate D2E/DX2                !
 ! R45   R(40,42)                0.97           estimate D2E/DX2                !
 ! A1    A(2,1,5)              104.4402         estimate D2E/DX2                !
 ! A2    A(2,1,26)             115.1817         estimate D2E/DX2                !
 ! A3    A(2,1,27)             109.2732         estimate D2E/DX2                !
 ! A4    A(5,1,26)             114.5542         estimate D2E/DX2                !
 ! A5    A(5,1,27)             105.7673         estimate D2E/DX2                !
 ! A6    A(26,1,27)            107.1861         estimate D2E/DX2                !
 ! A7    A(1,2,3)              102.167          estimate D2E/DX2                !
 ! A8    A(1,2,6)              112.4301         estimate D2E/DX2                !
 ! A9    A(1,2,21)             105.2407         estimate D2E/DX2                !
 ! A10   A(3,2,6)              117.3407         estimate D2E/DX2                !
 ! A11   A(3,2,21)             109.8541         estimate D2E/DX2                !
 ! A12   A(6,2,21)             109.0327         estimate D2E/DX2                !
 ! A13   A(2,3,4)              105.1175         estimate D2E/DX2                !
 ! A14   A(2,3,18)             110.096          estimate D2E/DX2                !
 ! A15   A(2,3,19)             110.3562         estimate D2E/DX2                !
 ! A16   A(4,3,18)             110.7527         estimate D2E/DX2                !
 ! A17   A(4,3,19)             113.0912         estimate D2E/DX2                !
 ! A18   A(18,3,19)            107.4414         estimate D2E/DX2                !
 ! A19   A(3,4,5)              105.4782         estimate D2E/DX2                !
 ! A20   A(3,4,16)             112.0048         estimate D2E/DX2                !
 ! A21   A(3,4,17)             110.7828         estimate D2E/DX2                !
 ! A22   A(5,4,16)             110.241          estimate D2E/DX2                !
 ! A23   A(5,4,17)             110.822          estimate D2E/DX2                !
 ! A24   A(16,4,17)            107.5526         estimate D2E/DX2                !
 ! A25   A(1,5,4)              104.5718         estimate D2E/DX2                !
 ! A26   A(1,5,15)             107.5214         estimate D2E/DX2                !
 ! A27   A(1,5,20)             108.5116         estimate D2E/DX2                !
 ! A28   A(4,5,15)             112.2584         estimate D2E/DX2                !
 ! A29   A(4,5,20)             114.4354         estimate D2E/DX2                !
 ! A30   A(15,5,20)            109.1736         estimate D2E/DX2                !
 ! A31   A(2,6,7)              120.9336         estimate D2E/DX2                !
 ! A32   A(2,6,11)             121.5326         estimate D2E/DX2                !
 ! A33   A(7,6,11)             117.5292         estimate D2E/DX2                !
 ! A34   A(6,7,8)              123.5948         estimate D2E/DX2                !
 ! A35   A(6,7,22)             120.713          estimate D2E/DX2                !
 ! A36   A(8,7,22)             115.692          estimate D2E/DX2                !
 ! A37   A(7,8,9)              118.3078         estimate D2E/DX2                !
 ! A38   A(7,8,30)             105.832          estimate D2E/DX2                !
 ! A39   A(9,8,30)             134.6278         estimate D2E/DX2                !
 ! A40   A(8,9,10)             122.6823         estimate D2E/DX2                !
 ! A41   A(8,9,23)             116.5061         estimate D2E/DX2                !
 ! A42   A(10,9,23)            120.8116         estimate D2E/DX2                !
 ! A43   A(9,10,11)            118.5588         estimate D2E/DX2                !
 ! A44   A(9,10,24)            120.2266         estimate D2E/DX2                !
 ! A45   A(11,10,24)           121.2137         estimate D2E/DX2                !
 ! A46   A(6,11,10)            119.3128         estimate D2E/DX2                !
 ! A47   A(6,11,25)            120.4938         estimate D2E/DX2                !
 ! A48   A(10,11,25)           120.1929         estimate D2E/DX2                !
 ! A49   A(27,12,28)           111.6256         estimate D2E/DX2                !
 ! A50   A(27,12,29)           116.6911         estimate D2E/DX2                !
 ! A51   A(28,12,29)           103.1221         estimate D2E/DX2                !
 ! A52   A(29,13,32)           108.3126         estimate D2E/DX2                !
 ! A53   A(29,13,33)           124.5736         estimate D2E/DX2                !
 ! A54   A(32,13,33)           106.6459         estimate D2E/DX2                !
 ! A55   A(30,14,31)           107.1742         estimate D2E/DX2                !
 ! A56   A(30,14,32)           107.3597         estimate D2E/DX2                !
 ! A57   A(30,14,35)            98.9692         estimate D2E/DX2                !
 ! A58   A(31,14,32)           122.1678         estimate D2E/DX2                !
 ! A59   A(31,14,35)           123.6485         estimate D2E/DX2                !
 ! A60   A(32,14,35)            94.5142         estimate D2E/DX2                !
 ! A61   A(1,26,37)            109.4529         estimate D2E/DX2                !
 ! A62   A(1,26,38)            108.6387         estimate D2E/DX2                !
 ! A63   A(1,26,39)            109.0008         estimate D2E/DX2                !
 ! A64   A(37,26,38)           109.9478         estimate D2E/DX2                !
 ! A65   A(37,26,39)           110.2692         estimate D2E/DX2                !
 ! A66   A(38,26,39)           109.5015         estimate D2E/DX2                !
 ! A67   A(12,28,34)           164.4089         estimate D2E/DX2                !
 ! A68   A(12,29,13)           159.9172         estimate D2E/DX2                !
 ! A69   A(8,30,14)            156.3557         estimate D2E/DX2                !
 ! A70   A(13,32,14)           159.0686         estimate D2E/DX2                !
 ! A71   A(28,34,35)           107.3001         estimate D2E/DX2                !
 ! A72   A(28,34,36)           122.8879         estimate D2E/DX2                !
 ! A73   A(28,34,42)            92.4383         estimate D2E/DX2                !
 ! A74   A(35,34,36)           106.3733         estimate D2E/DX2                !
 ! A75   A(35,34,42)           101.5595         estimate D2E/DX2                !
 ! A76   A(36,34,42)           123.6859         estimate D2E/DX2                !
 ! A77   A(14,35,34)           160.4668         estimate D2E/DX2                !
 ! A78   A(41,40,42)           109.471          estimate D2E/DX2                !
 ! A79   L(1,27,12,7,-1)       190.7353         estimate D2E/DX2                !
 ! A80   L(34,42,40,1,-1)      180.5529         estimate D2E/DX2                !
 ! A81   L(1,27,12,7,-2)       181.1516         estimate D2E/DX2                !
 ! A82   L(34,42,40,1,-2)      178.6685         estimate D2E/DX2                !
 ! D1    D(5,1,2,3)             43.2433         estimate D2E/DX2                !
 ! D2    D(5,1,2,6)            169.9191         estimate D2E/DX2                !
 ! D3    D(5,1,2,21)           -71.5179         estimate D2E/DX2                !
 ! D4    D(26,1,2,3)           169.7734         estimate D2E/DX2                !
 ! D5    D(26,1,2,6)           -63.5508         estimate D2E/DX2                !
 ! D6    D(26,1,2,21)           55.0122         estimate D2E/DX2                !
 ! D7    D(27,1,2,3)           -69.5431         estimate D2E/DX2                !
 ! D8    D(27,1,2,6)            57.1327         estimate D2E/DX2                !
 ! D9    D(27,1,2,21)          175.6957         estimate D2E/DX2                !
 ! D10   D(2,1,5,4)            -37.4754         estimate D2E/DX2                !
 ! D11   D(2,1,5,15)            82.0288         estimate D2E/DX2                !
 ! D12   D(2,1,5,20)          -160.0077         estimate D2E/DX2                !
 ! D13   D(26,1,5,4)          -164.3953         estimate D2E/DX2                !
 ! D14   D(26,1,5,15)          -44.8911         estimate D2E/DX2                !
 ! D15   D(26,1,5,20)           73.0724         estimate D2E/DX2                !
 ! D16   D(27,1,5,4)            77.794          estimate D2E/DX2                !
 ! D17   D(27,1,5,15)         -162.7019         estimate D2E/DX2                !
 ! D18   D(27,1,5,20)          -44.7384         estimate D2E/DX2                !
 ! D19   D(2,1,12,28)          -93.3648         estimate D2E/DX2                !
 ! D20   D(2,1,12,29)           28.2715         estimate D2E/DX2                !
 ! D21   D(5,1,12,28)          154.54           estimate D2E/DX2                !
 ! D22   D(5,1,12,29)          -83.8237         estimate D2E/DX2                !
 ! D23   D(26,1,12,28)          34.8656         estimate D2E/DX2                !
 ! D24   D(26,1,12,29)         156.5019         estimate D2E/DX2                !
 ! D25   D(2,1,26,37)          -58.298          estimate D2E/DX2                !
 ! D26   D(2,1,26,38)         -178.3625         estimate D2E/DX2                !
 ! D27   D(2,1,26,39)           62.3788         estimate D2E/DX2                !
 ! D28   D(5,1,26,37)           62.8841         estimate D2E/DX2                !
 ! D29   D(5,1,26,38)          -57.1804         estimate D2E/DX2                !
 ! D30   D(5,1,26,39)         -176.4391         estimate D2E/DX2                !
 ! D31   D(27,1,26,37)         179.8855         estimate D2E/DX2                !
 ! D32   D(27,1,26,38)          59.821          estimate D2E/DX2                !
 ! D33   D(27,1,26,39)         -59.4377         estimate D2E/DX2                !
 ! D34   D(1,2,3,4)            -31.8932         estimate D2E/DX2                !
 ! D35   D(1,2,3,18)            87.4258         estimate D2E/DX2                !
 ! D36   D(1,2,3,19)          -154.1388         estimate D2E/DX2                !
 ! D37   D(6,2,3,4)           -155.3209         estimate D2E/DX2                !
 ! D38   D(6,2,3,18)           -36.002          estimate D2E/DX2                !
 ! D39   D(6,2,3,19)            82.4335         estimate D2E/DX2                !
 ! D40   D(21,2,3,4)            79.4383         estimate D2E/DX2                !
 ! D41   D(21,2,3,18)         -161.2428         estimate D2E/DX2                !
 ! D42   D(21,2,3,19)          -42.8074         estimate D2E/DX2                !
 ! D43   D(1,2,6,7)            -67.1969         estimate D2E/DX2                !
 ! D44   D(1,2,6,11)           112.0056         estimate D2E/DX2                !
 ! D45   D(3,2,6,7)             50.8446         estimate D2E/DX2                !
 ! D46   D(3,2,6,11)          -129.9529         estimate D2E/DX2                !
 ! D47   D(21,2,6,7)           176.4928         estimate D2E/DX2                !
 ! D48   D(21,2,6,11)           -4.3047         estimate D2E/DX2                !
 ! D49   D(2,3,4,5)              9.5854         estimate D2E/DX2                !
 ! D50   D(2,3,4,16)          -110.3553         estimate D2E/DX2                !
 ! D51   D(2,3,4,17)           129.5595         estimate D2E/DX2                !
 ! D52   D(18,3,4,5)          -109.2942         estimate D2E/DX2                !
 ! D53   D(18,3,4,16)          130.7652         estimate D2E/DX2                !
 ! D54   D(18,3,4,17)           10.6799         estimate D2E/DX2                !
 ! D55   D(19,3,4,5)           130.0422         estimate D2E/DX2                !
 ! D56   D(19,3,4,16)           10.1015         estimate D2E/DX2                !
 ! D57   D(19,3,4,17)         -109.9837         estimate D2E/DX2                !
 ! D58   D(3,4,5,1)             16.7094         estimate D2E/DX2                !
 ! D59   D(3,4,5,15)           -99.5547         estimate D2E/DX2                !
 ! D60   D(3,4,5,20)           135.2928         estimate D2E/DX2                !
 ! D61   D(16,4,5,1)           137.8061         estimate D2E/DX2                !
 ! D62   D(16,4,5,15)           21.542          estimate D2E/DX2                !
 ! D63   D(16,4,5,20)         -103.6105         estimate D2E/DX2                !
 ! D64   D(17,4,5,1)          -103.2388         estimate D2E/DX2                !
 ! D65   D(17,4,5,15)          140.4971         estimate D2E/DX2                !
 ! D66   D(17,4,5,20)           15.3446         estimate D2E/DX2                !
 ! D67   D(2,6,7,8)            178.1298         estimate D2E/DX2                !
 ! D68   D(2,6,7,22)            -1.7163         estimate D2E/DX2                !
 ! D69   D(11,6,7,8)            -1.1036         estimate D2E/DX2                !
 ! D70   D(11,6,7,22)          179.0502         estimate D2E/DX2                !
 ! D71   D(2,6,11,10)         -179.1574         estimate D2E/DX2                !
 ! D72   D(2,6,11,25)            1.1083         estimate D2E/DX2                !
 ! D73   D(7,6,11,10)            0.0711         estimate D2E/DX2                !
 ! D74   D(7,6,11,25)         -179.6632         estimate D2E/DX2                !
 ! D75   D(6,7,8,9)              1.1474         estimate D2E/DX2                !
 ! D76   D(6,7,8,30)          -168.0016         estimate D2E/DX2                !
 ! D77   D(22,7,8,9)          -178.9994         estimate D2E/DX2                !
 ! D78   D(22,7,8,30)           11.8516         estimate D2E/DX2                !
 ! D79   D(7,8,9,10)            -0.1559         estimate D2E/DX2                !
 ! D80   D(7,8,9,23)           179.8347         estimate D2E/DX2                !
 ! D81   D(30,8,9,10)          165.101          estimate D2E/DX2                !
 ! D82   D(30,8,9,23)          -14.9084         estimate D2E/DX2                !
 ! D83   D(7,8,30,14)           23.9962         estimate D2E/DX2                !
 ! D84   D(9,8,30,14)         -142.5367         estimate D2E/DX2                !
 ! D85   D(8,9,10,11)           -0.8156         estimate D2E/DX2                !
 ! D86   D(8,9,10,24)          179.5401         estimate D2E/DX2                !
 ! D87   D(23,9,10,11)         179.1942         estimate D2E/DX2                !
 ! D88   D(23,9,10,24)          -0.4501         estimate D2E/DX2                !
 ! D89   D(9,10,11,6)            0.824          estimate D2E/DX2                !
 ! D90   D(9,10,11,25)        -179.441          estimate D2E/DX2                !
 ! D91   D(24,10,11,6)        -179.5354         estimate D2E/DX2                !
 ! D92   D(24,10,11,25)          0.1996         estimate D2E/DX2                !
 ! D93   D(27,12,28,34)         71.8919         estimate D2E/DX2                !
 ! D94   D(29,12,28,34)        -54.1632         estimate D2E/DX2                !
 ! D95   D(27,12,29,13)        -69.2286         estimate D2E/DX2                !
 ! D96   D(28,12,29,13)         53.5063         estimate D2E/DX2                !
 ! D97   D(32,13,29,12)        -39.4363         estimate D2E/DX2                !
 ! D98   D(33,13,29,12)       -165.9166         estimate D2E/DX2                !
 ! D99   D(29,13,32,14)         38.7196         estimate D2E/DX2                !
 ! D100  D(33,13,32,14)        175.0086         estimate D2E/DX2                !
 ! D101  D(31,14,30,8)         176.2164         estimate D2E/DX2                !
 ! D102  D(32,14,30,8)         -50.9043         estimate D2E/DX2                !
 ! D103  D(35,14,30,8)          46.7285         estimate D2E/DX2                !
 ! D104  D(30,14,32,13)         48.7613         estimate D2E/DX2                !
 ! D105  D(31,14,32,13)        172.9617         estimate D2E/DX2                !
 ! D106  D(35,14,32,13)        -52.1059         estimate D2E/DX2                !
 ! D107  D(30,14,35,34)        -57.9598         estimate D2E/DX2                !
 ! D108  D(31,14,35,34)       -175.6155         estimate D2E/DX2                !
 ! D109  D(32,14,35,34)         50.4291         estimate D2E/DX2                !
 ! D110  D(12,28,34,35)         36.7347         estimate D2E/DX2                !
 ! D111  D(12,28,34,36)        160.3082         estimate D2E/DX2                !
 ! D112  D(12,28,34,42)        -66.1702         estimate D2E/DX2                !
 ! D113  D(28,34,35,14)        -35.0901         estimate D2E/DX2                !
 ! D114  D(36,34,35,14)       -168.2689         estimate D2E/DX2                !
 ! D115  D(42,34,35,14)         61.1784         estimate D2E/DX2                !
 ! D116  D(28,34,40,41)       -146.7305         estimate D2E/DX2                !
 ! D117  D(35,34,40,41)        105.0696         estimate D2E/DX2                !
 ! D118  D(36,34,40,41)        -13.4403         estimate D2E/DX2                !
 --------------------------------------------------------------------------------
 Trust Radius=3.00D-01 FncErr=1.00D-07 GrdErr=1.00D-06 EigMax=2.50D+02 EigMin=1.00D-04
 Number of steps in this run=    252 maximum allowed number of steps=    252.
 GradGradGradGradGradGradGradGradGradGradGradGradGradGradGradGradGradGrad

                          Input orientation:                          
 ---------------------------------------------------------------------
 Center     Atomic      Atomic             Coordinates (Angstroms)
 Number     Number       Type             X           Y           Z
 ---------------------------------------------------------------------
      1          7           0        1.906654   -0.062295    0.721862
      2          6           0        1.618006    0.923965   -0.379619
      3          6           0        2.014972    0.134681   -1.632184
      4          6           0        3.175109   -0.784271   -1.179395
      5          6           0        3.224056   -0.658909    0.351555
      6          6           0        0.211465    1.460686   -0.316728
      7          6           0       -0.883790    0.631859   -0.559798
      8          7           0       -2.150910    1.041658   -0.483130
      9          6           0       -2.385817    2.322078   -0.178351
     10          6           0       -1.364852    3.236595    0.063432
     11          6           0       -0.047051    2.794259    0.001116
     12          8           0        0.354216   -2.208081    0.755704
     13          8           0       -1.101806   -2.622160   -1.534365
     14          8           0       -3.343578   -1.404566   -0.409870
     15          1           0        4.005945    0.033236    0.686919
     16          1           0        4.132050   -0.481184   -1.614814
     17          1           0        2.989517   -1.820144   -1.479094
     18          1           0        1.165433   -0.459151   -1.988010
     19          1           0        2.298225    0.817591   -2.438379
     20          1           0        3.335414   -1.610061    0.880105
     21          1           0        2.324825    1.750898   -0.219713
     22          1           0       -0.741149   -0.414743   -0.827428
     23          1           0       -3.431383    2.625835   -0.126280
     24          1           0       -1.601572    4.271700    0.301104
     25          1           0        0.773726    3.486299    0.194979
     26          6           0        1.845573    0.488360    2.089691
     27          1           0        1.201631   -0.862365    0.672143
     28          1           0       -0.427120   -2.107617    1.340418
     29          1           0       -0.034026   -2.534690   -0.079079
     30          1           0       -3.145868   -0.440871   -0.525419
     31          1           0       -4.272499   -1.530365   -0.617944
     32          1           0       -2.001708   -2.351897   -1.271052
     33          1           0       -1.199646   -3.397078   -2.092438
     34          8           0       -1.980795   -1.662626    2.023221
     35          1           0       -2.624928   -1.646503    1.291830
     36          1           0       -2.395264   -2.151335    2.738155
     37          1           0        2.559430    1.314526    2.182712
     38          1           0        2.099473   -0.305853    2.798015
     39          1           0        0.828961    0.841880    2.286318
     40          8           0       -1.287146    1.020029    2.181288
     41          1           0       -1.710171    1.420874    2.956707
     42          1           0       -1.518732    0.079128    2.136872
 ---------------------------------------------------------------------
                    Distance matrix (angstroms):
                    1          2          3          4          5
     1  N    0.000000
     2  C    1.506415   0.000000
     3  C    2.364755   1.532798   0.000000
     4  C    2.396874   2.445870   1.547711   0.000000
     5  C    1.492858   2.370549   2.454972   1.536854   0.000000
     6  C    2.504357   1.506779   2.596411   3.816702   3.743660
     7  C    3.148187   2.525227   3.130498   4.343269   4.401255
     8  N    4.374305   3.772174   4.415598   5.673207   5.699025
     9  C    4.992086   4.245683   5.124966   6.447898   6.374775
    10  C    4.692436   3.800262   4.890828   6.190576   6.026279
    11  C    3.535016   2.532859   3.740717   4.958003   4.769415
    12  O    2.648699   3.563122   3.734790   3.705304   3.286222
    13  O    4.549099   4.615823   4.162216   4.668602   5.111177
    14  O    5.536013   5.480902   5.707661   6.593195   6.653540
    15  H    2.101754   2.762816   3.058186   2.200394   1.096761
    16  H    3.253907   3.133778   2.204906   1.094161   2.173165
    17  H    3.017753   3.258838   2.189638   1.094211   2.180539
    18  H    2.837307   2.169044   1.095886   2.190516   3.122723
    19  H    3.303733   2.170831   1.093869   2.218091   3.289521
    20  H    2.112339   3.310239   3.331559   2.224672   1.093826
    21  H    2.085449   1.099537   2.168696   2.840960   2.634793
    22  H    3.087941   2.749233   2.923303   3.949368   4.143968
    23  H    6.036558   5.334498   6.175466   7.508902   7.437253
    24  H    5.591798   4.694294   5.825111   7.111357   6.899285
    25  H    3.762134   2.758356   4.014045   5.088547   4.817819
    26  C    1.475774   2.517743   3.742478   3.751557   2.497510
    27  H    1.067540   2.114367   2.639232   2.707195   2.057759
    28  H    3.164246   4.041232   4.452873   4.590943   4.050641
    29  H    3.243529   3.844714   3.706220   3.817487   3.784058
    30  H    5.217951   4.957674   5.309469   6.363989   6.433705
    31  H    6.490935   6.385811   6.582807   7.505914   7.609054
    32  H    4.948664   4.962686   4.737848   5.409740   5.727798
    33  H    5.356320   5.435469   4.797804   5.176764   5.748027
    34  O    4.400779   5.041375   5.706001   6.132830   5.558092
    35  H    4.834234   5.234839   5.766381   6.363240   6.005837
    36  H    5.189993   5.940061   6.616337   6.945871   6.284899
    37  H    2.110885   2.757600   4.030124   4.010957   2.772960
    38  H    2.099264   3.441166   4.452850   4.147971   2.715603
    39  H    2.103919   2.781465   4.154685   4.489983   3.425223
    40  O    3.674467   3.873937   5.121562   5.870385   5.149534
    41  H    4.502860   4.738645   6.048876   6.770226   5.954738
    42  H    3.708844   4.109209   5.166810   5.811646   5.121142
                    6          7          8          9         10
     6  C    0.000000
     7  C    1.394855   0.000000
     8  N    2.405013   1.333944   0.000000
     9  C    2.739894   2.293126   1.336992   0.000000
    10  C    2.404818   2.721119   2.394654   1.391823   0.000000
    11  C    1.395089   2.385525   2.780706   2.392695   1.391454
    12  O    3.824963   3.365778   4.286160   5.376112   5.751429
    13  O    4.458358   3.403814   3.953388   5.285163   6.078417
    14  O    4.566911   3.196883   2.722469   3.854709   5.067519
    15  H    4.176482   5.081551   6.347660   6.844130   6.284561
    16  H    4.563647   5.245052   6.563181   7.239081   6.845022
    17  H    4.453371   4.675461   5.967063   6.909714   6.849126
    18  H    2.718274   2.725694   3.938937   4.860193   4.926388
    19  H    3.044592   3.699835   4.864978   5.414006   5.052600
    20  H    4.541030   4.990111   6.244179   7.022431   6.800701
    21  H    2.135398   3.415130   4.539231   4.745325   3.987629
    22  H    2.164607   1.089655   2.055984   3.258285   3.809843
    23  H    3.829384   3.264063   2.067987   1.090040   2.163231
    24  H    3.401561   3.808518   3.368971   2.155445   1.088102
    25  H    2.163583   3.385982   3.871640   3.387846   2.157121
    26  C    3.067015   3.806548   4.785125   5.139183   4.686721
    27  H    2.711985   2.845938   4.024859   4.871735   4.874304
    28  H    3.985814   3.365130   4.026750   5.075958   5.574104
    29  H    4.009959   3.313642   4.175490   5.397126   5.924453
    30  H    3.864085   2.503783   1.785951   2.886524   4.128259
    31  H    5.398430   4.020192   3.336857   4.312091   5.625175
    32  H    4.510505   3.264724   3.487018   4.815348   5.780802
    33  H    5.361180   4.322162   4.816342   6.146501   6.977155
    34  O    4.476209   3.624923   3.691055   4.570430   5.312488
    35  H    4.504132   3.413359   3.255977   4.238896   5.190510
    36  H    5.401300   4.572441   4.542201   5.340180   6.102924
    37  H    3.432419   4.454566   5.419269   5.571826   4.856510
    38  H    4.048068   4.588471   5.536014   5.990209   5.659367
    39  H    2.745919   3.328363   4.073007   4.312815   3.935568
    40  O    2.946201   2.797665   2.801014   2.910379   3.066678
    41  H    3.796004   3.697466   3.488629   3.331254   3.433239
    42  H    3.304911   2.825011   2.861909   3.338101   3.780533
                   11         12         13         14         15
    11  C    0.000000
    12  O    5.074823   0.000000
    13  O    5.727810   2.745155   0.000000
    14  O    5.354076   3.959530   2.787932   0.000000
    15  H    4.951803   4.285249   6.170442   7.568732   0.000000
    16  H    5.550193   4.782631   5.655396   7.628207   2.361886
    17  H    5.718783   3.477014   4.169557   6.436151   3.026509
    18  H    4.001427   3.353326   3.166192   4.869858   3.932709
    19  H    3.919014   4.809993   4.920299   6.393964   3.646780
    20  H    5.622431   3.043131   5.151983   6.805527   1.785317
    21  H    2.600608   4.528604   5.709093   6.490293   2.568756
    22  H    3.386141   2.631006   2.345746   2.815447   5.002883
    23  H    3.390914   6.202854   5.911944   4.041320   7.918125
    24  H    2.165493   6.783755   7.151505   5.979972   7.039721
    25  H    1.090952   5.737279   6.619783   6.421728   4.755301
    26  C    3.641612   3.357746   5.612144   6.062859   2.615744
    27  H    3.921783   1.592497   3.642990   4.703579   2.943891
    28  H    5.095740   0.981055   2.997388   3.473257   4.966123
    29  H    5.329568   0.976866   1.807114   3.512796   4.847924
    30  H    4.510651   4.124912   3.155025   0.990530   7.269317
    31  H    6.077830   4.873674   3.476368   0.960216   8.525265
    32  H    5.649957   3.111077   0.975807   1.854639   6.753844
    33  H    6.636573   3.455447   0.959956   3.376031   6.825691
    34  O    5.262328   2.712268   3.788106   2.800661   6.364174
    35  H    5.294503   3.078652   3.355471   1.863001   6.867017
    36  H    6.120816   3.390129   4.488779   3.371502   7.067913
    37  H    3.707117   4.394096   6.535963   6.997174   2.443667
    38  H    4.694774   3.291721   5.863700   6.412839   2.864672
    39  H    3.130707   3.445348   5.506819   5.452158   3.647631
    40  O    3.072276   3.891922   5.206340   4.101424   5.587819
    41  H    3.658917   4.719684   6.073381   4.688813   6.304876
    42  H    3.754894   3.262956   4.576982   3.466598   5.711963
                   16         17         18         19         20
    16  H    0.000000
    17  H    1.765394   0.000000
    18  H    2.990080   2.332076   0.000000
    19  H    2.393322   2.890633   1.765254   0.000000
    20  H    2.851949   2.393658   3.776175   4.240471   0.000000
    21  H    3.192892   3.844502   3.058657   2.407124   3.677898
    22  H    4.936847   4.039516   2.232482   3.653985   4.578517
    23  H    8.311126   7.926209   5.840710   6.437698   8.046438
    24  H    7.689933   7.833120   5.939471   5.885920   7.700921
    25  H    5.504054   5.989206   4.526086   4.047305   5.744957
    26  C    4.459972   4.401593   4.241228   4.562533   2.843606
    27  H    3.736687   2.956636   2.690782   3.701367   2.270535
    28  H    5.671394   4.439110   4.041299   5.501241   3.823102
    29  H    4.891989   3.407702   3.064406   4.716299   3.623272
    30  H    7.359110   6.360412   4.552672   5.906039   6.734205
    31  H    8.528246   7.318636   5.709263   7.211192   7.754408
    32  H    6.421894   5.023780   3.758630   5.467882   5.801954
    33  H    6.095699   4.517964   3.773052   5.488006   5.709309
    34  O    7.210962   6.082353   5.238041   6.660883   5.437973
    35  H    7.447369   6.263399   5.151116   6.650087   5.974657
    36  H    8.021444   6.847682   6.154566   7.592092   6.048636
    37  H    4.485411   4.839417   4.741738   4.655068   3.294259
    38  H    4.861602   4.623734   4.878726   5.359240   2.628096
    39  H    5.280126   5.092416   4.480600   4.947938   3.777798
    40  O    6.784668   6.305143   5.058277   5.851256   5.475264
    41  H    7.658210   7.229633   6.021114   6.748195   6.241536
    42  H    6.805911   6.083317   4.950670   6.003949   5.291083
                   21         22         23         24         25
    21  H    0.000000
    22  H    3.802567   0.000000
    23  H    5.823073   4.119961   0.000000
    24  H    4.694921   4.896597   2.497947   0.000000
    25  H    2.364211   4.307933   4.304248   2.504028   0.000000
    26  C    2.675263   4.002038   6.109467   5.421763   3.704919
    27  H    2.980959   2.494689   5.854045   5.861249   4.395642
    28  H    4.989524   2.768392   5.795030   6.569261   5.834891
    29  H    4.893896   2.356740   6.178615   6.994904   6.081108
    30  H    5.901338   2.423750   3.105723   5.027556   5.595074
    31  H    7.379022   3.709303   4.268865   6.453097   7.161854
    32  H    6.054513   2.353376   5.303988   6.819371   6.628485
    33  H    6.513881   3.271818   6.717284   8.043677   7.517137
    34  O    5.934750   3.349647   5.011532   6.190777   6.118928
    35  H    6.190893   3.091458   4.573213   6.087193   6.252966
    36  H    6.801150   4.297119   5.665676   6.915529   6.949328
    37  H    2.452979   4.790108   6.552924   5.440521   3.443315
    38  H    3.658919   4.607041   6.909172   6.394239   4.786838
    39  H    3.056814   3.706718   5.210917   4.648896   3.371899
    40  O    4.398331   3.377730   3.535709   3.769260   3.778241
    41  H    5.145848   4.316036   3.730859   3.897593   4.250043
    42  H    4.808454   3.104129   3.907148   4.577616   4.542590
                   26         27         28         29         30
    26  C    0.000000
    27  H    2.061204   0.000000
    28  H    3.530671   2.156403   0.000000
    29  H    4.168367   2.210849   1.533586   0.000000
    30  H    5.711108   4.529079   3.694723   3.777149   0.000000
    31  H    6.988372   5.663625   4.353773   4.389043   1.569986
    32  H    5.844932   4.031885   3.059212   2.307810   2.348849
    33  H    6.469945   4.453517   3.747533   2.481128   3.870722
    34  O    4.390017   3.548755   1.754464   2.995008   3.057065
    35  H    5.017928   3.954926   2.246185   3.062848   2.242169
    36  H    5.037181   4.343674   2.414368   3.695837   3.760320
    37  H    1.095808   2.977296   4.619524   5.163156   6.554832
    38  H    1.094058   2.373849   3.428500   4.218673   6.211042
    39  H    1.094138   2.376740   3.342454   4.212015   5.034936
    40  O    3.178835   3.466257   3.350952   4.394952   3.593792
    41  H    3.776853   4.348678   4.087647   5.260413   4.201490
    42  H    3.389431   3.229894   2.570566   3.734546   3.163189
                   31         32         33         34         35
    31  H    0.000000
    32  H    2.501591   0.000000
    33  H    3.886023   1.552540   0.000000
    34  O    3.499307   3.365675   4.534001   0.000000
    35  H    2.524919   2.730265   4.068072   0.974731   0.000000
    36  H    3.895256   4.033467   5.129913   0.960079   1.549018
    37  H    7.912796   6.795228   7.389640   5.431622   6.036467
    38  H    7.332819   6.128890   6.660059   4.369179   5.136721
    39  H    6.331444   5.555878   6.423201   3.773129   4.371545
    40  O    4.822089   4.878436   6.146807   2.775387   3.113068
    41  H    5.296552   5.673864   6.997654   3.233049   3.607963
    42  H    4.214583   4.213916   5.483875   1.805582   2.217108
                   36         37         38         39         40
    36  H    0.000000
    37  H    6.072043   0.000000
    38  H    4.859223   1.793261   0.000000
    39  H    4.422569   1.796845   1.786988   0.000000
    40  O    3.405228   3.857833   3.688835   2.126189   0.000000
    41  H    3.643870   4.340492   4.185709   2.689209   0.970000
    42  H    2.470793   4.261422   3.698206   2.473012   0.970000
                   41         42
    41  H    0.000000
    42  H    1.584001   0.000000
 Stoichiometry    C10H25N2O5(1+)
 Framework group  C1[X(C10H25N2O5)]
 Deg. of freedom   120
 Full point group                 C1      NOp   1
 Largest Abelian subgroup         C1      NOp   1
 Largest concise Abelian subgroup C1      NOp   1
                         Standard orientation:                         
 ---------------------------------------------------------------------
 Center     Atomic      Atomic             Coordinates (Angstroms)
 Number     Number       Type             X           Y           Z
 ---------------------------------------------------------------------
      1          7           0        1.955455    0.093890    0.716839
      2          6           0        1.681953    0.943598   -0.496619
      3          6           0        2.240773    0.076807   -1.630578
      4          6           0        3.428103   -0.692495   -1.003019
      5          6           0        3.341366   -0.419745    0.506949
      6          6           0        0.237372    1.361224   -0.592306
      7          6           0       -0.766136    0.422309   -0.831115
      8          7           0       -2.063407    0.727304   -0.890045
      9          6           0       -2.421844    2.005851   -0.733879
     10          6           0       -1.498736    3.023265   -0.510468
     11          6           0       -0.149746    2.691697   -0.430273
     12          8           0        0.577890   -2.164383    0.851466
     13          8           0       -0.648566   -2.915696   -1.486741
     14          8           0       -3.063277   -1.794386   -0.659456
     15          1           0        4.036635    0.365417    0.827895
     16          1           0        4.390918   -0.350812   -1.394717
     17          1           0        3.349224   -1.764078   -1.209867
     18          1           0        1.472287   -0.618573   -1.986724
     19          1           0        2.534972    0.702507   -2.478219
     20          1           0        3.482969   -1.303807    1.135311
     21          1           0        2.306496    1.839483   -0.368875
     22          1           0       -0.520688   -0.628739   -0.980778
     23          1           0       -3.488684    2.222355   -0.790149
     24          1           0       -1.834303    4.052019   -0.396332
     25          1           0        0.595775    3.466761   -0.246833
     26          6           0        1.739548    0.763665    2.014026
     27          1           0        1.321560   -0.764817    0.695849
     28          1           0       -0.254226   -2.076678    1.363676
     29          1           0        0.286138   -2.600267    0.027358
     30          1           0       -2.932658   -0.832470   -0.856443
     31          1           0       -3.959322   -2.018438   -0.921977
     32          1           0       -1.585390   -2.700021   -1.319274
     33          1           0       -0.639455   -3.745261   -1.969706
     34          8           0       -1.888675   -1.704261    1.881389
     35          1           0       -2.469930   -1.812414    1.106440
     36          1           0       -2.320933   -2.157193    2.609232
     37          1           0        2.376630    1.653092    2.076006
     38          1           0        1.995769    0.064424    2.815509
     39          1           0        0.685731    1.045626    2.098315
     40          8           0       -1.422059    1.030922    1.819599
     41          1           0       -1.937283    1.465258    2.517307
     42          1           0       -1.574996    0.073640    1.853073
 ---------------------------------------------------------------------
 Rotational constants (GHZ):           0.4636713           0.3638006           0.2893874
 Standard basis: Aug-CC-pVDZ (5D, 7F)
 There are   650 symmetry adapted cartesian basis functions of A   symmetry.
 There are   616 symmetry adapted basis functions of A   symmetry.
   616 basis functions,  1006 primitive gaussians,   650 cartesian basis functions
    69 alpha electrons       69 beta electrons
       nuclear repulsion energy      1465.0893837556 Hartrees.
 NAtoms=   42 NActive=   42 NUniq=   42 SFac= 1.00D+00 NAtFMM=   60 NAOKFM=F Big=F
 Integral buffers will be    131072 words long.
 Raffenetti 2 integral format.
 Two-electron integral symmetry is turned on.
 Nuclear repulsion after empirical dispersion term =     1465.0507815862 Hartrees.
 One-electron integrals computed using PRISM.
 NBasis=   616 RedAO= T EigKep=  1.51D-06  NBF=   616
 NBsUse=   616 1.00D-06 EigRej= -1.00D+00 NBFU=   616
 ExpMin= 2.97D-02 ExpMax= 1.17D+04 ExpMxC= 4.01D+02 IAcc=3 IRadAn=         5 AccDes= 0.00D+00
 Harris functional with IExCor= 4639 and IRadAn=       5 diagonalized for initial guess.
 HarFok:  IExCor= 4639 AccDes= 0.00D+00 IRadAn=         5 IDoV= 1 UseB2=F ITyADJ=14
 ICtDFT=  3500011 ScaDFX=  1.000000  1.000000  1.000000  1.000000
 FoFCou: FMM=F IPFlag=           0 FMFlag=      100000 FMFlg1=           0
         NFxFlg=           0 DoJE=T BraDBF=F KetDBF=T FulRan=T
         wScrn=  0.000000 ICntrl=       500 IOpCl=  0 I1Cent=   200000004 NGrid=           0
         NMat0=    1 NMatS0=      1 NMatT0=    0 NMatD0=    1 NMtDS0=    0 NMtDT0=    0
 Petite list used in FoFCou.
 Requested convergence on RMS density matrix=1.00D-08 within 128 cycles.
 Requested convergence on MAX density matrix=1.00D-06.
 Requested convergence on             energy=1.00D-06.
 No special actions if energy rises.
 SCF Done:  E(RwB97XD) =  -881.474759018     A.U. after   14 cycles
            NFock= 14  Conv=0.83D-08     -V/T= 2.0061

 **********************************************************************

            Population analysis using the SCF density.

 **********************************************************************

 Orbital symmetries:
       Occupied  (A) (A) (A) (A) (A) (A) (A) (A) (A) (A) (A) (A)
                 (A) (A) (A) (A) (A) (A) (A) (A) (A) (A) (A) (A)
                 (A) (A) (A) (A) (A) (A) (A) (A) (A) (A) (A) (A)
                 (A) (A) (A) (A) (A) (A) (A) (A) (A) (A) (A) (A)
                 (A) (A) (A) (A) (A) (A) (A) (A) (A) (A) (A) (A)
                 (A) (A) (A) (A) (A) (A) (A) (A) (A)
       Virtual   (A) (A) (A) (A) (A) (A) (A) (A) (A) (A) (A) (A)
                 (A) (A) (A) (A) (A) (A) (A) (A) (A) (A) (A) (A)
                 (A) (A) (A) (A) (A) (A) (A) (A) (A) (A) (A) (A)
                 (A) (A) (A) (A) (A) (A) (A) (A) (A) (A) (A) (A)
                 (A) (A) (A) (A) (A) (A) (A) (A) (A) (A) (A) (A)
                 (A) (A) (A) (A) (A) (A) (A) (A) (A) (A) (A) (A)
                 (A) (A) (A) (A) (A) (A) (A) (A) (A) (A) (A) (A)
                 (A) (A) (A) (A) (A) (A) (A) (A) (A) (A) (A) (A)
                 (A) (A) (A) (A) (A) (A) (A) (A) (A) (A) (A) (A)
                 (A) (A) (A) (A) (A) (A) (A) (A) (A) (A) (A) (A)
                 (A) (A) (A) (A) (A) (A) (A) (A) (A) (A) (A) (A)
                 (A) (A) (A) (A) (A) (A) (A) (A) (A) (A) (A) (A)
                 (A) (A) (A) (A) (A) (A) (A) (A) (A) (A) (A) (A)
                 (A) (A) (A) (A) (A) (A) (A) (A) (A) (A) (A) (A)
                 (A) (A) (A) (A) (A) (A) (A) (A) (A) (A) (A) (A)
                 (A) (A) (A) (A) (A) (A) (A) (A) (A) (A) (A) (A)
                 (A) (A) (A) (A) (A) (A) (A) (A) (A) (A) (A) (A)
                 (A) (A) (A) (A) (A) (A) (A) (A) (A) (A) (A) (A)
                 (A) (A) (A) (A) (A) (A) (A) (A) (A) (A) (A) (A)
                 (A) (A) (A) (A) (A) (A) (A) (A) (A) (A) (A) (A)
                 (A) (A) (A) (A) (A) (A) (A) (A) (A) (A) (A) (A)
                 (A) (A) (A) (A) (A) (A) (A) (A) (A) (A) (A) (A)
                 (A) (A) (A) (A) (A) (A) (A) (A) (A) (A) (A) (A)
                 (A) (A) (A) (A) (A) (A) (A) (A) (A) (A) (A) (A)
                 (A) (A) (A) (A) (A) (A) (A) (A) (A) (A) (A) (A)
                 (A) (A) (A) (A) (A) (A) (A) (A) (A) (A) (A) (A)
                 (A) (A) (A) (A) (A) (A) (A) (A) (A) (A) (A) (A)
                 (A) (A) (A) (A) (A) (A) (A) (A) (A) (A) (A) (A)
                 (A) (A) (A) (A) (A) (A) (A) (A) (A) (A) (A) (A)
                 (A) (A) (A) (A) (A) (A) (A) (A) (A) (A) (A) (A)
                 (A) (A) (A) (A) (A) (A) (A) (A) (A) (A) (A) (A)
                 (A) (A) (A) (A) (A) (A) (A) (A) (A) (A) (A) (A)
                 (A) (A) (A) (A) (A) (A) (A) (A) (A) (A) (A) (A)
                 (A) (A) (A) (A) (A) (A) (A) (A) (A) (A) (A) (A)
                 (A) (A) (A) (A) (A) (A) (A) (A) (A) (A) (A) (A)
                 (A) (A) (A) (A) (A) (A) (A) (A) (A) (A) (A) (A)
                 (A) (A) (A) (A) (A) (A) (A) (A) (A) (A) (A) (A)
                 (A) (A) (A) (A) (A) (A) (A) (A) (A) (A) (A) (A)
                 (A) (A) (A) (A) (A) (A) (A) (A) (A) (A) (A) (A)
                 (A) (A) (A) (A) (A) (A) (A) (A) (A) (A) (A) (A)
                 (A) (A) (A) (A) (A) (A) (A) (A) (A) (A) (A) (A)
                 (A) (A) (A) (A) (A) (A) (A) (A) (A) (A) (A) (A)
                 (A) (A) (A) (A) (A) (A) (A) (A) (A) (A) (A) (A)
                 (A) (A) (A) (A) (A) (A) (A) (A) (A) (A) (A) (A)
                 (A) (A) (A) (A) (A) (A) (A) (A) (A) (A) (A) (A)
                 (A) (A) (A) (A) (A) (A) (A)
 The electronic state is 1-A.
 Alpha  occ. eigenvalues --  -19.41417 -19.39954 -19.38931 -19.38071 -19.36561
 Alpha  occ. eigenvalues --  -14.66560 -14.57527 -10.48249 -10.46771 -10.45387
 Alpha  occ. eigenvalues --  -10.45298 -10.45194 -10.43772 -10.43712 -10.42669
 Alpha  occ. eigenvalues --  -10.42507 -10.42252  -1.26270  -1.24210  -1.23949
 Alpha  occ. eigenvalues --   -1.23051  -1.21750  -1.20872  -1.17039  -1.04993
 Alpha  occ. eigenvalues --   -1.02934  -1.00037  -0.95529  -0.92402  -0.87484
 Alpha  occ. eigenvalues --   -0.84671  -0.83770  -0.81873  -0.77410  -0.76509
 Alpha  occ. eigenvalues --   -0.74990  -0.74021  -0.73681  -0.73194  -0.72862
 Alpha  occ. eigenvalues --   -0.72054  -0.70580  -0.68258  -0.67952  -0.65363
 Alpha  occ. eigenvalues --   -0.65033  -0.63881  -0.63065  -0.62550  -0.61848
 Alpha  occ. eigenvalues --   -0.61230  -0.60752  -0.60279  -0.59839  -0.59677
 Alpha  occ. eigenvalues --   -0.58218  -0.57211  -0.56557  -0.56003  -0.55398
 Alpha  occ. eigenvalues --   -0.53913  -0.53632  -0.53516  -0.52089  -0.51471
 Alpha  occ. eigenvalues --   -0.50044  -0.48104  -0.47391  -0.45254
 Alpha virt. eigenvalues --   -0.08538  -0.07584  -0.06556  -0.05495  -0.04839
 Alpha virt. eigenvalues --   -0.04381  -0.03571  -0.03349  -0.03071  -0.02340
 Alpha virt. eigenvalues --   -0.02275  -0.01463  -0.01117  -0.00810  -0.00556
 Alpha virt. eigenvalues --   -0.00068   0.00236   0.00503   0.01178   0.01279
 Alpha virt. eigenvalues --    0.01715   0.02206   0.02504   0.02638   0.02674
 Alpha virt. eigenvalues --    0.02958   0.03336   0.04060   0.04387   0.04664
 Alpha virt. eigenvalues --    0.05066   0.05300   0.05348   0.05788   0.05989
 Alpha virt. eigenvalues --    0.06135   0.06334   0.06593   0.06780   0.06967
 Alpha virt. eigenvalues --    0.07257   0.07591   0.07759   0.08093   0.08458
 Alpha virt. eigenvalues --    0.08728   0.08991   0.09017   0.09247   0.09830
 Alpha virt. eigenvalues --    0.09891   0.10116   0.10618   0.10992   0.11134
 Alpha virt. eigenvalues --    0.11657   0.11824   0.12356   0.12557   0.12704
 Alpha virt. eigenvalues --    0.12938   0.13334   0.13685   0.13997   0.14356
 Alpha virt. eigenvalues --    0.14557   0.14715   0.14856   0.15609   0.15998
 Alpha virt. eigenvalues --    0.16096   0.16468   0.16905   0.17120   0.17295
 Alpha virt. eigenvalues --    0.17643   0.18076   0.18300   0.18569   0.18695
 Alpha virt. eigenvalues --    0.18855   0.19071   0.19411   0.19516   0.19650
 Alpha virt. eigenvalues --    0.19850   0.20294   0.20562   0.20936   0.21461
 Alpha virt. eigenvalues --    0.21872   0.21954   0.22211   0.22614   0.22723
 Alpha virt. eigenvalues --    0.23041   0.23131   0.23443   0.23742   0.23996
 Alpha virt. eigenvalues --    0.24546   0.25063   0.25220   0.25622   0.25916
 Alpha virt. eigenvalues --    0.26066   0.26554   0.26793   0.27208   0.27352
 Alpha virt. eigenvalues --    0.27812   0.28151   0.28449   0.28750   0.29464
 Alpha virt. eigenvalues --    0.29604   0.30219   0.30593   0.31020   0.31192
 Alpha virt. eigenvalues --    0.31873   0.32466   0.32737   0.32944   0.33205
 Alpha virt. eigenvalues --    0.33674   0.33813   0.34458   0.35006   0.35318
 Alpha virt. eigenvalues --    0.35585   0.35895   0.36842   0.37090   0.37437
 Alpha virt. eigenvalues --    0.37495   0.38224   0.38659   0.38846   0.39194
 Alpha virt. eigenvalues --    0.39764   0.40077   0.40448   0.40813   0.41473
 Alpha virt. eigenvalues --    0.41569   0.42012   0.42540   0.42966   0.43350
 Alpha virt. eigenvalues --    0.43418   0.43925   0.44124   0.44429   0.45100
 Alpha virt. eigenvalues --    0.45729   0.45904   0.46606   0.46839   0.47239
 Alpha virt. eigenvalues --    0.47372   0.47992   0.48056   0.48629   0.49300
 Alpha virt. eigenvalues --    0.49661   0.49864   0.49942   0.50355   0.50682
 Alpha virt. eigenvalues --    0.50744   0.51178   0.51299   0.52236   0.52581
 Alpha virt. eigenvalues --    0.52698   0.53152   0.53815   0.54253   0.54484
 Alpha virt. eigenvalues --    0.54855   0.55183   0.55561   0.55683   0.55819
 Alpha virt. eigenvalues --    0.56170   0.56929   0.57048   0.57138   0.57621
 Alpha virt. eigenvalues --    0.58227   0.58620   0.59250   0.59604   0.59873
 Alpha virt. eigenvalues --    0.60619   0.60839   0.61019   0.61466   0.61528
 Alpha virt. eigenvalues --    0.62009   0.62201   0.62941   0.63159   0.63674
 Alpha virt. eigenvalues --    0.63937   0.65040   0.65168   0.65614   0.66082
 Alpha virt. eigenvalues --    0.66302   0.66958   0.67555   0.67887   0.68266
 Alpha virt. eigenvalues --    0.68286   0.68874   0.69386   0.69506   0.69584
 Alpha virt. eigenvalues --    0.70521   0.70758   0.70930   0.71479   0.71837
 Alpha virt. eigenvalues --    0.72141   0.72780   0.73408   0.73809   0.74547
 Alpha virt. eigenvalues --    0.74791   0.75245   0.75370   0.75999   0.76574
 Alpha virt. eigenvalues --    0.77173   0.77650   0.78153   0.78837   0.79305
 Alpha virt. eigenvalues --    0.79445   0.80002   0.80340   0.81003   0.81302
 Alpha virt. eigenvalues --    0.82275   0.82825   0.83913   0.84098   0.84553
 Alpha virt. eigenvalues --    0.85613   0.85838   0.86633   0.87178   0.87744
 Alpha virt. eigenvalues --    0.88421   0.88754   0.89726   0.90219   0.90600
 Alpha virt. eigenvalues --    0.91052   0.91866   0.92346   0.92969   0.93908
 Alpha virt. eigenvalues --    0.94118   0.95597   0.95973   0.96134   0.96892
 Alpha virt. eigenvalues --    0.97243   0.97886   0.98581   0.99564   0.99857
 Alpha virt. eigenvalues --    1.00567   1.01000   1.01622   1.01855   1.02579
 Alpha virt. eigenvalues --    1.02985   1.05008   1.05220   1.06262   1.06492
 Alpha virt. eigenvalues --    1.06821   1.07706   1.09096   1.09490   1.09634
 Alpha virt. eigenvalues --    1.10863   1.11451   1.11639   1.13068   1.13451
 Alpha virt. eigenvalues --    1.13706   1.15148   1.15638   1.16408   1.17557
 Alpha virt. eigenvalues --    1.17923   1.18963   1.19502   1.20544   1.20696
 Alpha virt. eigenvalues --    1.21614   1.22482   1.22915   1.23017   1.25143
 Alpha virt. eigenvalues --    1.25518   1.26941   1.27515   1.27757   1.28762
 Alpha virt. eigenvalues --    1.29437   1.30378   1.31507   1.32624   1.33139
 Alpha virt. eigenvalues --    1.34518   1.35179   1.36428   1.36653   1.37058
 Alpha virt. eigenvalues --    1.38183   1.38639   1.39685   1.40241   1.41312
 Alpha virt. eigenvalues --    1.41815   1.43368   1.43885   1.44250   1.45028
 Alpha virt. eigenvalues --    1.45360   1.46732   1.47978   1.48236   1.48726
 Alpha virt. eigenvalues --    1.49975   1.51907   1.52537   1.52958   1.53683
 Alpha virt. eigenvalues --    1.54639   1.55550   1.56097   1.56896   1.57589
 Alpha virt. eigenvalues --    1.58905   1.59618   1.60559   1.61128   1.61715
 Alpha virt. eigenvalues --    1.62358   1.63535   1.64037   1.65575   1.66839
 Alpha virt. eigenvalues --    1.66868   1.67393   1.67470   1.69321   1.69597
 Alpha virt. eigenvalues --    1.69957   1.70847   1.71444   1.72670   1.73514
 Alpha virt. eigenvalues --    1.73819   1.75587   1.75987   1.76255   1.77134
 Alpha virt. eigenvalues --    1.77385   1.78245   1.79015   1.79879   1.81163
 Alpha virt. eigenvalues --    1.81678   1.82249   1.83042   1.83654   1.84232
 Alpha virt. eigenvalues --    1.85422   1.86365   1.87267   1.87567   1.87825
 Alpha virt. eigenvalues --    1.88142   1.88226   1.88797   1.89510   1.90069
 Alpha virt. eigenvalues --    1.91097   1.91704   1.92820   1.93410   1.93564
 Alpha virt. eigenvalues --    1.95332   1.95519   1.96404   1.96808   1.97047
 Alpha virt. eigenvalues --    1.98054   1.98301   1.99587   1.99792   2.01266
 Alpha virt. eigenvalues --    2.01819   2.02312   2.03229   2.03979   2.04789
 Alpha virt. eigenvalues --    2.05869   2.06613   2.07326   2.08085   2.09061
 Alpha virt. eigenvalues --    2.09593   2.10460   2.11480   2.12758   2.13957
 Alpha virt. eigenvalues --    2.14357   2.15405   2.15682   2.17471   2.18506
 Alpha virt. eigenvalues --    2.19468   2.20584   2.20983   2.22223   2.22513
 Alpha virt. eigenvalues --    2.23561   2.24481   2.24733   2.24870   2.25598
 Alpha virt. eigenvalues --    2.26742   2.28737   2.29916   2.30121   2.30602
 Alpha virt. eigenvalues --    2.31846   2.32704   2.34611   2.34925   2.36703
 Alpha virt. eigenvalues --    2.37977   2.38343   2.39343   2.40118   2.40381
 Alpha virt. eigenvalues --    2.42527   2.43963   2.45315   2.47214   2.47758
 Alpha virt. eigenvalues --    2.48405   2.49752   2.50934   2.51852   2.52867
 Alpha virt. eigenvalues --    2.53657   2.53820   2.55375   2.56786   2.57039
 Alpha virt. eigenvalues --    2.57664   2.59470   2.60267   2.61242   2.61781
 Alpha virt. eigenvalues --    2.62459   2.63787   2.64730   2.65287   2.66287
 Alpha virt. eigenvalues --    2.67102   2.68991   2.69222   2.69668   2.70845
 Alpha virt. eigenvalues --    2.72579   2.73236   2.74875   2.76184   2.76937
 Alpha virt. eigenvalues --    2.78333   2.78462   2.79812   2.80985   2.82946
 Alpha virt. eigenvalues --    2.84821   2.86076   2.87748   2.89126   2.91000
 Alpha virt. eigenvalues --    2.91558   2.92642   2.94366   2.95295   2.96269
 Alpha virt. eigenvalues --    2.98903   3.02561   3.06991   3.08178   3.14419
 Alpha virt. eigenvalues --    3.15548   3.17935   3.21021   3.23486   3.34123
 Alpha virt. eigenvalues --    3.36777   3.38428   3.39967   3.41442   3.42360
 Alpha virt. eigenvalues --    3.44320   3.46542   3.47471   3.49086   3.50525
 Alpha virt. eigenvalues --    3.52765   3.55637   3.56064   3.57151   3.60509
 Alpha virt. eigenvalues --    3.62000   3.65905   3.68201   3.74254   3.78169
 Alpha virt. eigenvalues --    3.83983   3.85074   3.89185   3.93208   3.94707
 Alpha virt. eigenvalues --    3.99771   4.02764   4.03739   4.10115   4.14714
 Alpha virt. eigenvalues --    4.44269   4.88132
          Condensed to atoms (all electrons):
               1          2          3          4          5          6
     1  N   14.757234  -4.432861  -0.438831  -0.579205   0.169257   1.652170
     2  C   -4.432861  33.433972  -3.672681   0.501889  -0.323985 -13.541746
     3  C   -0.438831  -3.672681   9.628172  -1.175384   0.697860   1.270724
     4  C   -0.579205   0.501889  -1.175384   6.526338  -0.056236   0.021765
     5  C    0.169257  -0.323985   0.697860  -0.056236   5.725193  -0.514441
     6  C    1.652170 -13.541746   1.270724   0.021765  -0.514441  31.853042
     7  C   -0.573130  -1.719247  -0.834506   0.161797  -0.134189  -6.241762
     8  N    0.113401   0.069285  -0.072680  -0.002966   0.013146   0.458123
     9  C    0.060494  -0.837809  -0.004203   0.013291  -0.049655  -0.392391
    10  C   -0.032838   0.009534  -0.202238  -0.044737   0.019941  -0.350869
    11  C   -0.531537  -0.841557   0.043280  -0.093843   0.079220 -11.974444
    12  O   -0.239960   0.174497   0.073435   0.005343  -0.015802  -0.068536
    13  O   -0.002684  -0.063874  -0.007413   0.008287  -0.000982   0.017058
    14  O    0.016137  -0.036527   0.001913  -0.003516   0.001390  -0.086839
    15  H   -0.020596  -0.010011   0.057856  -0.000288  -0.358810   0.277594
    16  H   -0.016241  -0.221082   0.304805  -0.253899   0.206355  -0.002872
    17  H    0.041567   0.333969   0.132666  -0.353887   0.030143  -0.144160
    18  H    0.111204  -0.688696   0.186899   0.265834   0.038235   0.266810
    19  H    0.150329   0.529311  -1.259444   0.179527  -0.195684   0.162884
    20  H   -1.204488   0.561738   0.029074   0.082772  -0.174743  -0.221770
    21  H   -0.408814  -4.144918   0.766071  -0.092943   0.048255   1.872845
    22  H   -0.358141   0.165367  -0.340628   0.060236   0.012862  -1.131083
    23  H   -0.002232   0.017211  -0.001737   0.001164  -0.001172  -0.327410
    24  H    0.004289   0.037953   0.015241  -0.000235   0.000129   0.294953
    25  H   -0.029823   0.170349  -0.128763   0.008556   0.002102   0.971897
    26  C    0.656949  -0.458626  -0.289831   0.028553  -0.033717   0.493525
    27  H    0.295710   0.296272   0.012809  -0.042105  -0.474898  -0.160473
    28  H    0.016251  -0.079915  -0.009277   0.023694   0.008192   0.040456
    29  H    0.041824   0.002926   0.019025  -0.031212   0.017058   0.011064
    30  H    0.019980  -0.018523   0.015186  -0.001787  -0.003105   0.123685
    31  H   -0.001818   0.003129  -0.001102   0.000149   0.000345   0.001689
    32  H    0.005476  -0.016243   0.019472  -0.005365  -0.002618   0.008906
    33  H    0.001066   0.008012  -0.006594   0.003907   0.000103   0.001294
    34  O   -0.009195  -0.027144   0.010022  -0.000260  -0.005025   0.134671
    35  H    0.009598  -0.018742   0.001910   0.000948  -0.000764   0.022372
    36  H    0.002740   0.007445  -0.000753  -0.000701   0.000731  -0.015431
    37  H   -0.619548  -0.126145   0.053167   0.014361   0.184610   0.042475
    38  H   -0.367144  -0.105457  -0.107993   0.069174  -0.127535   0.201361
    39  H    0.091085   0.225123   0.083978  -0.033961  -0.060885  -0.054931
    40  O   -0.007921  -0.113627  -0.006132  -0.001778  -0.013835   0.067872
    41  H    0.020127   0.022341  -0.001445  -0.000469   0.000827  -0.082857
    42  H   -0.023864  -0.058279   0.012873   0.001391  -0.003439   0.240278
               7          8          9         10         11         12
     1  N   -0.573130   0.113401   0.060494  -0.032838  -0.531537  -0.239960
     2  C   -1.719247   0.069285  -0.837809   0.009534  -0.841557   0.174497
     3  C   -0.834506  -0.072680  -0.004203  -0.202238   0.043280   0.073435
     4  C    0.161797  -0.002966   0.013291  -0.044737  -0.093843   0.005343
     5  C   -0.134189   0.013146  -0.049655   0.019941   0.079220  -0.015802
     6  C   -6.241762   0.458123  -0.392391  -0.350869 -11.974444  -0.068536
     7  C   21.128159  -1.934565  -2.192592   0.213116  -0.328080  -0.160890
     8  N   -1.934565   8.963843   0.319556   0.535047  -0.984182  -0.031055
     9  C   -2.192592   0.319556  11.926687  -3.669761   1.311036   0.001327
    10  C    0.213116   0.535047  -3.669761  13.148410  -4.090436  -0.017871
    11  C   -0.328080  -0.984182   1.311036  -4.090436  24.925272   0.027571
    12  O   -0.160890  -0.031055   0.001327  -0.017871   0.027571   8.405647
    13  O   -0.029573   0.018460  -0.006320   0.008302  -0.002926  -0.123771
    14  O   -0.335951   0.107059   0.015561   0.025124   0.006298   0.008839
    15  H    0.006286  -0.002334  -0.005154   0.002033   0.003830  -0.008337
    16  H    0.023647  -0.001357   0.003524  -0.004964  -0.001693  -0.005553
    17  H   -0.020019   0.001911  -0.004442   0.003216   0.000764   0.009706
    18  H   -0.245731   0.000876   0.021826  -0.070836   0.021391   0.022048
    19  H    0.320625  -0.009791   0.008717  -0.002063  -0.081431  -0.000427
    20  H    0.038890   0.000006   0.000466  -0.000970   0.038857   0.045722
    21  H    0.033024  -0.023343   0.033269  -0.003160  -0.048222   0.007013
    22  H   -1.980269   0.262072  -0.299472   0.417201  -0.244523  -0.034564
    23  H    0.536702  -0.441604  -0.644402   0.065348   0.322460   0.000083
    24  H   -0.203887  -0.062874   0.554928  -1.543399   0.613872  -0.000635
    25  H    0.121530  -0.044481  -0.251683   0.713790  -2.468516  -0.000753
    26  C   -0.122569   0.045524  -0.088435   0.160282  -0.381989  -0.027927
    27  H   -0.394063  -0.012846   0.081905  -0.117230   0.020193   0.036300
    28  H    0.049947  -0.000381  -0.006833   0.008288  -0.015532   0.253692
    29  H   -0.032912   0.014481  -0.001398   0.004862  -0.005464   0.225671
    30  H   -0.213327   0.201331   0.156222  -0.113451  -0.020136   0.000136
    31  H    0.071874  -0.041211  -0.013819   0.010887  -0.003152  -0.000279
    32  H   -0.012896  -0.023182   0.005260  -0.011020  -0.002863   0.020800
    33  H    0.032293   0.000818   0.000373   0.000184  -0.000235  -0.002501
    34  O   -0.206830   0.034508   0.057760  -0.020774  -0.028606  -0.102319
    35  H   -0.034785   0.021898  -0.013739   0.011129  -0.017390  -0.000382
    36  H    0.044808  -0.011854   0.001497  -0.003714   0.007777   0.004796
    37  H    0.045216   0.001004   0.008047  -0.018219   0.066284  -0.018817
    38  H   -0.050679   0.006981  -0.001303   0.017876  -0.080000   0.036524
    39  H    0.087706  -0.031702  -0.039313   0.010328  -0.030906   0.022066
    40  O   -0.223794   0.052530  -0.229286   0.172296  -0.203119   0.001336
    41  H    0.049315   0.001784   0.014506  -0.025182   0.065203   0.001213
    42  H   -0.120275   0.038454   0.023091   0.011614  -0.135116  -0.012086
              13         14         15         16         17         18
     1  N   -0.002684   0.016137  -0.020596  -0.016241   0.041567   0.111204
     2  C   -0.063874  -0.036527  -0.010011  -0.221082   0.333969  -0.688696
     3  C   -0.007413   0.001913   0.057856   0.304805   0.132666   0.186899
     4  C    0.008287  -0.003516  -0.000288  -0.253899  -0.353887   0.265834
     5  C   -0.000982   0.001390  -0.358810   0.206355   0.030143   0.038235
     6  C    0.017058  -0.086839   0.277594  -0.002872  -0.144160   0.266810
     7  C   -0.029573  -0.335951   0.006286   0.023647  -0.020019  -0.245731
     8  N    0.018460   0.107059  -0.002334  -0.001357   0.001911   0.000876
     9  C   -0.006320   0.015561  -0.005154   0.003524  -0.004442   0.021826
    10  C    0.008302   0.025124   0.002033  -0.004964   0.003216  -0.070836
    11  C   -0.002926   0.006298   0.003830  -0.001693   0.000764   0.021391
    12  O   -0.123771   0.008839  -0.008337  -0.005553   0.009706   0.022048
    13  O    7.939375  -0.025845  -0.000107  -0.000323   0.004016   0.026013
    14  O   -0.025845   8.401740  -0.000029  -0.000139  -0.000039  -0.005128
    15  H   -0.000107  -0.000029   2.492718  -0.310125   0.191012  -0.059916
    16  H   -0.000323  -0.000139  -0.310125   2.024463  -0.595467   0.210313
    17  H    0.004016  -0.000039   0.191012  -0.595467   2.146767  -0.385528
    18  H    0.026013  -0.005128  -0.059916   0.210313  -0.385528   2.553250
    19  H   -0.001664   0.001053   0.065810  -0.296876   0.163943  -0.783555
    20  H    0.000667   0.000095  -0.611991   0.146717  -0.299145   0.046391
    21  H    0.001095  -0.000802  -0.136809   0.063958  -0.050305   0.259916
    22  H   -0.052649   0.146777   0.000171  -0.021631   0.022728  -0.443714
    23  H   -0.000192   0.000965   0.000010   0.000077   0.000030  -0.006278
    24  H    0.000225   0.001011  -0.000272  -0.000038   0.000005   0.005642
    25  H   -0.000253  -0.000519   0.003087   0.002287  -0.000032  -0.025763
    26  C    0.004556   0.001268  -0.016339  -0.018483   0.025362  -0.086958
    27  H   -0.021795  -0.006159  -0.071747   0.000859  -0.010595   0.064891
    28  H    0.013523   0.004050   0.001750  -0.000399  -0.003802   0.002352
    29  H    0.038591   0.002894  -0.001687   0.000580   0.008443   0.001992
    30  H    0.003823   0.305290  -0.000287   0.000379  -0.000817   0.018265
    31  H   -0.001190   0.219074   0.000020  -0.000004   0.000028  -0.001616
    32  H    0.359801   0.005074   0.000337  -0.000574   0.001254   0.007919
    33  H    0.293857  -0.006402  -0.000120   0.000378  -0.000969   0.000550
    34  O   -0.013445  -0.066196  -0.000129  -0.000095   0.000075   0.005647
    35  H    0.001953   0.019912  -0.000027   0.000028  -0.000044   0.001702
    36  H    0.000640  -0.005853   0.000027  -0.000006  -0.000036  -0.000668
    37  H    0.000253   0.000444   0.015875   0.007043  -0.004967   0.005623
    38  H    0.001147  -0.000492  -0.015964  -0.003471   0.010691  -0.017396
    39  H   -0.000128  -0.001095   0.024726  -0.003537   0.000644  -0.005880
    40  O    0.000774   0.021083  -0.001002  -0.000119  -0.000252   0.002781
    41  H   -0.000110  -0.000014  -0.000164   0.000044  -0.000126   0.000422
    42  H    0.002302   0.001606   0.000032  -0.000040   0.000423   0.001612
              19         20         21         22         23         24
     1  N    0.150329  -1.204488  -0.408814  -0.358141  -0.002232   0.004289
     2  C    0.529311   0.561738  -4.144918   0.165367   0.017211   0.037953
     3  C   -1.259444   0.029074   0.766071  -0.340628  -0.001737   0.015241
     4  C    0.179527   0.082772  -0.092943   0.060236   0.001164  -0.000235
     5  C   -0.195684  -0.174743   0.048255   0.012862  -0.001172   0.000129
     6  C    0.162884  -0.221770   1.872845  -1.131083  -0.327410   0.294953
     7  C    0.320625   0.038890   0.033024  -1.980269   0.536702  -0.203887
     8  N   -0.009791   0.000006  -0.023343   0.262072  -0.441604  -0.062874
     9  C    0.008717   0.000466   0.033269  -0.299472  -0.644402   0.554928
    10  C   -0.002063  -0.000970  -0.003160   0.417201   0.065348  -1.543399
    11  C   -0.081431   0.038857  -0.048222  -0.244523   0.322460   0.613872
    12  O   -0.000427   0.045722   0.007013  -0.034564   0.000083  -0.000635
    13  O   -0.001664   0.000667   0.001095  -0.052649  -0.000192   0.000225
    14  O    0.001053   0.000095  -0.000802   0.146777   0.000965   0.001011
    15  H    0.065810  -0.611991  -0.136809   0.000171   0.000010  -0.000272
    16  H   -0.296876   0.146717   0.063958  -0.021631   0.000077  -0.000038
    17  H    0.163943  -0.299145  -0.050305   0.022728   0.000030   0.000005
    18  H   -0.783555   0.046391   0.259916  -0.443714  -0.006278   0.005642
    19  H    2.642537  -0.040312  -0.299507   0.173336   0.001099  -0.002159
    20  H   -0.040312   2.923409   0.108406   0.031679   0.000055   0.000020
    21  H   -0.299507   0.108406   4.172600  -0.040387   0.001936  -0.001011
    22  H    0.173336   0.031679  -0.040387   6.078764   0.106042  -0.053885
    23  H    0.001099   0.000055   0.001936   0.106042   2.240470  -0.123108
    24  H   -0.002159   0.000020  -0.001011  -0.053885  -0.123108   2.281569
    25  H    0.009228  -0.001691  -0.141155   0.037470  -0.002283  -0.159080
    26  C    0.069039  -0.166132  -0.115897   0.130352   0.000658  -0.010617
    27  H   -0.003957   0.163810  -0.021583  -0.117432  -0.003217   0.003909
    28  H   -0.000036  -0.001022  -0.001325   0.009838  -0.001357   0.000331
    29  H   -0.001529  -0.007878   0.003648  -0.036987  -0.000256   0.000110
    30  H   -0.002548  -0.000680  -0.001035  -0.233037  -0.087901   0.015286
    31  H    0.000077   0.000064   0.000032   0.023994   0.008466  -0.001065
    32  H   -0.001520  -0.002042   0.000773  -0.032563  -0.000360   0.000634
    33  H    0.000399   0.000711  -0.000110  -0.017158  -0.000076  -0.000031
    34  O   -0.000021  -0.001386  -0.000313  -0.013560   0.000849  -0.000188
    35  H    0.000144  -0.000155  -0.000417  -0.027959  -0.003170   0.000348
    36  H   -0.000026   0.000045  -0.000045   0.020794   0.001088  -0.000112
    37  H    0.003852   0.043007   0.090551   0.010347  -0.000451   0.002443
    38  H    0.003123  -0.037443  -0.003993   0.002650   0.000694  -0.001681
    39  H    0.004406   0.011482   0.010657   0.059120   0.001848  -0.000791
    40  O    0.000389  -0.001365   0.012698   0.018124  -0.008762  -0.015874
    41  H   -0.000258   0.000114  -0.000428  -0.000043  -0.001348  -0.000377
    42  H    0.000572  -0.000728   0.002626  -0.008627  -0.005181  -0.000068
              25         26         27         28         29         30
     1  N   -0.029823   0.656949   0.295710   0.016251   0.041824   0.019980
     2  C    0.170349  -0.458626   0.296272  -0.079915   0.002926  -0.018523
     3  C   -0.128763  -0.289831   0.012809  -0.009277   0.019025   0.015186
     4  C    0.008556   0.028553  -0.042105   0.023694  -0.031212  -0.001787
     5  C    0.002102  -0.033717  -0.474898   0.008192   0.017058  -0.003105
     6  C    0.971897   0.493525  -0.160473   0.040456   0.011064   0.123685
     7  C    0.121530  -0.122569  -0.394063   0.049947  -0.032912  -0.213327
     8  N   -0.044481   0.045524  -0.012846  -0.000381   0.014481   0.201331
     9  C   -0.251683  -0.088435   0.081905  -0.006833  -0.001398   0.156222
    10  C    0.713790   0.160282  -0.117230   0.008288   0.004862  -0.113451
    11  C   -2.468516  -0.381989   0.020193  -0.015532  -0.005464  -0.020136
    12  O   -0.000753  -0.027927   0.036300   0.253692   0.225671   0.000136
    13  O   -0.000253   0.004556  -0.021795   0.013523   0.038591   0.003823
    14  O   -0.000519   0.001268  -0.006159   0.004050   0.002894   0.305290
    15  H    0.003087  -0.016339  -0.071747   0.001750  -0.001687  -0.000287
    16  H    0.002287  -0.018483   0.000859  -0.000399   0.000580   0.000379
    17  H   -0.000032   0.025362  -0.010595  -0.003802   0.008443  -0.000817
    18  H   -0.025763  -0.086958   0.064891   0.002352   0.001992   0.018265
    19  H    0.009228   0.069039  -0.003957  -0.000036  -0.001529  -0.002548
    20  H   -0.001691  -0.166132   0.163810  -0.001022  -0.007878  -0.000680
    21  H   -0.141155  -0.115897  -0.021583  -0.001325   0.003648  -0.001035
    22  H    0.037470   0.130352  -0.117432   0.009838  -0.036987  -0.233037
    23  H   -0.002283   0.000658  -0.003217  -0.001357  -0.000256  -0.087901
    24  H   -0.159080  -0.010617   0.003909   0.000331   0.000110   0.015286
    25  H    3.099970   0.059726  -0.012958  -0.000177  -0.000913  -0.005576
    26  C    0.059726   4.611411  -0.219390   0.013853   0.011588  -0.005046
    27  H   -0.012958  -0.219390   1.565605  -0.040986  -0.015441   0.007442
    28  H   -0.000177   0.013853  -0.040986   0.479124  -0.068053   0.000574
    29  H   -0.000913   0.011588  -0.015441  -0.068053   0.523889   0.004672
    30  H   -0.005576  -0.005046   0.007442   0.000574   0.004672   0.620691
    31  H    0.000332   0.000181  -0.000825  -0.000141  -0.000841  -0.157431
    32  H   -0.001222  -0.000776   0.015029  -0.003334   0.000396   0.005619
    33  H    0.000106  -0.000006   0.000240   0.000554  -0.001532   0.000833
    34  O   -0.000883   0.003666   0.026906  -0.039511   0.011631   0.008001
    35  H   -0.000324   0.000858  -0.002152  -0.009890   0.003303   0.003399
    36  H    0.000220  -0.002110   0.002399   0.004041  -0.001965  -0.005582
    37  H    0.007488   0.096881  -0.151001   0.001857   0.004334   0.000428
    38  H    0.005441   0.195989   0.164065  -0.006699  -0.001025  -0.000779
    39  H   -0.017258   0.089307  -0.076672   0.008210  -0.006913  -0.002897
    40  O   -0.014687  -0.062344   0.027626  -0.003266   0.001116  -0.003604
    41  H    0.001132  -0.005476   0.005315  -0.001247  -0.000234   0.001739
    42  H    0.003672   0.011612  -0.008538   0.013751   0.004605   0.009128
              31         32         33         34         35         36
     1  N   -0.001818   0.005476   0.001066  -0.009195   0.009598   0.002740
     2  C    0.003129  -0.016243   0.008012  -0.027144  -0.018742   0.007445
[...]
 0283,-0.00004010,0.00002700,0.00025426,-0.00000565,-0.00004801,0.00003
 489,-0.00003201,0.00009132,0.00005404,-0.00002794,0.00002875,0.0000627
 3,-0.00009459,-0.00012681,0.00009103,-0.00032944,-0.00040346,0.0003685
 1,-0.00067109,-0.00020891,0.00007673,-0.00010424,0.00015455,0.00002436
 ,0.00003690,-0.00002950,0.00000169,0.00000804,-0.00000427,-0.00001751,
 0.00000425,-0.00000314,0.00004515,0.00003209,-0.00005862,-0.04925977,0
 .12251609,-0.16609414,0.00019464,0.00114250,-0.00006221,-0.00015576,-0
 .00005640,-0.00002079,-0.00001996,-0.00003498,-0.00013608,0.00002157,0
 .00004835,-0.00000934,-0.00000056,-0.00000057,-0.00000093,-0.00001184,
 0.00001594,-0.00000595,0.00000160,0.00000304,-0.00000375,0.00007792,0.
 00000189,0.00000815,-0.00001774,0.00001583,-0.00004213,-0.00000534,0.0
 0000004,0.00001468,0.00040228,-0.00095166,0.00165222,0.05619022,-0.135
 37449,0.18937566,0.00628268,-0.00289293,-0.00212156,0.00046065,-0.0004
 3143,0.00046964,-0.00011273,0.00016042,0.00000430,0.00058173,-0.000109
 32,-0.00025293,-0.00016933,-0.00043960,-0.00154299,0.00024157,-0.00036
 862,-0.00051012,0.00045782,-0.00000007,-0.00003891,-0.00044640,0.00002
 739,0.00021367,-0.00018551,-0.00003146,-0.00002333,0.00005093,0.000028
 96,-0.00002532,-0.00012902,0.00045766,-0.00038967,-0.00061462,-0.00012
 382,0.00029324,-0.00013804,0.00002603,0.00006134,-0.00002203,-0.000007
 11,0.00026197,0.00019519,0.00011029,-0.00004565,-0.00003384,-0.0000450
 6,-0.00020199,0.00000815,-0.00003018,-0.00001297,-0.00000203,-0.000034
 45,-0.00006620,0.00001080,-0.00004037,-0.00006526,-0.00004751,0.000043
 05,-0.00003400,-0.00014817,-0.00002956,0.00002033,0.00002897,0.0000214
 9,-0.00002159,-0.00003253,0.00000643,-0.00003198,-0.00000494,0.0000252
 5,-0.00000952,-0.00003714,-0.00020212,0.00009918,-0.29108188,0.0870739
 2,0.05615907,0.00130586,0.00071528,0.00011554,0.00042709,-0.00029444,-
 0.00024783,0.00004173,0.00003296,-0.00000982,0.00004264,0.00006905,-0.
 00010337,-0.00001290,-0.00002134,-0.00002663,0.00010676,-0.00006557,-0
 .00008815,0.00002483,-0.00000307,-0.00001965,0.00003549,0.00079741,0.0
 0047798,-0.00007854,0.00000452,-0.00033858,0.00001597,-0.00008565,0.00
 003621,-0.01172377,0.00693968,0.00219300,-0.00421298,-0.00017895,0.001
 55226,0.30107560,0.01504571,-0.00832588,-0.00512487,-0.00011314,0.0001
 8061,0.00062406,0.00008187,-0.00016059,0.00008254,0.00106182,0.0000840
 5,-0.00015771,-0.00178797,-0.00013682,-0.00259944,-0.00010009,0.000167
 98,0.00044402,0.00020400,0.00005950,0.00006190,-0.00024837,-0.00010555
 ,0.00001514,0.00004718,0.00001253,-0.00002457,0.00010017,-0.00008951,-
 0.00008633,0.00006789,-0.00002418,0.00030555,-0.00011352,0.00018491,0.
 00053433,0.00003279,-0.00001720,0.00012344,-0.00000754,-0.00012571,0.0
 0010900,0.00033321,0.00007197,-0.00002154,-0.00007514,-0.00008672,-0.0
 0032664,0.00001700,-0.00003200,0.00003739,-0.00000673,0.00003455,-0.00
 001165,-0.00002316,0.00003028,-0.00000295,-0.00017077,0.00028475,0.000
 16262,-0.00015788,0.00002487,-0.00017804,-0.00005408,-0.00001686,-0.00
 005131,-0.00001503,-0.00000373,-0.00000624,0.00000996,-0.00001358,0.00
 000544,-0.00010488,-0.00011532,0.00009577,0.07810737,-0.07958793,-0.01
 953975,0.00114208,0.00015898,-0.00026284,-0.00018135,-0.00029715,-0.00
 017551,-0.00007990,0.00002784,-0.00021447,0.00008864,0.00017437,-0.000
 02528,-0.00000070,0.00000014,-0.00000552,-0.00000780,0.00002393,-0.000
 02337,0.00001472,-0.00000314,-0.00000697,0.00014635,0.00005511,0.00014
 677,-0.00005720,0.00004136,-0.00017957,-0.00001458,-0.00002951,0.00000
 019,-0.02263643,0.01037266,0.00613005,0.01945650,-0.00586546,-0.005281
 80,-0.09119993,0.08457776,0.03314252,-0.01437462,-0.01211180,0.0009942
 3,-0.00029395,0.00111710,0.00013161,-0.00034873,0.00019499,0.00152678,
 -0.00072095,-0.00038091,-0.00307362,-0.00077395,-0.00437641,-0.0000690
 0,0.00013653,-0.00114998,-0.00029686,-0.00018403,-0.00008346,0.0002559
 9,0.00013538,0.00000464,-0.00002106,-0.00009823,0.00000390,0.00005420,
 0.00012778,0.00003134,-0.00031038,0.00043584,-0.00030939,-0.00012407,-
 0.00001861,-0.00008000,-0.00002814,0.00006801,-0.00000940,0.00005854,0
 .00018801,-0.00010783,-0.00005492,0.00019206,-0.00012649,-0.00011633,-
 0.00014214,-0.00044767,0.00000478,-0.00001817,-0.00012584,-0.00003687,
 0.00003726,-0.00001870,-0.00002874,0.00005450,0.00003573,0.00014006,-0
 .00034944,-0.00007341,0.00000140,0.00017775,-0.00019230,0.00000050,0.0
 0000701,-0.00001525,0.00002466,-0.00000438,0.00001336,0.00001030,-0.00
 002066,0.00002163,0.00002198,0.00006938,-0.00000961,0.04348989,-0.0170
 6226,-0.06133597,0.00072580,0.00046363,0.00081308,-0.00009103,-0.00002
 694,0.00013704,0.00003221,-0.00002144,0.00003789,-0.00014471,-0.000247
 44,0.00002844,-0.00000896,-0.00000267,0.00000631,-0.00000051,-0.000045
 49,0.00001112,0.00001414,0.00000040,-0.00000373,-0.00006087,-0.0002061
 2,-0.00024013,0.00004413,-0.00004438,0.00018257,0.00001857,0.00002271,
 0.00000972,-0.00062770,0.00103962,0.00019497,-0.02016834,0.00612932,0.
 00642141,-0.05595508,0.02588045,0.07363125,-0.00037471,0.00028463,0.00
 044113,-0.00060100,0.00075533,-0.00073396,0.00006342,-0.00016296,0.000
 13333,-0.00016276,0.00004942,-0.00004826,0.00051006,-0.00016287,0.0004
 4298,0.00009468,-0.00041270,0.00034057,-0.00083538,0.00003696,0.000716
 62,0.00036852,0.00100867,-0.00055536,-0.00025185,-0.00086071,-0.000549
 19,0.00026355,0.00011786,-0.00018497,-0.00048616,0.00038678,0.00051622
 ,0.00137954,0.00076212,0.00028585,0.00047807,-0.00007763,-0.00000871,0
 .00021377,-0.00002419,-0.00090948,0.00010265,0.00002701,-0.00005205,0.
 00002296,0.00001029,0.00010732,0.00001799,0.00002463,0.00006424,0.0000
 1602,0.00004187,0.00007899,-0.00000880,0.00003066,0.00007885,0.0000255
 9,-0.00007596,-0.00001591,0.00010306,0.00002274,-0.00002254,-0.0000442
 0,-0.00005787,-0.00016373,0.00019030,-0.00013263,0.00021911,-0.0000019
 5,-0.00001863,-0.00001669,0.00009448,0.00014178,-0.00010285,-0.0018899
 4,-0.00231065,-0.00010155,-0.00056009,-0.00071934,-0.00021269,-0.00166
 622,-0.00065946,-0.00000580,-0.00035630,-0.00004016,-0.00029487,-0.000
 28144,-0.00021965,0.00043532,0.00004485,0.00010993,0.00014903,-0.00040
 757,0.00022146,0.00026833,-0.00003850,0.00001769,0.00004791,0.00132331
 ,-0.00542464,-0.00225758,0.00040475,0.00003251,0.00138615,0.00020004,0
 .00042103,-0.00075796,-0.00101538,0.00043970,0.00049111,0.00018473,0.0
 0003978,0.00007386,-0.00270864,0.00121139,-0.00011695,0.30240112,-0.00
 043417,0.00095180,0.00027479,0.00029440,-0.00026126,0.00028747,-0.0000
 9077,0.00004014,-0.00012964,-0.00007427,-0.00002630,0.00007255,0.00008
 671,0.00004318,0.00018271,0.00023484,0.00031023,-0.00017679,-0.0007070
 5,-0.00019147,-0.00057261,0.00089022,0.00037398,-0.00022870,-0.0001280
 7,-0.00040043,0.00041030,-0.00069596,0.00017851,0.00107103,0.00114579,
 -0.00078074,0.00009855,0.00144872,0.00026290,-0.00169812,0.00006129,0.
 00014571,-0.00061564,-0.00021612,0.00127799,-0.00163314,0.00006347,0.0
 0001090,-0.00004025,-0.00000232,0.00004676,0.00000629,-0.00004447,0.00
 006167,0.00004748,0.00000126,-0.00004434,0.00002084,0.00001968,0.00001
 477,-0.00001175,-0.00010402,0.00000507,-0.00002219,0.00002984,0.000057
 08,-0.00006344,-0.00001875,-0.00005112,0.00020989,-0.00016205,0.000070
 47,-0.00017970,-0.00004130,0.00024354,-0.00020244,0.00011049,0.0000945
 4,-0.00015632,0.00018535,0.00095628,0.00021660,-0.00133853,-0.00141388
 ,0.00043994,-0.00179017,0.00110410,0.00159457,0.00014065,0.00004314,0.
 00069575,-0.00065261,-0.00159403,0.00021300,0.00011433,0.00002388,-0.0
 0000353,-0.00012028,-0.00008917,0.00039532,-0.00004703,0.00004194,0.00
 010064,-0.00566108,-0.00930371,-0.00528376,0.00110811,-0.00236828,0.00
 309860,0.00030193,-0.00035030,-0.00173084,0.00036882,-0.00005909,-0.00
 019391,-0.00055404,0.00014365,0.00004889,0.00104276,-0.00188510,-0.000
 93724,0.10789073,0.50582516,-0.00023857,0.00009567,0.00042215,-0.00067
 472,0.00034020,-0.00014098,0.00005854,-0.00007780,0.00016483,-0.000032
 92,0.00000698,-0.00007063,-0.00003622,0.00003259,0.00017675,-0.0003097
 9,0.00013302,-0.00018720,-0.00023214,0.00068117,-0.00355208,0.00018496
 ,0.00077065,-0.00076491,0.00048102,-0.00107148,-0.00081049,0.00009196,
 -0.00011983,-0.00026769,-0.00033381,-0.00026749,-0.00003518,0.00048569
 ,-0.00055419,0.00006332,0.00012937,-0.00029143,-0.00013264,-0.00030510
 ,-0.00068867,-0.00016653,0.00003157,-0.00000165,-0.00003601,0.00004345
 ,-0.00001442,0.00002278,0.00000114,-0.00001298,0.00002622,-0.00000659,
 0.00004515,0.00008191,0.00001039,0.00001412,0.00002540,0.00003293,-0.0
 0004982,-0.00001822,0.00010381,0.00001248,0.00000145,-0.00000369,0.000
 09242,0.00010165,0.00004257,-0.00002379,0.00005147,0.00001434,0.000059
 24,-0.00008196,0.00009779,0.00007545,-0.00007176,0.00114887,0.00058657
 ,0.00023919,-0.00056873,-0.00017155,-0.00004037,-0.00044827,0.00097652
 ,-0.00016675,-0.00003665,0.00016020,0.00005817,0.00049193,0.00077867,0
 .00030473,0.00012672,0.00007251,0.00000745,-0.00011384,0.00023361,0.00
 012389,-0.00003521,0.00005991,0.00003169,-0.00179030,-0.00482381,0.003
 34487,0.00008490,0.00079297,0.00016150,-0.00036925,-0.00127441,-0.0016
 0959,0.00038903,-0.00016579,-0.00004469,0.00042304,-0.00019665,-0.0000
 7106,0.00074474,-0.00060744,-0.00183427,-0.18617330,0.25155271,0.35230
 866,0.00018270,-0.00008145,-0.00019299,0.00010406,-0.00003602,-0.00000
 866,-0.00001135,0.00000968,-0.00002369,0.00000678,0.00000344,0.0000044
 9,-0.00001940,-0.00000051,-0.00003113,-0.00000965,0.00002032,0.0000434
 5,-0.00021744,-0.00005792,-0.00014176,-0.00004011,-0.00004116,-0.00011
 491,0.00023467,-0.00002627,-0.00003574,-0.00009707,0.00002537,-0.00002
 411,0.00006539,0.00007972,0.00000579,-0.00001215,0.00008020,-0.0000082
 3,-0.00003851,0.00002420,-0.00001524,-0.00013111,0.00008127,0.00000771
 ,-0.00000270,0.00000531,0.00000953,-0.00000446,0.00000277,-0.00000488,
 -0.00000004,-0.00000145,-0.00000414,-0.00000292,-0.00000570,-0.0000090
 9,0.00000016,0.00000022,-0.00000419,-0.00000002,0.00001486,0.00000287,
 -0.00001441,-0.00000522,0.00000197,-0.00001353,0.00001217,0.00003206,-
 0.00007151,0.00004539,-0.00009662,0.00004409,0.00000795,0.00001149,-0.
 00004935,-0.00002504,0.00003213,-0.00062785,-0.00048446,0.00000884,0.0
 0013326,-0.00001824,-0.00005841,-0.00009045,-0.00005460,0.00007960,-0.
 00000248,0.00003097,0.00001387,0.00006757,-0.00002558,-0.00002710,0.00
 002267,-0.00002899,-0.00005714,0.00004675,-0.00003077,0.00000097,0.000
 00498,-0.00000449,-0.00000110,-0.00098389,-0.00108376,0.00012725,0.000
 13385,-0.00011029,0.00008710,0.00008400,-0.00037104,-0.00016953,-0.000
 31880,0.00009553,0.00008666,-0.00011137,0.00009337,0.00002970,0.000361
 54,0.00070947,0.00075776,-0.15083338,0.11449663,0.21407534,0.14253408,
 -0.00000672,-0.00013182,-0.00000518,-0.00003470,0.00006965,-0.00009798
 ,0.00001260,-0.00001002,0.00003027,-0.00001142,0.00000423,-0.00001128,
 0.00003608,-0.00001002,0.00001848,0.00000197,-0.00019753,0.00013754,0.
 00022038,-0.00022219,0.00022972,-0.00021242,-0.00016703,0.00008335,-0.
 00003423,0.00028176,-0.00005694,0.00011751,0.00000935,-0.00013371,-0.0
 0029834,0.00031067,0.00008972,-0.00013014,-0.00009034,0.00016774,-0.00
 001297,-0.00001490,0.00008585,-0.00000824,-0.00014869,0.00023959,0.000
 00104,0.00000208,0.00000168,0.00000201,-0.00000139,0.00000783,0.000006
 32,-0.00000583,-0.00000055,0.00000266,0.00000517,0.00000216,-0.0000030
 2,-0.00000060,0.00000927,0.00000809,-0.00000575,-0.00000103,-0.0000090
 5,-0.00000268,0.00000053,0.00000061,0.00000599,-0.00002879,0.00007191,
 0.00000072,0.00006605,0.00001245,-0.00012616,0.00013463,-0.00004835,-0
 .00000636,0.00004858,-0.00038903,0.00000607,-0.00008869,0.00009035,0.0
 0007622,-0.00003387,0.00017680,0.00010758,-0.00013151,-0.00000495,-0.0
 0000905,-0.00007967,0.00009546,0.00021306,-0.00007464,-0.00001420,-0.0
 0000161,-0.00002927,0.00002603,0.00000693,-0.00005571,0.00000426,-0.00
 000269,-0.00001739,-0.00094791,-0.00060449,0.00104695,-0.00020248,-0.0
 0001540,-0.00034169,-0.00018504,-0.00061161,-0.00046968,-0.00015218,0.
 00003130,0.00006716,0.00003569,-0.00002400,-0.00000520,0.00075618,0.00
 023007,0.00008953,0.07801279,-0.13276524,-0.16316275,-0.10099189,0.148
 86573,-0.00012617,0.00000191,-0.00006065,0.00013739,-0.00006419,0.0000
 6766,-0.00002339,0.00002845,-0.00004120,-0.00000009,-0.00000035,0.0000
 2622,0.00003139,-0.00000277,-0.00002675,-0.00009275,0.00011517,-0.0000
 9223,-0.00016006,0.00015763,-0.00033694,0.00022718,-0.00018197,0.00008
 906,-0.00001868,-0.00001531,0.00001536,-0.00019300,0.00014796,0.000227
 54,0.00042972,-0.00027422,-0.00013720,-0.00015450,0.00009929,0.0000881
 6,-0.00005698,0.00008429,0.00005820,0.00001598,0.00018218,0.00016396,-
 0.00000491,-0.00000529,0.00000822,-0.00001203,0.00000514,-0.00000266,0
 .00000192,0.00000307,-0.00000865,-0.00000421,-0.00001034,-0.00001727,-
 0.00000181,-0.00000420,-0.00000436,-0.00000521,0.00001266,0.00000554,-
 0.00001330,-0.00000604,-0.00000446,-0.00000789,-0.00000203,0.00007101,
 -0.00010326,0.00006720,-0.00011329,-0.00000140,0.00007837,-0.00006519,
 -0.00000936,0.00000016,0.00000786,-0.00044196,0.00003645,0.00021612,0.
 00010482,0.00003897,-0.00004342,0.00015648,-0.00013493,-0.00013696,0.0
 0000735,-0.00003000,-0.00000996,-0.00002613,-0.00015583,-0.00009805,-0
 .00003278,-0.00004273,-0.00003436,0.00006893,-0.00007308,-0.00004884,0
 .00001148,-0.00001892,-0.00001162,-0.00001916,0.00080129,0.00039894,0.
 00007069,-0.00007813,-0.00016497,0.00002977,-0.00007766,0.00015516,-0.
 00007589,-0.00002649,0.00005038,0.00002122,0.00003347,0.00000201,0.000
 40871,0.00001480,-0.00011889,0.18878052,-0.19577625,-0.30693537,-0.196
 96640,0.19423994,0.31355088,-0.00022336,0.00003166,-0.00002642,0.00006
 359,-0.00016951,0.00018094,-0.00000195,0.00003397,-0.00001047,0.000012
 12,0.00001702,0.00001495,-0.00009406,0.00011468,0.00006181,-0.00013020
 ,0.00003134,-0.00012769,0.00021948,-0.00005585,0.00007691,-0.00021623,
 -0.00053307,0.00015648,0.00017697,0.00048683,0.00012341,-0.00022149,-0
 .00004046,-0.00014078,-0.00003270,-0.00012350,-0.00009378,-0.00107377,
 -0.00100485,-0.00065755,-0.00045151,-0.00000720,-0.00001188,-0.0001718
 3,-0.00028810,0.00114022,0.00002445,-0.00001290,-0.00001632,0.00000139
 ,0.00000337,-0.00001879,-0.00000567,-0.00000447,0.00000628,-0.00000460
 ,-0.00000306,-0.00000795,0.00000514,-0.00000577,-0.00001647,-0.0000147
 7,0.00001600,-0.00000125,-0.00001287,0.00000926,-0.00001854,0.00005877
 ,0.00007742,0.00013916,-0.00001421,0.00006034,-0.00000989,-0.00000943,
 -0.00003964,0.00003529,-0.00001769,-0.00002430,0.00003067,-0.00032018,
 0.00019782,0.00027798,-0.00039507,0.00008684,0.00041839,0.00187707,0.0
 0202851,0.00053861,0.00052107,0.00005798,0.00036192,0.00045039,0.00068
 086,-0.00041271,-0.00007015,-0.00006605,-0.00011123,0.00038099,-0.0001
 4311,-0.00029302,0.00001205,-0.00001209,-0.00004395,-0.00372491,0.0039
 6091,0.00101187,-0.00099313,-0.00130131,-0.00232554,-0.00057480,-0.000
 88151,0.00074863,0.00005789,0.00002594,-0.00011656,-0.00026827,0.00007
 807,-0.00001760,0.00018658,-0.00072189,-0.00011589,-0.14597919,-0.2171
 5295,-0.02758498,0.00967742,0.02400607,0.00804774,0.14129668,-0.000154
 53,-0.00082045,-0.00008228,-0.00029221,0.00013143,-0.00006619,0.000073
 01,-0.00000703,0.00008588,0.00007920,0.00005030,-0.00004509,-0.0001431
 5,0.00006119,-0.00012442,-0.00016288,-0.00022414,-0.00016527,-0.000176
 19,0.00076506,0.00021733,-0.00015677,-0.00063762,-0.00047003,0.0000143
 1,-0.00040591,0.00018487,0.00014259,-0.00027018,-0.00015190,-0.0002402
 3,-0.00003089,0.00000391,-0.00254752,-0.00086181,0.00174794,-0.0002375
 5,-0.00018541,0.00070044,0.00033973,-0.00180739,0.00244694,-0.00005575
 ,-0.00003891,0.00002464,-0.00000138,-0.00005210,-0.00002292,0.00004225
 ,-0.00006754,-0.00005485,-0.00001362,0.00004880,-0.00003090,-0.0000152
 9,-0.00002462,-0.00001102,0.00009909,0.00001810,0.00002920,0.00000141,
 -0.00005968,0.00005342,0.00009494,0.00012255,-0.00010405,0.00011783,-0
 .00003705,0.00011689,-0.00000471,-0.00005902,0.00004298,-0.00001422,-0
 .00003372,0.00004473,0.00039328,0.00020065,0.00007503,0.00121040,0.001
 73568,-0.00011507,0.00409707,-0.00123602,-0.00233363,-0.00000176,-0.00
 002861,-0.00064322,0.00094829,0.00218334,-0.00007055,-0.00015132,-0.00
 003582,0.00003869,0.00024925,0.00008346,-0.00057901,0.00005746,-0.0000
 5664,-0.00013493,0.00205195,-0.00064380,0.00320056,-0.00161071,0.00355
 515,-0.00495661,-0.00002932,-0.00006380,0.00242296,0.00013975,-0.00008
 295,-0.00009378,0.00006593,-0.00000145,0.00001081,-0.00170366,0.000123
 76,0.00068667,-0.18073772,-0.36074293,-0.08399684,-0.01235397,-0.01505
 116,0.00083234,0.19058671,0.37448720,-0.00014570,-0.00015070,-0.000128
 98,0.00025250,-0.00020011,0.00013965,-0.00000687,0.00004960,-0.0000507
 0,0.00003845,0.00001037,0.00002733,-0.00003468,-0.00000757,-0.00012018
 ,-0.00003253,0.00003466,0.00000889,0.00096671,-0.00002875,-0.00009024,
 -0.00054059,-0.00046232,0.00064845,-0.00015659,0.00075995,0.00015074,0
 .00011632,-0.00017156,-0.00030488,-0.00022856,0.00013683,-0.00017611,-
 0.00107626,0.00028183,0.00014958,-0.00018008,0.00016145,0.00023381,0.0
 0023459,0.00016700,0.00061486,-0.00004415,-0.00001215,0.00001988,-0.00
 002050,-0.00001005,-0.00001912,0.00001041,-0.00001575,-0.00002971,0.00
 000108,-0.00001958,-0.00005245,-0.00001336,-0.00001457,-0.00002396,0.0
 0000522,0.00003129,0.00001729,-0.00006815,-0.00002408,0.00001736,0.000
 06264,-0.00006212,-0.00025486,0.00001729,-0.00001369,0.00002669,-0.000
 00997,-0.00009386,0.00005701,-0.00005515,-0.00007645,0.00005767,0.0002
 6482,0.00013870,0.00036980,0.00065244,0.00050339,0.00002635,0.00138214
 ,-0.00121203,0.00009262,0.00005624,-0.00013334,-0.00019219,-0.00012798
 ,0.00014674,-0.00052767,-0.00012232,-0.00004822,0.00000756,0.00016611,
 -0.00017395,-0.00023271,0.00003369,-0.00004974,-0.00004915,-0.00006365
 ,0.00240675,-0.00799736,-0.00075196,-0.00270907,-0.00128061,0.00070910
 ,0.00281459,0.00278213,0.00009158,-0.00002143,-0.00010031,-0.00006568,
 -0.00000600,-0.00003921,-0.00092809,0.00014033,0.00025495,-0.00177304,
 -0.05138165,-0.04067969,-0.01742351,-0.03197106,-0.00668898,0.01880799
 ,0.08128636,0.05333646\\-0.00000486,-0.00000453,-0.00000100,0.00000657
 ,-0.00000320,-0.00000218,-0.00000148,0.00000188,-0.00000056,0.00000142
 ,-0.00000192,-0.00000154,-0.00000030,-0.00000090,0.00000318,-0.0000065
 5,-0.00001180,-0.00000081,0.00001643,-0.00000698,-0.00000046,-0.000026
 15,0.00002286,0.00000679,0.00000365,-0.00001202,-0.00000250,0.00001182
 ,0.00000411,0.00000199,-0.00000660,0.00000984,0.00000316,-0.00001784,0
 .00000167,-0.00000410,0.00000276,0.00000147,0.00001288,-0.00000767,0.0
 0000447,0.00000223,-0.00000051,0.,0.00000024,-0.00000057,0.00000045,-0
 .00000075,-0.00000065,0.00000055,-0.00000030,0.00000162,-0.00000080,-0
 .00000002,0.00000005,-0.00000004,-0.00000061,-0.00000052,-0.00000034,-
 0.00000082,0.00000003,-0.00000110,-0.00000019,-0.00000065,0.00000047,0
 .00000276,0.00000014,0.00000194,-0.00000176,-0.00000098,-0.00000058,0.
 00000191,0.00000082,-0.00000041,-0.00000025,-0.00000121,-0.00000448,0.
 00000422,0.00000636,0.00001815,-0.00000933,0.00000305,-0.00001226,0.00
 001842,0.00000437,-0.00000310,-0.00000855,0.00000397,-0.00001026,-0.00
 000706,0.00000050,0.00000181,-0.00000235,-0.00000074,0.00000177,-0.000
 00971,-0.00000132,-0.00000026,-0.00000049,-0.00000977,0.00001052,-0.00
 001830,0.00001966,-0.00001430,0.00001280,-0.00000131,0.00000067,0.0000
 0028,-0.00000308,0.00000252,-0.00000023,0.00000325,0.00000166,-0.00000
 134,0.00000104,0.00000063,0.00000123,-0.00000288,-0.00000840,-0.000004
 65,-0.00000018,0.00000495,0.00000609,0.00000831,0.00000527,0.00000168\
 \\@


 IF YOU DON'T HAVE THE LAW - ARGUE THE FACTS.
 IF YOU DON'T HAVE THE FACTS - ARGUE THE LAW.
 IF YOU DON'T HAVE EITHER - POUND THE TABLE.
 Job cpu time:       1 days 22 hours 42 minutes 21.5 seconds.
 Elapsed time:       0 days  1 hours 40 minutes 10.0 seconds.
 File lengths (MBytes):  RWF=   1444 Int=      0 D2E=      0 Chk=     36 Scr=      8
 Normal termination of Gaussian 16 at Fri Dec  9 21:40:33 2022.
