 Entering Gaussian System, Link 0=g16
 Input=NicPyWa5h25.gjf
 Output=NicPyWa5h25.log
 Initial command:
 /sw/contrib/gaussian/g16/A03/g16/l1.exe "/gscratch/scrubbed/gds001/Gau-456.inp" -scrdir="/gscratch/scrubbed/gds001/"
 Entering Link 1 = /sw/contrib/gaussian/g16/A03/g16/l1.exe PID=       457.
  
 Copyright (c) 1988,1990,1992,1993,1995,1998,2003,2009,2016,
            Gaussian, Inc.  All Rights Reserved.
  
 This is part of the Gaussian(R) 16 program.  It is based on
 the Gaussian(R) 09 system (copyright 2009, Gaussian, Inc.),
 the Gaussian(R) 03 system (copyright 2003, Gaussian, Inc.),
 the Gaussian(R) 98 system (copyright 1998, Gaussian, Inc.),
 the Gaussian(R) 94 system (copyright 1995, Gaussian, Inc.),
 the Gaussian 92(TM) system (copyright 1992, Gaussian, Inc.),
 the Gaussian 90(TM) system (copyright 1990, Gaussian, Inc.),
 the Gaussian 88(TM) system (copyright 1988, Gaussian, Inc.),
 the Gaussian 86(TM) system (copyright 1986, Carnegie Mellon
 University), and the Gaussian 82(TM) system (copyright 1983,
 Carnegie Mellon University). Gaussian is a federally registered
 trademark of Gaussian, Inc.
  
 This software contains proprietary and confidential information,
 including trade secrets, belonging to Gaussian, Inc.
  
 This software is provided under written license and may be
 used, copied, transmitted, or stored only in accord with that
 written license.
  
 The following legend is applicable only to US Government
 contracts under FAR:
  
                    RESTRICTED RIGHTS LEGEND
  
 Use, reproduction and disclosure by the US Government is
 subject to restrictions as set forth in subparagraphs (a)
 and (c) of the Commercial Computer Software - Restricted
 Rights clause in FAR 52.227-19.
  
 Gaussian, Inc.
 340 Quinnipiac St., Bldg. 40, Wallingford CT 06492
  
  
 ---------------------------------------------------------------
 Warning -- This program may not be used in any manner that
 competes with the business of Gaussian, Inc. or will provide
 assistance to any competitor of Gaussian, Inc.  The licensee
 of this program is prohibited from giving any competitor of
 Gaussian, Inc. access to this program.  By using this program,
 the user acknowledges that Gaussian, Inc. is engaged in the
 business of creating and licensing software in the field of
 computational chemistry and represents and warrants to the
 licensee that it is not a competitor of Gaussian, Inc. and that
 it will not use this program in any manner prohibited above.
 ---------------------------------------------------------------
  

 Cite this work as:
 Gaussian 16, Revision A.03,
 M. J. Frisch, G. W. Trucks, H. B. Schlegel, G. E. Scuseria, 
 M. A. Robb, J. R. Cheeseman, G. Scalmani, V. Barone, 
 G. A. Petersson, H. Nakatsuji, X. Li, M. Caricato, A. V. Marenich, 
 J. Bloino, B. G. Janesko, R. Gomperts, B. Mennucci, H. P. Hratchian, 
 J. V. Ortiz, A. F. Izmaylov, J. L. Sonnenberg, D. Williams-Young, 
 F. Ding, F. Lipparini, F. Egidi, J. Goings, B. Peng, A. Petrone, 
 T. Henderson, D. Ranasinghe, V. G. Zakrzewski, J. Gao, N. Rega, 
 G. Zheng, W. Liang, M. Hada, M. Ehara, K. Toyota, R. Fukuda, 
 J. Hasegawa, M. Ishida, T. Nakajima, Y. Honda, O. Kitao, H. Nakai, 
 T. Vreven, K. Throssell, J. A. Montgomery, Jr., J. E. Peralta, 
 F. Ogliaro, M. J. Bearpark, J. J. Heyd, E. N. Brothers, K. N. Kudin, 
 V. N. Staroverov, T. A. Keith, R. Kobayashi, J. Normand, 
 K. Raghavachari, A. P. Rendell, J. C. Burant, S. S. Iyengar, 
 J. Tomasi, M. Cossi, J. M. Millam, M. Klene, C. Adamo, R. Cammi, 
 J. W. Ochterski, R. L. Martin, K. Morokuma, O. Farkas, 
 J. B. Foresman, and D. J. Fox, Gaussian, Inc., Wallingford CT, 2016.
 
 ******************************************
 Gaussian 16:  ES64L-G16RevA.03 25-Dec-2016
                 5-Sep-2020 
 ******************************************
 %nprocshared=28
 Will use up to   28 processors via shared memory.
 %mem=41GB
 %chk=NicPyWa5h25.chk
 -----------------------------
 # wB97XD/aug-cc-pVDZ Opt Freq
 -----------------------------
 1/18=20,19=15,26=3,38=1/1,3;
 2/9=110,12=2,17=6,18=5,40=1/2;
 3/5=16,7=10,11=2,25=1,30=1,71=1,74=-58/1,2,3;
 4//1;
 5/5=2,38=5/2;
 6/7=2,8=2,9=2,10=2,28=1/1;
 7//1,2,3,16;
 1/18=20,19=15,26=3/3(2);
 2/9=110/2;
 99//99;
 2/9=110/2;
 3/5=16,7=10,11=2,25=1,30=1,71=1,74=-58/1,2,3;
 4/5=5,16=3,69=1/1;
 5/5=2,38=5/2;
 7//1,2,3,16;
 1/18=20,19=15,26=3/3(-5);
 2/9=110/2;
 6/7=2,8=2,9=2,10=2,19=2,28=1/1;
 99/9=1/99;
 -------------------------------
 p-Py Nornicotine, W anti , 5H2O
 -------------------------------
 Symbolic Z-matrix:
 Charge =  1 Multiplicity = 1
 C                    -2.25827   0.18179   1.33951 
 C                    -1.92597   1.07779   0.12883 
 N                    -2.21121   0.19545  -1.01953 
 C                    -3.50294  -0.43107  -0.67101 
 C                    -3.32209  -0.80748   0.80697 
 C                    -0.52122   1.62904   0.10903 
 C                    -0.26549   3.0015    0.14999 
 C                     1.04306   3.48555   0.14681 
 C                     2.08677   2.57964   0.09277 
 N                     1.82467   1.26627   0.05415 
 C                     0.57931   0.78159   0.06646 
 O                     3.50629  -0.66336  -0.17056 
 O                     2.52678  -2.03186   1.92541 
 O                    -0.1004   -2.60018   1.2281 
 O                    -0.64498  -2.03485  -1.43383 
 H                    -3.69936  -1.29162  -1.32105 
 H                    -4.26896  -0.73959   1.35165 
 H                    -2.95863  -1.83685   0.90107 
 H                    -2.61589   0.78513   2.18024 
 H                    -1.36528  -0.36014   1.67182 
 H                    -4.33251   0.28315  -0.7922 
 H                    -2.62087   1.93515   0.12079 
 H                     0.49739  -0.30251   0.04901 
 H                     3.13534   2.86713   0.07814 
 H                     1.25131   4.55225   0.18037 
 H                    -1.09882   3.704     0.18565 
 C                    -2.32282   0.95422  -2.27099 
 H                     2.62126   0.52173  -0.00995 
 H                    -0.31608  -2.60656   0.27741 
 H                    -0.54857  -3.35682   1.61328 
 H                     3.31608  -1.26809   0.57866 
 H                     3.14402  -1.09582  -0.96669 
 H                     2.94835  -2.6814    2.49193 
 H                     1.62354  -2.35277   1.74754 
 H                    -1.19249  -1.20489  -1.33072 
 H                    -1.15017  -2.63013  -1.994 
 O                     1.94748  -1.35316  -2.31276 
 H                     1.05445  -1.68847  -2.12289 
 H                     2.20629  -1.72226  -3.1601 
 H                    -2.60877   0.28445  -3.0897 
 H                    -1.35905   1.39261  -2.55009 
 H                    -3.06574   1.75779  -2.21157 
 
 Add virtual bond connecting atoms H28        and O12        Dist= 2.81D+00.
 Add virtual bond connecting atoms H31        and O13        Dist= 3.28D+00.
 Add virtual bond connecting atoms H35        and N3         Dist= 3.32D+00.
 Add virtual bond connecting atoms O15        and H29        Dist= 3.47D+00.
 Add virtual bond connecting atoms H34        and O14        Dist= 3.43D+00.
 Add virtual bond connecting atoms O37        and H32        Dist= 3.44D+00.
 Add virtual bond connecting atoms H38        and O15        Dist= 3.53D+00.

 GradGradGradGradGradGradGradGradGradGradGradGradGradGradGradGradGradGrad
 Berny optimization.
 Initialization pass.
                           ----------------------------
                           !    Initial Parameters    !
                           ! (Angstroms and Degrees)  !
 --------------------------                            --------------------------
 ! Name  Definition              Value          Derivative Info.                !
 --------------------------------------------------------------------------------
 ! R1    R(1,2)                  1.5424         estimate D2E/DX2                !
 ! R2    R(1,5)                  1.5472         estimate D2E/DX2                !
 ! R3    R(1,19)                 1.0949         estimate D2E/DX2                !
 ! R4    R(1,20)                 1.0961         estimate D2E/DX2                !
 ! R5    R(2,3)                  1.476          estimate D2E/DX2                !
 ! R6    R(2,6)                  1.5092         estimate D2E/DX2                !
 ! R7    R(2,22)                 1.1036         estimate D2E/DX2                !
 ! R8    R(3,4)                  1.4774         estimate D2E/DX2                !
 ! R9    R(3,27)                 1.4678         estimate D2E/DX2                !
 ! R10   R(3,35)                 1.7594         estimate D2E/DX2                !
 ! R11   R(4,5)                  1.5358         estimate D2E/DX2                !
 ! R12   R(4,16)                 1.0962         estimate D2E/DX2                !
 ! R13   R(4,21)                 1.1013         estimate D2E/DX2                !
 ! R14   R(5,17)                 1.0945         estimate D2E/DX2                !
 ! R15   R(5,18)                 1.0957         estimate D2E/DX2                !
 ! R16   R(6,7)                  1.3967         estimate D2E/DX2                !
 ! R17   R(6,11)                 1.3897         estimate D2E/DX2                !
 ! R18   R(7,8)                  1.3952         estimate D2E/DX2                !
 ! R19   R(7,26)                 1.0905         estimate D2E/DX2                !
 ! R20   R(8,9)                  1.3831         estimate D2E/DX2                !
 ! R21   R(8,25)                 1.0874         estimate D2E/DX2                !
 ! R22   R(9,10)                 1.3398         estimate D2E/DX2                !
 ! R23   R(9,24)                 1.0874         estimate D2E/DX2                !
 ! R24   R(10,11)                1.3364         estimate D2E/DX2                !
 ! R25   R(10,28)                1.0922         estimate D2E/DX2                !
 ! R26   R(11,23)                1.0873         estimate D2E/DX2                !
 ! R27   R(12,28)                1.4878         estimate D2E/DX2                !
 ! R28   R(12,31)                0.9814         estimate D2E/DX2                !
 ! R29   R(12,32)                0.9758         estimate D2E/DX2                !
 ! R30   R(13,31)                1.7378         estimate D2E/DX2                !
 ! R31   R(13,33)                0.9595         estimate D2E/DX2                !
 ! R32   R(13,34)                0.9749         estimate D2E/DX2                !
 ! R33   R(14,29)                0.9749         estimate D2E/DX2                !
 ! R34   R(14,30)                0.9601         estimate D2E/DX2                !
 ! R35   R(14,34)                1.8174         estimate D2E/DX2                !
 ! R36   R(15,29)                1.8339         estimate D2E/DX2                !
 ! R37   R(15,35)                0.9996         estimate D2E/DX2                !
 ! R38   R(15,36)                0.9609         estimate D2E/DX2                !
 ! R39   R(15,38)                1.8662         estimate D2E/DX2                !
 ! R40   R(27,40)                1.0957         estimate D2E/DX2                !
 ! R41   R(27,41)                1.095          estimate D2E/DX2                !
 ! R42   R(27,42)                1.096          estimate D2E/DX2                !
 ! R43   R(32,37)                1.8193         estimate D2E/DX2                !
 ! R44   R(37,38)                0.9726         estimate D2E/DX2                !
 ! R45   R(37,39)                0.9598         estimate D2E/DX2                !
 ! A1    A(2,1,5)              104.4411         estimate D2E/DX2                !
 ! A2    A(2,1,19)             110.6699         estimate D2E/DX2                !
 ! A3    A(2,1,20)             110.4657         estimate D2E/DX2                !
 ! A4    A(5,1,19)             113.0823         estimate D2E/DX2                !
 ! A5    A(5,1,20)             110.3875         estimate D2E/DX2                !
 ! A6    A(19,1,20)            107.8032         estimate D2E/DX2                !
 ! A7    A(1,2,3)              102.8145         estimate D2E/DX2                !
 ! A8    A(1,2,6)              115.0255         estimate D2E/DX2                !
 ! A9    A(1,2,22)             108.7445         estimate D2E/DX2                !
 ! A10   A(3,2,6)              112.8317         estimate D2E/DX2                !
 ! A11   A(3,2,22)             109.6964         estimate D2E/DX2                !
 ! A12   A(6,2,22)             107.5916         estimate D2E/DX2                !
 ! A13   A(2,3,4)              103.8236         estimate D2E/DX2                !
 ! A14   A(2,3,27)             111.6552         estimate D2E/DX2                !
 ! A15   A(2,3,35)             120.0987         estimate D2E/DX2                !
 ! A16   A(4,3,27)             110.7256         estimate D2E/DX2                !
 ! A17   A(4,3,35)             102.1494         estimate D2E/DX2                !
 ! A18   A(27,3,35)            107.7387         estimate D2E/DX2                !
 ! A19   A(3,4,5)              103.1793         estimate D2E/DX2                !
 ! A20   A(3,4,16)             110.4676         estimate D2E/DX2                !
 ! A21   A(3,4,21)             110.9541         estimate D2E/DX2                !
 ! A22   A(5,4,16)             113.5375         estimate D2E/DX2                !
 ! A23   A(5,4,21)             110.7032         estimate D2E/DX2                !
 ! A24   A(16,4,21)            107.9911         estimate D2E/DX2                !
 ! A25   A(1,5,4)              104.8024         estimate D2E/DX2                !
 ! A26   A(1,5,17)             112.5745         estimate D2E/DX2                !
 ! A27   A(1,5,18)             110.0619         estimate D2E/DX2                !
 ! A28   A(4,5,17)             111.2129         estimate D2E/DX2                !
 ! A29   A(4,5,18)             110.6074         estimate D2E/DX2                !
 ! A30   A(17,5,18)            107.6086         estimate D2E/DX2                !
 ! A31   A(2,6,7)              121.9361         estimate D2E/DX2                !
 ! A32   A(2,6,11)             120.9843         estimate D2E/DX2                !
 ! A33   A(7,6,11)             117.0744         estimate D2E/DX2                !
 ! A34   A(6,7,8)              120.8356         estimate D2E/DX2                !
 ! A35   A(6,7,26)             119.6084         estimate D2E/DX2                !
 ! A36   A(8,7,26)             119.556          estimate D2E/DX2                !
 ! A37   A(7,8,9)              118.7243         estimate D2E/DX2                !
 ! A38   A(7,8,25)             121.3256         estimate D2E/DX2                !
 ! A39   A(9,8,25)             119.9493         estimate D2E/DX2                !
 ! A40   A(8,9,10)             119.7071         estimate D2E/DX2                !
 ! A41   A(8,9,24)             123.7141         estimate D2E/DX2                !
 ! A42   A(10,9,24)            116.5788         estimate D2E/DX2                !
 ! A43   A(9,10,11)            122.5163         estimate D2E/DX2                !
 ! A44   A(9,10,28)            121.8179         estimate D2E/DX2                !
 ! A45   A(11,10,28)           115.6549         estimate D2E/DX2                !
 ! A46   A(6,11,10)            121.1384         estimate D2E/DX2                !
 ! A47   A(6,11,23)            123.2874         estimate D2E/DX2                !
 ! A48   A(10,11,23)           115.5724         estimate D2E/DX2                !
 ! A49   A(28,12,31)           107.0443         estimate D2E/DX2                !
 ! A50   A(28,12,32)           102.7243         estimate D2E/DX2                !
 ! A51   A(31,12,32)           106.13           estimate D2E/DX2                !
 ! A52   A(31,13,33)           123.749          estimate D2E/DX2                !
 ! A53   A(31,13,34)           115.0923         estimate D2E/DX2                !
 ! A54   A(33,13,34)           106.9752         estimate D2E/DX2                !
 ! A55   A(29,14,30)           106.4281         estimate D2E/DX2                !
 ! A56   A(29,14,34)           119.3061         estimate D2E/DX2                !
 ! A57   A(30,14,34)           115.8118         estimate D2E/DX2                !
 ! A58   A(29,15,35)           105.1182         estimate D2E/DX2                !
 ! A59   A(29,15,36)           116.4304         estimate D2E/DX2                !
 ! A60   A(29,15,38)           103.8315         estimate D2E/DX2                !
 ! A61   A(35,15,36)           106.6504         estimate D2E/DX2                !
 ! A62   A(35,15,38)           112.5038         estimate D2E/DX2                !
 ! A63   A(36,15,38)           112.2398         estimate D2E/DX2                !
 ! A64   A(3,27,40)            109.9323         estimate D2E/DX2                !
 ! A65   A(3,27,41)            110.9392         estimate D2E/DX2                !
 ! A66   A(3,27,42)            112.6038         estimate D2E/DX2                !
 ! A67   A(40,27,41)           106.4969         estimate D2E/DX2                !
 ! A68   A(40,27,42)           108.1665         estimate D2E/DX2                !
 ! A69   A(41,27,42)           108.4763         estimate D2E/DX2                !
 ! A70   A(14,29,15)           161.3667         estimate D2E/DX2                !
 ! A71   A(12,31,13)           161.8836         estimate D2E/DX2                !
 ! A72   A(12,32,37)           155.5832         estimate D2E/DX2                !
 ! A73   A(32,37,38)           120.5444         estimate D2E/DX2                !
 ! A74   A(32,37,39)           122.0219         estimate D2E/DX2                !
 ! A75   A(38,37,39)           106.6999         estimate D2E/DX2                !
 ! A76   L(10,28,12,14,-1)     171.1573         estimate D2E/DX2                !
 ! A77   L(13,34,14,7,-1)      167.7828         estimate D2E/DX2                !
 ! A78   L(3,35,15,9,-1)       181.4624         estimate D2E/DX2                !
 ! A79   L(15,38,37,6,-1)      167.4191         estimate D2E/DX2                !
 ! A80   L(10,28,12,14,-2)     174.2458         estimate D2E/DX2                !
 ! A81   L(13,34,14,7,-2)      176.7302         estimate D2E/DX2                !
 ! A82   L(3,35,15,9,-2)       175.0325         estimate D2E/DX2                !
 ! A83   L(15,38,37,6,-2)      174.7483         estimate D2E/DX2                !
 ! D1    D(5,1,2,3)            -27.423          estimate D2E/DX2                !
 ! D2    D(5,1,2,6)           -150.472          estimate D2E/DX2                !
 ! D3    D(5,1,2,22)            88.8209         estimate D2E/DX2                !
 ! D4    D(19,1,2,3)          -149.4185         estimate D2E/DX2                !
 ! D5    D(19,1,2,6)            87.5325         estimate D2E/DX2                !
 ! D6    D(19,1,2,22)          -33.1746         estimate D2E/DX2                !
 ! D7    D(20,1,2,3)            91.2674         estimate D2E/DX2                !
 ! D8    D(20,1,2,6)           -31.7816         estimate D2E/DX2                !
 ! D9    D(20,1,2,22)         -152.4887         estimate D2E/DX2                !
 ! D10   D(2,1,5,4)              1.1455         estimate D2E/DX2                !
 ! D11   D(2,1,5,17)          -119.8633         estimate D2E/DX2                !
 ! D12   D(2,1,5,18)           120.0968         estimate D2E/DX2                !
 ! D13   D(19,1,5,4)           121.5412         estimate D2E/DX2                !
 ! D14   D(19,1,5,17)            0.5324         estimate D2E/DX2                !
 ! D15   D(19,1,5,18)         -119.5075         estimate D2E/DX2                !
 ! D16   D(20,1,5,4)          -117.5981         estimate D2E/DX2                !
 ! D17   D(20,1,5,17)          121.3931         estimate D2E/DX2                !
 ! D18   D(20,1,5,18)            1.3532         estimate D2E/DX2                !
 ! D19   D(1,2,3,4)             44.7103         estimate D2E/DX2                !
 ! D20   D(1,2,3,27)           164.0391         estimate D2E/DX2                !
 ! D21   D(1,2,3,35)           -68.4401         estimate D2E/DX2                !
 ! D22   D(6,2,3,4)            169.2149         estimate D2E/DX2                !
 ! D23   D(6,2,3,27)           -71.4563         estimate D2E/DX2                !
 ! D24   D(6,2,3,35)            56.0645         estimate D2E/DX2                !
 ! D25   D(22,2,3,4)           -70.8501         estimate D2E/DX2                !
 ! D26   D(22,2,3,27)           48.4787         estimate D2E/DX2                !
 ! D27   D(22,2,3,35)          175.9994         estimate D2E/DX2                !
 ! D28   D(1,2,6,7)           -118.2105         estimate D2E/DX2                !
 ! D29   D(1,2,6,11)            60.9368         estimate D2E/DX2                !
 ! D30   D(3,2,6,7)            124.2646         estimate D2E/DX2                !
 ! D31   D(3,2,6,11)           -56.588          estimate D2E/DX2                !
 ! D32   D(22,2,6,7)             3.1258         estimate D2E/DX2                !
 ! D33   D(22,2,6,11)         -177.7269         estimate D2E/DX2                !
 ! D34   D(2,3,4,5)            -44.0592         estimate D2E/DX2                !
 ! D35   D(2,3,4,16)          -165.7403         estimate D2E/DX2                !
 ! D36   D(2,3,4,21)            74.5267         estimate D2E/DX2                !
 ! D37   D(27,3,4,5)          -164.0213         estimate D2E/DX2                !
 ! D38   D(27,3,4,16)           74.2977         estimate D2E/DX2                !
 ! D39   D(27,3,4,21)          -45.4354         estimate D2E/DX2                !
 ! D40   D(35,3,4,5)            81.4796         estimate D2E/DX2                !
 ! D41   D(35,3,4,16)          -40.2014         estimate D2E/DX2                !
 ! D42   D(35,3,4,21)         -159.9345         estimate D2E/DX2                !
 ! D43   D(2,3,15,29)           37.0567         estimate D2E/DX2                !
 ! D44   D(2,3,15,36)          159.9112         estimate D2E/DX2                !
 ! D45   D(2,3,15,38)          -74.7926         estimate D2E/DX2                !
 ! D46   D(4,3,15,29)          -75.7587         estimate D2E/DX2                !
 ! D47   D(4,3,15,36)           47.0957         estimate D2E/DX2                !
 ! D48   D(4,3,15,38)          172.392          estimate D2E/DX2                !
 ! D49   D(27,3,15,29)         167.4752         estimate D2E/DX2                !
 ! D50   D(27,3,15,36)         -69.6704         estimate D2E/DX2                !
 ! D51   D(27,3,15,38)          55.6259         estimate D2E/DX2                !
 ! D52   D(2,3,27,40)         -175.7466         estimate D2E/DX2                !
 ! D53   D(2,3,27,41)           66.7257         estimate D2E/DX2                !
 ! D54   D(2,3,27,42)          -55.0682         estimate D2E/DX2                !
 ! D55   D(4,3,27,40)          -60.5897         estimate D2E/DX2                !
 ! D56   D(4,3,27,41)         -178.1174         estimate D2E/DX2                !
 ! D57   D(4,3,27,42)           60.0887         estimate D2E/DX2                !
 ! D58   D(35,3,27,40)          50.3444         estimate D2E/DX2                !
 ! D59   D(35,3,27,41)         -67.1834         estimate D2E/DX2                !
 ! D60   D(35,3,27,42)         171.0228         estimate D2E/DX2                !
 ! D61   D(3,4,5,1)             25.5395         estimate D2E/DX2                !
 ! D62   D(3,4,5,17)           147.4428         estimate D2E/DX2                !
 ! D63   D(3,4,5,18)           -93.0436         estimate D2E/DX2                !
 ! D64   D(16,4,5,1)           145.1256         estimate D2E/DX2                !
 ! D65   D(16,4,5,17)          -92.9711         estimate D2E/DX2                !
 ! D66   D(16,4,5,18)           26.5425         estimate D2E/DX2                !
 ! D67   D(21,4,5,1)           -93.221          estimate D2E/DX2                !
 ! D68   D(21,4,5,17)           28.6824         estimate D2E/DX2                !
 ! D69   D(21,4,5,18)          148.196          estimate D2E/DX2                !
 ! D70   D(2,6,7,8)            179.2217         estimate D2E/DX2                !
 ! D71   D(2,6,7,26)            -0.7338         estimate D2E/DX2                !
 ! D72   D(11,6,7,8)             0.0426         estimate D2E/DX2                !
 ! D73   D(11,6,7,26)         -179.9128         estimate D2E/DX2                !
 ! D74   D(2,6,11,10)         -179.733          estimate D2E/DX2                !
 ! D75   D(2,6,11,23)           -0.2305         estimate D2E/DX2                !
 ! D76   D(7,6,11,10)           -0.5456         estimate D2E/DX2                !
 ! D77   D(7,6,11,23)          178.9569         estimate D2E/DX2                !
 ! D78   D(6,7,8,9)              0.4468         estimate D2E/DX2                !
 ! D79   D(6,7,8,25)          -179.8852         estimate D2E/DX2                !
 ! D80   D(26,7,8,9)          -179.5978         estimate D2E/DX2                !
 ! D81   D(26,7,8,25)            0.0703         estimate D2E/DX2                !
 ! D82   D(7,8,9,10)            -0.4545         estimate D2E/DX2                !
 ! D83   D(7,8,9,24)           179.4891         estimate D2E/DX2                !
 ! D84   D(25,8,9,10)          179.8727         estimate D2E/DX2                !
 ! D85   D(25,8,9,24)           -0.1836         estimate D2E/DX2                !
 ! D86   D(8,9,10,11)           -0.0427         estimate D2E/DX2                !
 ! D87   D(8,9,10,28)          178.7013         estimate D2E/DX2                !
 ! D88   D(24,9,10,11)        -179.9903         estimate D2E/DX2                !
 ! D89   D(24,9,10,28)          -1.2462         estimate D2E/DX2                !
 ! D90   D(9,10,11,6)            0.5624         estimate D2E/DX2                !
 ! D91   D(9,10,11,23)        -178.9765         estimate D2E/DX2                !
 ! D92   D(28,10,11,6)        -178.2536         estimate D2E/DX2                !
 ! D93   D(28,10,11,23)          2.2074         estimate D2E/DX2                !
 ! D94   D(9,10,12,31)         126.6789         estimate D2E/DX2                !
 ! D95   D(9,10,12,32)        -123.5699         estimate D2E/DX2                !
 ! D96   D(11,10,12,31)        -56.3531         estimate D2E/DX2                !
 ! D97   D(11,10,12,32)         53.398          estimate D2E/DX2                !
 ! D98   D(28,12,31,13)         18.2478         estimate D2E/DX2                !
 ! D99   D(32,12,31,13)        -90.9288         estimate D2E/DX2                !
 ! D100  D(28,12,32,37)         -8.0442         estimate D2E/DX2                !
 ! D101  D(31,12,32,37)        104.1724         estimate D2E/DX2                !
 ! D102  D(31,13,14,29)         18.0521         estimate D2E/DX2                !
 ! D103  D(31,13,14,30)        149.6981         estimate D2E/DX2                !
 ! D104  D(33,13,14,29)       -126.1105         estimate D2E/DX2                !
 ! D105  D(33,13,14,30)          5.5355         estimate D2E/DX2                !
 ! D106  D(33,13,31,12)       -170.135          estimate D2E/DX2                !
 ! D107  D(34,13,31,12)         55.39           estimate D2E/DX2                !
 ! D108  D(30,14,29,15)        151.1141         estimate D2E/DX2                !
 ! D109  D(34,14,29,15)        -75.5657         estimate D2E/DX2                !
 ! D110  D(35,15,29,14)        -41.2268         estimate D2E/DX2                !
 ! D111  D(36,15,29,14)       -158.9846         estimate D2E/DX2                !
 ! D112  D(38,15,29,14)         77.1209         estimate D2E/DX2                !
 ! D113  D(29,15,37,32)        -18.8418         estimate D2E/DX2                !
 ! D114  D(29,15,37,39)        130.0452         estimate D2E/DX2                !
 ! D115  D(35,15,37,32)         91.987          estimate D2E/DX2                !
 ! D116  D(35,15,37,39)       -119.1261         estimate D2E/DX2                !
 ! D117  D(36,15,37,32)       -146.6529         estimate D2E/DX2                !
 ! D118  D(36,15,37,39)          2.2341         estimate D2E/DX2                !
 ! D119  D(12,32,37,38)        -68.8682         estimate D2E/DX2                !
 ! D120  D(12,32,37,39)        151.4397         estimate D2E/DX2                !
 --------------------------------------------------------------------------------
 Trust Radius=3.00D-01 FncErr=1.00D-07 GrdErr=1.00D-06 EigMax=2.50D+02 EigMin=1.00D-04
 Number of steps in this run=    252 maximum allowed number of steps=    252.
 GradGradGradGradGradGradGradGradGradGradGradGradGradGradGradGradGradGrad

                          Input orientation:                          
 ---------------------------------------------------------------------
 Center     Atomic      Atomic             Coordinates (Angstroms)
 Number     Number       Type             X           Y           Z
 ---------------------------------------------------------------------
      1          6           0       -2.258266    0.181787    1.339511
      2          6           0       -1.925968    1.077787    0.128832
      3          7           0       -2.211212    0.195447   -1.019534
      4          6           0       -3.502944   -0.431068   -0.671005
      5          6           0       -3.322086   -0.807480    0.806966
      6          6           0       -0.521219    1.629035    0.109034
      7          6           0       -0.265493    3.001499    0.149993
      8          6           0        1.043060    3.485553    0.146809
      9          6           0        2.086771    2.579637    0.092765
     10          7           0        1.824670    1.266266    0.054152
     11          6           0        0.579306    0.781591    0.066455
     12          8           0        3.506287   -0.663357   -0.170558
     13          8           0        2.526782   -2.031863    1.925405
     14          8           0       -0.100404   -2.600175    1.228099
     15          8           0       -0.644980   -2.034849   -1.433831
     16          1           0       -3.699355   -1.291617   -1.321047
     17          1           0       -4.268960   -0.739587    1.351645
     18          1           0       -2.958629   -1.836854    0.901074
     19          1           0       -2.615886    0.785132    2.180240
     20          1           0       -1.365282   -0.360139    1.671816
     21          1           0       -4.332512    0.283145   -0.792195
     22          1           0       -2.620871    1.935145    0.120790
     23          1           0        0.497386   -0.302512    0.049009
     24          1           0        3.135340    2.867128    0.078139
     25          1           0        1.251310    4.552254    0.180368
     26          1           0       -1.098822    3.704004    0.185648
     27          6           0       -2.322823    0.954224   -2.270987
     28          1           0        2.621259    0.521725   -0.009947
     29          1           0       -0.316083   -2.606559    0.277409
     30          1           0       -0.548568   -3.356815    1.613275
     31          1           0        3.316080   -1.268090    0.578658
     32          1           0        3.144017   -1.095819   -0.966694
     33          1           0        2.948346   -2.681399    2.491930
     34          1           0        1.623543   -2.352772    1.747542
     35          1           0       -1.192485   -1.204890   -1.330724
     36          1           0       -1.150167   -2.630133   -1.994000
     37          8           0        1.947478   -1.353164   -2.312757
     38          1           0        1.054450   -1.688472   -2.122887
     39          1           0        2.206291   -1.722258   -3.160098
     40          1           0       -2.608771    0.284445   -3.089702
     41          1           0       -1.359052    1.392607   -2.550094
     42          1           0       -3.065737    1.757791   -2.211573
 ---------------------------------------------------------------------
                    Distance matrix (angstroms):
                    1          2          3          4          5
     1  C    0.000000
     2  C    1.542395   0.000000
     3  N    2.359554   1.476019   0.000000
     4  C    2.442742   2.324486   1.477351   0.000000
     5  C    1.547245   2.441975   2.361357   1.535837   0.000000
     6  C    2.574089   1.509167   2.486949   3.707178   3.777376
     7  C    3.651968   2.541317   3.609369   4.789326   4.927747
     8  C    4.820390   3.822668   4.772362   6.055980   6.157957
     9  C    5.116972   4.284732   5.039269   6.394732   6.421712
    10  N    4.415723   3.756113   4.311357   5.638286   5.599665
    11  C    3.167373   2.523494   3.051217   4.321939   4.277191
    12  O    6.018692   5.712321   5.843638   7.030912   6.899493
    13  O    5.304734   5.720540   6.006843   6.757328   6.079414
    14  O    3.522512   4.250703   4.162075   4.459697   3.710841
    15  O    3.899691   3.710977   2.756618   3.364814   3.700608
    16  H    3.365446   3.295622   2.125286   1.096210   2.214760
    17  H    2.211779   3.207449   3.275837   2.184737   1.094466
    18  H    2.181203   3.187143   2.894411   2.178060   1.095704
    19  H    1.094871   2.184012   3.278726   3.224223   2.218336
    20  H    1.096144   2.182384   2.875350   3.172293   2.185672
    21  H    2.976061   2.696516   2.135249   1.101349   2.183515
    22  H    2.165878   1.103638   2.120073   2.646499   2.912822
    23  H    3.081162   2.790025   2.954023   4.066643   3.926558
    24  H    6.155737   5.368533   6.076873   7.450243   7.465406
    25  H    5.723785   4.708468   5.693030   6.939832   7.073565
    26  H    3.883519   2.753982   3.872964   4.859267   5.067783
    27  C    3.692767   2.435548   1.467765   2.423151   3.684552
    28  H    5.074087   4.583202   4.947575   6.233031   6.144712
    29  H    3.560198   4.023458   3.622818   3.973454   3.543045
    30  H    3.939507   4.875089   4.723837   4.744077   3.852486
    31  H    5.809851   5.760603   5.936928   6.982933   6.658043
    32  H    6.011283   5.624010   5.508960   6.686660   6.711147
    33  H    6.052662   6.593531   6.872238   7.529096   6.757884
    34  H    4.653914   5.194996   5.371729   5.985247   5.266105
    35  H    3.192008   2.806941   1.759428   2.524332   3.043494
    36  H    4.499675   4.342459   3.171640   3.481632   3.985562
    37  O    5.777839   5.184059   4.622264   5.766516   6.148069
    38  H    5.143944   4.648152   3.928242   4.945591   5.339874
    39  H    6.618469   5.977698   5.270099   6.360670   6.865666
    40  H    4.444246   3.384461   2.109875   2.676117   4.109154
    41  H    4.171774   2.756293   2.121788   3.384234   4.468080
    42  H    3.968122   2.690534   2.142916   2.712122   3.969623
                    6          7          8          9         10
     6  C    0.000000
     7  C    1.396686   0.000000
     8  C    2.427973   1.395217   0.000000
     9  C    2.775882   2.390479   1.383090   0.000000
    10  N    2.374407   2.718272   2.354726   1.339825   0.000000
    11  C    1.389651   2.376690   2.744619   2.346511   1.336410
    12  O    4.642633   5.268799   4.835459   3.549842   2.569392
    13  O    5.098204   6.023589   5.983871   4.981778   3.856450
    14  O    4.394953   5.706866   6.285919   5.736128   4.475872
    15  O    3.977411   5.293138   5.985210   5.575521   4.382993
    16  H    4.547075   5.690888   6.889590   7.103853   6.240897
    17  H    4.604347   5.609585   6.893547   7.279927   6.545171
    18  H    4.310531   5.588091   6.701526   6.753874   5.764250
    19  H    3.064261   3.815565   4.981466   5.449108   4.946744
    20  H    2.666748   3.850466   4.786972   4.801287   3.929100
    21  H    4.141206   4.981748   6.327236   6.874898   6.292354
    22  H    2.121881   2.585685   3.978547   4.751636   4.496073
    23  H    2.184498   3.392443   3.828415   3.291632   2.054939
    24  H    3.860603   3.404245   2.182842   1.087365   2.069104
    25  H    3.419380   2.169437   1.087357   2.144035   3.338022
    26  H    2.155224   1.090514   2.153343   3.379472   3.808761
    27  C    3.060335   3.779562   4.856185   5.260591   4.765012
    28  H    3.333986   3.808963   3.361482   2.128668   1.092247
    29  H    4.243900   5.609733   6.243249   5.718779   4.430738
    30  H    5.207897   6.530657   7.176476   6.670714   5.425495
    31  H    4.831019   5.589348   5.286798   4.068451   2.987034
    32  H    4.692118   5.446078   5.161674   3.968526   2.891755
    33  H    6.024609   6.936048   6.867387   5.846093   4.773832
    34  H    4.810353   5.898206   6.081558   5.223172   4.000682
    35  H    3.248789   4.554728   5.401946   5.206005   4.138565
    36  H    4.791538   6.090536   6.840681   6.478739   5.312862
    37  O    4.566514   5.470418   5.502783   4.612251   3.532528
    38  H    4.297680   5.376250   5.649972   4.918491   3.750095
    39  H    5.418275   6.275372   6.277741   5.394599   4.405487
    40  H    4.049409   4.834145   5.835920   6.119160   5.522970
    41  H    2.798003   3.327893   4.174188   4.501937   4.115112
    42  H    3.446210   3.868484   5.042751   5.703836   5.412133
                   11         12         13         14         15
    11  C    0.000000
    12  O    3.272807   0.000000
    13  O    3.894083   2.687992   0.000000
    14  O    3.639748   4.326168   2.776926   0.000000
    15  O    3.417904   4.550809   4.620016   2.775253   0.000000
    16  H    4.952807   7.323907   7.060609   4.600317   3.145524
    17  H    5.241315   7.923218   6.941274   4.566608   4.750770
    18  H    4.479936   6.657374   5.583638   2.976416   3.293016
    19  H    3.831103   6.716053   5.869194   4.323717   4.989817
    20  H    2.768060   5.217132   4.243481   2.610472   3.601185
    21  H    5.011156   7.920168   7.732692   5.505076   4.402577
    22  H    3.402172   6.661769   6.744785   5.305470   4.699132
    23  H    1.087334   3.038405   3.260363   2.650823   2.550452
    24  H    3.298926   3.558620   5.270944   6.456303   6.372303
    25  H    3.831770   5.693037   6.929833   7.354054   7.042122
    26  H    3.372064   6.356709   7.005136   6.467319   5.980227
    27  C    3.730388   6.403663   7.074256   5.460449   3.528533
    28  H    2.059840   1.487780   3.205515   4.322785   4.385411
    29  H    3.510810   4.311290   3.335873   0.974869   1.833949
    30  H    4.559732   5.184460   3.363138   0.960060   3.322912
    31  H    3.457380   0.981430   1.737834   3.724055   4.508661
    32  H    3.342126   0.975754   3.101837   4.196007   3.931475
    33  H    4.846399   3.387128   0.959460   3.301324   5.361121
    34  H    3.706847   3.174580   0.974915   1.817422   3.920256
    35  H    3.006237   4.870082   5.011907   3.112400   0.999612
    36  H    4.344699   5.373613   5.407367   3.388926   0.960919
    37  O    3.477028   2.737652   4.331079   4.276274   2.821001
    38  H    3.334695   3.297568   4.321383   3.659781   1.866236
    39  H    4.396247   3.427625   5.104989   5.034665   3.347754
    40  H    4.513571   6.842052   7.542579   5.766832   3.460854
    41  H    3.313140   5.793160   6.845202   5.639259   3.674697
    42  H    4.407802   7.295149   7.921637   6.294157   4.566078
                   16         17         18         19         20
    16  H    0.000000
    17  H    2.787915   0.000000
    18  H    2.404949   1.767477   0.000000
    19  H    4.212577   2.396663   2.937439   0.000000
    20  H    3.908040   2.945817   2.305100   1.770353   0.000000
    21  H    1.777765   2.376146   3.041235   3.469029   3.910194
    22  H    3.695134   3.374225   3.866639   2.358790   3.041466
    23  H    4.524159   4.960438   3.876114   3.926522   2.471104
    24  H    8.121942   8.333899   7.742166   6.467622   5.762869
    25  H    7.804752   7.736204   7.685291   5.757248   5.762168
    26  H    5.830020   5.581651   5.888279   3.847037   4.335545
    27  C    2.800184   4.447461   4.272744   4.464068   4.264989
    28  H    6.705025   7.135822   6.126010   5.682780   4.415713
    29  H    3.966190   4.501645   2.822136   4.518122   2.844572
    30  H    4.775222   4.556276   2.936989   4.663794   3.106528
    31  H    7.268133   7.642621   6.308678   6.478349   4.892292
    32  H    6.855337   7.775206   6.424950   6.827712   5.276053
    33  H    7.788595   7.560449   6.175470   6.563129   4.966711
    34  H    6.235025   6.122148   4.688174   5.292110   3.592965
    35  H    2.508388   4.108078   2.915401   4.279384   3.123893
    36  H    2.956831   4.949179   3.504466   5.588975   4.317100
    37  O    5.733585   7.242128   5.884943   6.751564   5.276106
    38  H    4.837262   6.427398   5.027043   6.173086   4.692477
    39  H    6.200340   7.953008   6.571351   7.619685   6.161079
    40  H    2.607966   4.850818   4.533057   5.293678   4.963246
    41  H    3.767311   5.313886   4.989852   4.932010   4.571289
    42  H    3.239351   4.514550   4.756208   4.520669   4.738975
                   21         22         23         24         25
    21  H    0.000000
    22  H    2.548011   0.000000
    23  H    4.937462   3.838722   0.000000
    24  H    7.950048   5.831327   4.123866   0.000000
    25  H    7.095790   4.674034   4.914714   2.529757   0.000000
    26  H    4.807827   2.334460   4.314942   4.317412   2.498535
    27  C    2.583800   2.602237   3.862039   6.242527   5.632885
    28  H    7.001697   5.430909   2.278964   2.402697   4.261237
    29  H    5.062227   5.095454   2.454085   6.474047   7.329034
    30  H    5.775277   5.875950   3.587438   7.393598   8.236878
    31  H    7.923795   6.761490   3.026203   4.169318   6.188563
    32  H    7.604635   6.603279   2.943747   4.098378   6.066203
    33  H    8.519677   7.612553   4.199306   6.053718   7.781323
    34  H    6.990917   6.248808   2.890815   5.685050   7.090414
    35  H    3.516252   3.742593   2.360850   6.107069   6.434302
    36  H    4.478710   5.241858   3.508010   7.271809   7.879191
    37  O    6.665425   6.132287   2.963878   4.993823   6.447812
    38  H    5.888750   5.627848   2.635970   5.470659   6.655103
    39  H    7.237717   6.887838   3.903127   5.693134   7.172183
    40  H    2.872251   3.610016   4.454687   7.049843   6.618744
    41  H    3.628027   3.003358   3.615954   5.411227   4.924711
    42  H    2.407059   2.381024   4.695841   6.702743   5.671622
                   26         27         28         29         30
    26  H    0.000000
    27  C    3.885168   0.000000
    28  H    4.899404   5.453742   0.000000
    29  H    6.359584   4.816690   4.300780   0.000000
    30  H    7.224684   6.067992   5.265522   1.549668   0.000000
    31  H    6.660896   6.697491   2.008151   3.882635   4.513171
    32  H    6.509061   5.982491   1.950664   3.975226   5.040191
    33  H    7.903915   7.980499   4.077546   3.945403   3.668328
    34  H    6.821680   6.531355   3.513821   2.447008   2.396705
    35  H    5.138618   2.612189   4.389794   2.306263   3.703045
    36  H    6.698865   3.781462   5.300408   2.419825   3.728595
    37  O    6.410688   4.853994   3.045016   3.661102   5.065431
    38  H    6.248577   4.290891   3.435750   2.912502   4.394535
    39  H    7.180676   5.335442   3.889873   4.354402   5.748575
    40  H    4.970035   1.095748   6.074077   4.995174   6.294538
    41  H    3.590899   1.094959   4.801422   5.007583   6.367695
    42  H    3.661034   1.095980   6.222294   5.727406   6.864750
                   31         32         33         34         35
    31  H    0.000000
    32  H    1.564415   0.000000
    33  H    2.406923   3.809781   0.000000
    34  H    2.325405   3.355421   1.554739   0.000000
    35  H    4.896620   4.353121   5.825740   4.327051   0.000000
    36  H    5.331144   4.674344   6.076513   4.665783   1.572591
    37  O    3.200092   1.819290   5.084384   4.194065   3.293287
    38  H    3.548244   2.460551   5.086185   3.968045   2.431068
    39  H    3.926346   2.466329   5.780659   4.982176   3.894349
    40  H    7.139404   6.285449   8.416199   6.947397   2.705178
    41  H    6.222962   5.383033   7.782879   6.433771   2.874300
    42  H    7.594006   6.946500   8.831678   7.386519   3.614201
                   36         37         38         39         40
    36  H    0.000000
    37  O    3.365659   0.000000
    38  H    2.400765   0.972616   0.000000
    39  H    3.667401   0.959792   1.550382   0.000000
    40  H    3.438438   4.903551   4.271572   5.216957   0.000000
    41  H    4.066363   4.304501   3.937073   4.773485   1.755277
    42  H    4.792768   5.900898   5.372200   6.387857   1.775015
                   41         42
    41  H    0.000000
    42  H    1.777844   0.000000
 Stoichiometry    C10H25N2O5(1+)
 Framework group  C1[X(C10H25N2O5)]
 Deg. of freedom   120
 Full point group                 C1      NOp   1
 Largest Abelian subgroup         C1      NOp   1
 Largest concise Abelian subgroup C1      NOp   1
                         Standard orientation:                         
 ---------------------------------------------------------------------
 Center     Atomic      Atomic             Coordinates (Angstroms)
 Number     Number       Type             X           Y           Z
 ---------------------------------------------------------------------
      1          6           0        1.964190   -0.194508   -1.679698
      2          6           0        1.848243    0.801849   -0.508028
      3          7           0        2.158100   -0.036574    0.666565
      4          6           0        3.338160   -0.817235    0.241605
      5          6           0        2.971449   -1.258764   -1.182954
      6          6           0        0.515426    1.500487   -0.393615
      7          6           0        0.396386    2.887609   -0.505211
      8          6           0       -0.849673    3.508280   -0.411746
      9          6           0       -1.968427    2.724064   -0.196501
     10          7           0       -1.837364    1.394771   -0.091934
     11          6           0       -0.654833    0.779708   -0.188431
     12          8           0       -3.673273   -0.327116    0.424128
     13          8           0       -3.054073   -1.913998   -1.655222
     14          8           0       -0.440396   -2.718058   -1.172001
     15          8           0        0.425329   -2.058030    1.380823
     16          1           0        3.511781   -1.653957    0.928213
     17          1           0        3.860238   -1.324901   -1.818198
     18          1           0        2.498520   -2.247074   -1.170666
     19          1           0        2.293686    0.316375   -2.590287
     20          1           0        0.992112   -0.656418   -1.887628
     21          1           0        4.243425   -0.190013    0.233940
     22          1           0        2.623171    1.578873   -0.625235
     23          1           0       -0.681159   -0.304001   -0.103721
     24          1           0       -2.975804    3.122495   -0.102656
     25          1           0       -0.951766    4.587287   -0.499295
     26          1           0        1.288296    3.493544   -0.668184
     27          6           0        2.471822    0.778484    1.846224
     28          1           0       -2.694261    0.744862    0.098722
     29          1           0       -0.131214   -2.691326   -0.247847
     30          1           0       -0.112068   -3.539743   -1.544493
     31          1           0       -3.621855   -0.991925   -0.296004
     32          1           0       -3.277577   -0.748084    1.210452
     33          1           0       -3.594144   -2.547003   -2.132916
     34          1           0       -2.174390   -2.318672   -1.541835
     35          1           0        1.040346   -1.298988    1.169084
     36          1           0        0.922162   -2.669834    1.930568
     37          8           0       -1.982797   -1.052062    2.451806
     38          1           0       -1.151943   -1.491654    2.201963
     39          1           0       -2.190240   -1.340637    3.343374
     40          1           0        2.770369    0.131482    2.678643
     41          1           0        1.590375    1.333221    2.184239
     42          1           0        3.282014    1.492998    1.661209
 ---------------------------------------------------------------------
 Rotational constants (GHZ):           0.4280891           0.3289243           0.2553765
 Standard basis: Aug-CC-pVDZ (5D, 7F)
 There are   650 symmetry adapted cartesian basis functions of A   symmetry.
 There are   616 symmetry adapted basis functions of A   symmetry.
   616 basis functions,  1006 primitive gaussians,   650 cartesian basis functions
    69 alpha electrons       69 beta electrons
       nuclear repulsion energy      1418.1686956800 Hartrees.
 NAtoms=   42 NActive=   42 NUniq=   42 SFac= 1.00D+00 NAtFMM=   60 NAOKFM=F Big=F
 Integral buffers will be    131072 words long.
 Raffenetti 2 integral format.
 Two-electron integral symmetry is turned on.
 Nuclear repulsion after empirical dispersion term =     1418.1335564433 Hartrees.
 One-electron integrals computed using PRISM.
 NBasis=   616 RedAO= T EigKep=  1.08D-06  NBF=   616
 NBsUse=   616 1.00D-06 EigRej= -1.00D+00 NBFU=   616
 ExpMin= 2.97D-02 ExpMax= 1.17D+04 ExpMxC= 4.01D+02 IAcc=3 IRadAn=         5 AccDes= 0.00D+00
 Harris functional with IExCor= 4639 and IRadAn=       5 diagonalized for initial guess.
 HarFok:  IExCor= 4639 AccDes= 0.00D+00 IRadAn=         5 IDoV= 1 UseB2=F ITyADJ=14
 ICtDFT=  3500011 ScaDFX=  1.000000  1.000000  1.000000  1.000000
 FoFCou: FMM=F IPFlag=           0 FMFlag=      100000 FMFlg1=           0
         NFxFlg=           0 DoJE=T BraDBF=F KetDBF=T FulRan=T
         wScrn=  0.000000 ICntrl=       500 IOpCl=  0 I1Cent=   200000004 NGrid=           0
         NMat0=    1 NMatS0=      1 NMatT0=    0 NMatD0=    1 NMtDS0=    0 NMtDT0=    0
 Petite list used in FoFCou.
 Requested convergence on RMS density matrix=1.00D-08 within 128 cycles.
 Requested convergence on MAX density matrix=1.00D-06.
 Requested convergence on             energy=1.00D-06.
 No special actions if energy rises.
 SCF Done:  E(RwB97XD) =  -881.473455511     A.U. after   15 cycles
            NFock= 15  Conv=0.39D-08     -V/T= 2.0062

 **********************************************************************

            Population analysis using the SCF density.

 **********************************************************************

 Orbital symmetries:
       Occupied  (A) (A) (A) (A) (A) (A) (A) (A) (A) (A) (A) (A)
                 (A) (A) (A) (A) (A) (A) (A) (A) (A) (A) (A) (A)
                 (A) (A) (A) (A) (A) (A) (A) (A) (A) (A) (A) (A)
                 (A) (A) (A) (A) (A) (A) (A) (A) (A) (A) (A) (A)
                 (A) (A) (A) (A) (A) (A) (A) (A) (A) (A) (A) (A)
                 (A) (A) (A) (A) (A) (A) (A) (A) (A)
       Virtual   (A) (A) (A) (A) (A) (A) (A) (A) (A) (A) (A) (A)
                 (A) (A) (A) (A) (A) (A) (A) (A) (A) (A) (A) (A)
                 (A) (A) (A) (A) (A) (A) (A) (A) (A) (A) (A) (A)
                 (A) (A) (A) (A) (A) (A) (A) (A) (A) (A) (A) (A)
                 (A) (A) (A) (A) (A) (A) (A) (A) (A) (A) (A) (A)
                 (A) (A) (A) (A) (A) (A) (A) (A) (A) (A) (A) (A)
                 (A) (A) (A) (A) (A) (A) (A) (A) (A) (A) (A) (A)
                 (A) (A) (A) (A) (A) (A) (A) (A) (A) (A) (A) (A)
                 (A) (A) (A) (A) (A) (A) (A) (A) (A) (A) (A) (A)
                 (A) (A) (A) (A) (A) (A) (A) (A) (A) (A) (A) (A)
                 (A) (A) (A) (A) (A) (A) (A) (A) (A) (A) (A) (A)
                 (A) (A) (A) (A) (A) (A) (A) (A) (A) (A) (A) (A)
                 (A) (A) (A) (A) (A) (A) (A) (A) (A) (A) (A) (A)
                 (A) (A) (A) (A) (A) (A) (A) (A) (A) (A) (A) (A)
                 (A) (A) (A) (A) (A) (A) (A) (A) (A) (A) (A) (A)
                 (A) (A) (A) (A) (A) (A) (A) (A) (A) (A) (A) (A)
                 (A) (A) (A) (A) (A) (A) (A) (A) (A) (A) (A) (A)
                 (A) (A) (A) (A) (A) (A) (A) (A) (A) (A) (A) (A)
                 (A) (A) (A) (A) (A) (A) (A) (A) (A) (A) (A) (A)
                 (A) (A) (A) (A) (A) (A) (A) (A) (A) (A) (A) (A)
                 (A) (A) (A) (A) (A) (A) (A) (A) (A) (A) (A) (A)
                 (A) (A) (A) (A) (A) (A) (A) (A) (A) (A) (A) (A)
                 (A) (A) (A) (A) (A) (A) (A) (A) (A) (A) (A) (A)
                 (A) (A) (A) (A) (A) (A) (A) (A) (A) (A) (A) (A)
                 (A) (A) (A) (A) (A) (A) (A) (A) (A) (A) (A) (A)
                 (A) (A) (A) (A) (A) (A) (A) (A) (A) (A) (A) (A)
                 (A) (A) (A) (A) (A) (A) (A) (A) (A) (A) (A) (A)
                 (A) (A) (A) (A) (A) (A) (A) (A) (A) (A) (A) (A)
                 (A) (A) (A) (A) (A) (A) (A) (A) (A) (A) (A) (A)
                 (A) (A) (A) (A) (A) (A) (A) (A) (A) (A) (A) (A)
                 (A) (A) (A) (A) (A) (A) (A) (A) (A) (A) (A) (A)
                 (A) (A) (A) (A) (A) (A) (A) (A) (A) (A) (A) (A)
                 (A) (A) (A) (A) (A) (A) (A) (A) (A) (A) (A) (A)
                 (A) (A) (A) (A) (A) (A) (A) (A) (A) (A) (A) (A)
                 (A) (A) (A) (A) (A) (A) (A) (A) (A) (A) (A) (A)
                 (A) (A) (A) (A) (A) (A) (A) (A) (A) (A) (A) (A)
                 (A) (A) (A) (A) (A) (A) (A) (A) (A) (A) (A) (A)
                 (A) (A) (A) (A) (A) (A) (A) (A) (A) (A) (A) (A)
                 (A) (A) (A) (A) (A) (A) (A) (A) (A) (A) (A) (A)
                 (A) (A) (A) (A) (A) (A) (A) (A) (A) (A) (A) (A)
                 (A) (A) (A) (A) (A) (A) (A) (A) (A) (A) (A) (A)
                 (A) (A) (A) (A) (A) (A) (A) (A) (A) (A) (A) (A)
                 (A) (A) (A) (A) (A) (A) (A) (A) (A) (A) (A) (A)
                 (A) (A) (A) (A) (A) (A) (A) (A) (A) (A) (A) (A)
                 (A) (A) (A) (A) (A) (A) (A) (A) (A) (A) (A) (A)
                 (A) (A) (A) (A) (A) (A) (A)
 The electronic state is 1-A.
 Alpha  occ. eigenvalues --  -19.40914 -19.39350 -19.38516 -19.37433 -19.37096
 Alpha  occ. eigenvalues --  -14.65982 -14.59146 -10.50209 -10.50115 -10.47336
 Alpha  occ. eigenvalues --  -10.46901 -10.46600 -10.46285 -10.44087 -10.43636
 Alpha  occ. eigenvalues --  -10.41322 -10.40909  -1.25357  -1.24831  -1.23584
 Alpha  occ. eigenvalues --   -1.22935  -1.22000  -1.20820  -1.17957  -1.07747
 Alpha  occ. eigenvalues --   -1.04124  -1.00688  -0.96021  -0.89905  -0.89741
 Alpha  occ. eigenvalues --   -0.88591  -0.82023  -0.80231  -0.79587  -0.75890
 Alpha  occ. eigenvalues --   -0.74778  -0.74315  -0.74045  -0.73288  -0.72897
 Alpha  occ. eigenvalues --   -0.72686  -0.71158  -0.69955  -0.68445  -0.67290
 Alpha  occ. eigenvalues --   -0.65852  -0.64921  -0.63927  -0.62947  -0.62677
 Alpha  occ. eigenvalues --   -0.61846  -0.61172  -0.59246  -0.59207  -0.58365
 Alpha  occ. eigenvalues --   -0.57448  -0.56714  -0.56441  -0.55678  -0.54337
 Alpha  occ. eigenvalues --   -0.54151  -0.52878  -0.52513  -0.52137  -0.51772
 Alpha  occ. eigenvalues --   -0.50852  -0.50698  -0.48953  -0.46026
 Alpha virt. eigenvalues --   -0.13117  -0.10562  -0.06889  -0.05560  -0.04838
 Alpha virt. eigenvalues --   -0.04630  -0.03531  -0.03110  -0.02998  -0.02591
 Alpha virt. eigenvalues --   -0.02496  -0.01494  -0.01132  -0.00690  -0.00474
 Alpha virt. eigenvalues --   -0.00168   0.00197   0.00597   0.00652   0.01067
 Alpha virt. eigenvalues --    0.01756   0.02163   0.02366   0.02716   0.03004
 Alpha virt. eigenvalues --    0.03028   0.03322   0.03637   0.03953   0.04246
 Alpha virt. eigenvalues --    0.04626   0.05003   0.05236   0.05432   0.05640
 Alpha virt. eigenvalues --    0.05812   0.06141   0.06302   0.06490   0.06599
 Alpha virt. eigenvalues --    0.06805   0.07302   0.07536   0.08140   0.08284
 Alpha virt. eigenvalues --    0.08630   0.08717   0.09213   0.09318   0.09813
 Alpha virt. eigenvalues --    0.10177   0.10415   0.10837   0.10979   0.11140
 Alpha virt. eigenvalues --    0.11480   0.11947   0.12101   0.12484   0.12677
 Alpha virt. eigenvalues --    0.12831   0.13349   0.13547   0.14122   0.14238
 Alpha virt. eigenvalues --    0.14353   0.14514   0.15242   0.15557   0.15844
 Alpha virt. eigenvalues --    0.15998   0.16195   0.16544   0.16668   0.16984
 Alpha virt. eigenvalues --    0.17178   0.17422   0.17542   0.17740   0.18181
 Alpha virt. eigenvalues --    0.18571   0.18599   0.18903   0.19245   0.19360
 Alpha virt. eigenvalues --    0.19668   0.19887   0.20376   0.20688   0.20916
 Alpha virt. eigenvalues --    0.21149   0.21603   0.21850   0.22080   0.22275
 Alpha virt. eigenvalues --    0.22644   0.23389   0.23946   0.23973   0.24341
 Alpha virt. eigenvalues --    0.24476   0.24633   0.24966   0.25158   0.25768
 Alpha virt. eigenvalues --    0.26128   0.26648   0.26820   0.27131   0.27383
 Alpha virt. eigenvalues --    0.27661   0.28047   0.28187   0.28532   0.28676
 Alpha virt. eigenvalues --    0.29623   0.29681   0.29866   0.30547   0.30720
 Alpha virt. eigenvalues --    0.30975   0.31749   0.32131   0.32217   0.32663
 Alpha virt. eigenvalues --    0.32674   0.33366   0.33482   0.34216   0.34324
 Alpha virt. eigenvalues --    0.34918   0.35065   0.35649   0.36125   0.36727
 Alpha virt. eigenvalues --    0.36877   0.37294   0.37616   0.37999   0.38238
 Alpha virt. eigenvalues --    0.38879   0.39172   0.39868   0.40187   0.40242
 Alpha virt. eigenvalues --    0.40745   0.41146   0.41671   0.41948   0.42649
 Alpha virt. eigenvalues --    0.42908   0.43161   0.43650   0.43921   0.44189
 Alpha virt. eigenvalues --    0.44815   0.45339   0.45872   0.45899   0.46049
 Alpha virt. eigenvalues --    0.46402   0.46851   0.47299   0.47757   0.47943
 Alpha virt. eigenvalues --    0.48510   0.48733   0.49002   0.49422   0.49889
 Alpha virt. eigenvalues --    0.50450   0.50813   0.50864   0.51108   0.51955
 Alpha virt. eigenvalues --    0.52185   0.52470   0.52817   0.53006   0.53692
 Alpha virt. eigenvalues --    0.53978   0.54061   0.54471   0.54763   0.54913
 Alpha virt. eigenvalues --    0.55171   0.55965   0.56300   0.56499   0.56947
 Alpha virt. eigenvalues --    0.57075   0.57877   0.58006   0.58134   0.58597
 Alpha virt. eigenvalues --    0.58997   0.59192   0.59956   0.60285   0.61011
 Alpha virt. eigenvalues --    0.61581   0.61966   0.62204   0.62484   0.62530
 Alpha virt. eigenvalues --    0.63439   0.63773   0.64376   0.64696   0.65181
 Alpha virt. eigenvalues --    0.65315   0.65866   0.66007   0.66588   0.67036
 Alpha virt. eigenvalues --    0.67689   0.67821   0.68131   0.68635   0.69265
 Alpha virt. eigenvalues --    0.69384   0.70022   0.70043   0.70316   0.70847
 Alpha virt. eigenvalues --    0.71552   0.72170   0.72384   0.72740   0.73401
 Alpha virt. eigenvalues --    0.73948   0.74306   0.74559   0.74970   0.75514
 Alpha virt. eigenvalues --    0.76316   0.76489   0.76784   0.77503   0.77541
 Alpha virt. eigenvalues --    0.77997   0.78691   0.79371   0.79547   0.80128
 Alpha virt. eigenvalues --    0.80688   0.81291   0.81654   0.82111   0.82361
 Alpha virt. eigenvalues --    0.83148   0.83618   0.84522   0.84872   0.85120
 Alpha virt. eigenvalues --    0.85932   0.87531   0.87948   0.88892   0.88919
 Alpha virt. eigenvalues --    0.90298   0.90609   0.90948   0.91531   0.91953
 Alpha virt. eigenvalues --    0.93023   0.93565   0.94175   0.94992   0.95608
 Alpha virt. eigenvalues --    0.96189   0.96900   0.97367   0.98057   0.98482
 Alpha virt. eigenvalues --    0.98862   0.99949   1.00342   1.01349   1.01719
 Alpha virt. eigenvalues --    1.02714   1.03323   1.04334   1.05216   1.05917
 Alpha virt. eigenvalues --    1.06559   1.06994   1.07343   1.08154   1.08731
 Alpha virt. eigenvalues --    1.09000   1.10048   1.10577   1.11160   1.12185
 Alpha virt. eigenvalues --    1.13004   1.13551   1.14279   1.14658   1.15773
 Alpha virt. eigenvalues --    1.16482   1.16905   1.17744   1.19295   1.19670
 Alpha virt. eigenvalues --    1.19981   1.20748   1.21623   1.21751   1.22987
 Alpha virt. eigenvalues --    1.23364   1.24190   1.25592   1.25850   1.26013
 Alpha virt. eigenvalues --    1.26857   1.28144   1.29022   1.30377   1.31649
 Alpha virt. eigenvalues --    1.32146   1.32969   1.33489   1.34193   1.34799
 Alpha virt. eigenvalues --    1.35338   1.35937   1.37952   1.38403   1.39053
 Alpha virt. eigenvalues --    1.39610   1.40231   1.40627   1.42303   1.42430
 Alpha virt. eigenvalues --    1.42639   1.43917   1.45154   1.45324   1.46872
 Alpha virt. eigenvalues --    1.48039   1.48549   1.49431   1.50298   1.51001
 Alpha virt. eigenvalues --    1.52323   1.52814   1.53221   1.55002   1.55436
 Alpha virt. eigenvalues --    1.55979   1.57190   1.58044   1.59421   1.59805
 Alpha virt. eigenvalues --    1.61039   1.61803   1.61856   1.62316   1.63804
 Alpha virt. eigenvalues --    1.64352   1.65017   1.66206   1.66467   1.66860
 Alpha virt. eigenvalues --    1.67339   1.68648   1.69105   1.69716   1.70629
 Alpha virt. eigenvalues --    1.71055   1.72609   1.72979   1.73540   1.74120
 Alpha virt. eigenvalues --    1.75234   1.75778   1.76097   1.77183   1.78205
 Alpha virt. eigenvalues --    1.78862   1.80385   1.80554   1.80644   1.82017
 Alpha virt. eigenvalues --    1.83150   1.83405   1.84467   1.84875   1.86077
 Alpha virt. eigenvalues --    1.86347   1.86464   1.87991   1.88077   1.88872
 Alpha virt. eigenvalues --    1.90167   1.90490   1.90967   1.92236   1.93001
 Alpha virt. eigenvalues --    1.93571   1.94449   1.95265   1.95447   1.96446
 Alpha virt. eigenvalues --    1.96692   1.97002   1.98258   1.98759   1.99154
 Alpha virt. eigenvalues --    1.99504   2.00476   2.00970   2.01705   2.02750
 Alpha virt. eigenvalues --    2.03536   2.04020   2.04758   2.06296   2.06599
 Alpha virt. eigenvalues --    2.07003   2.09123   2.10118   2.10430   2.12475
 Alpha virt. eigenvalues --    2.13680   2.14358   2.14756   2.15959   2.16364
 Alpha virt. eigenvalues --    2.17473   2.18536   2.18698   2.19602   2.20026
 Alpha virt. eigenvalues --    2.22425   2.22599   2.24386   2.24933   2.25878
 Alpha virt. eigenvalues --    2.26729   2.27542   2.28006   2.29037   2.29389
 Alpha virt. eigenvalues --    2.30111   2.30701   2.31074   2.32367   2.32988
 Alpha virt. eigenvalues --    2.33784   2.34412   2.36528   2.37870   2.39171
 Alpha virt. eigenvalues --    2.40313   2.41098   2.42051   2.43292   2.43833
 Alpha virt. eigenvalues --    2.44643   2.45830   2.46986   2.48277   2.49682
 Alpha virt. eigenvalues --    2.50386   2.51489   2.53568   2.55387   2.56119
 Alpha virt. eigenvalues --    2.56686   2.58164   2.59211   2.60129   2.60663
 Alpha virt. eigenvalues --    2.61649   2.62367   2.62754   2.64049   2.64478
 Alpha virt. eigenvalues --    2.66144   2.66859   2.68127   2.68668   2.70105
 Alpha virt. eigenvalues --    2.70904   2.72170   2.73718   2.75023   2.75638
 Alpha virt. eigenvalues --    2.77325   2.78933   2.80151   2.81152   2.81605
 Alpha virt. eigenvalues --    2.83225   2.84252   2.85129   2.86833   2.87907
 Alpha virt. eigenvalues --    2.90376   2.91803   2.93663   2.94977   2.96734
 Alpha virt. eigenvalues --    2.99051   3.02373   3.05683   3.08836   3.12223
 Alpha virt. eigenvalues --    3.14762   3.16385   3.21545   3.24781   3.26089
 Alpha virt. eigenvalues --    3.32656   3.36288   3.38388   3.39739   3.40852
 Alpha virt. eigenvalues --    3.42057   3.43332   3.43988   3.45243   3.46553
 Alpha virt. eigenvalues --    3.47837   3.49861   3.51181   3.56324   3.58283
 Alpha virt. eigenvalues --    3.59682   3.61546   3.67305   3.71464   3.74707
 Alpha virt. eigenvalues --    3.82935   3.84385   3.86869   3.88732   3.93958
 Alpha virt. eigenvalues --    4.00868   4.04604   4.07121   4.08881   4.09789
 Alpha virt. eigenvalues --    4.44177   5.09826
          Condensed to atoms (all electrons):
               1          2          3          4          5          6
     1  C   10.569229  -1.968829  -0.852241   1.345226  -1.686615   0.458846
     2  C   -1.968829  32.503093  -5.513816  -0.327566   0.469988 -10.297202
     3  N   -0.852241  -5.513816  14.697551  -0.099368  -0.437210   2.087848
     4  C    1.345226  -0.327566  -0.099368   6.325225  -0.288861  -0.715699
     5  C   -1.686615   0.469988  -0.437210  -0.288861   7.024972   0.272032
     6  C    0.458846 -10.297202   2.087848  -0.715699   0.272032  36.417716
     7  C   -0.326675  -1.015446  -0.533871  -0.035314  -0.112230 -13.070912
     8  C   -0.051637  -0.575083  -0.106683  -0.041629  -0.033295  -0.340715
     9  C   -0.061157  -0.351635   0.084737  -0.017550   0.010258   0.162174
    10  N   -0.024164   0.978262  -0.056964   0.039938   0.004416   0.272004
    11  C   -1.883785  -4.529012   0.006963  -0.471437   0.057612 -10.784750
    12  O    0.002304   0.044066   0.003029   0.001993  -0.000143  -0.035021
    13  O   -0.005233   0.000898  -0.002406  -0.000613  -0.001621  -0.066869
    14  O   -0.049924   0.018911   0.027931  -0.004086   0.004598  -0.004548
    15  O    0.062116  -0.011432  -0.046380  -0.045483   0.053726   0.041670
    16  H    0.110795   0.677542  -1.094774  -0.344584   0.216841  -0.169567
    17  H    0.346047  -0.041303  -0.159011   0.176936  -0.381475   0.042811
    18  H    0.226152   0.192421   0.148894   0.019344  -0.496014  -0.158874
    19  H   -1.515531   0.204477   0.435206  -0.315356   0.255988   0.355586
    20  H    0.142829  -0.132428  -0.098343   0.174200   0.400205   0.204320
    21  H   -0.004754  -0.001835  -0.102355  -0.251285  -0.028820   0.143313
    22  H    0.719361  -3.508851  -0.109858  -0.016179  -0.074441   1.442374
    23  H   -0.639440  -1.401343  -0.453492  -0.268942  -0.092375  -3.208110
    24  H   -0.001022  -0.055827   0.008692  -0.001988   0.000960  -0.206732
    25  H    0.003269   0.159127  -0.001331   0.000961   0.000447   0.254118
    26  H   -0.059576  -0.173722   0.030450  -0.011688  -0.005582   1.563679
    27  C   -0.333813  -1.189191   1.208033  -0.270563   0.021599   0.877496
    28  H    0.005214   0.120819  -0.011191   0.007648  -0.002223  -0.421554
    29  H    0.050934   0.055069  -0.042917   0.027360  -0.029284  -0.013626
    30  H   -0.000451  -0.017864  -0.003773   0.004873  -0.006388   0.001750
    31  H    0.003297  -0.001229   0.001394   0.000446  -0.001080   0.010163
    32  H   -0.001011   0.004596  -0.000234  -0.000042   0.000717   0.000651
    33  H    0.001182  -0.004264  -0.000367   0.000219  -0.000887   0.005962
    34  H   -0.015239   0.021068   0.008240  -0.004790   0.010094  -0.027934
    35  H    0.089357   0.857572  -0.320110  -0.069329  -0.008314  -0.388030
    36  H   -0.007182  -0.055927  -0.043793   0.021358  -0.001234   0.017425
    37  O   -0.004522  -0.004010  -0.010538  -0.000153   0.000578  -0.064940
    38  H    0.009281   0.029177  -0.025773   0.016712   0.009871   0.026583
    39  H   -0.001293  -0.001458   0.002410  -0.001379  -0.000864  -0.005963
    40  H   -0.095843   0.147169  -0.258213  -0.046163   0.074425   0.040586
    41  H    0.109290  -0.080054   0.354531  -0.052640  -0.039807   0.079163
    42  H    0.025006  -0.311226  -0.687170   0.120785  -0.002699   0.242099
               7          8          9         10         11         12
     1  C   -0.326675  -0.051637  -0.061157  -0.024164  -1.883785   0.002304
     2  C   -1.015446  -0.575083  -0.351635   0.978262  -4.529012   0.044066
     3  N   -0.533871  -0.106683   0.084737  -0.056964   0.006963   0.003029
     4  C   -0.035314  -0.041629  -0.017550   0.039938  -0.471437   0.001993
     5  C   -0.112230  -0.033295   0.010258   0.004416   0.057612  -0.000143
     6  C  -13.070912  -0.340715   0.162174   0.272004 -10.784750  -0.035021
     7  C   25.712514  -4.608217   1.650260  -0.546598  -0.142830   0.022919
     8  C   -4.608217  12.688031  -2.981911  -0.171037   1.780649  -0.017267
     9  C    1.650260  -2.981911  11.186508   0.633222  -3.594510  -0.045321
    10  N   -0.546598  -0.171037   0.633222   8.438247  -2.066907  -0.265642
    11  C   -0.142830   1.780649  -3.594510  -2.066907  25.746225   0.118998
    12  O    0.022919  -0.017267  -0.045321  -0.265642   0.118998   8.300264
    13  O    0.009066  -0.000134   0.000599  -0.009420   0.009283  -0.085390
    14  O    0.007009   0.007268  -0.012235  -0.015815   0.026765   0.008408
    15  O   -0.006059   0.002656  -0.020882  -0.062866  -0.052520   0.005545
    16  H    0.024131   0.000429  -0.001997   0.001312  -0.036376   0.000322
    17  H    0.005928   0.000508   0.000808  -0.001590   0.012992   0.000052
    18  H   -0.004381  -0.006069   0.002362   0.005662   0.009525  -0.000846
    19  H   -0.047248  -0.020578   0.016348  -0.002285   0.435780  -0.000194
    20  H   -0.040414  -0.001456  -0.035431  -0.051697  -0.593207   0.008925
    21  H    0.010439  -0.005010   0.001359  -0.000800   0.013824   0.000002
    22  H    0.036995   0.058188   0.012050  -0.014511  -0.104539   0.001198
    23  H    0.182034   0.305805  -0.296895   0.013233   1.318030  -0.157856
    24  H    0.221774   0.097869  -0.382622  -0.240433   0.252117   0.014576
    25  H    0.647161  -1.305788   0.362042   0.036396  -0.431908   0.000193
    26  H   -2.778002   0.798063  -0.256427  -0.056930   0.040283  -0.000466
    27  C   -0.434309   0.088779  -0.013313  -0.036468   0.044809  -0.000776
    28  H   -0.013381  -0.028814  -0.749534  -0.001871   0.659640   0.098010
    29  H   -0.011012   0.004875  -0.007661   0.005039  -0.038031   0.004822
    30  H    0.001088   0.000626   0.000848   0.001949   0.010988  -0.001086
    31  H    0.003199   0.004850  -0.015935  -0.022016   0.023671   0.327786
    32  H   -0.004016   0.003401  -0.018662  -0.012778   0.011054   0.313692
    33  H   -0.001605   0.001448   0.001896   0.009400  -0.002597  -0.002149
    34  H    0.006815  -0.007813  -0.000338  -0.017910   0.050446   0.005079
    35  H    0.079506  -0.007308  -0.014720   0.002802  -0.127674   0.008640
    36  H   -0.005509   0.000370   0.002476   0.002973   0.023972  -0.001713
    37  O    0.005493  -0.002434   0.007977  -0.013620   0.032480  -0.082978
    38  H   -0.006829  -0.009311   0.004758  -0.003830   0.040200   0.004187
    39  H    0.000339   0.002578   0.000974   0.008774  -0.006669   0.001187
    40  H   -0.019224   0.017074  -0.003448   0.001372  -0.015208  -0.000242
    41  H   -0.043148   0.038094  -0.037423  -0.014298  -0.011960   0.000541
    42  H    0.007586  -0.020518   0.016161  -0.003756   0.059037  -0.000139
              13         14         15         16         17         18
     1  C   -0.005233  -0.049924   0.062116   0.110795   0.346047   0.226152
     2  C    0.000898   0.018911  -0.011432   0.677542  -0.041303   0.192421
     3  N   -0.002406   0.027931  -0.046380  -1.094774  -0.159011   0.148894
     4  C   -0.000613  -0.004086  -0.045483  -0.344584   0.176936   0.019344
     5  C   -0.001621   0.004598   0.053726   0.216841  -0.381475  -0.496014
     6  C   -0.066869  -0.004548   0.041670  -0.169567   0.042811  -0.158874
     7  C    0.009066   0.007009  -0.006059   0.024131   0.005928  -0.004381
     8  C   -0.000134   0.007268   0.002656   0.000429   0.000508  -0.006069
     9  C    0.000599  -0.012235  -0.020882  -0.001997   0.000808   0.002362
    10  N   -0.009420  -0.015815  -0.062866   0.001312  -0.001590   0.005662
    11  C    0.009283   0.026765  -0.052520  -0.036376   0.012992   0.009525
    12  O   -0.085390   0.008408   0.005545   0.000322   0.000052  -0.000846
    13  O    7.787789  -0.027671   0.002278   0.000012  -0.000034  -0.001419
    14  O   -0.027671   7.852335   0.010089  -0.002563  -0.003173   0.035717
    15  O    0.002278   0.010089   8.626882   0.046704   0.001653  -0.036830
    16  H    0.000012  -0.002563   0.046704   3.128150   0.156008  -0.374790
    17  H   -0.000034  -0.003173   0.001653   0.156008   2.170222  -0.705462
    18  H   -0.001419   0.035717  -0.036830  -0.374790  -0.705462   2.547716
    19  H   -0.000085  -0.003037  -0.004456  -0.049910  -0.329864   0.219575
    20  H    0.001074   0.029039   0.017099   0.076739   0.219039  -0.509376
    21  H   -0.000006   0.001640  -0.005556  -0.703788  -0.271611   0.240515
    22  H    0.000250   0.002802   0.002475   0.099122   0.071368  -0.078788
    23  H    0.036827  -0.110438  -0.022326  -0.050346   0.000388   0.040210
    24  H   -0.000013  -0.000150  -0.000506  -0.000225   0.000075   0.000061
    25  H   -0.000087   0.000136  -0.000121   0.000242   0.000018  -0.000012
    26  H    0.000265  -0.000126  -0.001614  -0.003476   0.001573   0.000358
    27  C   -0.000720   0.000545   0.001237  -0.285952  -0.030945   0.042432
    28  H   -0.002954   0.001733   0.005279   0.001240  -0.000114  -0.001179
    29  H    0.001845   0.333944   0.003977   0.005618   0.000752   0.001785
    30  H    0.001511   0.324410  -0.023878   0.000360   0.003176  -0.002264
    31  H    0.027270  -0.002691   0.001666  -0.000063  -0.000010  -0.000112
    32  H   -0.000875   0.002121  -0.003902   0.000205   0.000068  -0.000258
    33  H    0.343375  -0.008355  -0.000859   0.000032   0.000056  -0.000442
    34  H    0.302059   0.046832   0.003559  -0.000714  -0.001704   0.005485
    35  H    0.002322   0.008884   0.012356   0.204248   0.008135  -0.010671
    36  H   -0.000278  -0.003432   0.309909  -0.020324  -0.001837   0.013167
    37  O    0.007598  -0.002276  -0.004131  -0.000009  -0.000043   0.000579
    38  H   -0.001475  -0.002386   0.025520   0.002594   0.000560  -0.002369
    39  H    0.000436   0.000133  -0.011126  -0.000365  -0.000054   0.000179
    40  H   -0.000053  -0.001046  -0.005642  -0.022627  -0.004396   0.012774
    41  H   -0.000122   0.001271   0.008416   0.002773   0.000809  -0.006864
    42  H   -0.000018  -0.000193  -0.001214   0.014008   0.002952  -0.002550
              19         20         21         22         23         24
     1  C   -1.515531   0.142829  -0.004754   0.719361  -0.639440  -0.001022
     2  C    0.204477  -0.132428  -0.001835  -3.508851  -1.401343  -0.055827
     3  N    0.435206  -0.098343  -0.102355  -0.109858  -0.453492   0.008692
     4  C   -0.315356   0.174200  -0.251285  -0.016179  -0.268942  -0.001988
     5  C    0.255988   0.400205  -0.028820  -0.074441  -0.092375   0.000960
     6  C    0.355586   0.204320   0.143313   1.442374  -3.208110  -0.206732
     7  C   -0.047248  -0.040414   0.010439   0.036995   0.182034   0.221774
     8  C   -0.020578  -0.001456  -0.005010   0.058188   0.305805   0.097869
     9  C    0.016348  -0.035431   0.001359   0.012050  -0.296895  -0.382622
    10  N   -0.002285  -0.051697  -0.000800  -0.014511   0.013233  -0.240433
    11  C    0.435780  -0.593207   0.013824  -0.104539   1.318030   0.252117
    12  O   -0.000194   0.008925   0.000002   0.001198  -0.157856   0.014576
    13  O   -0.000085   0.001074  -0.000006   0.000250   0.036827  -0.000013
    14  O   -0.003037   0.029039   0.001640   0.002802  -0.110438  -0.000150
    15  O   -0.004456   0.017099  -0.005556   0.002475  -0.022326  -0.000506
    16  H   -0.049910   0.076739  -0.703788   0.099122  -0.050346  -0.000225
    17  H   -0.329864   0.219039  -0.271611   0.071368   0.000388   0.000075
    18  H    0.219575  -0.509376   0.240515  -0.078788   0.040210   0.000061
    19  H    2.810258  -0.867589   0.064109  -0.395642   0.198930   0.000977
    20  H   -0.867589   2.855696  -0.067502   0.296754  -0.631123  -0.001281
    21  H    0.064109  -0.067502   2.542408  -0.130042   0.019743   0.000022
    22  H   -0.395642   0.296754  -0.130042   3.729295  -0.016398   0.000119
    23  H    0.198930  -0.631123   0.019743  -0.016398   7.717811   0.031263
    24  H    0.000977  -0.001281   0.000022   0.000119   0.031263   2.317096
    25  H   -0.001891   0.000738  -0.000398   0.003776  -0.023097  -0.119174
    26  H    0.015653  -0.018949   0.003169  -0.185954   0.014299  -0.009017
    27  C    0.104857  -0.082632   0.043899  -0.093730   0.070643   0.003368
    28  H   -0.002020   0.010911   0.000375   0.000405  -0.154958  -0.245087
    29  H   -0.006688   0.016398  -0.002119   0.004067  -0.062240  -0.000669
    30  H   -0.000555  -0.001646  -0.000114  -0.000095   0.031635   0.000187
    31  H   -0.000367   0.002486   0.000036   0.000131  -0.019056   0.004023
    32  H   -0.000307   0.000681  -0.000137   0.000313  -0.010450   0.001826
    33  H    0.000147   0.000121  -0.000010  -0.000058   0.014186   0.000347
    34  H    0.001813  -0.004008   0.000148  -0.001136  -0.053993  -0.001907
    35  H   -0.034717   0.055784  -0.038067   0.008417  -0.292125   0.000808
    36  H    0.003189  -0.008741   0.008346  -0.001393   0.053762   0.000085
    37  O    0.000097  -0.002447  -0.000225   0.000386   0.064723  -0.000191
    38  H   -0.002253   0.010740  -0.000185   0.000624  -0.131587  -0.002629
    39  H    0.000159  -0.001425  -0.000004  -0.000075   0.019573   0.000256
    40  H    0.002602  -0.012543  -0.002487   0.020401   0.059041   0.000402
    41  H   -0.003204   0.017816   0.006985  -0.006764  -0.073598  -0.002670
    42  H    0.013678  -0.006392   0.065720   0.074867   0.031281   0.000662
              25         26         27         28         29         30
     1  C    0.003269  -0.059576  -0.333813   0.005214   0.050934  -0.000451
     2  C    0.159127  -0.173722  -1.189191   0.120819   0.055069  -0.017864
     3  N   -0.001331   0.030450   1.208033  -0.011191  -0.042917  -0.003773
     4  C    0.000961  -0.011688  -0.270563   0.007648   0.027360   0.004873
     5  C    0.000447  -0.005582   0.021599  -0.002223  -0.029284  -0.006388
     6  C    0.254118   1.563679   0.877496  -0.421554  -0.013626   0.001750
     7  C    0.647161  -2.778002  -0.434309  -0.013381  -0.011012   0.001088
     8  C   -1.305788   0.798063   0.088779  -0.028814   0.004875   0.000626
     9  C    0.362042  -0.256427  -0.013313  -0.749534  -0.007661   0.000848
    10  N    0.036396  -0.056930  -0.036468  -0.001871   0.005039   0.001949
    11  C   -0.431908   0.040283   0.044809   0.659640  -0.038031   0.010988
    12  O    0.000193  -0.000466  -0.000776   0.098010   0.004822  -0.001086
    13  O   -0.000087   0.000265  -0.000720  -0.002954   0.001845   0.001511
    14  O    0.000136  -0.000126   0.000545   0.001733   0.333944   0.324410
    15  O   -0.000121  -0.001614   0.001237   0.005279   0.003977  -0.023878
    16  H    0.000242  -0.003476  -0.285952   0.001240   0.005618   0.000360
    17  H    0.000018   0.001573  -0.030945  -0.000114   0.000752   0.003176
    18  H   -0.000012   0.000358   0.042432  -0.001179   0.001785  -0.002264
    19  H   -0.001891   0.015653   0.104857  -0.002020  -0.006688  -0.000555
    20  H    0.000738  -0.018949  -0.082632   0.010911   0.016398  -0.001646
    21  H   -0.000398   0.003169   0.043899   0.000375  -0.002119  -0.000114
    22  H    0.003776  -0.185954  -0.093730   0.000405   0.004067  -0.000095
    23  H   -0.023097   0.014299   0.070643  -0.154958  -0.062240   0.031635
    24  H   -0.119174  -0.009017   0.003368  -0.245087  -0.000669   0.000187
    25  H    2.134621  -0.133894  -0.007051   0.010079   0.000068  -0.000016
    26  H   -0.133894   3.077507   0.064748   0.003121  -0.000453   0.000084
    27  C   -0.007051   0.064748   4.869981  -0.003636  -0.004387  -0.000255
    28  H    0.010079   0.003121  -0.003636   1.548675   0.003036  -0.001560
    29  H    0.000068  -0.000453  -0.004387   0.003036   0.526229  -0.118314
    30  H   -0.000016   0.000084  -0.000255  -0.001560  -0.118314   0.596246
    31  H   -0.000330  -0.000006  -0.000173   0.006364   0.001304  -0.000536
    32  H   -0.000005  -0.000358  -0.000793   0.005162  -0.000211   0.000423
    33  H    0.000004  -0.000026   0.000054  -0.003438   0.001129   0.002469
    34  H    0.000224   0.000139   0.000721   0.009936  -0.006722  -0.004119
    35  H    0.000512  -0.005862  -0.244290   0.004558   0.025372  -0.004717
    36  H   -0.000054   0.000268   0.017817  -0.002240   0.004775   0.002511
    37  O    0.000090   0.000035  -0.002197  -0.012188  -0.001406   0.000187
    38  H    0.000808  -0.000929  -0.015020   0.009037   0.012298   0.000503
    39  H   -0.000042   0.000099   0.001159  -0.002064  -0.000405   0.000116
    40  H   -0.000575   0.003376   0.165960  -0.002082  -0.002417   0.000376
[...]
 -0.00123070,0.00037047,0.00016735,-0.00049909,-0.00408724,0.00070344,0
 .00023718,0.00002247,-0.00009442,-0.00030374,0.00110381,-0.00158689,-0
 .00029962,-0.00594528,0.00009946,-0.00002906,0.00004306,-0.00003079,0.
 00005394,0.00000559,0.00005351,0.00007221,-0.00007309,-0.00003486,0.00
 004282,-0.00000158,-0.00000467,-0.00005412,-0.00008433,-0.00008149,0.0
 0007718,0.00003286,-0.00003860,0.00012547,0.00006663,0.00009620,-0.000
 42316,-0.00077611,-0.00000262,0.00006059,0.00003119,0.00001425,-0.0000
 0286,0.00002021,0.00000096,0.00003378,0.00001455,-0.00008670,-0.000305
 79,0.00053899,-0.00097235,0.00087821,0.00037384,0.00081775,0.00058512,
 -0.00160117,0.00001663,0.00014278,-0.00006656,-0.00083881,-0.00081256,
 0.00022693,0.00074076,-0.00021262,0.00622386,-0.00006246,0.00005801,-0
 .00002540,-0.00056443,0.00000801,-0.00051147,0.00093013,-0.00271265,-0
 .00047995,-0.00334482,0.00006068,0.00228033,0.05842686,0.00632787,-0.0
 6217970,-0.09225540,-0.02051457,0.07391083,-0.00001105,0.00000090,-0.0
 0000920,0.00004043,0.00006536,0.00007584,0.00009208,-0.00010439,-0.000
 09729,-0.00007390,-0.00000415,0.00000989,0.00000107,-0.00000190,0.0000
 0266,0.00002321,-0.00006855,-0.00002625,0.00001798,0.00003304,-0.00000
 281,-0.00003718,-0.00001121,0.00001379,0.00009648,0.00005561,-0.000020
 24,-0.00000559,-0.00000054,-0.00004233,-0.00004702,0.00001600,0.000069
 82,-0.00268787,-0.00060973,-0.00193049,-0.00010530,0.00008743,-0.00007
 449,-0.00006273,0.00005460,-0.00017408,-0.00125471,-0.00117120,-0.0009
 0155,-0.00001717,-0.00001475,-0.00000219,0.00000673,-0.00000446,-0.000
 01031,-0.00000710,-0.00000108,0.00000334,0.00000620,-0.00000530,-0.000
 01035,-0.00000116,0.00000566,0.00000559,0.00001291,-0.00001201,-0.0000
 0306,0.00000239,-0.00002289,-0.00000663,-0.00013877,0.00005241,0.00007
 853,0.00000688,-0.00000913,-0.00001505,0.00000916,-0.00000279,0.000000
 90,0.00000122,0.00000671,0.00000370,-0.00001330,-0.00002023,0.00008021
 ,0.00011593,0.00023051,0.00015982,0.00002501,-0.00006337,0.00020737,0.
 00001044,-0.00002438,0.00002569,0.00000689,-0.00014625,0.00010950,0.00
 433969,-0.00046081,0.00023873,0.00005297,-0.00001706,-0.00003133,0.000
 09391,-0.00002167,0.00006733,-0.00009131,0.00023059,0.00007005,-0.0006
 9307,-0.00017053,0.00058316,-0.07153339,0.01893696,0.10051774,-0.00659
 366,0.01773961,0.03812218,0.07845091,0.00000006,0.00000705,0.00000529,
 -0.00003365,-0.00003793,-0.00004582,-0.00004090,-0.00004252,0.00008326
 ,0.00005896,0.00003368,0.00001804,-0.00001437,0.00000488,0.00000167,-0
 .00000465,-0.00005305,0.00000415,0.00002838,0.00001272,0.00000814,-0.0
 0002429,-0.00006587,0.00003150,0.00008277,0.00005169,-0.00003842,0.000
 08939,-0.00004513,-0.00002902,-0.00012087,0.00014083,-0.00004147,0.000
 25187,0.00023420,0.00017858,0.00006500,-0.00010359,-0.00003088,0.00007
 764,-0.00013615,0.00005833,-0.00115713,-0.00080578,0.00019276,0.000005
 61,0.00000531,-0.00000354,-0.00000150,0.00000063,0.00000882,0.00000054
 ,-0.00000635,0.00000122,-0.00000103,-0.00000377,0.00000624,0.00000167,
 0.00000470,0.00000371,-0.00000151,-0.00000149,0.00000072,0.00000756,0.
 00000339,-0.00000020,-0.00002466,-0.00019142,-0.00006950,-0.00001344,-
 0.00001415,-0.00004502,0.00000711,-0.00000905,-0.00001640,0.00000096,-
 0.00000967,-0.00000559,0.00007351,0.00009387,-0.00008755,0.00001228,0.
 00024443,0.00009157,-0.00001276,0.00014075,-0.00013475,-0.00003739,0.0
 0003932,0.00002829,-0.00020069,0.00008018,-0.00007512,-0.00003111,-0.0
 0038319,-0.00016846,-0.00000992,0.00002485,0.00006183,-0.00006713,0.00
 004290,-0.00001424,-0.00007912,0.00005291,-0.00011202,-0.00038117,0.00
 025266,0.00013621,0.04160501,-0.08062265,-0.18716476,-0.00550741,0.005
 31086,0.01706392,-0.03460679,0.07582534,0.00000561,-0.00001106,-0.0000
 0847,0.00001106,-0.00002674,-0.00005105,-0.00017917,0.00023167,0.00000
 545,0.00007001,0.00001944,-0.00002431,0.00000671,-0.00001743,0.0000032
 4,-0.00002820,0.00010764,-0.00001955,-0.00003415,-0.00006543,-0.000004
 89,0.00004751,0.00001738,-0.00000468,-0.00005247,-0.00004254,-0.000010
 77,-0.00012376,0.00015189,0.00004987,0.00009242,-0.00002873,0.00002657
 ,-0.00085497,0.00045310,0.00020380,0.00001628,0.00005830,0.00017325,-0
 .00005856,0.00003559,0.00020302,-0.00118844,0.00019348,0.00075231,0.00
 001729,-0.00001414,0.00000486,-0.00001047,0.00001174,0.00000339,0.0000
 1329,0.00001751,-0.00001421,-0.00000582,0.00000916,-0.00000030,-0.0000
 0727,-0.00001241,-0.00001311,-0.00002884,0.00001838,0.00000609,-0.0000
 1395,0.00003241,0.00001528,-0.00003973,-0.00001549,0.00000358,-0.00000
 412,-0.00000295,0.00001361,-0.00000437,0.00000288,0.00000582,-0.000005
 41,0.00000045,0.00000532,0.00001696,-0.00003920,0.00011555,0.00017833,
 -0.00016135,-0.00001331,0.00005773,-0.00000963,-0.00024937,0.00003085,
 0.00000957,-0.00003920,-0.00005416,-0.00007362,-0.00009812,0.00114816,
 -0.00139633,-0.00212815,-0.00001720,-0.00000541,-0.00007211,0.00000059
 ,-0.00004162,-0.00009052,0.00033206,-0.00050743,-0.00012896,0.00023434
 ,-0.00000098,0.00004192,0.14060188,-0.16224161,-0.44068508,-0.00308390
 ,-0.00676163,-0.00887668,-0.13705673,0.17012530,0.45086282,0.00035469,
 -0.00031515,0.00009898,0.00007447,0.00018860,0.00048326,-0.00169396,-0
 .00035545,-0.00000967,0.00062132,0.00064488,0.00093974,-0.00009519,0.0
 0009200,-0.00000722,0.00019097,0.00007461,-0.00002803,-0.00003077,0.00
 024124,0.00001136,0.00002023,0.00002438,-0.00002230,0.00000930,-0.0000
 2058,0.00000320,-0.00012135,0.00007144,0.00002825,0.00024727,-0.000144
 43,-0.00002184,-0.00003379,0.00012876,0.00009892,0.00000480,0.00001921
 ,0.00002242,0.00000035,0.00002115,0.00013960,-0.00007903,-0.00004556,0
 .00069409,0.00025041,-0.00015851,-0.00005177,0.00000999,0.00001896,0.0
 0001135,-0.00000930,0.00001449,-0.00003284,0.00002632,0.00007371,-0.00
 003878,-0.00003205,-0.00006946,0.00010087,-0.00004271,0.00023399,-0.00
 005856,0.00008641,-0.00032138,-0.00028307,-0.00000036,-0.00003553,-0.0
 0001622,0.00000566,-0.00000013,0.00000157,-0.00000938,0.00000082,0.000
 00519,-0.00003307,-0.00001044,-0.00000726,-0.06386096,-0.04353642,-0.0
 4977524,0.00014948,-0.00019240,-0.00003438,-0.00002150,0.00002420,-0.0
 0022424,0.00002027,-0.00000359,-0.00000452,0.00000303,-0.00000484,-0.0
 0000956,-0.00007497,-0.00004141,-0.00012704,0.00000016,-0.00000180,-0.
 00000680,-0.00001565,-0.00001769,-0.00001755,0.00024865,-0.00032776,-0
 .00074318,0.00006997,0.00027096,-0.00022578,0.00022570,-0.00004465,0.0
 0020089,-0.00015413,0.00004368,-0.00012897,-0.00009766,0.00005674,-0.0
 0002574,0.06355585,-0.00015808,0.00060976,0.00101336,-0.00037303,-0.00
 166469,0.00252766,0.00599439,0.01303681,0.01711774,0.00030014,0.001329
 82,0.00062447,0.00033865,0.00020305,-0.00016641,-0.00023629,-0.0000239
 8,0.00006510,0.00011242,-0.00000589,-0.00007614,0.00001485,0.00007753,
 -0.00000901,0.00003020,-0.00000204,0.00000614,-0.00012810,0.00004142,0
 .00002036,0.00018374,-0.00009816,-0.00005058,-0.00005404,0.00007558,0.
 00001778,-0.00001522,0.00001361,-0.00001379,-0.00000676,0.00002158,-0.
 00005037,-0.00027416,0.00005451,-0.00009812,0.00009360,-0.00002897,-0.
 00033580,-0.00000193,-0.00000332,-0.00004432,-0.00002613,-0.00001564,-
 0.00001083,0.00001031,-0.00018234,0.00028785,0.00005454,0.00004458,0.0
 0000344,-0.00007134,-0.00044021,-0.00012308,-0.00024726,0.00031992,0.0
 0040561,-0.00002006,-0.00000382,0.00000870,0.00000028,0.00000740,-0.00
 000122,0.00001009,0.00000360,0.00000339,0.00000603,0.00007836,0.000088
 25,-0.04531649,-0.16715423,-0.13274385,0.00009988,-0.00011922,-0.00001
 074,0.00000665,-0.00002798,0.00006977,-0.00000231,-0.00000369,0.000006
 47,0.00000605,-0.00001439,0.00001404,-0.00000016,-0.00001420,-0.000027
 71,0.00000461,-0.00000248,0.00000275,0.00001654,-0.00000720,0.00000659
 ,0.00013010,0.00025309,0.00018272,0.00008673,-0.00006851,0.00001935,-0
 .00003247,-0.00001586,0.00008011,0.00007296,0.00003179,-0.00006243,-0.
 00001621,0.00001831,-0.00002567,0.04721872,0.17394597,-0.00034689,-0.0
 0113473,-0.00114882,0.00105155,0.00478217,-0.00304318,-0.00932897,-0.0
 1820045,-0.02685415,-0.00089426,-0.00163057,0.00075398,-0.00029401,0.0
 0004528,0.00005257,0.00074843,0.00026882,0.00010305,-0.00011695,-0.000
 03225,0.00008895,-0.00004203,-0.00003019,0.00003064,-0.00003695,-0.000
 04038,-0.00001654,-0.00008532,0.00007910,0.00000613,-0.00011730,-0.000
 00919,0.00006252,-0.00002723,0.00007297,0.00004631,-0.00000174,0.00001
 934,0.00001292,-0.00000529,0.00005848,0.00012417,-0.00011709,0.0004562
 3,0.00057271,0.00043172,0.00070121,-0.00008755,0.00003343,0.00002530,0
 .00009133,0.00004837,0.00003398,0.00003559,0.00008119,0.00036220,-0.00
 038429,0.00006439,0.00008819,-0.00012689,0.00026382,-0.00000262,-0.000
 06880,0.00008673,0.00008749,0.00021514,0.00002317,-0.00003358,-0.00003
 192,0.00000400,0.00000062,-0.00000299,-0.00001549,-0.00000461,-0.00000
 789,0.00002596,0.00000535,-0.00004440,-0.04702901,-0.12359687,-0.18575
 013,0.00007710,-0.00011234,-0.00002335,-0.00002933,0.00000931,-0.00018
 791,0.00000362,-0.00001105,-0.00001159,0.00000365,-0.00000725,-0.00000
 248,-0.00003410,-0.00001928,-0.00005847,0.00000207,-0.00000259,-0.0000
 0310,-0.00000596,-0.00001894,-0.00001405,0.00027976,-0.00096109,-0.000
 80291,-0.00011281,0.00033495,-0.00013763,0.00011207,0.00000236,0.00003
 920,-0.00013127,-0.00000490,-0.00001733,-0.00002067,0.00000820,0.00001
 083,0.05405164,0.13421820,0.21043620,-0.00008097,0.00000920,0.00018635
 ,-0.00003057,-0.00059031,-0.00038528,0.00451696,0.00132464,0.00022390,
 0.00109632,0.00044715,-0.00008084,0.00021360,-0.00009592,-0.00031390,-
 0.00027949,0.00023691,-0.00048082,-0.00012818,-0.00004362,-0.00031379,
 0.00025862,0.00005094,-0.00008303,-0.00007018,0.00016660,0.00006590,-0
 .00022565,-0.00010354,0.00006790,0.00044274,-0.00010247,-0.00031040,-0
 .00002227,0.00006468,-0.00000170,0.00003055,0.00001896,-0.00000777,0.0
 0007093,-0.00000915,0.00001682,0.00019609,-0.00027326,-0.00011958,-0.0
 0003337,0.00005865,-0.00007857,0.00000767,0.00002438,-0.00001190,0.000
 03307,-0.00001481,0.00013088,0.00000224,0.00001652,0.00003401,0.000021
 55,0.00000010,0.00001063,0.00048762,0.00000139,-0.00024846,-0.00021097
 ,0.00005719,-0.00010158,-0.00003299,0.00000297,0.00002454,0.00000074,0
 .00000952,-0.00000101,0.00001313,0.00000622,0.00002300,-0.00004829,0.0
 0005076,0.00014423,-0.27475415,-0.09220610,0.04794985,0.00006791,-0.00
 009040,-0.00001284,-0.00003794,0.00001309,-0.00001776,-0.00001911,0.00
 001901,-0.00000506,-0.00000765,-0.00002469,0.00002605,-0.00000902,-0.0
 0001055,-0.00000922,-0.00000279,0.00000017,-0.00000126,-0.00004227,-0.
 00001227,-0.00000727,-0.00018551,0.00023293,0.00018304,-0.00004255,-0.
 00000399,0.00003330,0.00004209,0.00000252,-0.00004371,-0.00002811,-0.0
 0006409,0.00004741,0.00001762,-0.00002103,0.00002393,-0.00546857,-0.00
 075270,0.00160561,0.29084130,-0.00003089,-0.00016954,-0.00006130,0.000
 03463,0.00026155,-0.00076497,-0.01640557,-0.01010807,0.00441527,0.0017
 5505,-0.00012838,0.00313205,-0.00119950,0.00008270,0.00020993,-0.00003
 173,0.00006934,-0.00011780,0.00011219,0.00019458,-0.00016218,-0.000170
 69,-0.00003060,0.00000275,0.00001864,-0.00010482,0.00005560,0.00034350
 ,0.00004899,-0.00002585,-0.00018269,0.00012659,-0.00006177,-0.00001097
 ,-0.00007758,-0.00014498,0.00002459,0.00000702,-0.00004205,0.00006810,
 -0.00002307,-0.00009480,0.00058187,-0.00010107,-0.00047077,0.00024841,
 0.00027537,-0.00012602,0.00009051,-0.00012762,0.00038593,0.00000212,-0
 .00002966,-0.00004258,0.00002889,0.00003847,-0.00000027,0.00000800,0.0
 0002262,0.00001584,-0.00041940,0.00007703,0.00008762,0.00017607,0.0000
 0120,0.00025204,0.00000469,-0.00007118,0.00006027,0.00000175,-0.000002
 82,-0.00000397,-0.00000361,-0.00000756,-0.00000264,0.00004741,-0.00003
 936,-0.00003838,-0.08740896,-0.08388767,0.01914583,-0.00009139,0.00013
 967,0.00004464,-0.00001480,-0.00001508,0.00014255,-0.00003299,0.000016
 40,0.00000561,-0.00001190,-0.00003022,0.00005135,0.00011616,0.00003369
 ,0.00016523,0.00000009,0.00000137,0.00000783,-0.00002856,0.00000143,0.
 00001355,-0.00095964,0.00039397,0.00045067,-0.00012018,-0.00003991,0.0
 0005649,-0.00030861,0.00028474,-0.00021851,0.00002098,-0.00030153,0.00
 018613,0.00009127,-0.00007753,-0.00001775,-0.01808623,-0.00678631,0.00
 476699,0.10027173,0.09032100,0.00007601,0.00029855,0.00026872,0.001388
 54,0.00034062,0.00122652,0.03002413,0.01553364,-0.00903391,-0.00245913
 ,0.00088420,-0.00497661,0.00155265,0.00084021,-0.00035113,-0.00023733,
 -0.00008567,-0.00082272,-0.00029774,-0.00038108,-0.00013086,0.00011804
 ,-0.00014782,-0.00001826,-0.00004510,0.00016047,-0.00000686,0.00010533
 ,-0.00023156,0.00002417,-0.00029671,0.00022404,-0.00019722,0.00011836,
 -0.00021425,-0.00004923,-0.00002330,-0.00004694,0.00001816,-0.00009403
 ,-0.00002487,-0.00001047,-0.00028123,0.00033067,0.00000348,0.00006611,
 0.00035200,0.00014197,-0.00011579,0.00018076,-0.00045331,0.00000899,0.
 00003691,-0.00018001,-0.00002604,-0.00004542,0.00004965,-0.00005811,-0
 .00003111,-0.00003115,-0.00007998,-0.00018757,-0.00007057,-0.00003926,
 -0.00017517,-0.00018200,0.00006494,0.00005837,0.00000320,-0.00000865,-
 0.00000279,-0.00000112,0.00000212,0.00000016,0.00000888,0.00001913,-0.
 00000374,0.00000179,0.04045289,0.01644723,-0.05661211,-0.00026499,0.00
 031465,0.00002939,0.00004989,0.00001365,0.00003465,0.00002732,-0.00002
 050,0.00000036,0.00000264,0.00004614,-0.00004507,0.00002500,0.00004331
 ,0.00008878,-0.00000255,0.00000250,0.00000039,0.00004309,0.00002873,0.
 00000821,0.00049151,-0.00056764,-0.00008883,-0.00004787,0.00001248,0.0
 0000399,-0.00004456,-0.00001075,-0.00017712,0.00002986,0.00005520,0.00
 006286,0.00004965,-0.00007611,0.00003593,-0.02113057,-0.00743759,0.005
 85672,-0.05087463,-0.02644423,0.06571276,0.00025233,-0.00020799,-0.000
 05208,0.00036220,0.00025107,0.00089234,-0.00008551,0.00240747,-0.00450
 283,0.00280052,-0.00228400,0.00028794,0.00002037,-0.00009038,0.0001385
 6,-0.00000592,-0.00015286,0.00001085,-0.00015028,0.00035187,0.00001356
 ,-0.00007758,-0.00006547,0.00006649,0.00001299,-0.00006036,0.00000912,
 0.00027922,-0.00001209,0.00000148,-0.00019041,0.00012949,0.00001546,-0
 .00002580,-0.00005496,-0.00007271,-0.00003526,-0.00000440,-0.00003366,
 -0.00004706,0.00002448,-0.00013271,-0.00041365,0.00075327,0.00011258,-
 0.00012011,0.00011297,0.00003746,-0.00001511,0.00003909,-0.00003762,-0
 .00005682,-0.00000920,0.00005247,-0.00000068,0.00002192,-0.00007885,-0
 .00007993,-0.00012494,0.00009350,0.00046254,0.00109406,-0.00054207,-0.
 00024546,-0.00037813,-0.00106180,0.00006602,-0.00002117,0.00005122,0.0
 0000972,-0.00001116,-0.00000580,-0.00001894,-0.00000086,-0.00001255,0.
 00001151,-0.00011720,-0.00015105,-0.16458838,0.12345044,0.00894698,-0.
 00004185,0.00008129,0.00002765,0.00005048,-0.00006326,0.00016995,-0.00
 000293,-0.00001392,0.00001801,0.00000973,-0.00000695,0.00001905,0.0000
 8206,0.00001872,0.00009037,0.00000876,-0.00000189,0.00000980,0.0000475
 9,0.00000631,0.00002876,0.00073093,-0.00138094,-0.00025851,-0.00006511
 ,-0.00002442,-0.00002383,-0.00022572,0.00009788,-0.00004994,0.00015605
 ,-0.00009437,0.00000551,0.00004180,-0.00003255,-0.00002758,0.00569908,
 -0.00705874,-0.00020566,-0.01660011,0.02147167,0.00171134,0.17198871,-
 0.00029197,0.00027389,-0.00024938,-0.00168405,0.00110351,-0.00183196,0
 .01165306,-0.01831775,0.01028575,0.00301685,0.00059705,-0.00097511,-0.
 00036036,0.00039801,-0.00005254,-0.00010793,-0.00005020,0.00010169,0.0
 0011691,-0.00006317,0.00005478,0.00002602,0.00002879,-0.00002364,0.000
 02187,0.00000960,0.00002811,0.00006526,0.00005989,0.00001582,-0.000046
 36,-0.00014413,-0.00001934,0.00004762,0.00000515,0.00000677,0.00006157
 ,0.00000547,0.00002780,0.00007578,-0.00006203,0.00019211,0.00086026,-0
 .00137381,-0.00047930,-0.00009859,-0.00006317,-0.00009124,-0.00002556,
 0.00001241,0.00014697,-0.00009633,0.00007598,-0.00022446,-0.00002791,-
 0.00003321,0.00008709,0.00002185,0.00005814,-0.00016088,-0.00138526,-0
 .00008683,0.00040211,0.00023896,0.00082463,0.00133161,-0.00008063,0.00
 001307,-0.00001659,-0.00000133,0.00000500,-0.00000710,0.00000727,0.000
 00118,0.00000530,0.00000752,0.00000908,0.00001086,0.12214815,-0.181752
 05,-0.00985816,-0.00002174,0.00001309,0.00001218,-0.00008918,0.0001174
 1,-0.00024848,0.00001302,0.00001951,-0.00002377,-0.00002077,-0.0000034
 7,-0.00000163,-0.00003973,-0.00001304,-0.00001664,-0.00001119,0.000003
 89,-0.00001073,-0.00008007,-0.00000477,-0.00003418,-0.00146341,0.00216
 064,0.00106486,0.00012444,0.00005783,-0.00002336,0.00015064,0.00011604
 ,-0.00007295,-0.00027319,-0.00009995,0.00010465,-0.00001528,-0.0000161
 6,0.00002325,0.01427090,-0.01348356,-0.00057387,-0.00866734,0.00976189
 ,-0.00006969,-0.13803979,0.19983614,0.00038391,-0.00029374,0.00010996,
 -0.00173417,0.00493202,0.00341828,-0.02146669,0.02987742,-0.01052260,-
 0.00400855,-0.00034356,0.00107917,0.00013414,-0.00034200,0.00019744,0.
 00020662,-0.00041436,-0.00020095,-0.00008050,0.00001049,0.00003823,-0.
 00001022,-0.00002913,0.00001089,-0.00003573,-0.00003128,-0.00003052,0.
 00006574,-0.00007533,0.00000419,-0.00000929,0.00016072,0.00000530,0.00
 002253,-0.00002414,0.00005279,-0.00002628,-0.00001491,0.00001833,-0.00
 004894,0.00002632,-0.00002002,-0.00098803,0.00116457,0.00093360,0.0004
 1589,-0.00005556,-0.00015257,0.00002325,-0.00006495,-0.00005524,0.0000
 0090,-0.00009889,0.00009988,0.00010231,-0.00003659,-0.00007216,0.00002
 787,-0.00013013,0.00013536,0.00103163,-0.00098764,0.00033465,0.0010994
 8,-0.00140455,0.00020391,0.00007655,-0.00001683,-0.00000369,0.00000155
 ,-0.00000868,0.00000288,-0.00000205,-0.00000438,0.00000015,-0.00001302
 ,-0.00003101,-0.00000025,0.01016410,-0.01148301,-0.04965432,-0.0000149
 7,0.00003094,-0.00000665,0.00005428,-0.00005853,0.00000915,0.00000147,
 -0.00000737,0.00000475,0.00001200,0.00002562,-0.00003448,-0.00003765,-
 0.00000270,-0.00005411,0.00000024,-0.00000081,-0.00000186,0.00003604,0
 .00000521,0.00000459,0.00134864,-0.00142946,-0.00170082,-0.00008427,0.
 00024216,-0.00015488,0.00005828,-0.00013206,0.00013722,0.00006184,0.00
 015718,-0.00015327,-0.00006044,0.00004114,-0.00000967,0.01613977,-0.01
 550218,0.00028739,0.00271300,-0.00481333,-0.00014204,-0.00556122,0.001
 16330,0.05588197\\-0.00000057,-0.00000544,0.00001306,-0.00000608,0.000
 00148,-0.00001178,0.00000745,0.00001429,0.00000989,-0.00000845,0.00000
 078,-0.00001797,0.00000279,-0.00000132,0.00001076,0.00000705,-0.000007
 14,-0.00000069,0.00000133,0.00000147,-0.00000527,-0.00000056,0.0000013
 6,-0.00000090,0.00000102,-0.00000417,-0.00000184,0.00000265,0.00000142
 ,0.00001114,-0.00000557,0.00000152,0.00000102,-0.00000396,0.00000135,0
 .00000331,0.00000115,0.00000857,-0.00000711,-0.00000438,-0.00000553,-0
 .00000751,-0.00002286,0.00000053,-0.00000935,0.00000194,-0.00000099,0.
 00000233,-0.00000031,0.00000119,-0.00000293,-0.00000317,-0.00000146,-0
 .00000305,-0.00000077,0.00000229,-0.00000398,-0.00000093,0.00000172,-0
 .00000357,0.00000438,-0.00000052,0.00000168,0.00000153,-0.00000299,0.0
 0000644,0.00000002,-0.00000036,0.00000202,0.00000067,-0.00000052,0.000
 00450,0.00000106,-0.00000035,0.00000074,0.00000119,0.00000050,0.000001
 65,-0.00000838,0.00000252,0.00000343,0.00000069,0.00000413,-0.00001035
 ,0.00000566,0.00000786,0.00001401,0.00000342,-0.00000061,0.00000307,-0
 .00000269,-0.00001700,0.00000222,0.00000866,0.00000711,0.00000195,0.00
 000014,-0.00000143,-0.00000100,-0.00000734,-0.00000622,0.00000285,0.,0
 .00000507,0.00000746,0.00001553,-0.00000405,-0.00000407,-0.00000147,-0
 .00000765,-0.00000386,0.00000178,0.00000081,-0.00000496,-0.00000458,0.
 00000258,0.00000042,0.00000465,-0.00000221,-0.00000401,0.00000639,0.00
 000126,-0.00000390,0.00000093,0.00000015,0.00000417\\\@


 ACHIEVEMENT--  THE MAN WHO ROWS THE BOAT GENERALLY 
                DOESN'T HAVE TIME TO ROCK IT.

                   -- FROM THE BACK OF A SUGAR PACKET
 Job cpu time:       1 days 21 hours 46 minutes 33.0 seconds.
 Elapsed time:       0 days  1 hours 38 minutes 13.6 seconds.
 File lengths (MBytes):  RWF=   1444 Int=      0 D2E=      0 Chk=     36 Scr=      8
 Normal termination of Gaussian 16 at Sat Sep  5 06:28:53 2020.
