 Entering Gaussian System, Link 0=g16
 Input=Nic5h3bPyrA.gjf
 Output=Nic5h3bPyrA.log
 Initial command:
 /sw/contrib/gaussian/g16/A03/g16/l1.exe "/gscratch/scrubbed/gds001/Gau-30849.inp" -scrdir="/gscratch/scrubbed/gds001/"
 Entering Link 1 = /sw/contrib/gaussian/g16/A03/g16/l1.exe PID=     30850.
  
 Copyright (c) 1988,1990,1992,1993,1995,1998,2003,2009,2016,
            Gaussian, Inc.  All Rights Reserved.
  
 This is part of the Gaussian(R) 16 program.  It is based on
 the Gaussian(R) 09 system (copyright 2009, Gaussian, Inc.),
 the Gaussian(R) 03 system (copyright 2003, Gaussian, Inc.),
 the Gaussian(R) 98 system (copyright 1998, Gaussian, Inc.),
 the Gaussian(R) 94 system (copyright 1995, Gaussian, Inc.),
 the Gaussian 92(TM) system (copyright 1992, Gaussian, Inc.),
 the Gaussian 90(TM) system (copyright 1990, Gaussian, Inc.),
 the Gaussian 88(TM) system (copyright 1988, Gaussian, Inc.),
 the Gaussian 86(TM) system (copyright 1986, Carnegie Mellon
 University), and the Gaussian 82(TM) system (copyright 1983,
 Carnegie Mellon University). Gaussian is a federally registered
 trademark of Gaussian, Inc.
  
 This software contains proprietary and confidential information,
 including trade secrets, belonging to Gaussian, Inc.
  
 This software is provided under written license and may be
 used, copied, transmitted, or stored only in accord with that
 written license.
  
 The following legend is applicable only to US Government
 contracts under FAR:
  
                    RESTRICTED RIGHTS LEGEND
  
 Use, reproduction and disclosure by the US Government is
 subject to restrictions as set forth in subparagraphs (a)
 and (c) of the Commercial Computer Software - Restricted
 Rights clause in FAR 52.227-19.
  
 Gaussian, Inc.
 340 Quinnipiac St., Bldg. 40, Wallingford CT 06492
  
  
 ---------------------------------------------------------------
 Warning -- This program may not be used in any manner that
 competes with the business of Gaussian, Inc. or will provide
 assistance to any competitor of Gaussian, Inc.  The licensee
 of this program is prohibited from giving any competitor of
 Gaussian, Inc. access to this program.  By using this program,
 the user acknowledges that Gaussian, Inc. is engaged in the
 business of creating and licensing software in the field of
 computational chemistry and represents and warrants to the
 licensee that it is not a competitor of Gaussian, Inc. and that
 it will not use this program in any manner prohibited above.
 ---------------------------------------------------------------
  

 Cite this work as:
 Gaussian 16, Revision A.03,
 M. J. Frisch, G. W. Trucks, H. B. Schlegel, G. E. Scuseria, 
 M. A. Robb, J. R. Cheeseman, G. Scalmani, V. Barone, 
 G. A. Petersson, H. Nakatsuji, X. Li, M. Caricato, A. V. Marenich, 
 J. Bloino, B. G. Janesko, R. Gomperts, B. Mennucci, H. P. Hratchian, 
 J. V. Ortiz, A. F. Izmaylov, J. L. Sonnenberg, D. Williams-Young, 
 F. Ding, F. Lipparini, F. Egidi, J. Goings, B. Peng, A. Petrone, 
 T. Henderson, D. Ranasinghe, V. G. Zakrzewski, J. Gao, N. Rega, 
 G. Zheng, W. Liang, M. Hada, M. Ehara, K. Toyota, R. Fukuda, 
 J. Hasegawa, M. Ishida, T. Nakajima, Y. Honda, O. Kitao, H. Nakai, 
 T. Vreven, K. Throssell, J. A. Montgomery, Jr., J. E. Peralta, 
 F. Ogliaro, M. J. Bearpark, J. J. Heyd, E. N. Brothers, K. N. Kudin, 
 V. N. Staroverov, T. A. Keith, R. Kobayashi, J. Normand, 
 K. Raghavachari, A. P. Rendell, J. C. Burant, S. S. Iyengar, 
 J. Tomasi, M. Cossi, J. M. Millam, M. Klene, C. Adamo, R. Cammi, 
 J. W. Ochterski, R. L. Martin, K. Morokuma, O. Farkas, 
 J. B. Foresman, and D. J. Fox, Gaussian, Inc., Wallingford CT, 2016.
 
 ******************************************
 Gaussian 16:  ES64L-G16RevA.03 25-Dec-2016
                 9-Dec-2022 
 ******************************************
 %nprocshared=28
 Will use up to   28 processors via shared memory.
 %mem=41GB
 -----------------------------
 # wB97XD/aug-cc-pVDZ opt freq
 -----------------------------
 1/18=20,19=15,26=3,38=1/1,3;
 2/9=110,12=2,17=6,18=5,40=1/2;
 3/5=16,7=10,11=2,25=1,30=1,71=1,74=-58/1,2,3;
 4//1;
 5/5=2,38=5/2;
 6/7=2,8=2,9=2,10=2,28=1/1;
 7//1,2,3,16;
 1/18=20,19=15,26=3/3(2);
 2/9=110/2;
 99//99;
 2/9=110/2;
 3/5=16,7=10,11=2,25=1,30=1,71=1,74=-58/1,2,3;
 4/5=5,16=3,69=1/1;
 5/5=2,38=5/2;
 7//1,2,3,16;
 1/18=20,19=15,26=3/3(-5);
 2/9=110/2;
 6/7=2,8=2,9=2,10=2,19=2,28=1/1;
 99/9=1/99;
 ----
 blah
 ----
 Symbolic Z-matrix:
 Charge =  1 Multiplicity = 1
 C                     1.90033  -2.30481  -0.06792 
 C                     0.87883  -1.36033  -0.18313 
 C                     1.25485  -0.03611  -0.38503 
 N                     2.54892   0.30164  -0.45351 
 C                     3.54471  -0.59209  -0.34498 
 C                     3.24139  -1.92624  -0.15554 
 C                    -0.57946  -1.7462   -0.10505 
 N                    -1.33291  -0.94671   0.86699 
 C                    -2.73514  -1.28069   0.58157 
 C                    -2.81683  -1.27644  -0.95029 
 C                    -1.36477  -1.54319  -1.41527 
 O                     2.82969   2.92249  -0.46306 
 O                     0.79304   3.14689   1.20278 
 O                    -1.25819   1.78188   0.1592 
 H                    -3.40028  -0.55096   1.05892 
 H                    -3.51319  -2.03941  -1.31221 
 H                    -3.16782  -0.30485  -1.3134 
 H                    -1.27325  -2.41841  -2.06711 
 H                    -0.96609  -0.68046  -1.96269 
 H                    -2.97968  -2.27953   0.98823 
 H                    -0.625    -2.81552   0.18262 
 H                     0.53807   0.7794   -0.48527 
 H                     4.55812  -0.20372  -0.40803 
 H                     4.04221  -2.65628  -0.06652 
 H                     1.64718  -3.35248   0.09703 
 C                    -0.9529   -1.18393   2.25296 
 H                     2.76333   1.3315   -0.56363 
 H                    -1.35083   0.85451   0.47477 
 H                    -2.12105   2.04581  -0.20046 
 H                     2.09796   3.19436   0.14053 
 H                     2.89435   3.57819  -1.16043 
 H                     0.598     3.7859    1.89043 
 H                    -0.06037   2.77165   0.89422 
 O                    -3.79538   2.31032  -0.91907 
 H                    -4.51505   2.64689  -0.37785 
 H                    -3.89421   2.74583  -1.77029 
 H                     0.08961  -0.88393   2.41688 
 H                    -1.06767  -2.24681   2.53533 
 H                    -1.58581  -0.57859   2.91181 
 O                    -4.00231   3.65694  -3.29179 
 H                    -4.57721   3.77334  -4.06753 
 H                    -3.12156   3.8741   -3.64605 
 
 Add virtual bond connecting atoms H27        and O12        Dist= 3.02D+00.
 Add virtual bond connecting atoms H30        and O13        Dist= 3.18D+00.
 Add virtual bond connecting atoms N8         and H28        Dist= 3.48D+00.
 Add virtual bond connecting atoms H33        and O14        Dist= 3.25D+00.
 Add virtual bond connecting atoms O40        and H36        Dist= 3.36D+00.
 Add virtual bond connecting atoms O34        and H29        Dist= 3.48D+00.

 GradGradGradGradGradGradGradGradGradGradGradGradGradGradGradGradGradGrad
 Berny optimization.
 Initialization pass.
                           ----------------------------
                           !    Initial Parameters    !
                           ! (Angstroms and Degrees)  !
 --------------------------                            --------------------------
 ! Name  Definition              Value          Derivative Info.                !
 --------------------------------------------------------------------------------
 ! R1    R(1,2)                  1.396          estimate D2E/DX2                !
 ! R2    R(1,6)                  1.3962         estimate D2E/DX2                !
 ! R3    R(1,25)                 1.0904         estimate D2E/DX2                !
 ! R4    R(2,3)                  1.3913         estimate D2E/DX2                !
 ! R5    R(2,7)                  1.5105         estimate D2E/DX2                !
 ! R6    R(3,4)                  1.3392         estimate D2E/DX2                !
 ! R7    R(3,22)                 1.0904         estimate D2E/DX2                !
 ! R8    R(4,5)                  1.3424         estimate D2E/DX2                !
 ! R9    R(4,27)                 1.0577         estimate D2E/DX2                !
 ! R10   R(5,6)                  1.3813         estimate D2E/DX2                !
 ! R11   R(5,23)                 1.0871         estimate D2E/DX2                !
 ! R12   R(6,24)                 1.0873         estimate D2E/DX2                !
 ! R13   R(7,8)                  1.4669         estimate D2E/DX2                !
 ! R14   R(7,11)                 1.541          estimate D2E/DX2                !
 ! R15   R(7,21)                 1.1083         estimate D2E/DX2                !
 ! R16   R(8,9)                  1.4694         estimate D2E/DX2                !
 ! R17   R(8,26)                 1.4566         estimate D2E/DX2                !
 ! R18   R(8,28)                 1.8435         estimate D2E/DX2                !
 ! R19   R(9,10)                 1.534          estimate D2E/DX2                !
 ! R20   R(9,15)                 1.0967         estimate D2E/DX2                !
 ! R21   R(9,20)                 1.1058         estimate D2E/DX2                !
 ! R22   R(10,11)                1.5479         estimate D2E/DX2                !
 ! R23   R(10,16)                1.0945         estimate D2E/DX2                !
 ! R24   R(10,17)                1.095          estimate D2E/DX2                !
 ! R25   R(11,18)                1.0951         estimate D2E/DX2                !
 ! R26   R(11,19)                1.0968         estimate D2E/DX2                !
 ! R27   R(12,27)                1.5955         estimate D2E/DX2                !
 ! R28   R(12,30)                0.9867         estimate D2E/DX2                !
 ! R29   R(12,31)                0.9594         estimate D2E/DX2                !
 ! R30   R(13,30)                1.6833         estimate D2E/DX2                !
 ! R31   R(13,32)                0.9588         estimate D2E/DX2                !
 ! R32   R(13,33)                0.982          estimate D2E/DX2                !
 ! R33   R(14,28)                0.984          estimate D2E/DX2                !
 ! R34   R(14,29)                0.9714         estimate D2E/DX2                !
 ! R35   R(14,33)                1.7189         estimate D2E/DX2                !
 ! R36   R(26,37)                1.0971         estimate D2E/DX2                !
 ! R37   R(26,38)                1.1057         estimate D2E/DX2                !
 ! R38   R(26,39)                1.096          estimate D2E/DX2                !
 ! R39   R(29,34)                1.8411         estimate D2E/DX2                !
 ! R40   R(34,35)                0.9613         estimate D2E/DX2                !
 ! R41   R(34,36)                0.9613         estimate D2E/DX2                !
 ! R42   R(36,40)                1.7767         estimate D2E/DX2                !
 ! R43   R(40,41)                0.9725         estimate D2E/DX2                !
 ! R44   R(40,42)                0.9738         estimate D2E/DX2                !
 ! A1    A(2,1,6)              120.9448         estimate D2E/DX2                !
 ! A2    A(2,1,25)             119.516          estimate D2E/DX2                !
 ! A3    A(6,1,25)             119.5387         estimate D2E/DX2                !
 ! A4    A(1,2,3)              117.2684         estimate D2E/DX2                !
 ! A5    A(1,2,7)              121.9614         estimate D2E/DX2                !
 ! A6    A(3,2,7)              120.7684         estimate D2E/DX2                !
 ! A7    A(2,3,4)              120.5726         estimate D2E/DX2                !
 ! A8    A(2,3,22)             123.1983         estimate D2E/DX2                !
 ! A9    A(4,3,22)             116.226          estimate D2E/DX2                !
 ! A10   A(3,4,5)              123.0082         estimate D2E/DX2                !
 ! A11   A(3,4,27)             116.5375         estimate D2E/DX2                !
 ! A12   A(5,4,27)             120.4163         estimate D2E/DX2                !
 ! A13   A(4,5,6)              119.4224         estimate D2E/DX2                !
 ! A14   A(4,5,23)             116.6771         estimate D2E/DX2                !
 ! A15   A(6,5,23)             123.8994         estimate D2E/DX2                !
 ! A16   A(1,6,5)              118.7783         estimate D2E/DX2                !
 ! A17   A(1,6,24)             121.349          estimate D2E/DX2                !
 ! A18   A(5,6,24)             119.8691         estimate D2E/DX2                !
 ! A19   A(2,7,8)              113.0107         estimate D2E/DX2                !
 ! A20   A(2,7,11)             114.4816         estimate D2E/DX2                !
 ! A21   A(2,7,21)             107.4314         estimate D2E/DX2                !
 ! A22   A(8,7,11)             103.2895         estimate D2E/DX2                !
 ! A23   A(8,7,21)             109.4366         estimate D2E/DX2                !
 ! A24   A(11,7,21)            109.0789         estimate D2E/DX2                !
 ! A25   A(7,8,9)              103.7421         estimate D2E/DX2                !
 ! A26   A(7,8,26)             114.065          estimate D2E/DX2                !
 ! A27   A(7,8,28)             113.3615         estimate D2E/DX2                !
 ! A28   A(9,8,26)             113.3768         estimate D2E/DX2                !
 ! A29   A(9,8,28)              99.8729         estimate D2E/DX2                !
 ! A30   A(26,8,28)            111.3526         estimate D2E/DX2                !
 ! A31   A(8,9,10)             104.1319         estimate D2E/DX2                !
 ! A32   A(8,9,15)             110.0581         estimate D2E/DX2                !
 ! A33   A(8,9,20)             110.175          estimate D2E/DX2                !
 ! A34   A(10,9,15)            113.6094         estimate D2E/DX2                !
 ! A35   A(10,9,20)            110.9741         estimate D2E/DX2                !
 ! A36   A(15,9,20)            107.8675         estimate D2E/DX2                !
 ! A37   A(9,10,11)            104.4503         estimate D2E/DX2                !
 ! A38   A(9,10,16)            111.2314         estimate D2E/DX2                !
 ! A39   A(9,10,17)            110.5277         estimate D2E/DX2                !
 ! A40   A(11,10,16)           112.1712         estimate D2E/DX2                !
 ! A41   A(11,10,17)           110.7319         estimate D2E/DX2                !
 ! A42   A(16,10,17)           107.7541         estimate D2E/DX2                !
 ! A43   A(7,11,10)            104.2033         estimate D2E/DX2                !
 ! A44   A(7,11,18)            110.9908         estimate D2E/DX2                !
 ! A45   A(7,11,19)            110.0452         estimate D2E/DX2                !
 ! A46   A(10,11,18)           113.2618         estimate D2E/DX2                !
 ! A47   A(10,11,19)           110.8167         estimate D2E/DX2                !
 ! A48   A(18,11,19)           107.5294         estimate D2E/DX2                !
 ! A49   A(27,12,30)           106.4065         estimate D2E/DX2                !
 ! A50   A(27,12,31)           129.6785         estimate D2E/DX2                !
 ! A51   A(30,12,31)           107.8372         estimate D2E/DX2                !
 ! A52   A(30,13,32)           126.2652         estimate D2E/DX2                !
 ! A53   A(30,13,33)           119.0907         estimate D2E/DX2                !
 ! A54   A(32,13,33)           107.6528         estimate D2E/DX2                !
 ! A55   A(28,14,29)           106.9295         estimate D2E/DX2                !
 ! A56   A(28,14,33)           118.11           estimate D2E/DX2                !
 ! A57   A(29,14,33)           128.3804         estimate D2E/DX2                !
 ! A58   A(8,26,37)            110.2151         estimate D2E/DX2                !
 ! A59   A(8,26,38)            111.8677         estimate D2E/DX2                !
 ! A60   A(8,26,39)            109.3541         estimate D2E/DX2                !
 ! A61   A(37,26,38)           108.864          estimate D2E/DX2                !
 ! A62   A(37,26,39)           107.9325         estimate D2E/DX2                !
 ! A63   A(38,26,39)           108.5104         estimate D2E/DX2                !
 ! A64   A(12,30,13)           162.3875         estimate D2E/DX2                !
 ! A65   A(13,33,14)           163.7367         estimate D2E/DX2                !
 ! A66   A(29,34,35)           120.7549         estimate D2E/DX2                !
 ! A67   A(29,34,36)           120.2793         estimate D2E/DX2                !
 ! A68   A(35,34,36)           105.2461         estimate D2E/DX2                !
 ! A69   A(36,40,41)           141.2977         estimate D2E/DX2                !
 ! A70   A(36,40,42)           111.7671         estimate D2E/DX2                !
 ! A71   A(41,40,42)           102.5781         estimate D2E/DX2                !
 ! A72   L(4,27,12,14,-1)      169.1194         estimate D2E/DX2                !
 ! A73   L(8,28,14,3,-1)       172.0337         estimate D2E/DX2                !
 ! A74   L(14,29,34,9,-1)      172.9554         estimate D2E/DX2                !
 ! A75   L(34,36,40,12,-1)     177.154          estimate D2E/DX2                !
 ! A76   L(4,27,12,14,-2)      172.1653         estimate D2E/DX2                !
 ! A77   L(8,28,14,3,-2)       176.1526         estimate D2E/DX2                !
 ! A78   L(14,29,34,9,-2)      182.6794         estimate D2E/DX2                !
 ! A79   L(34,36,40,12,-2)     183.5939         estimate D2E/DX2                !
 ! D1    D(6,1,2,3)             -0.1113         estimate D2E/DX2                !
 ! D2    D(6,1,2,7)            179.4076         estimate D2E/DX2                !
 ! D3    D(25,1,2,3)           179.6292         estimate D2E/DX2                !
 ! D4    D(25,1,2,7)            -0.8518         estimate D2E/DX2                !
 ! D5    D(2,1,6,5)              0.6853         estimate D2E/DX2                !
 ! D6    D(2,1,6,24)           179.9853         estimate D2E/DX2                !
 ! D7    D(25,1,6,5)          -179.0552         estimate D2E/DX2                !
 ! D8    D(25,1,6,24)            0.2448         estimate D2E/DX2                !
 ! D9    D(1,2,3,4)             -0.4807         estimate D2E/DX2                !
 ! D10   D(1,2,3,22)          -179.8181         estimate D2E/DX2                !
 ! D11   D(7,2,3,4)            179.9943         estimate D2E/DX2                !
 ! D12   D(7,2,3,22)             0.6569         estimate D2E/DX2                !
 ! D13   D(1,2,7,8)            128.2068         estimate D2E/DX2                !
 ! D14   D(1,2,7,11)          -113.902          estimate D2E/DX2                !
 ! D15   D(1,2,7,21)             7.3911         estimate D2E/DX2                !
 ! D16   D(3,2,7,8)            -52.2908         estimate D2E/DX2                !
 ! D17   D(3,2,7,11)            65.6003         estimate D2E/DX2                !
 ! D18   D(3,2,7,21)          -173.1065         estimate D2E/DX2                !
 ! D19   D(2,3,4,5)              0.5051         estimate D2E/DX2                !
 ! D20   D(2,3,4,27)          -177.2564         estimate D2E/DX2                !
 ! D21   D(22,3,4,5)           179.887          estimate D2E/DX2                !
 ! D22   D(22,3,4,27)            2.1255         estimate D2E/DX2                !
 ! D23   D(3,4,5,6)              0.0941         estimate D2E/DX2                !
 ! D24   D(3,4,5,23)          -179.5393         estimate D2E/DX2                !
 ! D25   D(27,4,5,6)           177.7717         estimate D2E/DX2                !
 ! D26   D(27,4,5,23)           -1.8617         estimate D2E/DX2                !
 ! D27   D(3,4,12,30)           35.5612         estimate D2E/DX2                !
 ! D28   D(3,4,12,31)          -92.5979         estimate D2E/DX2                !
 ! D29   D(5,4,12,30)         -135.8216         estimate D2E/DX2                !
 ! D30   D(5,4,12,31)           96.0193         estimate D2E/DX2                !
 ! D31   D(4,5,6,1)             -0.6785         estimate D2E/DX2                !
 ! D32   D(4,5,6,24)          -179.9892         estimate D2E/DX2                !
 ! D33   D(23,5,6,1)           178.9268         estimate D2E/DX2                !
 ! D34   D(23,5,6,24)           -0.3839         estimate D2E/DX2                !
 ! D35   D(2,7,8,9)            168.5983         estimate D2E/DX2                !
 ! D36   D(2,7,8,26)           -67.5832         estimate D2E/DX2                !
 ! D37   D(2,7,8,28)            61.2662         estimate D2E/DX2                !
 ! D38   D(11,7,8,9)            44.3401         estimate D2E/DX2                !
 ! D39   D(11,7,8,26)          168.1586         estimate D2E/DX2                !
 ! D40   D(11,7,8,28)          -62.992          estimate D2E/DX2                !
 ! D41   D(21,7,8,9)           -71.7325         estimate D2E/DX2                !
 ! D42   D(21,7,8,26)           52.0861         estimate D2E/DX2                !
 ! D43   D(21,7,8,28)         -179.0646         estimate D2E/DX2                !
 ! D44   D(2,7,11,10)         -151.5212         estimate D2E/DX2                !
 ! D45   D(2,7,11,18)           86.2398         estimate D2E/DX2                !
 ! D46   D(2,7,11,19)          -32.6677         estimate D2E/DX2                !
 ! D47   D(8,7,11,10)          -28.2305         estimate D2E/DX2                !
 ! D48   D(8,7,11,18)         -150.4695         estimate D2E/DX2                !
 ! D49   D(8,7,11,19)           90.623          estimate D2E/DX2                !
 ! D50   D(21,7,11,10)          88.096          estimate D2E/DX2                !
 ! D51   D(21,7,11,18)         -34.143          estimate D2E/DX2                !
 ! D52   D(21,7,11,19)        -153.0505         estimate D2E/DX2                !
 ! D53   D(7,8,9,10)           -42.8269         estimate D2E/DX2                !
 ! D54   D(7,8,9,15)          -164.94           estimate D2E/DX2                !
 ! D55   D(7,8,9,20)            76.235          estimate D2E/DX2                !
 ! D56   D(26,8,9,10)         -167.093          estimate D2E/DX2                !
 ! D57   D(26,8,9,15)           70.7939         estimate D2E/DX2                !
 ! D58   D(26,8,9,20)          -48.0311         estimate D2E/DX2                !
 ! D59   D(28,8,9,10)           74.3613         estimate D2E/DX2                !
 ! D60   D(28,8,9,15)          -47.7518         estimate D2E/DX2                !
 ! D61   D(28,8,9,20)         -166.5768         estimate D2E/DX2                !
 ! D62   D(7,8,14,29)          105.9837         estimate D2E/DX2                !
 ! D63   D(7,8,14,33)          -95.3019         estimate D2E/DX2                !
 ! D64   D(9,8,14,29)           -3.4435         estimate D2E/DX2                !
 ! D65   D(9,8,14,33)          155.271          estimate D2E/DX2                !
 ! D66   D(26,8,14,29)        -125.0508         estimate D2E/DX2                !
 ! D67   D(26,8,14,33)          33.6637         estimate D2E/DX2                !
 ! D68   D(7,8,26,37)           63.604          estimate D2E/DX2                !
 ! D69   D(7,8,26,38)          -57.6642         estimate D2E/DX2                !
 ! D70   D(7,8,26,39)         -177.8997         estimate D2E/DX2                !
 ! D71   D(9,8,26,37)         -177.9408         estimate D2E/DX2                !
 ! D72   D(9,8,26,38)           60.7909         estimate D2E/DX2                !
 ! D73   D(9,8,26,39)          -59.4446         estimate D2E/DX2                !
 ! D74   D(28,8,26,37)         -66.253          estimate D2E/DX2                !
 ! D75   D(28,8,26,38)         172.4788         estimate D2E/DX2                !
 ! D76   D(28,8,26,39)          52.2433         estimate D2E/DX2                !
 ! D77   D(8,9,10,11)           23.8889         estimate D2E/DX2                !
 ! D78   D(8,9,10,16)          145.1002         estimate D2E/DX2                !
 ! D79   D(8,9,10,17)          -95.244          estimate D2E/DX2                !
 ! D80   D(15,9,10,11)         143.6266         estimate D2E/DX2                !
 ! D81   D(15,9,10,16)         -95.1621         estimate D2E/DX2                !
 ! D82   D(15,9,10,17)          24.4937         estimate D2E/DX2                !
 ! D83   D(20,9,10,11)         -94.6272         estimate D2E/DX2                !
 ! D84   D(20,9,10,16)          26.5842         estimate D2E/DX2                !
 ! D85   D(20,9,10,17)         146.24           estimate D2E/DX2                !
 ! D86   D(9,10,11,7)            2.6248         estimate D2E/DX2                !
 ! D87   D(9,10,11,18)         123.356          estimate D2E/DX2                !
 ! D88   D(9,10,11,19)        -115.7013         estimate D2E/DX2                !
 ! D89   D(16,10,11,7)        -117.9615         estimate D2E/DX2                !
 ! D90   D(16,10,11,18)          2.7697         estimate D2E/DX2                !
 ! D91   D(16,10,11,19)        123.7124         estimate D2E/DX2                !
 ! D92   D(17,10,11,7)         121.6193         estimate D2E/DX2                !
 ! D93   D(17,10,11,18)       -117.6495         estimate D2E/DX2                !
 ! D94   D(17,10,11,19)          3.2932         estimate D2E/DX2                !
 ! D95   D(27,12,30,13)          3.2617         estimate D2E/DX2                !
 ! D96   D(31,12,30,13)        145.8165         estimate D2E/DX2                !
 ! D97   D(32,13,30,12)        149.1359         estimate D2E/DX2                !
 ! D98   D(33,13,30,12)        -63.8734         estimate D2E/DX2                !
 ! D99   D(30,13,33,14)         42.6001         estimate D2E/DX2                !
 ! D100  D(32,13,33,14)       -164.8484         estimate D2E/DX2                !
 ! D101  D(28,14,34,35)         87.6181         estimate D2E/DX2                !
 ! D102  D(28,14,34,36)       -134.9158         estimate D2E/DX2                !
 ! D103  D(33,14,34,35)        -62.9378         estimate D2E/DX2                !
 ! D104  D(33,14,34,36)         74.5283         estimate D2E/DX2                !
 ! D105  D(28,14,33,13)         63.2669         estimate D2E/DX2                !
 ! D106  D(29,14,33,13)       -149.144          estimate D2E/DX2                !
 ! D107  D(29,34,40,41)        155.8797         estimate D2E/DX2                !
 ! D108  D(29,34,40,42)          3.539          estimate D2E/DX2                !
 ! D109  D(35,34,40,41)        -65.6266         estimate D2E/DX2                !
 ! D110  D(35,34,40,42)        142.0326         estimate D2E/DX2                !
 --------------------------------------------------------------------------------
 Trust Radius=3.00D-01 FncErr=1.00D-07 GrdErr=1.00D-06 EigMax=2.50D+02 EigMin=1.00D-04
 Number of steps in this run=    243 maximum allowed number of steps=    252.
 GradGradGradGradGradGradGradGradGradGradGradGradGradGradGradGradGradGrad

                          Input orientation:                          
 ---------------------------------------------------------------------
 Center     Atomic      Atomic             Coordinates (Angstroms)
 Number     Number       Type             X           Y           Z
 ---------------------------------------------------------------------
      1          6           0        1.900333   -2.304806   -0.067924
      2          6           0        0.878833   -1.360328   -0.183129
      3          6           0        1.254853   -0.036108   -0.385032
      4          7           0        2.548918    0.301637   -0.453505
      5          6           0        3.544708   -0.592090   -0.344978
      6          6           0        3.241386   -1.926242   -0.155541
      7          6           0       -0.579464   -1.746203   -0.105054
      8          7           0       -1.332909   -0.946712    0.866993
      9          6           0       -2.735137   -1.280689    0.581566
     10          6           0       -2.816830   -1.276442   -0.950289
     11          6           0       -1.364767   -1.543194   -1.415269
     12          8           0        2.829686    2.922488   -0.463056
     13          8           0        0.793044    3.146894    1.202781
     14          8           0       -1.258188    1.781876    0.159200
     15          1           0       -3.400279   -0.550963    1.058919
     16          1           0       -3.513188   -2.039415   -1.312205
     17          1           0       -3.167818   -0.304845   -1.313401
     18          1           0       -1.273253   -2.418410   -2.067105
     19          1           0       -0.966089   -0.680462   -1.962690
     20          1           0       -2.979683   -2.279530    0.988229
     21          1           0       -0.624998   -2.815520    0.182615
     22          1           0        0.538072    0.779396   -0.485266
     23          1           0        4.558119   -0.203717   -0.408025
     24          1           0        4.042214   -2.656281   -0.066519
     25          1           0        1.647178   -3.352481    0.097031
     26          6           0       -0.952896   -1.183930    2.252955
     27          1           0        2.763331    1.331501   -0.563627
     28          1           0       -1.350834    0.854512    0.474771
     29          1           0       -2.121049    2.045806   -0.200461
     30          1           0        2.097957    3.194355    0.140532
     31          1           0        2.894352    3.578191   -1.160434
     32          1           0        0.598001    3.785899    1.890432
     33          1           0       -0.060373    2.771649    0.894219
     34          8           0       -3.795380    2.310322   -0.919066
     35          1           0       -4.515048    2.646893   -0.377846
     36          1           0       -3.894206    2.745829   -1.770291
     37          1           0        0.089605   -0.883933    2.416878
     38          1           0       -1.067672   -2.246810    2.535326
     39          1           0       -1.585813   -0.578585    2.911809
     40          8           0       -4.002313    3.656944   -3.291790
     41          1           0       -4.577210    3.773345   -4.067530
     42          1           0       -3.121560    3.874097   -3.646052
 ---------------------------------------------------------------------
                    Distance matrix (angstroms):
                    1          2          3          4          5
     1  C    0.000000
     2  C    1.395985   0.000000
     3  C    2.379956   1.391300   0.000000
     4  N    2.713463   2.371585   1.339166   0.000000
     5  C    2.390423   2.779078   2.356726   1.342432   0.000000
     6  C    1.396213   2.429542   2.751652   2.351965   1.381250
     7  C    2.542206   1.510505   2.523397   3.755242   4.289328
     8  N    3.629372   2.483070   3.015506   4.286102   5.038430
     9  C    4.791475   3.694845   4.289908   5.612162   6.385069
    10  C    4.907925   3.775380   4.293780   5.615014   6.426811
    11  C    3.613346   2.566194   3.192978   4.432304   5.114007
    12  O    5.323949   4.714520   3.352533   2.635865   3.588517
    13  O    5.706296   4.716265   3.586909   3.731201   4.893589
    14  O    5.169991   3.815428   3.149068   4.130444   5.381238
    15  H    5.695808   4.528637   4.901053   6.197362   7.085581
    16  H    5.561014   4.585392   5.254246   6.554923   7.269400
    17  H    5.589026   4.332083   4.527042   5.812771   6.788104
    18  H    3.752503   3.049652   3.859540   4.960983   5.432671
    19  H    3.800659   2.651941   2.799425   3.949358   4.792921
    20  H    4.993061   4.135838   4.984986   6.269486   6.869685
    21  H    2.588609   2.124349   3.403115   4.493891   4.754834
    22  H    3.397386   2.187653   1.090353   2.067067   3.307645
    23  H    3.405007   3.863350   3.307595   2.072279   1.087111
    24  H    2.170528   3.420537   3.838768   3.336011   2.141480
    25  H    1.090376   2.153490   3.374112   3.803788   3.378720
    26  C    3.844965   3.053007   3.626379   4.668462   5.227616
    27  H    3.770042   3.307878   2.043956   1.057695   2.087716
    28  H    4.565730   3.210882   2.884800   4.046657   5.170201
    29  H    5.925952   4.538870   3.970535   4.991468   6.251414
    30  H    5.506658   4.726114   3.379783   2.987317   4.082398
    31  H    6.065584   5.422768   4.043805   3.369700   4.298741
    32  H    6.529006   5.555373   4.496324   4.630356   5.731224
    33  H    5.526344   4.372187   3.354072   3.837410   5.083990
    34  O    7.380040   5.988618   5.594263   6.670958   7.913941
    35  H    8.110024   6.722328   6.363199   7.443491   8.686297
    36  H    7.872970   6.493189   6.014227   7.015828   8.277117
    37  H    3.387013   2.758599   3.150763   3.961426   4.432918
    38  H    3.948332   3.459007   4.337029   5.339234   5.684039
    39  H    4.900190   4.032895   4.385525   5.403344   6.076931
    40  O    8.987603   7.659137   7.051643   7.888762   9.148525
    41  H    9.741629   8.438695   7.879447   8.711810   9.943841
    42  H    8.729332   7.442727   6.713936   7.423553   8.676580
                    6          7          8          9         10
     6  C    0.000000
     7  C    3.825423   0.000000
     8  N    4.788448   1.466881   0.000000
     9  C    6.056310   2.309778   1.469440   0.000000
    10  C    6.144579   2.437397   2.369231   1.534038   0.000000
    11  C    4.790646   1.540966   2.359137   2.436016   1.547853
    12  O    4.875884   5.791990   5.836689   7.051609   7.053478
    13  O    5.794491   5.247534   4.624937   5.695389   6.101869
    14  O    5.839124   3.602477   2.819884   3.426233   3.607442
    15  H    6.890430   3.277259   2.113639   1.096713   2.214419
    16  H    6.853827   3.185894   3.270554   2.183437   1.094543
    17  H    6.711741   3.199561   2.921130   2.174945   1.095009
    18  H    4.927299   2.186973   3.283045   3.232178   2.221261
    19  H    4.745588   2.176257   2.865755   3.156429   2.192120
    20  H    6.335197   2.690865   2.122019   1.105830   2.188734
    21  H    3.981719   1.108271   2.112334   2.639613   2.907982
    22  H    3.838893   2.787848   2.882468   4.011979   3.962081
    23  H    2.182802   5.372691   6.073049   7.438464   7.472259
    24  H    1.087294   4.710587   5.717169   6.945844   7.052056
    25  H    2.153938   2.752981   3.906595   4.871528   5.033308
    26  C    4.893249   2.452715   1.456562   2.445258   3.707234
    27  H    3.317825   4.566928   4.900623   6.194203   6.171634
    28  H    5.405402   2.773973   1.843520   2.546916   2.953118
    29  H    6.673447   4.094499   3.273498   3.471922   3.476160
    30  H    5.255055   5.624767   5.426511   6.601464   6.732982
    31  H    5.606160   6.444408   6.515746   7.637698   7.498615
    32  H    6.618311   5.997711   5.212816   6.204293   6.734839
    33  H    5.837276   4.656070   3.930178   4.865548   5.233288
    34  O    8.249092   5.240241   4.456685   4.033779   3.717985
    35  H    9.006956   5.904450   4.958793   4.417517   4.313258
    36  H    8.680572   5.825709   5.210602   4.804947   4.244032
    37  H    4.199699   2.747964   2.104669   3.391895   4.465338
    38  H    5.090335   2.731403   2.131652   2.744268   4.018791
    39  H    5.875940   3.387851   2.093024   2.691455   4.113175
    40  O    9.668464   7.145990   6.753876   6.402253   5.588049
    41  H   10.436445   7.883438   7.560023   7.109893   6.190030
    42  H    9.290569   7.112572   6.841567   6.677866   5.821344
                   11         12         13         14         15
    11  C    0.000000
    12  O    6.200198   0.000000
    13  O    5.788546   2.640697   0.000000
    14  O    3.680544   4.289395   2.675797   0.000000
    15  H    3.354018   7.293403   5.592745   3.292444   0.000000
    16  H    2.207390   8.097752   7.194900   4.674647   2.801868
    17  H    2.189721   6.863586   5.825298   3.188988   2.396354
    18  H    1.095111   6.923314   6.777488   4.753847   4.217063
    19  H    1.096777   5.444085   5.269099   3.263564   3.882290
    20  H    2.987800   7.931960   6.612532   4.488413   1.780405
    21  H    2.172396   6.728779   6.213048   4.640854   3.687589
    22  H    3.143267   3.137647   2.918829   2.155656   4.434520
    23  H    6.155430   3.572627   5.291227   6.172014   8.099914
    24  H    5.682740   5.722773   6.770899   6.916824   7.815989
    25  H    3.825230   6.409934   6.647865   5.899715   5.852397
    26  C    3.708716   6.208648   4.786148   3.643215   2.795720
    27  H    5.101996   1.595543   3.209031   4.110709   6.645782
    28  H    3.053103   4.757393   3.221991   0.983957   2.552805
    29  H    3.863760   5.034611   3.416639   0.971362   3.156846
    30  H    6.070860   0.986741   1.683278   3.641312   6.715761
    31  H    6.665855   0.959408   3.191598   4.712936   7.848428
    32  H    6.571100   3.356308   0.958766   3.233993   5.957015
    33  H    5.064884   3.196465   0.982008   1.718914   4.714006
    34  O    4.582977   6.668897   5.124034   2.807001   3.500783
    35  H    5.343907   7.350397   5.560955   3.412303   3.678762
    36  H    4.991976   6.852065   5.565099   3.405985   4.372326
    37  H    4.151527   5.503717   4.268070   3.744355   3.759549
    38  H    4.023747   7.134517   5.859179   4.681088   3.239866
    39  H    4.438799   6.568398   4.739085   3.640875   2.593502
    40  O    6.125309   7.430839   6.592175   4.791183   6.082565
    41  H    6.754248   8.281201   7.550380   5.731239   6.809206
    42  H    6.116351   6.815743   6.274084   4.725408   6.464951
                   16         17         18         19         20
    16  H    0.000000
    17  H    1.768620   0.000000
    18  H    2.393913   2.936767   0.000000
    19  H    2.959324   2.326000   1.767969   0.000000
    20  H    2.373664   3.038466   3.502322   3.914014   0.000000
    21  H    3.343421   3.873950   2.374694   3.045841   2.545750
    22  H    5.004221   3.949051   4.001134   2.564462   4.889051
    23  H    8.326664   7.779462   6.454635   5.758571   7.942102
    24  H    7.682210   7.685605   5.684463   5.708102   7.110659
    25  H    5.508127   5.870399   3.752984   4.267470   4.832525
    26  C    4.471836   4.289238   4.504385   4.245623   2.628257
    27  H    7.163668   6.198251   5.711067   4.462504   6.959167
    28  H    4.030369   2.800553   4.144776   2.906095   3.569175
    29  H    4.456799   2.803555   4.912468   3.445565   4.567140
    30  H    7.809465   6.487427   6.909548   5.368997   7.514282
    31  H    8.522740   7.200783   7.358682   5.803684   8.569360
    32  H    7.816204   6.417174   7.593230   6.102566   7.099523
    33  H    6.319539   4.898430   6.097313   4.571578   5.834862
    34  O    4.376574   2.718167   5.480878   4.247214   5.036852
    35  H    4.882441   3.376840   6.246609   5.116457   5.337898
    36  H    4.822196   3.169069   5.798867   4.511137   5.805172
    37  H    5.312374   4.986094   4.931339   4.509602   3.661865
    38  H    4.563667   4.795262   4.610215   4.764023   2.459749
    39  H    4.867350   4.519964   5.317164   4.914792   2.921686
    40  O    6.050331   4.506237   6.771820   5.458778   7.389591
    41  H    6.520133   5.118910   7.297648   6.107941   8.046744
    42  H    6.369445   4.786121   6.745736   5.312604   7.704791
                   21         22         23         24         25
    21  H    0.000000
    22  H    3.836954   0.000000
    23  H    5.833959   4.139234   0.000000
    24  H    4.676568   4.925265   2.529398   0.000000
    25  H    2.336329   4.317591   4.317797   2.499528   0.000000
    26  C    2.656296   3.684493   6.197816   5.700781   4.013852
    27  H    5.406980   2.294066   2.366933   4.217234   4.860242
    28  H    3.752510   2.120207   6.067529   6.457835   5.179725
    29  H    5.100726   2.959026   7.050867   7.753281   6.590109
    30  H    6.598095   2.942260   4.230863   6.168707   6.562481
    31  H    7.420859   3.720371   4.199651   6.432953   7.153382
    32  H    6.927561   3.832309   6.073094   7.562668   7.434617
    33  H    5.660533   2.496034   5.646159   6.871438   6.407512
    34  O    6.126931   4.616354   8.738564   9.317825   7.919674
    35  H    6.729380   5.388238   9.510481  10.072106   8.613421
    36  H    6.740190   5.016297   9.055241   9.750507   8.448859
    37  H    3.038687   3.374941   5.330140   4.993155   3.728465
    38  H    2.460618   4.567309   6.669863   5.748756   3.812899
    39  H    3.657259   4.230262   6.993549   6.697906   5.105850
    40  O    8.085205   6.063988   9.823533  10.722574   9.619402
    41  H    8.780481   6.925493  10.614294  11.473563  10.337503
    42  H    8.102005   5.741136   9.278515  10.333370   9.432654
                   26         27         28         29         30
    26  C    0.000000
    27  H    5.298195   0.000000
    28  H    2.734143   4.269911   0.000000
    29  H    4.220785   4.949676   1.571099   0.000000
    30  H    5.739287   2.099711   4.180998   4.385824   0.000000
    31  H    7.009304   2.328296   5.302257   5.331416   1.572923
    32  H    5.218803   4.090859   3.794085   3.846166   2.379484
    33  H    4.276607   3.488932   2.348753   2.443677   2.324890
    34  O    5.509195   6.640867   3.168275   1.841126   6.052742
    35  H    5.855360   7.398620   3.735216   2.474672   6.655844
    36  H    6.346717   6.912247   3.884086   2.469511   6.305429
    37  H    1.097122   4.576065   2.978059   4.507863   5.084060
    38  H    1.105722   6.089696   3.734202   5.198143   6.735171
    39  H    1.095954   5.885757   2.836924   4.106109   5.956947
    40  O    7.967258   7.656663   5.391748   3.961216   7.014850
    41  H    8.812420   8.492554   6.289800   4.896053   7.912071
    42  H    8.067528   7.113232   5.406898   4.026880   6.484105
                   31         32         33         34         35
    31  H    0.000000
    32  H    3.824154   0.000000
    33  H    3.688158   1.566716   0.000000
    34  O    6.813095   5.419631   4.177452   0.000000
    35  H    7.508593   5.708388   4.634419   0.961312   0.000000
    36  H    6.866533   5.887492   4.668892   0.961258   1.527788
    37  H    6.369797   4.726832   3.962861   6.035304   6.440500
    38  H    7.955307   6.291576   5.375204   6.335666   6.657274
    39  H    7.343965   4.986078   4.197821   5.282383   5.459483
    40  O    7.218924   6.930724   5.817672   2.736061   3.126367
    41  H    8.019572   7.891785   6.784111   3.558724   3.858306
    42  H    6.515908   6.670499   5.585724   3.214946   3.758857
                   36         37         38         39         40
    36  H    0.000000
    37  H    6.824830   0.000000
    38  H    7.173150   1.791858   0.000000
    39  H    6.188899   1.773477   1.786948   0.000000
    40  O    1.776732   8.363746   8.798961   7.890742   0.000000
    41  H    2.607602   9.247537   9.599835   8.752081   0.972537
    42  H    2.321303   8.349224   8.938310   8.074059   0.973849
                   41         42
    41  H    0.000000
    42  H    1.518786   0.000000
 Stoichiometry    C10H25N2O5(1+)
 Framework group  C1[X(C10H25N2O5)]
 Deg. of freedom   120
 Full point group                 C1      NOp   1
 Largest Abelian subgroup         C1      NOp   1
 Largest concise Abelian subgroup C1      NOp   1
                         Standard orientation:                         
 ---------------------------------------------------------------------
 Center     Atomic      Atomic             Coordinates (Angstroms)
 Number     Number       Type             X           Y           Z
 ---------------------------------------------------------------------
      1          6           0        3.043986   -1.276366   -0.722281
      2          6           0        1.722530   -0.900185   -0.475268
      3          6           0        1.448182    0.462499   -0.415768
      4          7           0        2.426303    1.362091   -0.581229
      5          6           0        3.702260    1.019579   -0.819439
      6          6           0        4.041807   -0.316663   -0.903208
      7          6           0        0.622702   -1.918695   -0.289145
      8          7           0       -0.156454   -1.704020    0.935016
      9          6           0       -1.311127   -2.598706    0.775263
     10          6           0       -1.730917   -2.410768   -0.688201
     11          6           0       -0.448604   -1.911307   -1.396765
     12          8           0        1.564613    3.790048   -0.024188
     13          8           0        0.058390    2.811537    1.911551
     14          8           0       -1.402348    0.824931    0.872547
     15          1           0       -2.095141   -2.333103    1.494678
     16          1           0       -2.102115   -3.346727   -1.117406
     17          1           0       -2.531176   -1.667380   -0.765677
     18          1           0       -0.146254   -2.542331   -2.239179
     19          1           0       -0.586411   -0.892830   -1.779695
     20          1           0       -1.012378   -3.645446    0.970061
     21          1           0        1.099018   -2.918718   -0.252524
     22          1           0        0.452068    0.863207   -0.225874
     23          1           0        4.413840    1.834041   -0.929511
     24          1           0        5.073108   -0.602268   -1.095706
     25          1           0        3.301148   -2.334889   -0.770410
     26          6           0        0.590585   -1.938263    2.163281
     27          1           0        2.155039    2.379293   -0.479077
     28          1           0       -1.020993   -0.076285    0.975261
     29          1           0       -2.352585    0.712594    0.705292
     30          1           0        0.943896    3.605420    0.720312
     31          1           0        1.187030    4.495510   -0.553546
     32          1           0       -0.227075    3.182797    2.748157
     33          1           0       -0.602265    2.135751    1.644741
     34          8           0       -4.096643    0.280506    0.303662
     35          1           0       -4.748175    0.167164    1.001359
     36          1           0       -4.559616    0.740187   -0.402289
     37          1           0        1.416307   -1.220787    2.247471
     38          1           0        1.002195   -2.963637    2.205778
     39          1           0       -0.071618   -1.793194    3.024418
     40          8           0       -5.382965    1.709594   -1.642903
     41          1           0       -6.112177    1.660212   -2.284494
     42          1           0       -4.781424    2.355236   -2.054822
 ---------------------------------------------------------------------
 Rotational constants (GHZ):           0.4009807           0.2533621           0.1922763
 Standard basis: Aug-CC-pVDZ (5D, 7F)
 There are   650 symmetry adapted cartesian basis functions of A   symmetry.
 There are   616 symmetry adapted basis functions of A   symmetry.
   616 basis functions,  1006 primitive gaussians,   650 cartesian basis functions
    69 alpha electrons       69 beta electrons
       nuclear repulsion energy      1356.0572949369 Hartrees.
 NAtoms=   42 NActive=   42 NUniq=   42 SFac= 1.00D+00 NAtFMM=   60 NAOKFM=F Big=F
 Integral buffers will be    131072 words long.
 Raffenetti 2 integral format.
 Two-electron integral symmetry is turned on.
 Nuclear repulsion after empirical dispersion term =     1356.0257651203 Hartrees.
 One-electron integrals computed using PRISM.
 NBasis=   616 RedAO= T EigKep=  1.82D-06  NBF=   616
 NBsUse=   616 1.00D-06 EigRej= -1.00D+00 NBFU=   616
 ExpMin= 2.97D-02 ExpMax= 1.17D+04 ExpMxC= 4.01D+02 IAcc=3 IRadAn=         5 AccDes= 0.00D+00
 Harris functional with IExCor= 4639 and IRadAn=       5 diagonalized for initial guess.
 HarFok:  IExCor= 4639 AccDes= 0.00D+00 IRadAn=         5 IDoV= 1 UseB2=F ITyADJ=14
 ICtDFT=  3500011 ScaDFX=  1.000000  1.000000  1.000000  1.000000
 FoFCou: FMM=F IPFlag=           0 FMFlag=      100000 FMFlg1=           0
         NFxFlg=           0 DoJE=T BraDBF=F KetDBF=T FulRan=T
         wScrn=  0.000000 ICntrl=       500 IOpCl=  0 I1Cent=   200000004 NGrid=           0
         NMat0=    1 NMatS0=      1 NMatT0=    0 NMatD0=    1 NMtDS0=    0 NMtDT0=    0
 Petite list used in FoFCou.
 Requested convergence on RMS density matrix=1.00D-08 within 128 cycles.
 Requested convergence on MAX density matrix=1.00D-06.
 Requested convergence on             energy=1.00D-06.
 No special actions if energy rises.
 SCF Done:  E(RwB97XD) =  -881.466591127     A.U. after   16 cycles
            NFock= 16  Conv=0.17D-08     -V/T= 2.0062

 **********************************************************************

            Population analysis using the SCF density.

 **********************************************************************

 Orbital symmetries:
       Occupied  (A) (A) (A) (A) (A) (A) (A) (A) (A) (A) (A) (A)
                 (A) (A) (A) (A) (A) (A) (A) (A) (A) (A) (A) (A)
                 (A) (A) (A) (A) (A) (A) (A) (A) (A) (A) (A) (A)
                 (A) (A) (A) (A) (A) (A) (A) (A) (A) (A) (A) (A)
                 (A) (A) (A) (A) (A) (A) (A) (A) (A) (A) (A) (A)
                 (A) (A) (A) (A) (A) (A) (A) (A) (A)
       Virtual   (A) (A) (A) (A) (A) (A) (A) (A) (A) (A) (A) (A)
                 (A) (A) (A) (A) (A) (A) (A) (A) (A) (A) (A) (A)
                 (A) (A) (A) (A) (A) (A) (A) (A) (A) (A) (A) (A)
                 (A) (A) (A) (A) (A) (A) (A) (A) (A) (A) (A) (A)
                 (A) (A) (A) (A) (A) (A) (A) (A) (A) (A) (A) (A)
                 (A) (A) (A) (A) (A) (A) (A) (A) (A) (A) (A) (A)
                 (A) (A) (A) (A) (A) (A) (A) (A) (A) (A) (A) (A)
                 (A) (A) (A) (A) (A) (A) (A) (A) (A) (A) (A) (A)
                 (A) (A) (A) (A) (A) (A) (A) (A) (A) (A) (A) (A)
                 (A) (A) (A) (A) (A) (A) (A) (A) (A) (A) (A) (A)
                 (A) (A) (A) (A) (A) (A) (A) (A) (A) (A) (A) (A)
                 (A) (A) (A) (A) (A) (A) (A) (A) (A) (A) (A) (A)
                 (A) (A) (A) (A) (A) (A) (A) (A) (A) (A) (A) (A)
                 (A) (A) (A) (A) (A) (A) (A) (A) (A) (A) (A) (A)
                 (A) (A) (A) (A) (A) (A) (A) (A) (A) (A) (A) (A)
                 (A) (A) (A) (A) (A) (A) (A) (A) (A) (A) (A) (A)
                 (A) (A) (A) (A) (A) (A) (A) (A) (A) (A) (A) (A)
                 (A) (A) (A) (A) (A) (A) (A) (A) (A) (A) (A) (A)
                 (A) (A) (A) (A) (A) (A) (A) (A) (A) (A) (A) (A)
                 (A) (A) (A) (A) (A) (A) (A) (A) (A) (A) (A) (A)
                 (A) (A) (A) (A) (A) (A) (A) (A) (A) (A) (A) (A)
                 (A) (A) (A) (A) (A) (A) (A) (A) (A) (A) (A) (A)
                 (A) (A) (A) (A) (A) (A) (A) (A) (A) (A) (A) (A)
                 (A) (A) (A) (A) (A) (A) (A) (A) (A) (A) (A) (A)
                 (A) (A) (A) (A) (A) (A) (A) (A) (A) (A) (A) (A)
                 (A) (A) (A) (A) (A) (A) (A) (A) (A) (A) (A) (A)
                 (A) (A) (A) (A) (A) (A) (A) (A) (A) (A) (A) (A)
                 (A) (A) (A) (A) (A) (A) (A) (A) (A) (A) (A) (A)
                 (A) (A) (A) (A) (A) (A) (A) (A) (A) (A) (A) (A)
                 (A) (A) (A) (A) (A) (A) (A) (A) (A) (A) (A) (A)
                 (A) (A) (A) (A) (A) (A) (A) (A) (A) (A) (A) (A)
                 (A) (A) (A) (A) (A) (A) (A) (A) (A) (A) (A) (A)
                 (A) (A) (A) (A) (A) (A) (A) (A) (A) (A) (A) (A)
                 (A) (A) (A) (A) (A) (A) (A) (A) (A) (A) (A) (A)
                 (A) (A) (A) (A) (A) (A) (A) (A) (A) (A) (A) (A)
                 (A) (A) (A) (A) (A) (A) (A) (A) (A) (A) (A) (A)
                 (A) (A) (A) (A) (A) (A) (A) (A) (A) (A) (A) (A)
                 (A) (A) (A) (A) (A) (A) (A) (A) (A) (A) (A) (A)
                 (A) (A) (A) (A) (A) (A) (A) (A) (A) (A) (A) (A)
                 (A) (A) (A) (A) (A) (A) (A) (A) (A) (A) (A) (A)
                 (A) (A) (A) (A) (A) (A) (A) (A) (A) (A) (A) (A)
                 (A) (A) (A) (A) (A) (A) (A) (A) (A) (A) (A) (A)
                 (A) (A) (A) (A) (A) (A) (A) (A) (A) (A) (A) (A)
                 (A) (A) (A) (A) (A) (A) (A) (A) (A) (A) (A) (A)
                 (A) (A) (A) (A) (A) (A) (A) (A) (A) (A) (A) (A)
                 (A) (A) (A) (A) (A) (A) (A)
 The electronic state is 1-A.
 Alpha  occ. eigenvalues --  -19.39463 -19.38644 -19.36973 -19.36432 -19.35496
 Alpha  occ. eigenvalues --  -14.66850 -14.56962 -10.50418 -10.49742 -10.47210
 Alpha  occ. eigenvalues --  -10.46590 -10.46309 -10.45598 -10.42316 -10.42271
 Alpha  occ. eigenvalues --  -10.40701 -10.39324  -1.25248  -1.23330  -1.23105
 Alpha  occ. eigenvalues --   -1.21353  -1.20863  -1.19383  -1.16501  -1.07644
 Alpha  occ. eigenvalues --   -1.04023  -0.99591  -0.95086  -0.89963  -0.88883
 Alpha  occ. eigenvalues --   -0.87978  -0.81865  -0.78774  -0.78664  -0.74635
 Alpha  occ. eigenvalues --   -0.74118  -0.73392  -0.73348  -0.72530  -0.71739
 Alpha  occ. eigenvalues --   -0.71688  -0.70160  -0.68730  -0.67943  -0.67273
 Alpha  occ. eigenvalues --   -0.64774  -0.63769  -0.62912  -0.62295  -0.61884
 Alpha  occ. eigenvalues --   -0.60849  -0.60035  -0.58225  -0.57754  -0.56795
 Alpha  occ. eigenvalues --   -0.56515  -0.55679  -0.54836  -0.54565  -0.53017
 Alpha  occ. eigenvalues --   -0.52664  -0.52329  -0.52192  -0.51090  -0.50704
 Alpha  occ. eigenvalues --   -0.49749  -0.49421  -0.48635  -0.43232
 Alpha virt. eigenvalues --   -0.13250  -0.10390  -0.06083  -0.05306  -0.04536
 Alpha virt. eigenvalues --   -0.04045  -0.03568  -0.02932  -0.02684  -0.02402
 Alpha virt. eigenvalues --   -0.02075  -0.01292  -0.01120  -0.00640  -0.00160
 Alpha virt. eigenvalues --    0.00007   0.00469   0.00683   0.00951   0.01633
 Alpha virt. eigenvalues --    0.01963   0.02238   0.02741   0.02992   0.03132
 Alpha virt. eigenvalues --    0.03326   0.03554   0.04045   0.04152   0.04363
 Alpha virt. eigenvalues --    0.04737   0.04869   0.05425   0.05695   0.05866
 Alpha virt. eigenvalues --    0.06213   0.06673   0.06740   0.06840   0.07232
 Alpha virt. eigenvalues --    0.07639   0.07721   0.08001   0.08292   0.08421
 Alpha virt. eigenvalues --    0.09103   0.09156   0.09354   0.09737   0.10047
 Alpha virt. eigenvalues --    0.10527   0.10672   0.11010   0.11280   0.11573
 Alpha virt. eigenvalues --    0.11907   0.12078   0.12278   0.12756   0.12993
 Alpha virt. eigenvalues --    0.13439   0.13855   0.14316   0.14428   0.14938
 Alpha virt. eigenvalues --    0.15118   0.15185   0.15470   0.15509   0.15913
 Alpha virt. eigenvalues --    0.16258   0.16347   0.16712   0.16864   0.17080
 Alpha virt. eigenvalues --    0.17519   0.17700   0.17862   0.18135   0.18256
 Alpha virt. eigenvalues --    0.18701   0.19021   0.19223   0.19716   0.19844
 Alpha virt. eigenvalues --    0.19998   0.20174   0.20451   0.21109   0.21335
 Alpha virt. eigenvalues --    0.21433   0.21671   0.22015   0.22154   0.22417
 Alpha virt. eigenvalues --    0.22625   0.23270   0.23421   0.24196   0.24422
 Alpha virt. eigenvalues --    0.24578   0.24930   0.25215   0.25903   0.25959
 Alpha virt. eigenvalues --    0.26165   0.26200   0.26367   0.26634   0.27124
 Alpha virt. eigenvalues --    0.27240   0.27987   0.28114   0.28347   0.28782
 Alpha virt. eigenvalues --    0.28964   0.29336   0.29667   0.30110   0.30803
 Alpha virt. eigenvalues --    0.31159   0.32029   0.32298   0.32422   0.32583
 Alpha virt. eigenvalues --    0.32869   0.33161   0.33484   0.33601   0.34201
 Alpha virt. eigenvalues --    0.34536   0.34861   0.35494   0.35882   0.36173
 Alpha virt. eigenvalues --    0.36582   0.36801   0.37332   0.37519   0.37935
 Alpha virt. eigenvalues --    0.38439   0.38781   0.39100   0.39592   0.39882
 Alpha virt. eigenvalues --    0.40745   0.40934   0.41128   0.41492   0.41701
 Alpha virt. eigenvalues --    0.42506   0.42646   0.42964   0.43363   0.43705
 Alpha virt. eigenvalues --    0.44096   0.44603   0.45296   0.45860   0.46239
 Alpha virt. eigenvalues --    0.46476   0.46536   0.47084   0.47153   0.47531
 Alpha virt. eigenvalues --    0.47933   0.48371   0.48684   0.49259   0.49396
 Alpha virt. eigenvalues --    0.50027   0.50414   0.50774   0.51028   0.51425
 Alpha virt. eigenvalues --    0.51687   0.51945   0.52083   0.52491   0.52835
 Alpha virt. eigenvalues --    0.53038   0.53451   0.53707   0.53916   0.54266
 Alpha virt. eigenvalues --    0.54674   0.54989   0.55421   0.55945   0.56338
 Alpha virt. eigenvalues --    0.56708   0.56994   0.57341   0.57776   0.58153
 Alpha virt. eigenvalues --    0.58488   0.58841   0.59075   0.59158   0.59375
 Alpha virt. eigenvalues --    0.60289   0.60780   0.61413   0.61697   0.61977
 Alpha virt. eigenvalues --    0.62412   0.63131   0.63360   0.63683   0.63841
 Alpha virt. eigenvalues --    0.64540   0.65014   0.65369   0.65744   0.66203
 Alpha virt. eigenvalues --    0.66659   0.67183   0.67924   0.68537   0.68944
 Alpha virt. eigenvalues --    0.69033   0.69301   0.70010   0.70156   0.70441
 Alpha virt. eigenvalues --    0.70836   0.71195   0.71823   0.72752   0.72964
 Alpha virt. eigenvalues --    0.73338   0.73517   0.74224   0.74520   0.74646
 Alpha virt. eigenvalues --    0.75152   0.75527   0.75977   0.76773   0.77271
 Alpha virt. eigenvalues --    0.77509   0.77746   0.78497   0.79069   0.79353
 Alpha virt. eigenvalues --    0.80088   0.80516   0.81235   0.81606   0.81856
 Alpha virt. eigenvalues --    0.82466   0.83304   0.84188   0.84779   0.85040
 Alpha virt. eigenvalues --    0.85712   0.85823   0.86087   0.87470   0.88435
 Alpha virt. eigenvalues --    0.89067   0.89599   0.90023   0.90583   0.90980
 Alpha virt. eigenvalues --    0.91883   0.92641   0.93013   0.93695   0.94119
 Alpha virt. eigenvalues --    0.94596   0.95292   0.95798   0.96111   0.97888
 Alpha virt. eigenvalues --    0.98001   0.98451   0.98586   1.00051   1.00272
 Alpha virt. eigenvalues --    1.01840   1.02550   1.03064   1.03227   1.04390
 Alpha virt. eigenvalues --    1.04600   1.05369   1.06255   1.06587   1.07146
 Alpha virt. eigenvalues --    1.08489   1.10075   1.10258   1.10667   1.10956
 Alpha virt. eigenvalues --    1.11509   1.11928   1.13605   1.13875   1.14195
 Alpha virt. eigenvalues --    1.14725   1.15292   1.16456   1.17116   1.17389
 Alpha virt. eigenvalues --    1.18135   1.19025   1.19770   1.21572   1.21673
 Alpha virt. eigenvalues --    1.22145   1.23185   1.24320   1.24547   1.25333
 Alpha virt. eigenvalues --    1.26585   1.28541   1.28698   1.29575   1.30558
 Alpha virt. eigenvalues --    1.31266   1.31569   1.32787   1.33291   1.33614
 Alpha virt. eigenvalues --    1.33840   1.34387   1.35760   1.36280   1.37997
 Alpha virt. eigenvalues --    1.38349   1.38544   1.39109   1.39518   1.40770
 Alpha virt. eigenvalues --    1.41647   1.43018   1.43587   1.44206   1.45490
 Alpha virt. eigenvalues --    1.46417   1.47049   1.47409   1.48558   1.49457
 Alpha virt. eigenvalues --    1.50623   1.51585   1.51957   1.54026   1.54448
 Alpha virt. eigenvalues --    1.54963   1.55378   1.56721   1.57749   1.59011
 Alpha virt. eigenvalues --    1.59713   1.60999   1.61785   1.62486   1.63202
 Alpha virt. eigenvalues --    1.63935   1.64450   1.65483   1.66002   1.66710
 Alpha virt. eigenvalues --    1.67373   1.68304   1.68636   1.68880   1.70986
 Alpha virt. eigenvalues --    1.71442   1.71974   1.73008   1.73311   1.73655
 Alpha virt. eigenvalues --    1.74239   1.74396   1.76350   1.76833   1.77735
 Alpha virt. eigenvalues --    1.78455   1.79147   1.79400   1.80084   1.80922
 Alpha virt. eigenvalues --    1.81234   1.82671   1.83464   1.83877   1.84212
 Alpha virt. eigenvalues --    1.85011   1.85437   1.86009   1.86860   1.87916
 Alpha virt. eigenvalues --    1.88399   1.89416   1.90827   1.91402   1.91843
 Alpha virt. eigenvalues --    1.92569   1.93482   1.93928   1.94702   1.94947
 Alpha virt. eigenvalues --    1.95841   1.96540   1.97176   1.97738   1.98200
 Alpha virt. eigenvalues --    1.99486   2.00287   2.00750   2.02261   2.02491
 Alpha virt. eigenvalues --    2.03539   2.04324   2.05265   2.06260   2.06489
 Alpha virt. eigenvalues --    2.07921   2.08181   2.10551   2.11080   2.11533
 Alpha virt. eigenvalues --    2.12355   2.12846   2.13383   2.13802   2.14525
 Alpha virt. eigenvalues --    2.14909   2.16126   2.17757   2.18016   2.19861
 Alpha virt. eigenvalues --    2.20662   2.21318   2.22905   2.24112   2.24314
 Alpha virt. eigenvalues --    2.25796   2.26486   2.27007   2.27552   2.28404
 Alpha virt. eigenvalues --    2.28592   2.29746   2.30463   2.31402   2.32683
 Alpha virt. eigenvalues --    2.33614   2.34257   2.35369   2.36877   2.37704
 Alpha virt. eigenvalues --    2.38989   2.39939   2.40354   2.42473   2.42988
 Alpha virt. eigenvalues --    2.43594   2.45285   2.46483   2.47349   2.48699
 Alpha virt. eigenvalues --    2.49979   2.51150   2.51379   2.53324   2.53427
 Alpha virt. eigenvalues --    2.55467   2.56520   2.57306   2.58134   2.58978
 Alpha virt. eigenvalues --    2.60089   2.61671   2.62792   2.63197   2.65298
 Alpha virt. eigenvalues --    2.66045   2.67207   2.68302   2.69719   2.70210
 Alpha virt. eigenvalues --    2.70871   2.71729   2.73141   2.74387   2.75361
 Alpha virt. eigenvalues --    2.77089   2.77743   2.78987   2.80790   2.81635
 Alpha virt. eigenvalues --    2.83729   2.84318   2.84499   2.86688   2.87827
 Alpha virt. eigenvalues --    2.88243   2.89313   2.92224   2.93330   2.94629
 Alpha virt. eigenvalues --    2.97810   2.98103   3.02166   3.06085   3.07853
 Alpha virt. eigenvalues --    3.10553   3.13546   3.17556   3.21204   3.24485
 Alpha virt. eigenvalues --    3.29615   3.30678   3.35846   3.37235   3.38806
 Alpha virt. eigenvalues --    3.40667   3.42920   3.43225   3.43897   3.44315
 Alpha virt. eigenvalues --    3.46873   3.48716   3.53758   3.54926   3.56591
 Alpha virt. eigenvalues --    3.58267   3.59266   3.65036   3.67200   3.71812
 Alpha virt. eigenvalues --    3.77673   3.81109   3.82243   3.86640   3.90479
 Alpha virt. eigenvalues --    4.01161   4.06293   4.07149   4.09280   4.18858
 Alpha virt. eigenvalues --    4.38010   5.10209
          Condensed to atoms (all electrons):
               1          2          3          4          5          6
     1  C   23.786850  -9.722723  -2.740034  -0.268938   1.604352  -4.525276
     2  C   -9.722723  24.715056  -3.098510  -0.318410  -0.514338   0.424598
     3  C   -2.740034  -3.098510  16.956990  -1.376670  -1.862386   0.638218
     4  N   -0.268938  -0.318410  -1.376670   7.882321   0.317255   0.003683
     5  C    1.604352  -0.514338  -1.862386   0.317255   9.978797  -2.434599
     6  C   -4.525276   0.424598   0.638218   0.003683  -2.434599  11.660021
     7  C   -0.507379 -10.366294  -2.571088   1.130676  -0.668895   0.187794
     8  N   -0.343895   2.124496   0.571032  -0.136643   0.120515  -0.228806
     9  C   -0.019809  -0.494518  -0.259903   0.052261  -0.004588  -0.050566
    10  C    0.043186   0.375080  -0.163289   0.049341   0.001941  -0.019935
    11  C   -0.411480   0.257824  -0.700473   0.009004  -0.069999   0.038461
    12  O    0.032677  -0.072524   0.011945  -0.142138   0.033622  -0.017187
    13  O   -0.006359   0.011989  -0.021825  -0.003383   0.008695  -0.004493
    14  O   -0.005594   0.007670  -0.093872  -0.007832  -0.017460   0.011428
    15  H    0.021153  -0.203624  -0.030331   0.005014   0.001323  -0.002148
    16  H    0.003901   0.008540   0.021551  -0.002662   0.000887  -0.000548
    17  H    0.008481  -0.072830  -0.054685   0.011998  -0.000992  -0.003054
    18  H   -0.070202   0.460056   0.267568  -0.013688   0.005669  -0.003140
    19  H    0.051157   0.026990  -0.137542  -0.001134   0.009004  -0.015370
    20  H    0.012473   0.178687   0.031684  -0.001591  -0.001459   0.001637
    21  H   -0.016218   1.206815  -0.200331  -0.001042   0.038015  -0.011078
    22  H   -0.161444  -0.935584  -1.057772   0.133828  -0.218924   0.138740
    23  H    0.262989  -0.164758   0.235439  -0.121676  -0.504466   0.086886
    24  H    0.605985  -0.015840  -0.199551  -0.003501   0.374384  -1.100655
    25  H   -2.613732   1.281310   0.303195  -0.088525  -0.220614   0.775923
    26  C   -0.235199   0.707201   0.117491  -0.071562  -0.007312   0.041088
    27  H   -0.031372  -0.398457   0.737481  -0.080783  -0.636489  -0.019880
    28  H    0.022202  -0.201206  -0.010866   0.002488  -0.015567   0.008951
    29  H    0.002854   0.016205  -0.019203   0.000018  -0.002034   0.002833
    30  H   -0.002494   0.007768  -0.022479   0.010937  -0.006830   0.003610
    31  H   -0.000019  -0.000203   0.015321  -0.012839  -0.012401   0.003650
    32  H   -0.000181   0.003143  -0.009921   0.004099  -0.000615   0.001270
    33  H   -0.007379   0.001986   0.032703   0.002649   0.013204  -0.009633
    34  O   -0.000411  -0.002854   0.005513  -0.000284   0.000191  -0.000251
    35  H   -0.000150   0.001809   0.000661  -0.000132   0.000064  -0.000031
    36  H    0.000205  -0.005294   0.001186  -0.000066  -0.000081  -0.000040
    37  H   -0.056100   0.043174   0.120978  -0.005363  -0.045633   0.068520
    38  H    0.005506   0.134037   0.008067  -0.004371   0.016144  -0.020707
    39  H   -0.004220   0.004559  -0.042013  -0.002622  -0.002530   0.008304
    40  O    0.000032  -0.000694   0.000768  -0.000048  -0.000013  -0.000003
    41  H   -0.000007   0.000061   0.000034  -0.000023  -0.000007   0.000006
    42  H    0.000052   0.000017  -0.000028   0.000084   0.000037  -0.000043
               7          8          9         10         11         12
     1  C   -0.507379  -0.343895  -0.019809   0.043186  -0.411480   0.032677
     2  C  -10.366294   2.124496  -0.494518   0.375080   0.257824  -0.072524
     3  C   -2.571088   0.571032  -0.259903  -0.163289  -0.700473   0.011945
     4  N    1.130676  -0.136643   0.052261   0.049341   0.009004  -0.142138
     5  C   -0.668895   0.120515  -0.004588   0.001941  -0.069999   0.033622
     6  C    0.187794  -0.228806  -0.050566  -0.019935   0.038461  -0.017187
     7  C   29.227740  -6.651807  -0.579310   0.424510  -1.764977   0.009868
     8  N   -6.651807  14.836468   0.230380  -0.964604  -0.364790   0.000990
     9  C   -0.579310   0.230380   6.469105  -0.876381   1.202487   0.000297
    10  C    0.424510  -0.964604  -0.876381   8.389416  -1.961366  -0.001316
    11  C   -1.764977  -0.364790   1.202487  -1.961366   8.855233  -0.000778
    12  O    0.009868   0.000990   0.000297  -0.001316  -0.000778   7.945626
    13  O    0.006819  -0.003918   0.003902  -0.001079  -0.001944  -0.056433
    14  O   -0.019945  -0.037151   0.042105  -0.035142   0.025341   0.002885
    15  H    0.753455  -0.973406  -0.364433   0.199663   0.016369   0.000077
    16  H   -0.018033  -0.182323   0.228927  -0.521614   0.319479  -0.000052
    17  H    0.146420   0.194781   0.051473  -0.541341   0.272333  -0.000643
    18  H   -0.060412   0.433770  -0.256511   0.197686  -1.109392   0.000132
    19  H   -0.224688  -0.087989   0.040359   0.335403  -0.185298   0.002293
    20  H   -0.005782  -0.240309  -0.322332   0.124444  -0.039804   0.000009
    21  H   -2.872143  -0.303745  -0.043937   0.005462   0.677871   0.000217
    22  H    0.357125  -0.280315  -0.015209   0.053100   0.015383  -0.005017
    23  H   -0.039050   0.006132  -0.001432   0.000805   0.003201   0.014110
    24  H    0.095934  -0.001496   0.000730   0.000397  -0.003397  -0.000273
    25  H   -0.328555   0.038233  -0.009181  -0.016316   0.000318   0.000232
    26  C   -1.430530   1.301497  -0.208259  -0.240599  -0.070864   0.000412
    27  H   -0.028226   0.005451  -0.001176  -0.005332  -0.024412   0.002294
    28  H    0.558771  -0.303748  -0.103615   0.103937  -0.066070   0.000817
    29  H   -0.007977  -0.031905  -0.011801   0.000452   0.022245   0.002822
    30  H    0.011625  -0.000802   0.000154  -0.000606   0.000228   0.311692
    31  H   -0.002044   0.000246   0.000027   0.000063   0.000689   0.375884
    32  H    0.000938   0.000758  -0.002055   0.000556  -0.000901   0.002496
    33  H    0.001459  -0.004922   0.016539   0.005527   0.003255  -0.009236
    34  O   -0.013887   0.025179   0.018597  -0.066172   0.016804  -0.000170
    35  H   -0.000274  -0.001737  -0.009825   0.013195  -0.004552  -0.000068
    36  H    0.006703  -0.000787   0.015072  -0.019048   0.006758   0.000156
    37  H   -0.104693   0.126252  -0.073883  -0.073698   0.090380   0.001011
    38  H   -0.220604  -0.397855   0.066211   0.008473   0.046223  -0.000024
    39  H    0.149262  -0.224308  -0.001299   0.091885  -0.085454  -0.000112
    40  O    0.001999   0.000140  -0.000220   0.000532   0.001214   0.000000
    41  H   -0.000021   0.000070  -0.000114   0.000169   0.000113  -0.000002
    42  H   -0.000035  -0.000137   0.000035   0.000491  -0.000274   0.000008
              13         14         15         16         17         18
     1  C   -0.006359  -0.005594   0.021153   0.003901   0.008481  -0.070202
     2  C    0.011989   0.007670  -0.203624   0.008540  -0.072830   0.460056
     3  C   -0.021825  -0.093872  -0.030331   0.021551  -0.054685   0.267568
     4  N   -0.003383  -0.007832   0.005014  -0.002662   0.011998  -0.013688
     5  C    0.008695  -0.017460   0.001323   0.000887  -0.000992   0.005669
     6  C   -0.004493   0.011428  -0.002148  -0.000548  -0.003054  -0.003140
     7  C    0.006819  -0.019945   0.753455  -0.018033   0.146420  -0.060412
     8  N   -0.003918  -0.037151  -0.973406  -0.182323   0.194781   0.433770
     9  C    0.003902   0.042105  -0.364433   0.228927   0.051473  -0.256511
    10  C   -0.001079  -0.035142   0.199663  -0.521614  -0.541341   0.197686
    11  C   -0.001944   0.025341   0.016369   0.319479   0.272333  -1.109392
    12  O   -0.056433   0.002885   0.000077  -0.000052  -0.000643   0.000132
    13  O    7.834009  -0.025327  -0.000349  -0.000181   0.001054  -0.000003
    14  O   -0.025327   8.164971   0.011770  -0.005090   0.018361   0.004500
    15  H   -0.000349   0.011770   3.005057   0.164141  -0.349849  -0.046513
    16  H   -0.000181  -0.005090   0.164141   2.312708  -0.687056  -0.327120
    17  H    0.001054   0.018361  -0.349849  -0.687056   2.422365   0.205979
    18  H   -0.000003   0.004500  -0.046513  -0.327120   0.205979   2.686311
    19  H   -0.001514  -0.026440   0.048740   0.225939  -0.461661  -0.718682
    20  H    0.000200   0.006324  -0.691109  -0.275268   0.231047   0.058786
    21  H    0.000071  -0.006009   0.098663   0.073071  -0.063437  -0.340059
    22  H    0.010466   0.071470  -0.022742  -0.016676   0.055639   0.072246
    23  H    0.000122  -0.000276  -0.000161   0.000017   0.000304   0.000741
    24  H   -0.000016   0.000261   0.000172  -0.000017  -0.000050  -0.001502
    25  H   -0.000228  -0.000469  -0.003770   0.000753  -0.001579   0.013108
    26  C    0.002618   0.028267  -0.186677  -0.031031   0.030778   0.093248
    27  H   -0.004224  -0.006426   0.000202   0.000139  -0.002506   0.001000
    28  H    0.002575   0.115865   0.087477   0.010411  -0.025641  -0.032538
    29  H    0.007113   0.310212   0.008817   0.002710  -0.000408   0.002984
    30  H    0.037964  -0.003534   0.000270  -0.000010  -0.000121  -0.000223
    31  H   -0.004944   0.000310  -0.000016   0.000010  -0.000030  -0.000071
    32  H    0.366996  -0.002799  -0.000353   0.000042  -0.000018   0.000004
    33  H    0.255253   0.046433  -0.000846  -0.000119   0.000849   0.000058
    34  O   -0.000101  -0.083789   0.007719   0.010930  -0.029410  -0.000690
    35  H   -0.000172   0.004637  -0.006278  -0.001380   0.008048   0.000415
    36  H    0.000070   0.004456   0.004005   0.003105  -0.006295  -0.001493
    37  H   -0.003493   0.014260   0.009407   0.001371  -0.011032  -0.002618
    38  H   -0.000035  -0.005329   0.027567   0.005853  -0.003611   0.009147
    39  H    0.000813   0.006478  -0.026704  -0.006588   0.020642   0.003674
    40  O    0.000014   0.002210  -0.000653   0.000079  -0.002399   0.000107
    41  H   -0.000013  -0.000083   0.000027  -0.000021  -0.000895   0.000074
    42  H    0.000107   0.000667  -0.000024  -0.000177  -0.000841  -0.000059
              19         20         21         22         23         24
     1  C    0.051157   0.012473  -0.016218  -0.161444   0.262989   0.605985
     2  C    0.026990   0.178687   1.206815  -0.935584  -0.164758  -0.015840
     3  C   -0.137542   0.031684  -0.200331  -1.057772   0.235439  -0.199551
     4  N   -0.001134  -0.001591  -0.001042   0.133828  -0.121676  -0.003501
     5  C    0.009004  -0.001459   0.038015  -0.218924  -0.504466   0.374384
     6  C   -0.015370   0.001637  -0.011078   0.138740   0.086886  -1.100655
     7  C   -0.224688  -0.005782  -2.872143   0.357125  -0.039050   0.095934
     8  N   -0.087989  -0.240309  -0.303745  -0.280315   0.006132  -0.001496
     9  C    0.040359  -0.322332  -0.043937  -0.015209  -0.001432   0.000730
    10  C    0.335403   0.124444   0.005462   0.053100   0.000805   0.000397
    11  C   -0.185298  -0.039804   0.677871   0.015383   0.003201  -0.003397
    12  O    0.002293   0.000009   0.000217  -0.005017   0.014110  -0.000273
    13  O   -0.001514   0.000200   0.000071   0.010466   0.000122  -0.000016
    14  O   -0.026440   0.006324  -0.006009   0.071470  -0.000276   0.000261
    15  H    0.048740  -0.691109   0.098663  -0.022742  -0.000161   0.000172
    16  H    0.225939  -0.275268   0.073071  -0.016676   0.000017  -0.000017
    17  H   -0.461661   0.231047  -0.063437   0.055639   0.000304  -0.000050
    18  H   -0.718682   0.058786  -0.340059   0.072246   0.000741  -0.001502
    19  H    2.436416  -0.062999   0.224985  -0.178127  -0.001979   0.000509
    20  H   -0.062999   2.620391  -0.116515   0.019422   0.000002  -0.000203
    21  H    0.224985  -0.116515   3.641738  -0.022860   0.001752   0.001008
    22  H   -0.178127   0.019422  -0.022860   4.350287   0.037122  -0.009528
    23  H   -0.001979   0.000002   0.001752   0.037122   2.120375  -0.106855
    24  H    0.000509  -0.000203   0.001008  -0.009528  -0.106855   2.052257
    25  H    0.003709   0.004404  -0.172813  -0.019337  -0.009636  -0.129843
    26  C   -0.040140  -0.010493  -0.062899   0.033058   0.003005  -0.006812
    27  H    0.000483   0.000274  -0.004822  -0.139750  -0.196827   0.011031
    28  H    0.034868   0.004891   0.011193  -0.082862   0.000129   0.000373
    29  H    0.008155   0.003182   0.002489   0.026201   0.000101  -0.000088
    30  H    0.000513  -0.000069   0.000344  -0.003297   0.000566  -0.000092
    31  H    0.000915  -0.000000   0.000013  -0.004147   0.003104  -0.000181
    32  H   -0.000270  -0.000067  -0.000003   0.011824   0.000123  -0.000006
    33  H   -0.000595   0.000007  -0.000346  -0.056549  -0.002035   0.000512
    34  O    0.009858  -0.004799  -0.000609  -0.001211   0.000017  -0.000013
    35  H   -0.001482   0.001899  -0.000018   0.001253   0.000008  -0.000002
    36  H    0.003370  -0.001895   0.000228  -0.003399  -0.000024   0.000001
    37  H    0.011498   0.000287   0.013579  -0.012258  -0.002989   0.000510
    38  H    0.001813   0.016850   0.096192   0.000053   0.000494  -0.000312
    39  H   -0.010290   0.034844   0.006943   0.020387   0.000482  -0.000839
    40  O   -0.000530  -0.000052   0.000021  -0.000313  -0.000000  -0.000000
    41  H   -0.000054  -0.000004  -0.000005   0.000022   0.000000   0.000000
    42  H   -0.000001   0.000051  -0.000012  -0.000221  -0.000002  -0.000001
              25         26         27         28         29         30
     1  C   -2.613732  -0.235199  -0.031372   0.022202   0.002854  -0.002494
     2  C    1.281310   0.707201  -0.398457  -0.201206   0.016205   0.007768
     3  C    0.303195   0.117491   0.737481  -0.010866  -0.019203  -0.022479
     4  N   -0.088525  -0.071562  -0.080783   0.002488   0.000018   0.010937
     5  C   -0.220614  -0.007312  -0.636489  -0.015567  -0.002034  -0.006830
     6  C    0.775923   0.041088  -0.019880   0.008951   0.002833   0.003610
     7  C   -0.328555  -1.430530  -0.028226   0.558771  -0.007977   0.011625
     8  N    0.038233   1.301497   0.005451  -0.303748  -0.031905  -0.000802
     9  C   -0.009181  -0.208259  -0.001176  -0.103615  -0.011801   0.000154
    10  C   -0.016316  -0.240599  -0.005332   0.103937   0.000452  -0.000606
    11  C    0.000318  -0.070864  -0.024412  -0.066070   0.022245   0.000228
    12  O    0.000232   0.000412   0.002294   0.000817   0.002822   0.311692
    13  O   -0.000228   0.002618  -0.004224   0.002575   0.007113   0.037964
    14  O   -0.000469   0.028267  -0.006426   0.115865   0.310212  -0.003534
    15  H   -0.003770  -0.186677   0.000202   0.087477   0.008817   0.000270
    16  H    0.000753  -0.031031   0.000139   0.010411   0.002710  -0.000010
    17  H   -0.001579   0.030778  -0.002506  -0.025641  -0.000408  -0.000121
    18  H    0.013108   0.093248   0.001000  -0.032538   0.002984  -0.000223
    19  H    0.003709  -0.040140   0.000483   0.034868   0.008155   0.000513
    20  H    0.004404  -0.010493   0.000274   0.004891   0.003182  -0.000069
    21  H   -0.172813  -0.062899  -0.004822   0.011193   0.002489   0.000344
    22  H   -0.019337   0.033058  -0.139750  -0.082862   0.026201  -0.003297
    23  H   -0.009636   0.003005  -0.196827   0.000129   0.000101   0.000566
    24  H   -0.129843  -0.006812   0.011031   0.000373  -0.000088  -0.000092
    25  H    3.035812   0.039715   0.010200  -0.004074   0.000272  -0.000388
    26  C    0.039715   4.951487   0.000547  -0.157821   0.017496  -0.001066
    27  H    0.010200   0.000547   1.725561   0.001748  -0.000424  -0.009704
    28  H   -0.004074  -0.157821   0.001748   0.727764  -0.226561   0.005891
    29  H    0.000272   0.017496  -0.000424  -0.226561   0.687453  -0.001416
    30  H   -0.000388  -0.001066  -0.009704   0.005891  -0.001416   0.527224
    31  H    0.000040   0.000089   0.007910  -0.000606   0.000640  -0.101031
    32  H   -0.000008   0.000221  -0.001822  -0.000429   0.005400  -0.005289
    33  H   -0.000151  -0.016217   0.006905  -0.007108  -0.021156  -0.005827
    34  O    0.000043   0.002201  -0.000260   0.014717  -0.035133  -0.000243
    35  H    0.000019   0.000073   0.000006   0.000206  -0.002834  -0.000048
    36  H   -0.000024  -0.000981   0.000215   0.002595  -0.008424   0.000111
    37  H    0.004028   0.072125   0.001632   0.021545  -0.002396  -0.000034
    38  H    0.003863   0.222574   0.001018  -0.048674   0.008660  -0.000370
    39  H    0.002726   0.188869  -0.001944   0.035361  -0.003026   0.000235
    40  O   -0.000002   0.000040   0.000100  -0.001847  -0.001818  -0.000024
    41  H   -0.000001   0.000019   0.000000  -0.000258   0.001558   0.000001
    42  H    0.000004  -0.000021   0.000073   0.001094  -0.003140  -0.000006
              31         32         33         34         35         36
     1  C   -0.000019  -0.000181  -0.007379  -0.000411  -0.000150   0.000205
     2  C   -0.000203   0.003143   0.001986  -0.002854   0.001809  -0.005294
     3  C    0.015321  -0.009921   0.032703   0.005513   0.000661   0.001186
     4  N   -0.012839   0.004099   0.002649  -0.000284  -0.000132  -0.000066
     5  C   -0.012401  -0.000615   0.013204   0.000191   0.000064  -0.000081
     6  C    0.003650   0.001270  -0.009633  -0.000251  -0.000031  -0.000040
     7  C   -0.002044   0.000938   0.001459  -0.013887  -0.000274   0.006703
     8  N    0.000246   0.000758  -0.004922   0.025179  -0.001737  -0.000787
     9  C    0.000027  -0.002055   0.016539   0.018597  -0.009825   0.015072
    10  C    0.000063   0.000556   0.005527  -0.066172   0.013195  -0.019048
    11  C    0.000689  -0.000901   0.003255   0.016804  -0.004552   0.006758
    12  O    0.375884   0.002496  -0.009236  -0.000170  -0.000068   0.000156
    13  O   -0.004944   0.366996   0.255253  -0.000101  -0.000172   0.000070
    14  O    0.000310  -0.002799   0.046433  -0.083789   0.004637   0.004456
    15  H   -0.000016  -0.000353  -0.000846   0.007719  -0.006278   0.004005
[...]
 ,0.00013860,-0.00001526,0.00020661,0.00023509,0.00180761,0.00006068,-0
 .00035503,-0.00029986,-0.00005788,0.00000360,-0.00008083,-0.00007694,0
 .00005153,-0.00004162,0.00015767,-0.00007109,-0.00011803,-0.00009056,0
 .00006614,-0.00009907,0.00020360,-0.00064150,-0.00147462,0.00057092,0.
 00009071,-0.00197609,0.00039902,-0.00014208,-0.00003739,0.00000478,0.0
 0000478,-0.00000841,0.00000272,0.00000909,-0.00000026,-0.00000407,0.00
 002698,-0.00002625,-0.00001934,0.00643908,0.04031764,-0.05621021,-0.00
 001037,0.00001613,-0.00001369,-0.00020039,-0.00232135,-0.00052418,0.00
 018459,-0.00003998,0.00004475,0.00001001,0.00000416,-0.00003167,-0.000
 00513,-0.00000285,-0.00000694,0.00001642,0.00005253,-0.00003746,-0.000
 27425,-0.00009420,-0.00025932,-0.00008924,0.00003084,-0.00002446,-0.00
 000321,0.00000089,-0.00002818,0.00000062,-0.00001074,0.00003240,0.0003
 4172,-0.00430718,0.00115679,-0.00468216,-0.05575466,0.06825948,0.00018
 011,-0.00014062,0.00005109,0.00003974,0.00001839,-0.00002604,0.0001431
 2,0.00025931,-0.00000947,-0.00003861,-0.00013326,-0.00000749,-0.000005
 63,0.00004680,-0.00002134,0.00003013,-0.00005209,0.00002962,-0.0004346
 1,0.00004129,-0.00191210,0.00557572,-0.00641048,-0.00778314,0.00124731
 ,-0.00099458,-0.00097603,0.00018741,-0.00008229,0.00011899,0.00020785,
 -0.00006083,-0.00061449,0.00005945,-0.00014124,-0.00007820,0.00009294,
 0.00008257,-0.00023518,-0.00006597,-0.00018056,-0.00026584,0.00014795,
 0.00035011,0.00019988,0.00001976,-0.00000249,0.00001645,-0.00001744,0.
 00000584,0.00003479,-0.00000133,0.00002315,-0.00013063,-0.00001114,0.0
 0001341,-0.00007321,-0.00009227,0.00003823,0.00009074,-0.00010880,0.00
 003788,0.00001343,-0.00007803,0.00006115,0.00000781,0.00000777,0.00000
 081,0.00000048,-0.00000044,-0.00000299,-0.00000426,-0.00000040,-0.0000
 4187,-0.00003325,-0.14031021,0.08981351,0.09824338,0.00001865,0.000237
 74,0.00000247,0.00007703,0.00024119,0.00033076,0.00008372,0.00000603,0
 .00002576,-0.00013032,0.00003376,0.00012280,0.00000117,-0.00000109,0.0
 0000177,-0.00001933,-0.00008909,0.00005840,0.00002113,-0.00002609,0.00
 017000,-0.00004178,-0.00004854,-0.00001189,0.00001062,0.00002419,-0.00
 000032,-0.00000452,0.00000937,-0.00000077,-0.01501345,0.01719499,0.017
 79047,0.00309514,-0.00415554,-0.00379770,0.14512884,0.00002348,-0.0001
 5352,0.00000606,0.00011636,0.00008994,0.00006204,0.00000516,0.00000606
 ,-0.00002388,0.00004652,0.00001880,-0.00000066,-0.00001322,0.00000386,
 -0.00000121,-0.00001860,0.00002632,0.00000117,0.00023044,0.00019592,0.
 00121658,-0.00653807,0.00501841,0.00637140,0.00008113,0.00054470,0.000
 07923,-0.00025222,-0.00006544,-0.00008611,0.00007552,0.00061402,0.0003
 7242,0.00004451,-0.00000136,-0.00003036,0.00010086,0.00007704,-0.00006
 288,0.00003168,0.00007024,-0.00028268,-0.00012383,0.00008994,-0.000293
 58,0.00000481,-0.00000760,-0.00001969,0.00000607,-0.00000447,0.0000206
 0,0.00004738,-0.00005446,0.00017501,-0.00010998,0.00001109,-0.00008447
 ,0.00024870,-0.00046680,0.00002739,-0.00010143,0.00054301,0.00044241,-
 0.00002774,0.00003279,0.00001092,-0.00000017,0.00000487,-0.00000089,-0
 .00000810,-0.00000476,-0.00000014,-0.00005183,0.00003820,0.00004709,0.
 09006326,-0.13366633,-0.09377617,-0.00000573,0.00000299,0.00000698,-0.
 00008493,0.00018444,0.00025242,0.00013127,-0.00002943,0.00005324,-0.00
 006415,0.00000375,0.00004483,-0.00000695,-0.00000529,0.00000621,-0.000
 01920,-0.00003873,0.00000697,-0.00007172,-0.00006823,0.00003746,-0.000
 08352,-0.00001237,-0.00004109,0.00002126,0.00001379,0.00000231,0.00000
 494,-0.00000150,0.00002259,-0.00564848,0.00468497,0.00615508,0.0179246
 1,-0.01535637,-0.01782370,-0.09597584,0.13765791,0.00015024,0.00009255
 ,0.00008277,-0.00084778,-0.00021569,0.00012091,0.00005993,0.00007526,0
 .00005551,0.00003615,0.00010437,-0.00000751,0.00004845,0.00000369,-0.0
 0001514,0.00004313,-0.00002379,0.00002909,-0.00367979,0.00228109,-0.00
 423686,0.02058385,-0.01733023,-0.02628706,0.00163969,-0.00077641,0.000
 90757,0.00030380,0.00024805,0.00006305,0.00091178,-0.00110799,-0.00108
 472,-0.00004056,0.00007042,0.00004588,-0.00010893,-0.00006446,0.000064
 65,-0.00020859,0.00042278,0.00029932,-0.00071728,0.00027261,-0.0001042
 2,-0.00004332,0.00002087,0.00010743,-0.00006261,-0.00000977,0.00001099
 ,-0.00028734,0.00018434,-0.00048329,-0.00005830,0.00003749,-0.00012115
 ,-0.00028719,-0.00005996,-0.00004151,-0.00008921,-0.00010282,0.0000710
 6,0.00004538,-0.00008393,-0.00003398,-0.00000361,-0.00000179,-0.000003
 05,0.00001782,0.00000626,-0.00000790,-0.00001004,-0.00002190,-0.000052
 47,0.09040117,-0.08737081,-0.14260951,0.00000455,-0.00011546,-0.000010
 04,0.00029972,-0.00076741,-0.00042141,-0.00002418,0.00005475,-0.000086
 28,0.00007970,-0.00001436,-0.00006930,0.00000210,0.00000028,-0.0000020
 7,0.00001918,0.00003488,0.00000118,0.00008741,0.00007707,-0.00005271,0
 .00001097,-0.00001854,0.00011705,-0.00001957,0.00003027,-0.00004192,0.
 00000316,0.00000406,-0.00006323,-0.00305524,0.00355452,0.00378378,-0.0
 0387983,0.00339967,0.00469637,-0.10132770,0.09711778,0.16535072,0.0000
 4239,-0.00002077,0.00000292,-0.00004529,0.00004796,-0.00000313,-0.0000
 1045,-0.00008057,0.00000916,0.00003546,0.00008471,-0.00002300,0.000028
 76,0.00000135,0.00000800,-0.00001678,-0.00001192,-0.00000082,0.0000201
 3,0.00000057,0.00002016,0.00006227,0.00013611,-0.00005022,-0.00008138,
 -0.00001830,0.00000059,0.00000217,-0.00001303,0.00001294,-0.00006075,-
 0.00009934,0.00005033,-0.00009047,0.00005095,-0.00011195,-0.00004697,0
 .00003807,-0.00015459,0.00016111,0.00023649,-0.00030090,-0.00000563,-0
 .00002999,-0.00001785,-0.00000042,0.00005840,-0.00000715,-0.00011674,-
 0.00004129,0.00000005,0.00000705,0.00000238,-0.00000939,0.00007605,0.0
 0000885,0.00000354,0.00000408,0.00003124,-0.00001156,-0.00000801,0.000
 02034,-0.00002496,0.00003689,-0.00005353,0.00005354,0.00000569,-0.0000
 0147,0.00000627,0.00000168,-0.00000067,0.00000298,-0.00000010,0.000002
 24,0.00000278,0.00001675,-0.00002390,0.00004859,0.00001470,-0.00013504
 ,0.00003689,-0.00000902,-0.00021880,0.00006493,-0.00034479,-0.00009542
 ,0.00023043,0.00002065,-0.00000462,0.00007777,0.00008974,0.00001964,0.
 00005913,0.00000491,-0.00000202,0.00006137,0.00004627,-0.00001887,0.00
 012066,0.00371557,0.00200223,-0.00272819,-0.00054762,0.00045414,-0.001
 01629,-0.00549167,-0.00370004,0.00040966,0.00000798,-0.00000081,0.0000
 0787,-0.00000174,0.00002257,-0.00000530,-0.00000207,-0.00001176,-0.000
 00476,0.32007305,-0.00000922,0.00002734,-0.00000619,-0.00009385,-0.000
 07349,0.00003377,-0.00000637,0.00002620,-0.00000983,0.00001973,0.00010
 780,-0.00001001,0.00003947,-0.00005435,0.00000465,0.00003145,0.0000491
 7,-0.00001135,-0.00003662,0.00000070,-0.00001173,0.00010870,-0.0000184
 6,0.00014309,-0.00005907,-0.00003932,-0.00011789,-0.00005864,0.0002159
 5,0.00002339,0.00000015,0.00001540,0.00001891,0.00002791,0.00016403,-0
 .00002076,0.00013934,0.00022954,0.00002010,0.00067968,0.00013163,0.000
 26856,0.00001742,0.00002770,-0.00003227,0.00002767,0.00003428,-0.00001
 185,-0.00002018,-0.00007000,-0.00013157,0.00000967,0.00000536,-0.00000
 443,-0.00007317,0.00001111,-0.00003058,0.00003757,-0.00002989,0.000059
 00,0.00001637,-0.00001709,0.00002728,-0.00006578,-0.00001530,-0.000000
 37,-0.00000395,-0.00000608,-0.00000064,0.00000303,0.00000312,-0.000001
 68,-0.00001381,0.00000857,-0.00000288,-0.00000722,0.00002080,-0.000099
 98,-0.00003190,-0.00022576,0.00000393,-0.00005139,0.00000914,-0.000068
 15,-0.00090518,-0.00003994,-0.00023060,-0.00002085,-0.00004631,0.00002
 490,0.00001244,-0.00004073,0.00001854,0.00001168,-0.00006273,0.0000241
 8,-0.00024029,-0.00026258,-0.00009985,0.00208830,0.00208295,0.00717605
 ,0.00040915,-0.00078608,0.00070811,-0.00391134,-0.00724274,-0.00237300
 ,0.00002937,-0.00000381,0.00001759,-0.00000209,-0.00001924,0.00001134,
 -0.00001194,0.00000091,0.00000034,0.21486835,0.58670482,0.00005113,-0.
 00003421,0.00000332,0.00001366,0.00014396,-0.00000990,-0.00001852,-0.0
 0009242,0.00001645,-0.00001614,0.00001438,0.00001471,-0.00002888,0.000
 05735,-0.00001739,-0.00005798,-0.00005325,0.00001107,0.00005629,-0.000
 12665,-0.00015479,-0.00010055,0.00042034,0.00001904,0.00011683,-0.0002
 0600,-0.00002873,0.00002646,-0.00010975,0.00009540,0.00006086,0.000049
 23,-0.00002694,-0.00021314,-0.00000486,0.00018065,-0.00052195,-0.00017
 588,-0.00008700,-0.00194534,0.00083694,-0.00059768,-0.00005644,-0.0000
 6226,0.00016709,-0.00001370,0.00012024,-0.00003372,0.00005350,-0.00023
 728,-0.00026602,-0.00004746,0.00008688,0.00000239,-0.00002389,-0.00006
 795,-0.00006141,-0.00004635,0.00009659,-0.00000550,-0.00001849,0.00006
 922,0.00002578,0.00023923,-0.00013412,-0.00008524,0.00000242,0.0000033
 0,-0.00001319,-0.00000435,-0.00000271,-0.00000749,0.00001134,-0.000004
 56,-0.00001028,0.00002868,-0.00005038,0.00013054,0.00003856,0.00003099
 ,-0.00004216,0.00012614,-0.00074790,0.00015013,0.00267668,-0.00065458,
 0.00078169,0.00029431,-0.00001468,-0.00020280,0.00003689,0.00001250,-0
 .00007262,0.00006085,0.00002680,0.00005527,0.00056504,0.00031770,0.000
 26435,-0.00280533,0.00639390,-0.01256973,-0.00088639,0.00051983,0.0003
 5816,0.00112428,-0.00238078,-0.00455035,-0.00002006,-0.00001192,-0.000
 01278,0.00000351,0.00005787,-0.00001777,-0.00000096,-0.00001337,0.0000
 3750,0.23883688,-0.05792281,0.30281729,-0.00001148,0.00001107,-0.00000
 202,-0.00000159,-0.00002023,0.00000733,0.00000531,0.00002293,-0.000005
 12,-0.00000956,-0.00001354,0.00000741,-0.00000617,-0.00000476,-0.00000
 348,0.00000566,0.00000786,-0.00000033,-0.00001368,-0.00000527,-0.00002
 026,-0.00001655,-0.00003532,0.00004794,0.00003106,-0.00001515,-0.00002
 438,-0.00000912,0.00005259,0.00001702,0.00002207,0.00003415,-0.0000140
 4,0.00001791,0.00000173,0.00003591,0.00001541,0.00000358,0.00004264,0.
 00002908,-0.00002576,0.00009005,0.00000402,0.00001701,0.00001294,0.000
 00790,-0.00002148,-0.00000570,0.00003991,0.00000378,-0.00005068,-0.000
 00088,0.00001155,-0.00000062,-0.00004633,-0.00001208,-0.00001458,0.000
 00570,-0.00001607,0.00001965,0.00000573,-0.00000695,0.00001609,-0.0000
 0794,0.00000462,-0.00001648,-0.00000154,0.00000051,-0.00000359,-0.0000
 0036,0.00000105,-0.00000213,-0.00000151,0.00000068,-0.00000225,-0.0000
 0548,0.00001306,-0.00002622,-0.00000522,0.00001518,-0.00001268,0.00000
 093,0.00003928,-0.00003311,-0.00001652,-0.00001004,-0.00003096,0.00000
 328,-0.00000316,-0.00002398,-0.00001958,-0.00000788,-0.00001919,-0.000
 00171,-0.00000052,-0.00001643,-0.00002241,-0.00001268,-0.00003055,-0.0
 0000872,-0.00095290,0.00122746,0.00020757,0.00016306,0.00002717,-0.000
 31377,0.00123938,-0.00146605,0.00000042,-0.00000107,-0.00000015,0.0000
 0122,-0.00001048,0.00000276,-0.00000115,0.00000481,0.00000416,-0.28104
 179,-0.14626655,-0.22953153,0.28712157,-0.00001123,-0.00000496,0.00000
 206,0.00005398,0.00000756,-0.00001725,0.00000319,0.00001454,-0.0000006
 6,-0.00001061,-0.00005896,0.00000507,-0.00001444,0.00001497,0.00000068
 ,-0.00000236,-0.00001325,0.00000350,0.00000180,0.00001620,0.00003584,-
 0.00005298,-0.00009298,-0.00008368,0.00001133,0.00006316,0.00007945,0.
 00002195,-0.00007087,-0.00004604,0.00000479,0.00001521,-0.00002608,0.0
 0001978,-0.00006586,-0.00000741,0.00003407,-0.00004020,0.00001430,0.00
 015144,-0.00023992,0.00006765,0.00000636,0.00000243,-0.00001601,-0.000
 00680,-0.00008598,0.00002651,0.00004687,0.00012746,0.00012110,0.000007
 03,-0.00002461,0.00000765,0.00001361,0.00000650,0.00002727,-0.00000979
 ,-0.00001000,-0.00002876,-0.00000232,-0.00000818,-0.00001319,-0.000023
 50,0.00003806,0.00000807,0.00000188,0.00000173,0.00000134,-0.00000080,
 -0.00000070,0.00000174,0.00000580,-0.00000412,0.00000336,-0.00000798,0
 .00000211,0.00002216,0.00000629,0.00009842,-0.00000041,0.00000193,0.00
 018499,-0.00000899,-0.00021607,0.00013778,-0.00011729,-0.00003065,0.00
 001686,0.00001424,-0.00001052,0.00000954,-0.00000408,-0.00000879,0.000
 01448,-0.00001373,-0.00002002,0.00002300,-0.00001727,-0.00032999,-0.00
 136920,0.00188013,0.00003551,0.00000452,0.00006001,0.00114890,0.002523
 43,-0.00309883,-0.00001239,0.00000368,-0.00000890,0.00000119,-0.000003
 61,-0.00000140,0.00000715,0.00000362,-0.00000761,-0.10877303,-0.095721
 80,-0.06776645,0.14227847,0.10912148,-0.00000502,0.00000736,-0.0000019
 9,-0.00001309,-0.00002865,0.00000678,0.00000431,0.00001532,-0.00000017
 ,0.00000272,-0.00000048,-0.00000328,0.00000478,-0.00000943,0.00000307,
 0.00000929,0.00000926,-0.00000340,-0.00000135,0.00001846,0.00002004,0.
 00003643,-0.00003963,0.00000190,-0.00002866,0.00000777,-0.00001248,-0.
 00000348,0.00006115,-0.00000587,-0.00001395,-0.00000728,0.00002209,0.0
 0003636,-0.00000472,-0.00002663,0.00006280,0.00000970,0.00000548,0.000
 16320,-0.00007484,0.00005518,0.00000228,-0.00000470,-0.00002145,-0.000
 00640,0.00000860,0.00000846,-0.00004696,-0.00000918,-0.00000755,0.0000
 1258,-0.00002233,0.00000021,0.00000579,0.00001838,0.00000694,0.0000083
 3,-0.00000786,0.00001141,0.00000251,-0.00000976,-0.00000100,-0.0000286
 3,0.00001400,0.00000938,-0.00000059,0.00000026,0.00000313,0.00000138,0
 .00000058,0.00000245,-0.00000320,0.00000168,0.00000301,0.00000181,0.00
 000799,-0.00002051,-0.00000590,-0.00000006,0.00000773,-0.00001407,0.00
 005278,-0.00001291,-0.00020163,0.00006891,-0.00007972,-0.00004417,0.00
 000495,0.00002803,-0.00001119,0.00000119,0.00001140,-0.00001087,0.0000
 0051,-0.00000785,-0.00005622,-0.00002611,-0.00002309,0.00109051,0.0011
 6434,-0.00104077,-0.00030805,0.00002340,-0.00044854,-0.00245529,-0.002
 61029,0.00111973,0.00000651,0.00000134,0.00000461,-0.00000196,-0.00000
 749,0.00000249,-0.00000186,-0.00000019,-0.00000490,-0.24573508,-0.1073
 3101,-0.21532824,0.23752206,0.09840968,0.20947779,-0.00001661,0.000004
 75,0.00000035,0.00004140,-0.00000917,-0.00000212,0.00001180,0.00003343
 ,-0.00000206,-0.00002462,-0.00007564,0.00001499,-0.00002792,0.00001518
 ,-0.00000515,-0.00000107,-0.00000668,0.00000275,0.00000870,0.00000235,
 -0.00001390,-0.00004730,-0.00004625,0.00000512,0.00005230,0.00000995,0
 .00001428,0.00001038,-0.00003385,-0.00000519,0.00002084,0.00002867,-0.
 00001295,0.00004063,-0.00007773,0.00008827,-0.00003051,-0.00008714,0.0
 0009588,-0.00025218,-0.00013284,0.00006265,-0.00000349,0.00000306,0.00
 001650,-0.00000790,-0.00000524,0.00000096,0.00002373,-0.00000895,0.000
 01367,-0.00000612,0.00000288,0.00000354,-0.00000345,-0.00000995,0.0000
 0355,-0.00001044,-0.00000504,-0.00000485,-0.00000188,-0.00000417,0.000
 00477,0.00000840,0.00002664,-0.00002861,-0.00000265,0.00000357,-0.0000
 0452,-0.00000170,-0.00000055,-0.00000165,0.00000255,-0.00000280,-0.000
 00120,-0.00000170,0.00000712,-0.00000639,0.00000208,0.00014316,-0.0000
 2407,0.00001579,0.00007367,-0.00000786,0.00038522,0.00004739,0.0000069
 3,0.00000953,0.00001554,-0.00007039,-0.00006344,0.00000387,-0.00004855
 ,-0.00000105,0.00001465,-0.00004360,0.00005763,0.00008939,-0.00003979,
 -0.00029020,0.00007691,-0.00112287,0.00000683,-0.00010053,-0.00000549,
 0.00023300,0.00010074,0.00236289,-0.00000870,0.00000072,-0.00000677,0.
 00000061,-0.00000613,-0.00000007,0.00000192,0.00000471,0.00000351,-0.0
 3655167,-0.06668807,-0.00806607,-0.00596170,-0.03431908,0.01002395,0.0
 4238297,0.00000951,-0.00000908,0.00000260,0.00001752,0.00002519,-0.000
 00801,0.00000470,-0.00001817,0.00000290,-0.00000213,-0.00003187,-0.000
 00045,-0.00000897,0.00001941,0.00000009,-0.00001278,-0.00001791,0.0000
 0218,0.00001273,0.00000044,0.00000262,-0.00002623,0.00001938,-0.000042
 42,0.00001139,-0.00000528,0.00002521,0.00000458,-0.00001569,-0.0000044
 6,-0.00001269,-0.00001686,0.00000528,-0.00002170,-0.00006700,-0.000017
 25,-0.00005125,-0.00009200,-0.00002663,-0.00016513,-0.00000561,-0.0001
 4763,-0.00000222,-0.00000556,0.00000650,-0.00000432,-0.00000412,0.0000
 0142,-0.00000520,0.00001148,0.00000918,-0.00000043,-0.00000152,-0.0000
 0031,0.00002020,0.00000008,0.00000785,-0.00000748,0.00001060,-0.000010
 74,-0.00000496,0.00000603,-0.00000884,0.00002391,-0.00000321,0.0000124
 2,0.00000181,0.00000255,0.00000177,-0.00000034,-0.00000071,0.00000137,
 0.00000381,-0.00000199,0.00000178,0.00000518,-0.00000773,0.00003332,0.
 00001487,0.00007263,0.00000644,0.00000881,-0.00003144,0.00002026,0.000
 18225,-0.00002288,0.00014853,0.00000388,0.00002311,0.00000821,0.000008
 06,0.00002788,0.00000535,-0.00000459,0.00003182,-0.00000767,0.00009183
 ,0.00009421,0.00005624,-0.00057467,0.00051611,-0.00145023,0.00008210,0
 .00005799,0.00017082,0.00070605,-0.00110246,0.00179954,-0.00000870,0.0
 0000140,-0.00000289,0.00000054,0.00000816,-0.00000497,0.00000453,-0.00
 000094,-0.00000048,-0.10473142,-0.48510080,0.12161674,0.00351551,-0.01
 463651,0.01028640,0.10091146,0.50027082,-0.00001057,0.00000361,-0.0000
 0011,0.00000807,-0.00002007,-0.00000138,0.00000458,0.00001843,0.000000
 66,-0.00000392,-0.00002600,-0.00000195,-0.00000395,-0.00000425,0.00000
 246,0.00000794,0.00000407,-0.00000142,-0.00000890,0.00001832,0.0000236
 6,0.00000377,-0.00006699,-0.00001261,0.00000590,0.00002667,0.00001203,
 0.00000265,-0.00000793,-0.00000605,-0.00000488,0.00000046,0.00000109,0
 .00006367,-0.00004404,-0.00004525,0.00008297,-0.00006829,0.00001917,-0
 .00002135,-0.00019881,0.00002475,0.00000323,-0.00000129,-0.00000739,-0
 .00000212,-0.00000346,-0.00000148,-0.00000404,0.00001669,0.00002037,0.
 00000072,-0.00001157,0.00000057,0.00000342,0.00000831,0.00001012,-0.00
 000247,-0.00000668,-0.00000215,0.00000148,-0.00000927,-0.00000460,-0.0
 0002755,0.00002846,0.00001072,-0.00000052,0.00000106,0.00000392,0.0000
 0017,-0.00000011,0.00000235,-0.00000063,-0.00000020,0.00000250,-0.0000
 0245,0.00000745,-0.00000588,-0.00000364,0.00004971,0.00001073,-0.00000
 043,0.00010875,-0.00001096,0.00009174,0.00015971,-0.00004828,-0.000083
 61,0.00002184,0.00004703,-0.00002369,0.00000708,0.00002139,-0.00002959
 ,0.00002151,-0.00003404,-0.00003103,0.00005795,-0.00002780,-0.00073062
 ,-0.00063863,-0.00267760,0.00000980,0.00048645,-0.00037302,0.00155289,
 0.00212651,0.00421154,-0.00000192,0.00000367,0.00000008,-0.00000111,-0
 .00000792,0.00000029,0.00000278,0.00000287,-0.00000460,0.01007773,0.15
 994569,-0.07092914,-0.00772407,-0.02950777,0.00623900,-0.00320043,-0.1
 3250200,0.06353124\\-0.00000177,-0.00000148,0.00000011,0.00000137,-0.0
 0000150,0.00000090,0.00000492,0.00000372,-0.00000070,-0.00000348,0.000
 00071,0.00000139,0.00000041,-0.00000092,0.00000084,0.00000051,0.000000
 75,-0.00000029,0.00000015,0.00000091,-0.00000392,-0.00000135,-0.000008
 07,-0.00000364,0.00000580,0.00000286,0.00000091,-0.00000256,0.00000078
 ,-0.00000191,0.00000085,-0.00000271,0.00000125,0.00000491,0.00000071,-
 0.00000163,-0.00000300,-0.00000603,-0.00000354,-0.00001130,-0.00001205
 ,-0.00000766,-0.00000033,-0.00000089,0.00000068,0.00000096,-0.00000119
 ,0.00000007,0.00000041,-0.00000005,-0.00000029,-0.00000002,0.00000093,
 -0.00000088,0.00000034,0.00000125,0.00000088,-0.00000115,-0.00000108,-
 0.00000041,-0.00000035,-0.00000003,-0.00000025,-0.00000105,-0.00000037
 ,-0.00000051,0.00000006,0.00000029,-0.00000008,0.00000072,0.00000068,-
 0.00000008,0.00000033,0.00000033,-0.00000069,0.00000040,0.00000350,0.0
 0000061,-0.00000132,-0.00000126,0.00000105,0.00000468,0.00000824,0.000
 00446,-0.00000384,0.00000199,-0.00000607,-0.00000265,0.00000041,-0.000
 00183,-0.00000055,0.00000245,0.00000210,-0.00000010,0.00000058,0.00000
 039,0.00000545,0.00000617,0.00001227,0.00000500,0.00000077,0.00001336,
 -0.00000317,-0.00000112,-0.00000405,0.00000079,0.00000235,-0.00000598,
 -0.00000038,-0.00000062,-0.00000026,-0.00000002,-0.00000016,-0.0000000
 4,-0.00000019,-0.00000019,-0.00000042,-0.00000658,0.00000762,-0.000011
 53,0.00000551,-0.00000122,0.00000820,0.00000158,-0.00000706,0.00000717
 \\\@


 I CLAIM NOT TO HAVE CONTROLLED EVENTS,
 BUT CONFESS PLAINLY THAT EVENTS HAVE CONTROLLED ME.

                                         A. LINCOLN
 Job cpu time:       1 days 15 hours 33 minutes 28.0 seconds.
 Elapsed time:       0 days  1 hours 24 minutes 51.1 seconds.
 File lengths (MBytes):  RWF=   1440 Int=      0 D2E=      0 Chk=     36 Scr=      8
 Normal termination of Gaussian 16 at Fri Dec  9 16:28:02 2022.
