 Entering Gaussian System, Link 0=g16
 Input=NicPyrNa5h25wB97XD130K.gjf
 Output=NicPyrNa5h25wB97XD130K.log
 Initial command:
 /sw/contrib/gaussian/g16/A03/g16/l1.exe "/gscratch/scrubbed/gds001/Gau-12269.inp" -scrdir="/gscratch/scrubbed/gds001/"
 Entering Link 1 = /sw/contrib/gaussian/g16/A03/g16/l1.exe PID=     12270.
  
 Copyright (c) 1988,1990,1992,1993,1995,1998,2003,2009,2016,
            Gaussian, Inc.  All Rights Reserved.
  
 This is part of the Gaussian(R) 16 program.  It is based on
 the Gaussian(R) 09 system (copyright 2009, Gaussian, Inc.),
 the Gaussian(R) 03 system (copyright 2003, Gaussian, Inc.),
 the Gaussian(R) 98 system (copyright 1998, Gaussian, Inc.),
 the Gaussian(R) 94 system (copyright 1995, Gaussian, Inc.),
 the Gaussian 92(TM) system (copyright 1992, Gaussian, Inc.),
 the Gaussian 90(TM) system (copyright 1990, Gaussian, Inc.),
 the Gaussian 88(TM) system (copyright 1988, Gaussian, Inc.),
 the Gaussian 86(TM) system (copyright 1986, Carnegie Mellon
 University), and the Gaussian 82(TM) system (copyright 1983,
 Carnegie Mellon University). Gaussian is a federally registered
 trademark of Gaussian, Inc.
  
 This software contains proprietary and confidential information,
 including trade secrets, belonging to Gaussian, Inc.
  
 This software is provided under written license and may be
 used, copied, transmitted, or stored only in accord with that
 written license.
  
 The following legend is applicable only to US Government
 contracts under FAR:
  
                    RESTRICTED RIGHTS LEGEND
  
 Use, reproduction and disclosure by the US Government is
 subject to restrictions as set forth in subparagraphs (a)
 and (c) of the Commercial Computer Software - Restricted
 Rights clause in FAR 52.227-19.
  
 Gaussian, Inc.
 340 Quinnipiac St., Bldg. 40, Wallingford CT 06492
  
  
 ---------------------------------------------------------------
 Warning -- This program may not be used in any manner that
 competes with the business of Gaussian, Inc. or will provide
 assistance to any competitor of Gaussian, Inc.  The licensee
 of this program is prohibited from giving any competitor of
 Gaussian, Inc. access to this program.  By using this program,
 the user acknowledges that Gaussian, Inc. is engaged in the
 business of creating and licensing software in the field of
 computational chemistry and represents and warrants to the
 licensee that it is not a competitor of Gaussian, Inc. and that
 it will not use this program in any manner prohibited above.
 ---------------------------------------------------------------
  

 Cite this work as:
 Gaussian 16, Revision A.03,
 M. J. Frisch, G. W. Trucks, H. B. Schlegel, G. E. Scuseria, 
 M. A. Robb, J. R. Cheeseman, G. Scalmani, V. Barone, 
 G. A. Petersson, H. Nakatsuji, X. Li, M. Caricato, A. V. Marenich, 
 J. Bloino, B. G. Janesko, R. Gomperts, B. Mennucci, H. P. Hratchian, 
 J. V. Ortiz, A. F. Izmaylov, J. L. Sonnenberg, D. Williams-Young, 
 F. Ding, F. Lipparini, F. Egidi, J. Goings, B. Peng, A. Petrone, 
 T. Henderson, D. Ranasinghe, V. G. Zakrzewski, J. Gao, N. Rega, 
 G. Zheng, W. Liang, M. Hada, M. Ehara, K. Toyota, R. Fukuda, 
 J. Hasegawa, M. Ishida, T. Nakajima, Y. Honda, O. Kitao, H. Nakai, 
 T. Vreven, K. Throssell, J. A. Montgomery, Jr., J. E. Peralta, 
 F. Ogliaro, M. J. Bearpark, J. J. Heyd, E. N. Brothers, K. N. Kudin, 
 V. N. Staroverov, T. A. Keith, R. Kobayashi, J. Normand, 
 K. Raghavachari, A. P. Rendell, J. C. Burant, S. S. Iyengar, 
 J. Tomasi, M. Cossi, J. M. Millam, M. Klene, C. Adamo, R. Cammi, 
 J. W. Ochterski, R. L. Martin, K. Morokuma, O. Farkas, 
 J. B. Foresman, and D. J. Fox, Gaussian, Inc., Wallingford CT, 2016.
 
 ******************************************
 Gaussian 16:  ES64L-G16RevA.03 25-Dec-2016
                15-Jul-2021 
 ******************************************
 %nprocshared=28
 Will use up to   28 processors via shared memory.
 %mem=41GB
 %chk=NicPyrNa5h25.chk
 ---------------------------------------------
 # wB97XD/aug-cc-pVDZ opt freq temperature=130
 ---------------------------------------------
 1/18=20,19=15,26=3,38=1,112=130000/1,3;
 2/9=110,12=2,17=6,18=5,40=1/2;
 3/5=16,7=10,11=2,25=1,30=1,71=1,74=-58/1,2,3;
 4//1;
 5/5=2,38=5/2;
 6/7=2,8=2,9=2,10=2,28=1/1;
 7//1,2,3,16;
 1/18=20,19=15,26=3/3(2);
 2/9=110/2;
 99//99;
 2/9=110/2;
 3/5=16,7=10,11=2,25=1,30=1,71=1,74=-58/1,2,3;
 4/5=5,16=3,69=1/1;
 5/5=2,38=5/2;
 7//1,2,3,16;
 1/18=20,19=15,26=3/3(-5);
 2/9=110/2;
 6/7=2,8=2,9=2,10=2,19=2,28=1/1;
 99/9=1/99;
 --------
 Nicotine
 --------
 Symbolic Z-matrix:
 Charge =  1 Multiplicity = 1
 C                    -1.34682   2.4362   -1.04974 
 C                    -1.29213   1.2746   -0.27843 
 C                    -0.2326    1.1453    0.62008 
 N                     0.73114   2.05709   0.75761 
 C                     0.67113   3.16217   0.00823 
 C                    -0.35443   3.39974  -0.90207 
 C                    -2.32985   0.1912   -0.42766 
 N                    -1.79305  -1.00015  -1.18037 
 C                    -2.74999  -2.13885  -0.95858 
 C                    -3.55964  -1.74244   0.294 
 C                    -2.87145  -0.47993   0.83308 
 O                     0.42078  -1.97573  -0.20858 
 O                     2.63064  -0.58664  -0.69841 
 O                     2.6225    0.48812   1.9508 
 O                     0.75465  -1.48584   2.47798 
 H                    -3.37858  -2.25581  -1.84614 
 H                    -4.59698  -1.52302   0.01647 
 H                    -3.57711  -2.54971   1.03175 
 H                    -2.0459   -0.74156   1.50742 
 H                    -3.55267   0.1844    1.37296 
 H                    -2.1522   -3.04475  -0.82421 
 H                    -3.16986   0.57765  -1.02138 
 H                    -0.14597   0.26749   1.25966 
 H                     1.47532   3.88553   0.14383 
 H                    -0.36936   4.31894  -1.48419 
 H                    -2.16181   2.5936   -1.75819 
 C                    -1.5791   -0.72324  -2.61184 
 H                    -0.83496  -1.30115  -0.77586 
 H                     1.26502  -1.54094  -0.48889 
 H                     0.49932  -2.00672   0.7645 
 H                     2.0637    1.24845   1.65678 
 H                     3.31989   0.84553   2.50519 
 H                     1.50622  -0.86073   2.47172 
 H                     0.90397  -2.08535   3.2125 
 H                     2.88587  -0.23216   0.16748 
 H                     3.44065  -0.94856  -1.09643 
 O                     4.98796  -1.59596  -1.80117 
 H                     5.27416  -2.5128   -1.79891 
 H                     5.50193  -1.16184  -2.4867 
 H                    -1.19385  -1.63229  -3.12322 
 H                    -0.82506   0.08212  -2.74327 
 H                    -2.52539  -0.40971  -3.10487 
 
 Add virtual bond connecting atoms H28        and O12        Dist= 2.90D+00.
 Add virtual bond connecting atoms H29        and O13        Dist= 3.17D+00.
 Add virtual bond connecting atoms O14        and H35        Dist= 3.67D+00.
 Add virtual bond connecting atoms H31        and N4         Dist= 3.40D+00.
 Add virtual bond connecting atoms O14        and H33        Dist= 3.45D+00.
 Add virtual bond connecting atoms H30        and O15        Dist= 3.42D+00.
 Add virtual bond connecting atoms O37        and H36        Dist= 3.44D+00.

 GradGradGradGradGradGradGradGradGradGradGradGradGradGradGradGradGradGrad
 Berny optimization.
 Initialization pass.
                           ----------------------------
                           !    Initial Parameters    !
                           ! (Angstroms and Degrees)  !
 --------------------------                            --------------------------
 ! Name  Definition              Value          Derivative Info.                !
 --------------------------------------------------------------------------------
 ! R1    R(1,2)                  1.3954         estimate D2E/DX2                !
 ! R2    R(1,6)                  1.3911         estimate D2E/DX2                !
 ! R3    R(1,26)                 1.0913         estimate D2E/DX2                !
 ! R4    R(2,3)                  1.3952         estimate D2E/DX2                !
 ! R5    R(2,7)                  1.5076         estimate D2E/DX2                !
 ! R6    R(3,4)                  1.3338         estimate D2E/DX2                !
 ! R7    R(3,23)                 1.0895         estimate D2E/DX2                !
 ! R8    R(4,5)                  1.3366         estimate D2E/DX2                !
 ! R9    R(4,31)                 1.7995         estimate D2E/DX2                !
 ! R10   R(5,6)                  1.3917         estimate D2E/DX2                !
 ! R11   R(5,24)                 1.0901         estimate D2E/DX2                !
 ! R12   R(6,25)                 1.0881         estimate D2E/DX2                !
 ! R13   R(7,8)                  1.508          estimate D2E/DX2                !
 ! R14   R(7,11)                 1.5275         estimate D2E/DX2                !
 ! R15   R(7,22)                 1.0988         estimate D2E/DX2                !
 ! R16   R(8,9)                  1.5038         estimate D2E/DX2                !
 ! R17   R(8,27)                 1.4736         estimate D2E/DX2                !
 ! R18   R(8,28)                 1.0827         estimate D2E/DX2                !
 ! R19   R(9,10)                 1.5433         estimate D2E/DX2                !
 ! R20   R(9,16)                 1.0939         estimate D2E/DX2                !
 ! R21   R(9,21)                 1.0937         estimate D2E/DX2                !
 ! R22   R(10,11)                1.5356         estimate D2E/DX2                !
 ! R23   R(10,17)                1.096          estimate D2E/DX2                !
 ! R24   R(10,18)                1.0937         estimate D2E/DX2                !
 ! R25   R(11,19)                1.0976         estimate D2E/DX2                !
 ! R26   R(11,20)                1.094          estimate D2E/DX2                !
 ! R27   R(12,28)                1.5342         estimate D2E/DX2                !
 ! R28   R(12,29)                0.9901         estimate D2E/DX2                !
 ! R29   R(12,30)                0.9767         estimate D2E/DX2                !
 ! R30   R(13,29)                1.6791         estimate D2E/DX2                !
 ! R31   R(13,35)                0.9698         estimate D2E/DX2                !
 ! R32   R(13,36)                0.9724         estimate D2E/DX2                !
 ! R33   R(14,31)                0.9883         estimate D2E/DX2                !
 ! R34   R(14,32)                0.9599         estimate D2E/DX2                !
 ! R35   R(14,33)                1.8267         estimate D2E/DX2                !
 ! R36   R(14,35)                1.9412         estimate D2E/DX2                !
 ! R37   R(15,30)                1.809          estimate D2E/DX2                !
 ! R38   R(15,33)                0.9776         estimate D2E/DX2                !
 ! R39   R(15,34)                0.9598         estimate D2E/DX2                !
 ! R40   R(27,40)                1.1119         estimate D2E/DX2                !
 ! R41   R(27,41)                1.1111         estimate D2E/DX2                !
 ! R42   R(27,42)                1.1121         estimate D2E/DX2                !
 ! R43   R(36,37)                1.8193         estimate D2E/DX2                !
 ! R44   R(37,38)                0.9605         estimate D2E/DX2                !
 ! R45   R(37,39)                0.9605         estimate D2E/DX2                !
 ! A1    A(2,1,6)              119.3378         estimate D2E/DX2                !
 ! A2    A(2,1,26)             120.5426         estimate D2E/DX2                !
 ! A3    A(6,1,26)             120.1184         estimate D2E/DX2                !
 ! A4    A(1,2,3)              117.5725         estimate D2E/DX2                !
 ! A5    A(1,2,7)              121.0982         estimate D2E/DX2                !
 ! A6    A(3,2,7)              121.323          estimate D2E/DX2                !
 ! A7    A(2,3,4)              123.4871         estimate D2E/DX2                !
 ! A8    A(2,3,23)             120.8692         estimate D2E/DX2                !
 ! A9    A(4,3,23)             115.6432         estimate D2E/DX2                !
 ! A10   A(3,4,5)              118.3562         estimate D2E/DX2                !
 ! A11   A(3,4,31)             106.224          estimate D2E/DX2                !
 ! A12   A(5,4,31)             133.2325         estimate D2E/DX2                !
 ! A13   A(4,5,6)              122.7489         estimate D2E/DX2                !
 ! A14   A(4,5,24)             116.4729         estimate D2E/DX2                !
 ! A15   A(6,5,24)             120.7781         estimate D2E/DX2                !
 ! A16   A(1,6,5)              118.4836         estimate D2E/DX2                !
 ! A17   A(1,6,25)             121.2355         estimate D2E/DX2                !
 ! A18   A(5,6,25)             120.2804         estimate D2E/DX2                !
 ! A19   A(2,7,8)              111.8459         estimate D2E/DX2                !
 ! A20   A(2,7,11)             118.561          estimate D2E/DX2                !
 ! A21   A(2,7,22)             109.0835         estimate D2E/DX2                !
 ! A22   A(8,7,11)             101.0161         estimate D2E/DX2                !
 ! A23   A(8,7,22)             106.276          estimate D2E/DX2                !
 ! A24   A(11,7,22)            109.234          estimate D2E/DX2                !
 ! A25   A(7,8,9)              107.3419         estimate D2E/DX2                !
 ! A26   A(7,8,27)             112.836          estimate D2E/DX2                !
 ! A27   A(7,8,28)             110.375          estimate D2E/DX2                !
 ! A28   A(9,8,27)             112.2057         estimate D2E/DX2                !
 ! A29   A(9,8,28)             107.3072         estimate D2E/DX2                !
 ! A30   A(27,8,28)            106.6601         estimate D2E/DX2                !
 ! A31   A(8,9,10)             105.0136         estimate D2E/DX2                !
 ! A32   A(8,9,16)             109.0845         estimate D2E/DX2                !
 ! A33   A(8,9,21)             107.3081         estimate D2E/DX2                !
 ! A34   A(10,9,16)            112.6156         estimate D2E/DX2                !
 ! A35   A(10,9,21)            113.5667         estimate D2E/DX2                !
 ! A36   A(16,9,21)            108.9787         estimate D2E/DX2                !
 ! A37   A(9,10,11)            105.1292         estimate D2E/DX2                !
 ! A38   A(9,10,17)            110.0263         estimate D2E/DX2                !
 ! A39   A(9,10,18)            111.4857         estimate D2E/DX2                !
 ! A40   A(11,10,17)           110.3929         estimate D2E/DX2                !
 ! A41   A(11,10,18)           112.159          estimate D2E/DX2                !
 ! A42   A(17,10,18)           107.6648         estimate D2E/DX2                !
 ! A43   A(7,11,10)            103.3192         estimate D2E/DX2                !
 ! A44   A(7,11,19)            110.1897         estimate D2E/DX2                !
 ! A45   A(7,11,20)            111.1796         estimate D2E/DX2                !
 ! A46   A(10,11,19)           110.9022         estimate D2E/DX2                !
 ! A47   A(10,11,20)           113.1678         estimate D2E/DX2                !
 ! A48   A(19,11,20)           108.0539         estimate D2E/DX2                !
 ! A49   A(28,12,29)           113.5868         estimate D2E/DX2                !
 ! A50   A(28,12,30)           116.6244         estimate D2E/DX2                !
 ! A51   A(29,12,30)           103.1451         estimate D2E/DX2                !
 ! A52   A(29,13,35)           108.0811         estimate D2E/DX2                !
 ! A53   A(29,13,36)           121.1327         estimate D2E/DX2                !
 ! A54   A(35,13,36)           106.3964         estimate D2E/DX2                !
 ! A55   A(31,14,32)           107.2257         estimate D2E/DX2                !
 ! A56   A(31,14,33)           107.9016         estimate D2E/DX2                !
 ! A57   A(31,14,35)            95.0977         estimate D2E/DX2                !
 ! A58   A(32,14,33)           123.6559         estimate D2E/DX2                !
 ! A59   A(32,14,35)           124.7606         estimate D2E/DX2                !
 ! A60   A(33,14,35)            94.0656         estimate D2E/DX2                !
 ! A61   A(30,15,33)           106.6524         estimate D2E/DX2                !
 ! A62   A(30,15,34)           124.5397         estimate D2E/DX2                !
 ! A63   A(33,15,34)           106.5413         estimate D2E/DX2                !
 ! A64   A(8,27,40)            110.0863         estimate D2E/DX2                !
 ! A65   A(8,27,41)            110.4658         estimate D2E/DX2                !
 ! A66   A(8,27,42)            111.1049         estimate D2E/DX2                !
 ! A67   A(40,27,41)           107.6424         estimate D2E/DX2                !
 ! A68   A(40,27,42)           108.748          estimate D2E/DX2                !
 ! A69   A(41,27,42)           108.704          estimate D2E/DX2                !
 ! A70   A(12,30,15)           161.0598         estimate D2E/DX2                !
 ! A71   A(4,31,14)            155.93           estimate D2E/DX2                !
 ! A72   A(14,33,15)           160.7022         estimate D2E/DX2                !
 ! A73   A(13,35,14)           156.9428         estimate D2E/DX2                !
 ! A74   A(36,37,38)           126.3125         estimate D2E/DX2                !
 ! A75   A(36,37,39)           124.8014         estimate D2E/DX2                !
 ! A76   A(38,37,39)           105.8829         estimate D2E/DX2                !
 ! A77   L(8,28,12,3,-1)       188.7923         estimate D2E/DX2                !
 ! A78   L(12,29,13,1,-1)      173.6836         estimate D2E/DX2                !
 ! A79   L(13,36,37,32,-1)     178.1958         estimate D2E/DX2                !
 ! A80   L(8,28,12,3,-2)       175.1612         estimate D2E/DX2                !
 ! A81   L(12,29,13,1,-2)      169.8552         estimate D2E/DX2                !
 ! A82   L(13,36,37,32,-2)     180.5463         estimate D2E/DX2                !
 ! D1    D(6,1,2,3)              0.4388         estimate D2E/DX2                !
 ! D2    D(6,1,2,7)           -178.6569         estimate D2E/DX2                !
 ! D3    D(26,1,2,3)          -179.1768         estimate D2E/DX2                !
 ! D4    D(26,1,2,7)             1.7275         estimate D2E/DX2                !
 ! D5    D(2,1,6,5)              0.5724         estimate D2E/DX2                !
 ! D6    D(2,1,6,25)          -179.705          estimate D2E/DX2                !
 ! D7    D(26,1,6,5)          -179.8103         estimate D2E/DX2                !
 ! D8    D(26,1,6,25)           -0.0877         estimate D2E/DX2                !
 ! D9    D(1,2,3,4)             -1.2274         estimate D2E/DX2                !
 ! D10   D(1,2,3,23)           179.0543         estimate D2E/DX2                !
 ! D11   D(7,2,3,4)            177.8661         estimate D2E/DX2                !
 ! D12   D(7,2,3,23)            -1.8522         estimate D2E/DX2                !
 ! D13   D(1,2,7,8)            104.8352         estimate D2E/DX2                !
 ! D14   D(1,2,7,11)          -138.2531         estimate D2E/DX2                !
 ! D15   D(1,2,7,22)           -12.436          estimate D2E/DX2                !
 ! D16   D(3,2,7,8)            -74.2265         estimate D2E/DX2                !
 ! D17   D(3,2,7,11)            42.6853         estimate D2E/DX2                !
 ! D18   D(3,2,7,22)           168.5024         estimate D2E/DX2                !
 ! D19   D(2,3,4,5)              0.9034         estimate D2E/DX2                !
 ! D20   D(2,3,4,31)          -164.4903         estimate D2E/DX2                !
 ! D21   D(23,3,4,5)          -179.3648         estimate D2E/DX2                !
 ! D22   D(23,3,4,31)           15.2415         estimate D2E/DX2                !
 ! D23   D(3,4,5,6)              0.2165         estimate D2E/DX2                !
 ! D24   D(3,4,5,24)          -179.8717         estimate D2E/DX2                !
 ! D25   D(31,4,5,6)           160.8058         estimate D2E/DX2                !
 ! D26   D(31,4,5,24)          -19.2824         estimate D2E/DX2                !
 ! D27   D(3,4,31,14)           29.2155         estimate D2E/DX2                !
 ! D28   D(5,4,31,14)         -133.051          estimate D2E/DX2                !
 ! D29   D(4,5,6,1)             -0.9434         estimate D2E/DX2                !
 ! D30   D(4,5,6,25)           179.3313         estimate D2E/DX2                !
 ! D31   D(24,5,6,1)           179.1484         estimate D2E/DX2                !
 ! D32   D(24,5,6,25)           -0.5769         estimate D2E/DX2                !
 ! D33   D(2,7,8,9)            165.2034         estimate D2E/DX2                !
 ! D34   D(2,7,8,27)           -70.6646         estimate D2E/DX2                !
 ! D35   D(2,7,8,28)            48.5599         estimate D2E/DX2                !
 ! D36   D(11,7,8,9)            38.1329         estimate D2E/DX2                !
 ! D37   D(11,7,8,27)          162.2648         estimate D2E/DX2                !
 ! D38   D(11,7,8,28)          -78.5107         estimate D2E/DX2                !
 ! D39   D(22,7,8,9)           -75.8498         estimate D2E/DX2                !
 ! D40   D(22,7,8,27)           48.2821         estimate D2E/DX2                !
 ! D41   D(22,7,8,28)          167.5066         estimate D2E/DX2                !
 ! D42   D(2,7,11,10)         -164.5727         estimate D2E/DX2                !
 ! D43   D(2,7,11,19)          -46.0376         estimate D2E/DX2                !
 ! D44   D(2,7,11,20)           73.7377         estimate D2E/DX2                !
 ! D45   D(8,7,11,10)          -42.053          estimate D2E/DX2                !
 ! D46   D(8,7,11,19)           76.4821         estimate D2E/DX2                !
 ! D47   D(8,7,11,20)         -163.7426         estimate D2E/DX2                !
 ! D48   D(22,7,11,10)          69.6828         estimate D2E/DX2                !
 ! D49   D(22,7,11,19)        -171.7822         estimate D2E/DX2                !
 ! D50   D(22,7,11,20)         -52.0068         estimate D2E/DX2                !
 ! D51   D(7,8,9,10)           -18.9423         estimate D2E/DX2                !
 ! D52   D(7,8,9,16)           101.994          estimate D2E/DX2                !
 ! D53   D(7,8,9,21)          -140.0841         estimate D2E/DX2                !
 ! D54   D(27,8,9,10)         -143.457          estimate D2E/DX2                !
 ! D55   D(27,8,9,16)          -22.5207         estimate D2E/DX2                !
 ! D56   D(27,8,9,21)           95.4012         estimate D2E/DX2                !
 ! D57   D(28,8,9,10)           99.7002         estimate D2E/DX2                !
 ! D58   D(28,8,9,16)         -139.3634         estimate D2E/DX2                !
 ! D59   D(28,8,9,21)          -21.4416         estimate D2E/DX2                !
 ! D60   D(7,8,12,29)          -83.696          estimate D2E/DX2                !
 ! D61   D(7,8,12,30)           39.2635         estimate D2E/DX2                !
 ! D62   D(9,8,12,29)          161.0131         estimate D2E/DX2                !
 ! D63   D(9,8,12,30)          -76.0275         estimate D2E/DX2                !
 ! D64   D(27,8,12,29)          42.7965         estimate D2E/DX2                !
 ! D65   D(27,8,12,30)         165.7559         estimate D2E/DX2                !
 ! D66   D(7,8,27,40)         -179.432          estimate D2E/DX2                !
 ! D67   D(7,8,27,41)           61.8228         estimate D2E/DX2                !
 ! D68   D(7,8,27,42)          -58.9036         estimate D2E/DX2                !
 ! D69   D(9,8,27,40)          -58.0172         estimate D2E/DX2                !
 ! D70   D(9,8,27,41)         -176.7624         estimate D2E/DX2                !
 ! D71   D(9,8,27,42)           62.5112         estimate D2E/DX2                !
 ! D72   D(28,8,27,40)          59.2128         estimate D2E/DX2                !
 ! D73   D(28,8,27,41)         -59.5324         estimate D2E/DX2                !
 ! D74   D(28,8,27,42)         179.7412         estimate D2E/DX2                !
 ! D75   D(8,9,10,11)           -7.9046         estimate D2E/DX2                !
 ! D76   D(8,9,10,17)          110.9602         estimate D2E/DX2                !
 ! D77   D(8,9,10,18)         -129.6619         estimate D2E/DX2                !
 ! D78   D(16,9,10,11)        -126.4884         estimate D2E/DX2                !
 ! D79   D(16,9,10,17)          -7.6237         estimate D2E/DX2                !
 ! D80   D(16,9,10,18)         111.7543         estimate D2E/DX2                !
 ! D81   D(21,9,10,11)         109.0345         estimate D2E/DX2                !
 ! D82   D(21,9,10,17)        -132.1007         estimate D2E/DX2                !
 ! D83   D(21,9,10,18)         -12.7228         estimate D2E/DX2                !
 ! D84   D(9,10,11,7)           31.2358         estimate D2E/DX2                !
 ! D85   D(9,10,11,19)         -86.803          estimate D2E/DX2                !
 ! D86   D(9,10,11,20)         151.5776         estimate D2E/DX2                !
 ! D87   D(17,10,11,7)         -87.3829         estimate D2E/DX2                !
 ! D88   D(17,10,11,19)        154.5783         estimate D2E/DX2                !
 ! D89   D(17,10,11,20)         32.9589         estimate D2E/DX2                !
 ! D90   D(18,10,11,7)         152.5538         estimate D2E/DX2                !
 ! D91   D(18,10,11,19)         34.515          estimate D2E/DX2                !
 ! D92   D(18,10,11,20)        -87.1044         estimate D2E/DX2                !
 ! D93   D(28,12,13,35)        108.9506         estimate D2E/DX2                !
 ! D94   D(28,12,13,36)       -128.8338         estimate D2E/DX2                !
 ! D95   D(30,12,13,35)        -14.0943         estimate D2E/DX2                !
 ! D96   D(30,12,13,36)        108.1213         estimate D2E/DX2                !
 ! D97   D(28,12,30,15)        -73.0234         estimate D2E/DX2                !
 ! D98   D(29,12,30,15)         52.1965         estimate D2E/DX2                !
 ! D99   D(29,13,35,14)        -36.4025         estimate D2E/DX2                !
 ! D100  D(36,13,35,14)       -167.9317         estimate D2E/DX2                !
 ! D101  D(29,13,37,38)        -25.0567         estimate D2E/DX2                !
 ! D102  D(29,13,37,39)        133.411          estimate D2E/DX2                !
 ! D103  D(35,13,37,38)         98.302          estimate D2E/DX2                !
 ! D104  D(35,13,37,39)       -103.2303         estimate D2E/DX2                !
 ! D105  D(32,14,31,4)         176.61           estimate D2E/DX2                !
 ! D106  D(33,14,31,4)         -48.1632         estimate D2E/DX2                !
 ! D107  D(35,14,31,4)          47.7844         estimate D2E/DX2                !
 ! D108  D(31,14,33,15)         42.7431         estimate D2E/DX2                !
 ! D109  D(32,14,33,15)        168.825          estimate D2E/DX2                !
 ! D110  D(35,14,33,15)        -53.9511         estimate D2E/DX2                !
 ! D111  D(31,14,35,13)        -56.5596         estimate D2E/DX2                !
 ! D112  D(32,14,35,13)       -171.6346         estimate D2E/DX2                !
 ! D113  D(33,14,35,13)         51.8449         estimate D2E/DX2                !
 ! D114  D(33,15,30,12)        -40.6574         estimate D2E/DX2                !
 ! D115  D(34,15,30,12)       -165.1735         estimate D2E/DX2                !
 ! D116  D(30,15,33,14)         40.235          estimate D2E/DX2                !
 ! D117  D(34,15,33,14)        175.1601         estimate D2E/DX2                !
 --------------------------------------------------------------------------------
 Trust Radius=3.00D-01 FncErr=1.00D-07 GrdErr=1.00D-06 EigMax=2.50D+02 EigMin=1.00D-04
 Number of steps in this run=    252 maximum allowed number of steps=    252.
 GradGradGradGradGradGradGradGradGradGradGradGradGradGradGradGradGradGrad

                          Input orientation:                          
 ---------------------------------------------------------------------
 Center     Atomic      Atomic             Coordinates (Angstroms)
 Number     Number       Type             X           Y           Z
 ---------------------------------------------------------------------
      1          6           0       -1.346824    2.436197   -1.049737
      2          6           0       -1.292128    1.274597   -0.278426
      3          6           0       -0.232603    1.145296    0.620081
      4          7           0        0.731142    2.057092    0.757614
      5          6           0        0.671134    3.162173    0.008231
      6          6           0       -0.354429    3.399739   -0.902074
      7          6           0       -2.329852    0.191202   -0.427660
      8          7           0       -1.793053   -1.000148   -1.180367
      9          6           0       -2.749987   -2.138846   -0.958580
     10          6           0       -3.559637   -1.742441    0.294000
     11          6           0       -2.871452   -0.479926    0.833084
     12          8           0        0.420784   -1.975728   -0.208582
     13          8           0        2.630637   -0.586640   -0.698405
     14          8           0        2.622504    0.488118    1.950803
     15          8           0        0.754653   -1.485844    2.477984
     16          1           0       -3.378578   -2.255811   -1.846139
     17          1           0       -4.596977   -1.523022    0.016468
     18          1           0       -3.577106   -2.549707    1.031749
     19          1           0       -2.045897   -0.741558    1.507421
     20          1           0       -3.552673    0.184396    1.372959
     21          1           0       -2.152197   -3.044753   -0.824214
     22          1           0       -3.169858    0.577646   -1.021378
     23          1           0       -0.145971    0.267494    1.259663
     24          1           0        1.475319    3.885528    0.143831
     25          1           0       -0.369359    4.318937   -1.484191
     26          1           0       -2.161807    2.593600   -1.758193
     27          6           0       -1.579101   -0.723235   -2.611844
     28          1           0       -0.834963   -1.301148   -0.775864
     29          1           0        1.265020   -1.540936   -0.488890
     30          1           0        0.499321   -2.006723    0.764502
     31          1           0        2.063699    1.248453    1.656778
     32          1           0        3.319886    0.845531    2.505192
     33          1           0        1.506215   -0.860734    2.471721
     34          1           0        0.903974   -2.085349    3.212502
     35          1           0        2.885868   -0.232156    0.167482
     36          1           0        3.440647   -0.948564   -1.096432
     37          8           0        4.987958   -1.595960   -1.801172
     38          1           0        5.274156   -2.512800   -1.798908
     39          1           0        5.501931   -1.161838   -2.486697
     40          1           0       -1.193855   -1.632289   -3.123223
     41          1           0       -0.825060    0.082119   -2.743269
     42          1           0       -2.525390   -0.409710   -3.104872
 ---------------------------------------------------------------------
                    Distance matrix (angstroms):
                    1          2          3          4          5
     1  C    0.000000
     2  C    1.395431   0.000000
     3  C    2.386673   1.395216   0.000000
     4  N    2.779961   2.404017   1.333826   0.000000
     5  C    2.391337   2.738524   2.293228   1.336555   0.000000
     6  C    1.391066   2.405087   2.722923   2.394938   1.391716
     7  C    2.528503   1.507610   2.531108   3.775726   4.245302
     8  N    3.467658   2.497777   3.206173   4.412941   4.980954
     9  C    4.786251   3.773534   4.428880   5.715722   6.382758
    10  C    4.915606   3.817301   4.417523   5.749972   6.483543
    11  C    3.791211   2.609228   3.106484   4.406908   5.147347
    12  O    4.826703   3.674719   3.294600   4.158545   5.148564
    13  O    5.008111   4.362186   3.596686   3.566145   4.288658
    14  O    5.343577   4.573003   3.217816   2.731781   3.838229
    15  O    5.678330   4.405354   3.368883   3.938607   5.264097
    16  H    5.174671   4.390305   5.248517   6.501574   7.013801
    17  H    5.232180   4.340007   5.150925   6.461839   7.050114
    18  H    5.845167   4.643596   5.000822   6.313378   7.191711
    19  H    4.138344   2.796837   2.763264   4.013303   4.986877
    20  H    3.975655   3.004276   3.537375   4.715582   5.345108
    21  H    5.544393   4.437836   4.829838   6.069979   6.869505
    22  H    2.603549   2.136256   3.412342   4.535568   4.742688
    23  H    3.388015   2.166483   1.089544   2.055247   3.257746
    24  H    3.389640   3.828058   3.263845   2.067295   1.090112
    25  H    2.165386   3.401967   3.810336   3.369382   2.155934
    26  H    1.091276   2.164676   3.387565   3.871212   3.386604
    27  C    3.532158   3.085211   3.968602   4.941729   5.198533
    28  H    3.782163   2.662876   2.880380   4.010239   4.775392
    29  H    4.791019   3.809269   3.269332   3.845075   4.766452
    30  H    5.141911   3.881243   3.239104   4.070428   5.226753
    31  H    4.513051   3.873922   2.521584   1.799472   2.884314
    32  H    6.078316   5.404008   4.032825   3.350150   4.314804
    33  H    5.604485   4.466953   3.236698   3.471687   4.790608
    34  H    6.608869   5.319650   4.295291   4.818315   6.152890
    35  H    5.149506   4.463719   3.439052   3.198712   4.056091
    36  H    5.863332   5.292517   4.563270   4.451165   5.078252
    37  O    7.546682   7.070950   6.374261   6.165441   6.674484
    38  H    8.300073   7.731257   7.039714   6.932438   7.527209
    39  H    7.868682   7.547974   6.918079   6.606625   6.946822
    40  H    4.568953   4.068479   4.759340   5.690171   6.022546
    41  H    2.946519   2.777698   3.576797   4.310275   4.392731
    42  H    3.702942   3.513776   4.642218   5.622180   5.715551
                    6          7          8          9         10
     6  C    0.000000
     7  C    3.797641   0.000000
     8  N    4.637466   1.507991   0.000000
     9  C    6.034717   2.426420   1.503844   0.000000
    10  C    6.176242   2.402528   2.417763   1.543252   0.000000
    11  C    4.939431   1.527488   2.342554   2.444755   1.535628
    12  O    5.475174   3.508501   2.607143   3.262345   4.018801
    13  O    4.984307   5.028399   4.469039   5.606081   6.374969
    14  O    5.047631   5.501916   5.613938   6.650497   6.777850
    15  O    6.043490   4.557348   4.484444   4.951655   4.842388
    16  H    6.482436   3.016584   2.129280   1.093878   2.208286
    17  H    6.563270   2.876746   3.093186   2.177459   1.096012
    18  H    7.037132   3.346356   3.236887   2.194161   1.093735
    19  H    5.081050   2.166843   2.712011   2.920500   2.183018
    20  H    5.073753   2.176595   3.319470   3.387895   2.208371
    21  H    6.691002   3.264999   2.106238   1.093652   2.219754
    22  H    3.988118   1.098840   2.100072   2.749466   2.695357
    23  H    3.811498   2.760836   3.205237   4.182341   4.077433
    24  H    2.162842   5.334227   6.025412   7.440538   7.552971
    25  H    1.088121   4.690201   5.514697   6.902653   7.076732
    26  H    2.156250   2.751377   3.658536   4.835430   4.996667
    27  C    4.628396   2.484045   1.473629   2.471479   3.661315
    28  H    4.727069   2.140805   1.082663   2.098199   2.960270
    29  H    5.215708   3.990884   3.181572   4.086366   4.891915
    30  H    5.721555   3.775757   3.170282   3.680281   4.094674
    31  H    4.125906   4.976540   5.289625   6.440921   6.513411
    32  H    5.624414   6.399165   6.567497   7.599183   7.675598
    33  H    5.744225   4.922234   4.923652   5.613893   5.584150
    34  H    6.971334   5.375044   5.267724   5.545468   5.344068
    35  H    4.983386   5.266608   4.929382   6.055274   6.621292
    36  H    5.774783   5.919880   5.234627   6.305531   7.181053
    37  O    7.369293   7.657077   6.835386   7.802594   8.801851
    38  H    8.212393   8.186140   7.253699   8.076686   9.110961
    39  H    7.590518   8.210187   7.412788   8.448896   9.496388
    40  H    5.564122   3.446980   2.129162   2.713638   4.157701
    41  H    3.823362   2.763755   2.133301   3.438479   4.475704
    42  H    4.906861   2.750780   2.142114   2.765307   3.794492
                   11         12         13         14         15
    11  C    0.000000
    12  O    3.763152   0.000000
    13  O    5.712253   2.655738   0.000000
    14  O    5.689460   3.947284   2.858929   0.000000
    15  O    4.106848   2.751198   3.797016   2.768269   0.000000
    16  H    3.254102   4.146708   6.341458   7.613074   6.031127
    17  H    2.175396   5.043165   7.322995   7.739977   5.890703
    18  H    2.195771   4.225044   6.736701   6.964783   4.689087
    19  H    1.097599   3.248439   5.172972   4.847954   3.055983
    20  H    1.094007   4.791218   6.566458   6.209586   4.750141
    21  H    3.137244   2.853427   5.379001   6.555888   4.667385
    22  H    2.155582   4.480298   5.924999   6.511016   5.648479
    23  H    2.858121   2.740255   3.503302   2.861958   2.317245
    24  H    6.198925   5.965783   4.695147   4.015417   5.900785
    25  H    5.887217   6.471036   5.803630   5.951941   7.117423
    26  H    4.082263   5.472644   5.848470   6.409316   6.564510
    27  C    3.687397   3.368077   4.626208   6.319700   5.651046
    28  H    2.722206   1.534199   3.539337   4.752922   3.626089
    29  H    4.470320   0.990127   1.679133   3.451366   3.010955
    30  H    3.701071   0.976740   2.949447   3.484171   1.809014
    31  H    5.293532   4.071128   3.039058   0.988344   3.140758
    32  H    6.548698   4.871228   3.576201   0.959913   3.466478
    33  H    4.689788   3.099257   3.374782   1.826707   0.977572
    34  H    4.742663   3.456777   4.530197   3.341850   0.959802
    35  H    5.800961   3.042714   0.969826   1.941234   3.384114
    36  H    6.617042   3.311029   0.972384   3.466851   4.503297
    37  O    8.363920   4.851767   2.791377   4.900619   6.020313
    38  H    8.798346   5.135446   3.450999   5.486082   6.306532
    39  H    9.033244   5.627635   3.431205   5.541197   6.876750
    40  H    4.449117   3.349648   4.647565   6.693763   5.932255
    41  H    4.158595   3.494495   4.070694   5.838223   5.675868
    42  H    3.953756   4.418240   5.692714   7.270952   6.563918
                   16         17         18         19         20
    16  H    0.000000
    17  H    2.343241   0.000000
    18  H    2.899660   1.767771   0.000000
    19  H    3.913485   3.056409   2.416665   0.000000
    20  H    4.043206   2.417833   2.755420   1.773653   0.000000
    21  H    1.780666   2.999893   2.391659   3.279105   4.149254
    22  H    2.958424   2.743465   3.763179   3.065683   2.456429
    23  H    5.144203   4.956101   4.445363   2.165477   3.409598
    24  H    8.076902   8.132737   8.229681   5.972291   6.363163
    25  H    7.239732   7.365678   7.987357   6.113030   5.949052
    26  H    5.000505   5.101573   6.020005   4.669149   4.188423
    27  C    2.484594   4.081085   4.539140   4.145669   4.538439
    28  H    2.920077   3.850944   3.513647   2.644408   3.769646
    29  H    4.890416   5.883767   5.174567   3.947966   5.445495
    30  H    4.681409   5.173565   4.121105   2.937806   4.646491
    31  H    7.359937   7.398398   6.829009   4.568504   5.723321
    32  H    8.568654   8.630209   7.827335   5.683839   6.996508
    33  H    6.667185   6.611796   5.546738   3.682605   5.281280
    34  H    6.630170   6.386807   5.005136   3.662624   5.328918
    35  H    6.884267   7.594874   6.920118   5.135877   6.563650
    36  H    6.983751   8.134614   7.506109   6.076600   7.502534
    37  O    8.392637   9.756030   9.071681   7.819968   9.283704
    38  H    8.656678  10.085362   9.292945   8.225101   9.759535
    39  H    8.970537  10.410775   9.835373   8.549814   9.934543
    40  H    2.606289   4.631506   4.877021   4.791894   5.392590
    41  H    3.576480   4.941658   5.361998   4.498583   4.938994
    42  H    2.391742   3.908158   4.774655   4.649009   4.632412
                   21         22         23         24         25
    21  H    0.000000
    22  H    3.767795   0.000000
    23  H    4.397552   3.800426   0.000000
    24  H    7.881927   5.820435   4.118717   0.000000
    25  H    7.605131   4.696195   4.898247   2.498227   0.000000
    26  H    5.715193   2.371315   4.310663   4.302959   2.502945
    27  C    2.985549   2.598534   4.245464   6.177695   5.306465
    28  H    2.185773   3.006972   2.660586   5.751943   5.683649
    29  H    3.748504   4.943691   2.884225   5.467273   6.164408
    30  H    3.260686   4.830239   2.415295   6.004700   6.769431
    31  H    6.508511   5.917146   2.450025   3.096670   5.021288
    32  H    7.494194   7.390889   3.727953   4.268493   6.449051
    33  H    5.386753   6.011351   2.339167   5.286495   6.782036
    34  H    5.153224   6.450844   3.232930   6.737548   8.043331
    35  H    5.854593   6.224226   3.261067   4.352646   5.834122
    36  H    5.978964   6.784816   4.460248   5.363694   6.512532
    37  O    7.350868   8.478361   6.260862   6.794732   7.986697
    38  H    7.508909   9.025341   6.816353   7.690514   8.866845
    39  H    8.055737   8.965093   6.926543   6.972029   8.094193
    40  H    2.863375   3.634028   4.890494   6.945822   6.227625
    41  H    3.901460   2.951022   4.064356   5.300284   4.443374
    42  H    3.504872   2.393984   5.016912   6.708860   5.443820
                   26         27         28         29         30
    26  H    0.000000
    27  C    3.474142   0.000000
    28  H    4.230195   2.063624   0.000000
    29  H    5.518031   3.642059   2.133022   0.000000
    30  H    5.882904   4.167360   2.156589   1.540858   0.000000
    31  H    5.596995   5.947998   4.562944   3.608666   3.720162
    32  H    7.161086   7.255698   5.712821   4.345368   4.372750
    33  H    6.578676   5.948169   4.027640   3.047305   2.289481
    34  H    7.483274   6.476420   4.421079   3.758596   2.482465
    35  H    6.096896   5.282211   3.984624   2.184234   3.033336
    36  H    6.661257   5.248344   4.302083   2.335244   3.637880
    37  O    8.286942   6.674212   5.919846   3.947832   5.186451
    38  H    9.020561   7.129554   6.311581   4.328260   5.442999
    39  H    8.565449   7.095706   6.565256   4.699613   6.025797
    40  H    4.545149   1.111892   2.397614   3.604736   4.256930
    41  H    3.010781   1.111056   2.405038   3.476344   4.292051
    42  H    3.311436   1.112132   3.012720   4.742387   5.164434
                   31         32         33         34         35
    31  H    0.000000
    32  H    1.568489   0.000000
    33  H    2.328860   2.490354   0.000000
    34  H    3.857392   3.863544   1.552782   0.000000
    35  H    2.255253   2.610492   2.758273   4.078526   0.000000
    36  H    3.781935   4.025550   4.059736   5.127758   1.555152
    37  O    5.347840   5.223803   5.560639   6.485010   3.186588
    38  H    6.032895   5.798520   5.930006   6.662990   3.843429
    39  H    5.899095   5.806015   6.375133   7.380715   3.840932
    40  H    6.462101   7.628401   6.260118   6.689362   5.425242
    41  H    5.391259   6.731250   5.789640   6.569527   4.726757
    42  H    6.817811   8.198518   6.896060   7.380888   6.326257
                   36         37         38         39         40
    36  H    0.000000
    37  O    1.819327   0.000000
    38  H    2.510391   0.960474   0.000000
    39  H    2.495439   0.960508   1.532982   0.000000
    40  H    5.104309   6.321704   6.660651   6.742406   0.000000
    41  H    4.687285   6.123290   6.695212   6.453222   1.794316
    42  H    6.318052   7.717332   8.182997   8.086143   1.807768
                   41         42
    41  H    0.000000
    42  H    1.806591   0.000000
 Stoichiometry    C10H25N2O5(1+)
 Framework group  C1[X(C10H25N2O5)]
 Deg. of freedom   120
 Full point group                 C1      NOp   1
 Largest Abelian subgroup         C1      NOp   1
 Largest concise Abelian subgroup C1      NOp   1
                         Standard orientation:                         
 ---------------------------------------------------------------------
 Center     Atomic      Atomic             Coordinates (Angstroms)
 Number     Number       Type             X           Y           Z
 ---------------------------------------------------------------------
      1          6           0       -1.248382    2.432755   -1.011790
      2          6           0       -1.173630    1.337266   -0.150661
      3          6           0       -0.061363    1.249007    0.687014
      4          7           0        0.932710    2.138338    0.686545
      5          6           0        0.852622    3.179494   -0.147698
      6          6           0       -0.223721    3.373565   -1.008334
      7          6           0       -2.246729    0.278359   -0.142762
      8          7           0       -1.791463   -0.987020   -0.825098
      9          6           0       -2.761159   -2.073086   -0.448672
     10          6           0       -3.476611   -1.549973    0.814700
     11          6           0       -2.722041   -0.269666    1.201473
     12          8           0        0.455024   -1.948472    0.083805
     13          8           0        2.663529   -0.674292   -0.659103
     14          8           0        2.856552    0.614083    1.885756
     15          8           0        0.976424   -1.250367    2.693380
     16          1           0       -3.449253   -2.242758   -1.281923
     17          1           0       -4.523812   -1.321653    0.585607
     18          1           0       -3.466820   -2.292991    1.617248
     19          1           0       -1.861261   -0.500811    1.842060
     20          1           0       -3.348998    0.457780    1.725494
     21          1           0       -2.179641   -2.983204   -0.276639
     22          1           0       -3.113407    0.640906   -0.712744
     23          1           0        0.044019    0.424400    1.391304
     24          1           0        1.682501    3.885959   -0.124221
     25          1           0       -0.252745    4.241877   -1.663467
     26          1           0       -2.103558    2.556941   -1.678223
     27          6           0       -1.664406   -0.835426   -2.285391
     28          1           0       -0.817139   -1.283694   -0.457896
     29          1           0        1.290159   -1.564858   -0.284625
     30          1           0        0.596166   -1.901912    1.049171
     31          1           0        2.299698    1.364861    1.564712
     32          1           0        3.597745    0.993759    2.363158
     33          1           0        1.741980   -0.651764    2.587340
     34          1           0        1.157787   -1.791925    3.464770
     35          1           0        2.983952   -0.258089    0.156168
     36          1           0        3.436097   -1.092903   -1.075558
     37          8           0        4.916661   -1.844191   -1.819499
     38          1           0        5.178440   -2.766274   -1.758298
     39          1           0        5.395847   -1.484158   -2.570053
     40          1           0       -1.337196   -1.795034   -2.741889
     41          1           0       -0.899868   -0.067631   -2.531191
     42          1           0       -2.632418   -0.533914   -2.742425
 ---------------------------------------------------------------------
 Rotational constants (GHZ):           0.4102050           0.2785183           0.2355510
 Standard basis: Aug-CC-pVDZ (5D, 7F)
 There are   650 symmetry adapted cartesian basis functions of A   symmetry.
 There are   616 symmetry adapted basis functions of A   symmetry.
   616 basis functions,  1006 primitive gaussians,   650 cartesian basis functions
    69 alpha electrons       69 beta electrons
       nuclear repulsion energy      1394.5846923303 Hartrees.
 NAtoms=   42 NActive=   42 NUniq=   42 SFac= 1.00D+00 NAtFMM=   60 NAOKFM=F Big=F
 Integral buffers will be    131072 words long.
 Raffenetti 2 integral format.
 Two-electron integral symmetry is turned on.
 Nuclear repulsion after empirical dispersion term =     1394.5505872759 Hartrees.
 One-electron integrals computed using PRISM.
 NBasis=   616 RedAO= T EigKep=  1.91D-06  NBF=   616
 NBsUse=   616 1.00D-06 EigRej= -1.00D+00 NBFU=   616
 ExpMin= 2.97D-02 ExpMax= 1.17D+04 ExpMxC= 4.01D+02 IAcc=3 IRadAn=         5 AccDes= 0.00D+00
 Harris functional with IExCor= 4639 and IRadAn=       5 diagonalized for initial guess.
 HarFok:  IExCor= 4639 AccDes= 0.00D+00 IRadAn=         5 IDoV= 1 UseB2=F ITyADJ=14
 ICtDFT=  3500011 ScaDFX=  1.000000  1.000000  1.000000  1.000000
 FoFCou: FMM=F IPFlag=           0 FMFlag=      100000 FMFlg1=           0
         NFxFlg=           0 DoJE=T BraDBF=F KetDBF=T FulRan=T
         wScrn=  0.000000 ICntrl=       500 IOpCl=  0 I1Cent=   200000004 NGrid=           0
         NMat0=    1 NMatS0=      1 NMatT0=    0 NMatD0=    1 NMtDS0=    0 NMtDT0=    0
 Petite list used in FoFCou.
 Requested convergence on RMS density matrix=1.00D-08 within 128 cycles.
 Requested convergence on MAX density matrix=1.00D-06.
 Requested convergence on             energy=1.00D-06.
 No special actions if energy rises.
 SCF Done:  E(RwB97XD) =  -881.476696241     A.U. after   15 cycles
            NFock= 15  Conv=0.26D-08     -V/T= 2.0063

 **********************************************************************

            Population analysis using the SCF density.

 **********************************************************************

 Orbital symmetries:
       Occupied  (A) (A) (A) (A) (A) (A) (A) (A) (A) (A) (A) (A)
                 (A) (A) (A) (A) (A) (A) (A) (A) (A) (A) (A) (A)
                 (A) (A) (A) (A) (A) (A) (A) (A) (A) (A) (A) (A)
                 (A) (A) (A) (A) (A) (A) (A) (A) (A) (A) (A) (A)
                 (A) (A) (A) (A) (A) (A) (A) (A) (A) (A) (A) (A)
                 (A) (A) (A) (A) (A) (A) (A) (A) (A)
       Virtual   (A) (A) (A) (A) (A) (A) (A) (A) (A) (A) (A) (A)
                 (A) (A) (A) (A) (A) (A) (A) (A) (A) (A) (A) (A)
                 (A) (A) (A) (A) (A) (A) (A) (A) (A) (A) (A) (A)
                 (A) (A) (A) (A) (A) (A) (A) (A) (A) (A) (A) (A)
                 (A) (A) (A) (A) (A) (A) (A) (A) (A) (A) (A) (A)
                 (A) (A) (A) (A) (A) (A) (A) (A) (A) (A) (A) (A)
                 (A) (A) (A) (A) (A) (A) (A) (A) (A) (A) (A) (A)
                 (A) (A) (A) (A) (A) (A) (A) (A) (A) (A) (A) (A)
                 (A) (A) (A) (A) (A) (A) (A) (A) (A) (A) (A) (A)
                 (A) (A) (A) (A) (A) (A) (A) (A) (A) (A) (A) (A)
                 (A) (A) (A) (A) (A) (A) (A) (A) (A) (A) (A) (A)
                 (A) (A) (A) (A) (A) (A) (A) (A) (A) (A) (A) (A)
                 (A) (A) (A) (A) (A) (A) (A) (A) (A) (A) (A) (A)
                 (A) (A) (A) (A) (A) (A) (A) (A) (A) (A) (A) (A)
                 (A) (A) (A) (A) (A) (A) (A) (A) (A) (A) (A) (A)
                 (A) (A) (A) (A) (A) (A) (A) (A) (A) (A) (A) (A)
                 (A) (A) (A) (A) (A) (A) (A) (A) (A) (A) (A) (A)
                 (A) (A) (A) (A) (A) (A) (A) (A) (A) (A) (A) (A)
                 (A) (A) (A) (A) (A) (A) (A) (A) (A) (A) (A) (A)
                 (A) (A) (A) (A) (A) (A) (A) (A) (A) (A) (A) (A)
                 (A) (A) (A) (A) (A) (A) (A) (A) (A) (A) (A) (A)
                 (A) (A) (A) (A) (A) (A) (A) (A) (A) (A) (A) (A)
                 (A) (A) (A) (A) (A) (A) (A) (A) (A) (A) (A) (A)
                 (A) (A) (A) (A) (A) (A) (A) (A) (A) (A) (A) (A)
                 (A) (A) (A) (A) (A) (A) (A) (A) (A) (A) (A) (A)
                 (A) (A) (A) (A) (A) (A) (A) (A) (A) (A) (A) (A)
                 (A) (A) (A) (A) (A) (A) (A) (A) (A) (A) (A) (A)
                 (A) (A) (A) (A) (A) (A) (A) (A) (A) (A) (A) (A)
                 (A) (A) (A) (A) (A) (A) (A) (A) (A) (A) (A) (A)
                 (A) (A) (A) (A) (A) (A) (A) (A) (A) (A) (A) (A)
                 (A) (A) (A) (A) (A) (A) (A) (A) (A) (A) (A) (A)
                 (A) (A) (A) (A) (A) (A) (A) (A) (A) (A) (A) (A)
                 (A) (A) (A) (A) (A) (A) (A) (A) (A) (A) (A) (A)
                 (A) (A) (A) (A) (A) (A) (A) (A) (A) (A) (A) (A)
                 (A) (A) (A) (A) (A) (A) (A) (A) (A) (A) (A) (A)
                 (A) (A) (A) (A) (A) (A) (A) (A) (A) (A) (A) (A)
                 (A) (A) (A) (A) (A) (A) (A) (A) (A) (A) (A) (A)
                 (A) (A) (A) (A) (A) (A) (A) (A) (A) (A) (A) (A)
                 (A) (A) (A) (A) (A) (A) (A) (A) (A) (A) (A) (A)
                 (A) (A) (A) (A) (A) (A) (A) (A) (A) (A) (A) (A)
                 (A) (A) (A) (A) (A) (A) (A) (A) (A) (A) (A) (A)
                 (A) (A) (A) (A) (A) (A) (A) (A) (A) (A) (A) (A)
                 (A) (A) (A) (A) (A) (A) (A) (A) (A) (A) (A) (A)
                 (A) (A) (A) (A) (A) (A) (A) (A) (A) (A) (A) (A)
                 (A) (A) (A) (A) (A) (A) (A) (A) (A) (A) (A) (A)
                 (A) (A) (A) (A) (A) (A) (A)
 The electronic state is 1-A.
 Alpha  occ. eigenvalues --  -19.38782 -19.38421 -19.38067 -19.36597 -19.35529
 Alpha  occ. eigenvalues --  -14.66469 -14.57963 -10.48477 -10.46970 -10.46795
 Alpha  occ. eigenvalues --  -10.45750 -10.45716 -10.44457 -10.44368 -10.42870
 Alpha  occ. eigenvalues --  -10.42796 -10.42625  -1.23683  -1.23163  -1.23051
 Alpha  occ. eigenvalues --   -1.21990  -1.21009  -1.19239  -1.17630  -1.05447
 Alpha  occ. eigenvalues --   -1.03328  -1.00470  -0.95927  -0.92555  -0.87453
 Alpha  occ. eigenvalues --   -0.85168  -0.83544  -0.82218  -0.76997  -0.74687
 Alpha  occ. eigenvalues --   -0.73691  -0.73554  -0.73023  -0.72570  -0.71807
 Alpha  occ. eigenvalues --   -0.71110  -0.70640  -0.69368  -0.67139  -0.65589
 Alpha  occ. eigenvalues --   -0.64521  -0.63998  -0.62661  -0.61776  -0.61582
 Alpha  occ. eigenvalues --   -0.61006  -0.60749  -0.60018  -0.59138  -0.58803
 Alpha  occ. eigenvalues --   -0.57732  -0.56975  -0.56465  -0.55655  -0.54733
 Alpha  occ. eigenvalues --   -0.54293  -0.52089  -0.51723  -0.51168  -0.50369
 Alpha  occ. eigenvalues --   -0.49352  -0.48956  -0.47489  -0.46030
 Alpha virt. eigenvalues --   -0.09048  -0.07877  -0.05923  -0.05239  -0.04567
 Alpha virt. eigenvalues --   -0.04275  -0.03679  -0.03147  -0.02847  -0.02327
 Alpha virt. eigenvalues --   -0.01902  -0.01231  -0.01178  -0.00920  -0.00645
 Alpha virt. eigenvalues --   -0.00027   0.00335   0.00634   0.01371   0.01381
 Alpha virt. eigenvalues --    0.01637   0.02004   0.02390   0.02878   0.03117
 Alpha virt. eigenvalues --    0.03156   0.03852   0.04062   0.04190   0.04623
 Alpha virt. eigenvalues --    0.04977   0.05513   0.05552   0.05866   0.05965
 Alpha virt. eigenvalues --    0.06148   0.06500   0.06769   0.06966   0.07087
 Alpha virt. eigenvalues --    0.07274   0.07643   0.07727   0.08131   0.08191
 Alpha virt. eigenvalues --    0.08450   0.08820   0.09116   0.09408   0.09721
 Alpha virt. eigenvalues --    0.10116   0.10354   0.10535   0.11179   0.11401
 Alpha virt. eigenvalues --    0.11665   0.11950   0.12085   0.12446   0.12882
 Alpha virt. eigenvalues --    0.12958   0.13301   0.13718   0.13845   0.14198
 Alpha virt. eigenvalues --    0.14367   0.14927   0.15113   0.15316   0.15814
 Alpha virt. eigenvalues --    0.16023   0.16290   0.16698   0.16988   0.17350
 Alpha virt. eigenvalues --    0.17441   0.17556   0.18062   0.18314   0.18673
 Alpha virt. eigenvalues --    0.18908   0.19242   0.19336   0.19823   0.20084
 Alpha virt. eigenvalues --    0.20414   0.20688   0.20995   0.21127   0.21290
 Alpha virt. eigenvalues --    0.21360   0.21683   0.22040   0.22168   0.22666
 Alpha virt. eigenvalues --    0.22976   0.23074   0.23726   0.23898   0.24020
 Alpha virt. eigenvalues --    0.24716   0.24927   0.25204   0.25487   0.25847
 Alpha virt. eigenvalues --    0.26210   0.26489   0.26696   0.27043   0.27222
 Alpha virt. eigenvalues --    0.27521   0.27973   0.28224   0.28393   0.28727
 Alpha virt. eigenvalues --    0.29407   0.29722   0.29958   0.30335   0.30365
 Alpha virt. eigenvalues --    0.30823   0.30931   0.31427   0.31852   0.32332
 Alpha virt. eigenvalues --    0.32824   0.33223   0.33696   0.33983   0.34478
 Alpha virt. eigenvalues --    0.34645   0.35408   0.35724   0.36052   0.36556
 Alpha virt. eigenvalues --    0.36918   0.37428   0.37746   0.38082   0.38551
 Alpha virt. eigenvalues --    0.39044   0.39417   0.39617   0.40468   0.40812
 Alpha virt. eigenvalues --    0.41240   0.41603   0.41802   0.42165   0.42493
 Alpha virt. eigenvalues --    0.42994   0.43138   0.43634   0.43790   0.44389
 Alpha virt. eigenvalues --    0.44593   0.44869   0.45360   0.45450   0.45618
 Alpha virt. eigenvalues --    0.45914   0.46614   0.47525   0.47791   0.48067
 Alpha virt. eigenvalues --    0.48246   0.48916   0.49066   0.49459   0.49985
 Alpha virt. eigenvalues --    0.50001   0.50182   0.50899   0.51005   0.51561
 Alpha virt. eigenvalues --    0.51803   0.52124   0.52701   0.53069   0.53320
 Alpha virt. eigenvalues --    0.53553   0.53859   0.54210   0.54818   0.55072
 Alpha virt. eigenvalues --    0.55291   0.55751   0.56024   0.56252   0.56523
 Alpha virt. eigenvalues --    0.56846   0.57138   0.57427   0.57805   0.58422
 Alpha virt. eigenvalues --    0.58636   0.59513   0.59861   0.59913   0.60693
 Alpha virt. eigenvalues --    0.60806   0.61111   0.61284   0.61519   0.62004
 Alpha virt. eigenvalues --    0.62678   0.62729   0.63526   0.64226   0.64909
 Alpha virt. eigenvalues --    0.65109   0.66067   0.66169   0.66357   0.66933
 Alpha virt. eigenvalues --    0.67361   0.68021   0.68193   0.68669   0.69160
 Alpha virt. eigenvalues --    0.69411   0.69620   0.70145   0.70309   0.70716
 Alpha virt. eigenvalues --    0.71327   0.71808   0.72186   0.72880   0.73157
 Alpha virt. eigenvalues --    0.73380   0.73822   0.74373   0.74921   0.75609
 Alpha virt. eigenvalues --    0.75925   0.76248   0.76450   0.77250   0.77612
 Alpha virt. eigenvalues --    0.78504   0.78600   0.79205   0.79785   0.80252
 Alpha virt. eigenvalues --    0.80785   0.81426   0.81831   0.82397   0.83199
 Alpha virt. eigenvalues --    0.83668   0.84272   0.84864   0.85299   0.85688
 Alpha virt. eigenvalues --    0.86402   0.87648   0.88062   0.88455   0.89283
 Alpha virt. eigenvalues --    0.90134   0.90243   0.90767   0.91533   0.92388
 Alpha virt. eigenvalues --    0.92826   0.93374   0.93597   0.93808   0.94588
 Alpha virt. eigenvalues --    0.95346   0.95953   0.96342   0.96582   0.97842
 Alpha virt. eigenvalues --    0.98385   0.98924   0.99738   1.00529   1.01612
 Alpha virt. eigenvalues --    1.02190   1.03081   1.03262   1.03407   1.04674
 Alpha virt. eigenvalues --    1.05330   1.06495   1.06988   1.07855   1.08140
 Alpha virt. eigenvalues --    1.08698   1.09412   1.11014   1.11743   1.12053
 Alpha virt. eigenvalues --    1.13067   1.13754   1.13975   1.14355   1.14837
 Alpha virt. eigenvalues --    1.15744   1.17180   1.17700   1.18233   1.18622
 Alpha virt. eigenvalues --    1.19343   1.20317   1.20867   1.21499   1.21966
 Alpha virt. eigenvalues --    1.22335   1.23542   1.23988   1.25252   1.26507
 Alpha virt. eigenvalues --    1.26622   1.27615   1.29391   1.30366   1.30782
 Alpha virt. eigenvalues --    1.31696   1.32726   1.33351   1.34397   1.35573
 Alpha virt. eigenvalues --    1.36069   1.36785   1.37121   1.37863   1.38772
 Alpha virt. eigenvalues --    1.39608   1.40388   1.41120   1.41960   1.43109
 Alpha virt. eigenvalues --    1.43661   1.43934   1.45339   1.46053   1.46206
 Alpha virt. eigenvalues --    1.46788   1.48035   1.49203   1.49732   1.51129
 Alpha virt. eigenvalues --    1.52515   1.53065   1.53534   1.54548   1.55158
 Alpha virt. eigenvalues --    1.56424   1.56878   1.57063   1.57865   1.58839
 Alpha virt. eigenvalues --    1.59982   1.60546   1.61445   1.61620   1.63514
 Alpha virt. eigenvalues --    1.63837   1.64815   1.65225   1.66656   1.67216
 Alpha virt. eigenvalues --    1.67671   1.68780   1.69782   1.70113   1.70966
 Alpha virt. eigenvalues --    1.71886   1.72705   1.73137   1.74586   1.75172
 Alpha virt. eigenvalues --    1.75666   1.76248   1.76766   1.77783   1.78404
 Alpha virt. eigenvalues --    1.78923   1.80079   1.80678   1.81160   1.81512
 Alpha virt. eigenvalues --    1.82190   1.83139   1.83344   1.83863   1.84387
 Alpha virt. eigenvalues --    1.86022   1.86092   1.87185   1.87344   1.87717
 Alpha virt. eigenvalues --    1.88379   1.89549   1.90316   1.90877   1.91467
 Alpha virt. eigenvalues --    1.91704   1.92723   1.93451   1.94224   1.95019
 Alpha virt. eigenvalues --    1.95546   1.96283   1.96873   1.97793   1.98608
 Alpha virt. eigenvalues --    1.99044   2.00412   2.01164   2.01484   2.02460
 Alpha virt. eigenvalues --    2.03215   2.04802   2.04901   2.06162   2.06822
 Alpha virt. eigenvalues --    2.07528   2.08915   2.09569   2.10220   2.10447
 Alpha virt. eigenvalues --    2.12575   2.13670   2.13842   2.15518   2.16106
 Alpha virt. eigenvalues --    2.16617   2.18374   2.19587   2.19799   2.20243
 Alpha virt. eigenvalues --    2.20420   2.21513   2.22140   2.23173   2.24609
 Alpha virt. eigenvalues --    2.24794   2.25840   2.27096   2.27888   2.29220
 Alpha virt. eigenvalues --    2.29322   2.29731   2.32305   2.32659   2.33110
 Alpha virt. eigenvalues --    2.33772   2.35405   2.37009   2.37866   2.38483
 Alpha virt. eigenvalues --    2.40916   2.41763   2.43176   2.43824   2.45344
 Alpha virt. eigenvalues --    2.45688   2.46910   2.47038   2.50500   2.51459
 Alpha virt. eigenvalues --    2.52335   2.52799   2.54487   2.54893   2.56288
 Alpha virt. eigenvalues --    2.56662   2.57341   2.57683   2.58452   2.59048
 Alpha virt. eigenvalues --    2.60157   2.60517   2.61194   2.63180   2.63793
 Alpha virt. eigenvalues --    2.64943   2.67496   2.67782   2.68563   2.69713
 Alpha virt. eigenvalues --    2.70337   2.71128   2.73659   2.74495   2.75324
 Alpha virt. eigenvalues --    2.76522   2.76901   2.78448   2.79010   2.80524
 Alpha virt. eigenvalues --    2.81744   2.82751   2.84592   2.85133   2.86890
 Alpha virt. eigenvalues --    2.87781   2.88610   2.90618   2.92904   2.94072
 Alpha virt. eigenvalues --    2.95691   2.96498   3.00314   3.04699   3.10276
 Alpha virt. eigenvalues --    3.13191   3.17765   3.20618   3.26155   3.29559
 Alpha virt. eigenvalues --    3.30089   3.34729   3.36284   3.37043   3.40676
 Alpha virt. eigenvalues --    3.42171   3.42868   3.44978   3.45770   3.46949
 Alpha virt. eigenvalues --    3.47556   3.50097   3.51814   3.58194   3.58537
 Alpha virt. eigenvalues --    3.60156   3.61404   3.68560   3.70874   3.74501
 Alpha virt. eigenvalues --    3.81466   3.84667   3.89996   3.91351   3.94364
 Alpha virt. eigenvalues --    3.96502   4.01710   4.04429   4.12840   4.14720
 Alpha virt. eigenvalues --    4.22668   4.38087
          Condensed to atoms (all electrons):
               1          2          3          4          5          6
     1  C   25.970928 -12.600461  -1.010676  -0.575889   1.391353  -4.238616
     2  C  -12.600461  27.340823  -5.749664   0.295842  -1.048458   0.777153
     3  C   -1.010676  -5.749664  19.137203  -0.922162  -1.876374  -0.066133
     4  N   -0.575889   0.295842  -0.922162   7.821931   0.358128   0.226268
     5  C    1.391353  -1.048458  -1.876374   0.358128  11.209258  -3.094955
     6  C   -4.238616   0.777153  -0.066133   0.226268  -3.094955  12.175360
     7  C   -0.765703  -9.202038  -1.886563   0.494206  -0.792408   0.153667
     8  N   -0.542933   0.953194  -0.784842   0.009555   0.111855   0.039042
     9  C   -0.075588  -0.018120  -0.048096   0.007904  -0.041261   0.052623
    10  C   -0.036552   0.126705  -0.016637   0.005725  -0.013765  -0.032989
    11  C   -0.444858   0.758146  -0.226081  -0.100727  -0.061132  -0.140380
    12  O    0.061054  -0.096988  -0.153768   0.013087   0.000353  -0.006692
    13  O   -0.040263   0.152434  -0.209736   0.034055   0.025158  -0.003652
    14  O    0.025853  -0.054176  -0.155439  -0.020473   0.065882  -0.008301
    15  O   -0.002019   0.021414  -0.011234  -0.003943  -0.004418   0.003497
    16  H    0.006961  -0.041432  -0.021190   0.000842  -0.003980   0.003548
    17  H   -0.009056   0.037900   0.022432  -0.000431   0.003271  -0.008238
    18  H    0.014490  -0.092370  -0.024086   0.001495  -0.002743   0.002443
    19  H    0.022042   0.302895  -0.068822  -0.002803   0.019600  -0.061667
    20  H   -0.049913   0.106852   0.157257  -0.011365   0.013531  -0.010468
    21  H    0.011356   0.016929   0.050201  -0.000972  -0.000041   0.000336
    22  H   -0.082349   1.860041   0.198568  -0.024760  -0.001094   0.015326
    23  H   -0.184372  -0.348627  -1.660641   0.075130  -0.140519   0.199728
    24  H    0.337758  -0.313549   0.426167  -0.270147  -0.640161   0.126329
    25  H    0.596393   0.052035  -0.031641  -0.068464   0.449273  -1.312528
    26  H   -2.829187   1.455572   0.024695  -0.014337  -0.261768   0.751415
    27  C   -0.257750   0.351856  -0.043963  -0.000460  -0.023110   0.094280
    28  H    0.029809  -0.165997  -0.299550   0.006961   0.016998  -0.049131
    29  H   -0.018730  -0.002575   0.051467  -0.011988  -0.025040   0.014969
    30  H    0.005681   0.008891  -0.003952   0.011752   0.012116  -0.000587
    31  H   -0.005764   0.095058  -0.181171   0.153881   0.142152  -0.111321
    32  H   -0.006073  -0.002631   0.035955  -0.017445  -0.017038   0.014647
    33  H    0.004296  -0.006514  -0.006559  -0.020290   0.007917  -0.014455
    34  H   -0.002613   0.007985   0.019542   0.001905  -0.001508   0.001481
    35  H   -0.016484   0.047618  -0.043259   0.010900  -0.020957   0.014097
    36  H   -0.002110  -0.020610   0.043525  -0.002875   0.002809  -0.002636
    37  O    0.000376   0.000681  -0.000786  -0.000728   0.000665  -0.000373
    38  H    0.000171  -0.000152   0.000005   0.000018   0.000166  -0.000187
    39  H    0.000003  -0.000285   0.000506  -0.000062  -0.000404   0.000291
    40  H   -0.050150   0.092895   0.048396  -0.001322  -0.001686   0.014314
    41  H    0.010608   0.035846  -0.084863   0.005612  -0.016536  -0.030809
    42  H    0.081384   0.038421   0.034739  -0.003088   0.013876  -0.012674
               7          8          9         10         11         12
     1  C   -0.765703  -0.542933  -0.075588  -0.036552  -0.444858   0.061054
     2  C   -9.202038   0.953194  -0.018120   0.126705   0.758146  -0.096988
     3  C   -1.886563  -0.784842  -0.048096  -0.016637  -0.226081  -0.153768
     4  N    0.494206   0.009555   0.007904   0.005725  -0.100727   0.013087
     5  C   -0.792408   0.111855  -0.041261  -0.013765  -0.061132   0.000353
     6  C    0.153667   0.039042   0.052623  -0.032989  -0.140380  -0.006692
     7  C   26.533029  -1.797013  -0.330679  -0.155426  -1.904119   0.229704
     8  N   -1.797013  11.054305  -0.249564   0.121681  -1.004378  -0.432506
     9  C   -0.330679  -0.249564   5.948430  -0.320942   0.404821  -0.026414
    10  C   -0.155426   0.121681  -0.320942   6.300454  -0.479461  -0.001821
    11  C   -1.904119  -1.004378   0.404821  -0.479461   8.256148  -0.045549
    12  O    0.229704  -0.432506  -0.026414  -0.001821  -0.045549   8.819384
    13  O   -0.069845   0.042752  -0.000391   0.000953   0.011479  -0.152665
    14  O   -0.001884  -0.000159   0.000796  -0.000303  -0.004648   0.001488
    15  O   -0.068155   0.012772   0.008905   0.007658  -0.010859  -0.128094
    16  H    0.053921   0.047856  -0.069923   0.039518   0.131135  -0.017643
    17  H   -0.138548  -0.011801   0.172054  -0.154312   0.068024  -0.003310
    18  H    0.270666  -0.145141   0.266564  -0.446486   0.118573   0.013676
    19  H   -0.681164  -0.197705   0.105505  -0.004713   0.030245   0.013694
    20  H    0.123828   0.378199  -0.127464   0.169637  -0.831954  -0.002337
    21  H    0.031689  -0.565604  -0.331172   0.076834   0.080970   0.054119
    22  H   -4.327737  -0.226997   0.073622  -0.160009   0.568292   0.015069
    23  H   -0.786023   0.122965  -0.008173   0.074968   0.191919  -0.040738
    24  H   -0.015568   0.002386  -0.000970   0.000362   0.002760  -0.000723
    25  H    0.009078  -0.006129  -0.000035  -0.000341   0.010978   0.000011
    26  H    0.039540  -0.022915   0.007430   0.003944  -0.054545   0.000516
    27  C   -0.346186   0.907729  -0.089377  -0.008890  -0.177787  -0.110504
    28  H    0.259497   0.048364  -0.412039   0.077364  -0.116106   0.226129
    29  H   -0.036305   0.000533   0.051400  -0.004794   0.028694   0.238013
    30  H   -0.002477   0.097193  -0.006962   0.002120  -0.010226   0.162492
    31  H    0.014249   0.012960  -0.001169  -0.002459   0.001099  -0.004428
    32  H    0.000860  -0.001674   0.000237  -0.000006   0.000197   0.002263
    33  H   -0.005148   0.003277  -0.004453   0.001184   0.008486   0.011080
    34  H    0.005097   0.006838   0.001226   0.000013  -0.000650  -0.000449
    35  H   -0.014584  -0.000865   0.000552  -0.000405   0.005999   0.010939
    36  H    0.007287   0.003381  -0.000853   0.000453  -0.002971  -0.005200
    37  O   -0.000284  -0.000100  -0.000129  -0.000031   0.000089   0.001908
    38  H    0.000048  -0.000167  -0.000103   0.000030  -0.000052   0.000401
    39  H    0.000050  -0.000017   0.000021  -0.000022   0.000043   0.000248
    40  H   -0.026792  -0.168834  -0.016409   0.042192  -0.078885   0.022100
    41  H    0.055495   0.047572  -0.127184   0.012542   0.110061   0.009803
    42  H   -0.092344  -0.307767   0.236643  -0.101066   0.057829  -0.024510
              13         14         15         16         17         18
     1  C   -0.040263   0.025853  -0.002019   0.006961  -0.009056   0.014490
     2  C    0.152434  -0.054176   0.021414  -0.041432   0.037900  -0.092370
     3  C   -0.209736  -0.155439  -0.011234  -0.021190   0.022432  -0.024086
     4  N    0.034055  -0.020473  -0.003943   0.000842  -0.000431   0.001495
     5  C    0.025158   0.065882  -0.004418  -0.003980   0.003271  -0.002743
     6  C   -0.003652  -0.008301   0.003497   0.003548  -0.008238   0.002443
     7  C   -0.069845  -0.001884  -0.068155   0.053921  -0.138548   0.270666
     8  N    0.042752  -0.000159   0.012772   0.047856  -0.011801  -0.145141
     9  C   -0.000391   0.000796   0.008905  -0.069923   0.172054   0.266564
    10  C    0.000953  -0.000303   0.007658   0.039518  -0.154312  -0.446486
    11  C    0.011479  -0.004648  -0.010859   0.131135   0.068024   0.118573
    12  O   -0.152665   0.001488  -0.128094  -0.017643  -0.003310   0.013676
    13  O    7.961705  -0.036819  -0.003313  -0.000831   0.000248  -0.000252
    14  O   -0.036819   8.203070  -0.040025   0.000016  -0.000050   0.000187
    15  O   -0.003313  -0.040025   7.941938  -0.000430   0.001024  -0.000911
    16  H   -0.000831   0.000016  -0.000430   2.072319  -0.349440   0.144688
    17  H    0.000248  -0.000050   0.001024  -0.349440   2.110746  -0.558686
    18  H   -0.000252   0.000187  -0.000911   0.144688  -0.558686   2.088118
    19  H    0.003471  -0.009383   0.027952  -0.027126   0.186324  -0.203110
    20  H    0.000198   0.000282  -0.000143   0.013849  -0.222505   0.059135
    21  H    0.001212   0.000280   0.004616  -0.600084   0.171787  -0.237127
    22  H   -0.002607  -0.000059  -0.000855  -0.015432   0.032453   0.004471
    23  H    0.022512   0.135534   0.002223  -0.014031   0.005158  -0.008326
    24  H   -0.001789   0.010300   0.000140  -0.000082   0.000054   0.000021
    25  H    0.000215  -0.000433   0.000110  -0.000152   0.000099  -0.000044
    26  H   -0.001053   0.000352  -0.000201  -0.001510   0.001074  -0.000509
    27  C    0.002349  -0.000326   0.001691   0.082153  -0.008281  -0.001792
    28  H   -0.009580  -0.009683  -0.025600  -0.091395  -0.042161   0.040671
    29  H    0.010462   0.004447   0.007910   0.000226  -0.000268   0.000591
    30  H    0.007214   0.000579   0.034964  -0.000028   0.001336  -0.003409
    31  H    0.004974   0.298935  -0.000343   0.000086   0.000113  -0.000560
    32  H    0.001565   0.276365   0.001820   0.000017  -0.000022   0.000047
    33  H    0.003687  -0.006090   0.353162   0.000141  -0.000262   0.000770
    34  H    0.000808  -0.002192   0.295237  -0.000026   0.000092  -0.000475
    35  H    0.362090   0.004141  -0.003983  -0.000027  -0.000016  -0.000073
    36  H    0.278536   0.000474   0.002852  -0.000323   0.000124  -0.000152
    37  O   -0.071176   0.000772   0.000070   0.000021  -0.000004   0.000005
    38  H    0.007804  -0.000012  -0.000051  -0.000002  -0.000000   0.000005
    39  H    0.004008  -0.000091   0.000003   0.000013  -0.000002   0.000001
    40  H    0.003214   0.000203   0.000554  -0.035377   0.004277  -0.000706
    41  H   -0.004838  -0.000618  -0.000233   0.019827  -0.007845   0.005314
    42  H    0.000691  -0.000008   0.000150   0.032736   0.016165  -0.011242
              19         20         21         22         23         24
     1  C    0.022042  -0.049913   0.011356  -0.082349  -0.184372   0.337758
     2  C    0.302895   0.106852   0.016929   1.860041  -0.348627  -0.313549
     3  C   -0.068822   0.157257   0.050201   0.198568  -1.660641   0.426167
     4  N   -0.002803  -0.011365  -0.000972  -0.024760   0.075130  -0.270147
     5  C    0.019600   0.013531  -0.000041  -0.001094  -0.140519  -0.640161
     6  C   -0.061667  -0.010468   0.000336   0.015326   0.199728   0.126329
     7  C   -0.681164   0.123828   0.031689  -4.327737  -0.786023  -0.015568
     8  N   -0.197705   0.378199  -0.565604  -0.226997   0.122965   0.002386
     9  C    0.105505  -0.127464  -0.331172   0.073622  -0.008173  -0.000970
    10  C   -0.004713   0.169637   0.076834  -0.160009   0.074968   0.000362
    11  C    0.030245  -0.831954   0.080970   0.568292   0.191919   0.002760
    12  O    0.013694  -0.002337   0.054119   0.015069  -0.040738  -0.000723
    13  O    0.003471   0.000198   0.001212  -0.002607   0.022512  -0.001789
    14  O   -0.009383   0.000282   0.000280  -0.000059   0.135534   0.010300
    15  O    0.027952  -0.000143   0.004616  -0.000855   0.002223   0.000140
    16  H   -0.027126   0.013849  -0.600084  -0.015432  -0.014031  -0.000082
    17  H    0.186324  -0.222505   0.171787   0.032453   0.005158   0.000054
    18  H   -0.203110   0.059135  -0.237127   0.004471  -0.008326   0.000021
    19  H    2.582008  -0.588276   0.052785   0.190373  -0.220180  -0.003964
    20  H   -0.588276   2.361757  -0.028452  -0.199011   0.015936   0.001074
    21  H    0.052785  -0.028452   2.524982   0.033532   0.034329   0.000063
    22  H    0.190373  -0.199011   0.033532   4.145209   0.006083   0.001102
    23  H   -0.220180   0.015936   0.034329   0.006083   5.052601   0.062379
    24  H   -0.003964   0.001074   0.000063   0.001102   0.062379   2.098515
    25  H    0.004513  -0.001798   0.000070  -0.002936  -0.034282  -0.119726
    26  H   -0.004849   0.005126   0.000354  -0.122793  -0.015406  -0.004255
    27  C   -0.068760   0.063353  -0.135802  -0.072854   0.015049   0.001702
    28  H    0.038129   0.039493   0.176815   0.020046  -0.085276  -0.004141
    29  H    0.014997  -0.005104  -0.003846   0.003257   0.008349   0.000618
    30  H   -0.003681   0.004446   0.001581   0.000767  -0.034746   0.000023
    31  H    0.012751  -0.000221  -0.000758  -0.003098  -0.159668  -0.074350
    32  H   -0.000592  -0.000011   0.000009   0.000258   0.005474   0.005889
    33  H    0.002440   0.000810  -0.001884  -0.000062  -0.006964   0.000224
    34  H    0.000969   0.000334   0.000338  -0.000164  -0.021371  -0.000224
    35  H    0.001310   0.000123   0.000031  -0.000085  -0.006372  -0.001120
    36  H   -0.001033  -0.000007   0.000390  -0.000167   0.007972  -0.000486
    37  O   -0.000017   0.000006  -0.000094   0.000001   0.000153   0.000089
    38  H   -0.000041  -0.000001  -0.000047   0.000002   0.000194   0.000007
    39  H    0.000016   0.000001  -0.000010   0.000009   0.000171  -0.000028
    40  H   -0.011895   0.000340  -0.015695   0.005240   0.012837   0.000473
    41  H    0.003199   0.002457  -0.013953   0.023271  -0.004517  -0.002357
    42  H    0.003606   0.004796   0.021816   0.005882   0.002627   0.000172
              25         26         27         28         29         30
     1  C    0.596393  -2.829187  -0.257750   0.029809  -0.018730   0.005681
     2  C    0.052035   1.455572   0.351856  -0.165997  -0.002575   0.008891
     3  C   -0.031641   0.024695  -0.043963  -0.299550   0.051467  -0.003952
     4  N   -0.068464  -0.014337  -0.000460   0.006961  -0.011988   0.011752
     5  C    0.449273  -0.261768  -0.023110   0.016998  -0.025040   0.012116
     6  C   -1.312528   0.751415   0.094280  -0.049131   0.014969  -0.000587
     7  C    0.009078   0.039540  -0.346186   0.259497  -0.036305  -0.002477
     8  N   -0.006129  -0.022915   0.907729   0.048364   0.000533   0.097193
     9  C   -0.000035   0.007430  -0.089377  -0.412039   0.051400  -0.006962
    10  C   -0.000341   0.003944  -0.008890   0.077364  -0.004794   0.002120
    11  C    0.010978  -0.054545  -0.177787  -0.116106   0.028694  -0.010226
    12  O    0.000011   0.000516  -0.110504   0.226129   0.238013   0.162492
    13  O    0.000215  -0.001053   0.002349  -0.009580   0.010462   0.007214
    14  O   -0.000433   0.000352  -0.000326  -0.009683   0.004447   0.000579
    15  O    0.000110  -0.000201   0.001691  -0.025600   0.007910   0.034964
    16  H   -0.000152  -0.001510   0.082153  -0.091395   0.000226  -0.000028
    17  H    0.000099   0.001074  -0.008281  -0.042161  -0.000268   0.001336
    18  H   -0.000044  -0.000509  -0.001792   0.040671   0.000591  -0.003409
    19  H    0.004513  -0.004849  -0.068760   0.038129   0.014997  -0.003681
    20  H   -0.001798   0.005126   0.063353   0.039493  -0.005104   0.004446
    21  H    0.000070   0.000354  -0.135802   0.176815  -0.003846   0.001581
    22  H   -0.002936  -0.122793  -0.072854   0.020046   0.003257   0.000767
    23  H   -0.034282  -0.015406   0.015049  -0.085276   0.008349  -0.034746
    24  H   -0.119726  -0.004255   0.001702  -0.004141   0.000618   0.000023
    25  H    2.199903  -0.134498  -0.009958   0.004908   0.000005   0.000007
    26  H   -0.134498   3.096794   0.040508   0.004369  -0.001251  -0.000232
    27  C   -0.009958   0.040508   4.564390  -0.406895  -0.007966   0.019098
    28  H    0.004908   0.004369  -0.406895   1.840288  -0.053509  -0.051964
    29  H    0.000005  -0.001251  -0.007966  -0.053509   0.473873  -0.082200
    30  H    0.000007  -0.000232   0.019098  -0.051964  -0.082200   0.565575
    31  H    0.012729  -0.003211  -0.000095  -0.002878  -0.005261   0.004791
    32  H   -0.000670   0.000107  -0.000129   0.001945   0.000696  -0.000558
    33  H    0.000429  -0.000348  -0.001416   0.016810  -0.004060  -0.003055
    34  H   -0.000006  -0.000032   0.001176  -0.004656   0.002464  -0.000144
    35  H   -0.000407  -0.000010   0.000357   0.006744  -0.009663   0.002499
    36  H    0.000009   0.000005   0.001276  -0.000199  -0.010544   0.002665
    37  O   -0.000020  -0.000003  -0.000151   0.001163   0.005391  -0.001302
    38  H   -0.000002  -0.000000  -0.000039   0.000989  -0.004921   0.000462
    39  H    0.000008   0.000004  -0.000101  -0.000405   0.002218  -0.000192
    40  H   -0.001240   0.003462   0.250039   0.022720  -0.005174   0.000588
    41  H    0.000534  -0.030009   0.151502   0.005855   0.004656  -0.004984
    42  H    0.000499   0.007744   0.217777  -0.170141  -0.001767   0.004163
              31         32         33         34         35         36
     1  C   -0.005764  -0.006073   0.004296  -0.002613  -0.016484  -0.002110
[...]
 001021,-0.00000637,0.00000239,-0.00000756,0.00022634,-0.00022206,0.001
 75360,0.00019937,-0.00166124,-0.00020308,0.00015030,-0.00018958,-0.000
 13131,0.00008725,-0.00003344,-0.00000619,0.00000390,-0.00000222,-0.000
 00049,0.00000024,-0.00000364,0.00000394,0.00000370,-0.00000317,0.00000
 043,-0.00000328,-0.00000226,0.00000024,0.00000059,-0.00000382,0.000003
 38,-0.00000477,0.00001087,-0.00000490,0.00000224,-0.00000307,0.0000108
 1,-0.00000703,0.00002188,0.00000266,0.00000153,0.00000666,-0.00000367,
 0.00000349,0.00000186,-0.00000497,0.00000255,0.00000065,-0.00002380,0.
 00000585,0.00004805,0.00009000,-0.00005335,0.00007573,-0.00008958,-0.0
 0027127,0.00016620,0.00008655,-0.00004542,0.00010541,0.00011509,-0.000
 08902,0.00011687,0.00007908,-0.00010469,-0.00001827,0.00006464,-0.0000
 7319,0.00000444,0.00005908,-0.00003072,-0.00003812,0.00018506,-0.00020
 464,0.00030830,-0.00286562,-0.00057346,0.00241197,-0.00072285,0.066930
 82,-0.03416072,0.01570552,-0.09587890,0.03813420,-0.00000618,0.0000020
 1,-0.00001015,0.00000856,-0.00000563,-0.00001037,0.00000845,-0.0000104
 7,0.00001097,-0.00001701,0.00000225,-0.00002449,0.00001072,0.00000364,
 0.00001049,-0.00000557,0.00000606,-0.00001794,-0.00001468,0.00004395,0
 .00001646,0.00003124,0.00000575,-0.00003126,-0.00001843,-0.00002136,-0
 .00000991,0.00000042,0.00000080,0.00000381,0.00000591,-0.00000631,-0.0
 0000259,-0.00002817,-0.00000856,-0.00006947,-0.00068074,0.00111812,0.0
 0025971,-0.00003976,0.00002031,-0.00002678,-0.00001384,-0.00001359,-0.
 00003824,-0.00000499,0.00000038,0.00000063,0.00000354,-0.00000110,-0.0
 0000337,-0.00000098,0.00000170,-0.00000285,-0.00000075,0.00000069,-0.0
 0000049,0.00000301,-0.00000064,-0.00000366,-0.00000090,-0.00000456,0.0
 0000477,-0.00000374,-0.00000087,-0.00000054,0.00000022,0.00000277,0.00
 001202,0.00000019,0.00000421,0.00000763,-0.00000414,0.00000587,0.00000
 476,-0.00000679,0.00000555,0.00000334,-0.00003931,-0.00001089,0.000046
 52,0.00002660,-0.00001535,0.00003603,0.00005443,0.00002430,0.00001967,
 0.00000961,0.00000909,0.00004605,0.00004341,-0.00003762,0.00003506,0.0
 0002908,-0.00000054,0.00001164,0.00001567,0.00001166,0.00000380,0.0000
 0148,0.00000159,0.00000832,-0.00021025,0.00012786,0.00003656,0.0010151
 1,-0.00279255,0.00002609,-0.21260246,-0.14423253,0.22743525,0.00882591
 ,0.01487090,-0.01399665,0.20365471,0.00001484,0.00003443,-0.00000610,0
 .00001263,-0.00002463,0.00001573,-0.00001782,0.00003194,-0.00003102,-0
 .00001863,-0.00004199,0.00001532,0.00005037,0.00002671,0.00002469,-0.0
 0004317,-0.00002694,0.00000033,0.00000331,0.00005641,0.00002687,0.0000
 4078,-0.00006591,0.00002666,-0.00000169,0.00001090,0.00000290,-0.00000
 652,0.00000055,0.00000573,0.00000159,-0.00001082,-0.00001325,0.0001995
 2,-0.00004648,-0.00007002,0.00203341,-0.00197251,-0.00084180,-0.000085
 29,-0.00016406,-0.00002419,0.00000393,-0.00007565,-0.00004216,0.000003
 50,-0.00000019,0.00000077,0.00000061,-0.00000288,-0.00000041,-0.000003
 53,-0.00000437,0.00000303,-0.00000177,0.00000507,0.00000053,0.00000376
 ,-0.00000093,-0.00000156,-0.00000630,-0.00000535,-0.00000209,0.0000018
 6,-0.00000589,-0.00000235,-0.00000590,0.00001141,0.00000783,0.00000601
 ,-0.00002220,-0.00001802,0.00001227,-0.00000909,-0.00000413,0.00000096
 ,0.00000153,-0.00000313,0.00001738,0.00002847,0.00000438,-0.00012646,0
 .00007611,-0.00006318,-0.00017303,-0.00004888,0.00009142,-0.00001431,0
 .00002912,0.00006534,0.00000703,0.00005472,-0.00003655,0.00004953,0.00
 002919,-0.00007128,0.00002154,0.00007387,0.00000503,-0.00000883,0.0000
 1166,0.00001105,0.00017612,0.00026470,0.00007645,-0.00311192,0.0033817
 0,0.00083350,-0.10155348,-0.14236265,0.14544601,-0.02836158,-0.0180220
 2,0.02967334,0.13088645,0.15877000,0.00000129,-0.00000202,-0.00000451,
 -0.00001359,0.00000352,-0.00001397,0.00003118,0.00001670,0.00002039,-0
 .00008512,0.00004709,-0.00003763,0.00001165,-0.00002980,0.00002418,-0.
 00001067,-0.00000365,-0.00001773,0.00000837,0.00003187,0.00001040,-0.0
 0003659,0.00001160,-0.00005914,0.00000894,-0.00000515,-0.00000426,0.00
 000055,-0.00000082,0.00000494,0.00000854,-0.00000860,-0.00000104,-0.00
 018421,0.00000865,-0.00003147,-0.00027198,-0.00025447,0.00030616,-0.00
 024332,0.00006502,0.00005708,-0.00008127,-0.00002231,0.00000847,-0.000
 00815,0.00000401,-0.00000109,-0.00000169,-0.00000014,-0.00000280,0.000
 00419,0.00000181,-0.00000336,0.00000056,-0.00000077,-0.00000536,0.0000
 0006,0.00000092,-0.00000355,0.00000496,-0.00000179,0.00000831,-0.00000
 747,0.00000083,-0.00000289,0.00001615,-0.00000593,0.00000500,0.0000079
 8,-0.00000716,0.00000404,-0.00000444,0.00000566,0.00000319,-0.00000926
 ,0.00000133,0.00000021,-0.00002272,-0.00000617,0.00003940,0.00011586,-
 0.00005667,0.00007360,0.00017436,0.00004574,-0.00003557,0.00002335,0.0
 0000254,0.00002011,0.00015559,-0.00010717,0.00005653,0.00008373,-0.000
 03798,-0.00008615,0.00007876,0.00004379,-0.00002716,0.00001963,0.00000
 154,-0.00001386,0.00019901,0.00016028,-0.00007539,0.00036021,0.0004226
 4,-0.00089699,0.20546465,0.17626607,-0.23872125,0.00803731,-0.00150387
 ,-0.00498798,-0.21381708,-0.17508557,0.24435014,-0.00005606,0.00011350
 ,-0.00016578,0.00000916,-0.00012897,-0.00019536,0.00025728,0.00002760,
 0.00012036,-0.00007247,-0.00002438,0.00000259,-0.00001160,0.00004113,-
 0.00001353,0.00008478,0.00004547,-0.00000814,-0.00026226,-0.00186453,0
 .00138547,-0.00620268,0.01003364,0.00640324,0.00047683,0.00106891,-0.0
 0006403,-0.00002566,0.00002960,0.00004366,0.00006950,0.00056604,0.0003
 8939,-0.00011783,-0.00000623,0.00041292,0.00003566,0.00018942,0.000276
 26,-0.00004647,0.00007855,0.00004545,-0.00001074,0.00003767,0.00007991
 ,-0.00022921,0.00019899,-0.00012940,0.00001215,-0.00001063,-0.00004894
 ,0.00000923,-0.00002919,-0.00005604,-0.00007057,-0.00008233,0.00009976
 ,-0.00006120,-0.00007990,0.00013679,0.00002289,-0.00035991,0.00038894,
 0.00035547,-0.00031669,-0.00009203,-0.00000520,-0.00002023,-0.00000205
 ,-0.00000063,-0.00000083,0.00000224,-0.00000554,0.00000158,0.00000199,
 -0.00002383,-0.00003997,0.00001582,-0.08075296,0.08177290,0.03391022,0
 .00018141,-0.00019478,-0.00044920,-0.00002512,-0.00006621,-0.00030652,
 0.00005358,-0.00006324,-0.00013159,0.00007694,-0.00006416,0.00003107,-
 0.00000099,-0.00000259,-0.00000608,0.00000664,-0.00002259,-0.00001203,
 0.00001139,0.00001101,-0.00000659,0.00005679,-0.00008242,-0.00009910,-
 0.00008993,-0.00003125,-0.00008267,0.00009607,0.00002022,0.00004554,-0
 .00003125,0.00000511,-0.00001978,-0.00003221,-0.00001679,-0.00000809,0
 .08264283,0.00000159,0.00004925,-0.00007148,0.00000640,0.00003222,-0.0
 0008723,0.00023983,0.00000034,0.00013575,-0.00013241,-0.00003346,-0.00
 003084,0.00000761,0.00003280,-0.00001940,0.00005523,0.00008248,-0.0000
 1970,-0.00061883,-0.00047063,0.00140185,-0.00480414,0.00831257,0.00522
 785,-0.00040976,0.00121677,0.00052849,0.00009505,0.00011776,-0.0001625
 9,-0.00041746,0.00036185,0.00045729,-0.00017937,0.00001487,0.00017372,
 0.00001655,0.00010452,0.00023375,-0.00006548,0.00008057,0.00001796,-0.
 00000774,0.00003787,0.00002946,0.00013135,-0.00014706,-0.00008967,-0.0
 0000288,0.00000900,0.00000072,0.00000842,-0.00001113,-0.00000529,0.000
 01823,0.00002025,0.00000757,-0.00003945,-0.00000696,0.00018706,0.00023
 228,0.00011138,0.00001293,-0.00019801,0.00006125,0.00002087,-0.0000000
 2,-0.00001598,0.00000229,-0.00000536,-0.00000127,-0.00000368,0.0000005
 9,0.00000128,0.00000099,-0.00005321,0.00006204,0.00001933,0.08610823,-
 0.26426321,-0.09165164,0.00037514,0.00008390,-0.00052032,-0.00004472,0
 .00003955,-0.00027794,-0.00003493,-0.00002171,-0.00006596,0.00009723,-
 0.00007806,0.00004594,0.00000406,0.00000006,-0.00000038,0.00000907,-0.
 00002087,-0.00000081,0.00000198,0.00000325,-0.00000038,0.00005004,-0.0
 0007117,-0.00007070,-0.00005958,-0.00000192,-0.00006806,0.00004726,-0.
 00001057,0.00004000,-0.00000436,0.00001117,-0.00001191,-0.00002575,-0.
 00000436,-0.00001523,-0.08991470,0.27575420,-0.00020265,0.00010840,-0.
 00000942,0.00038042,0.00046705,0.00021435,-0.00012784,-0.00007540,0.00
 007637,-0.00002984,0.00005864,-0.00002159,0.00000783,-0.00007672,0.000
 01059,-0.00007100,-0.00008221,0.00002174,0.00032758,0.00444589,-0.0038
 8250,0.01419837,-0.03140012,-0.01937136,-0.00063938,-0.00148154,0.0010
 9774,-0.00031326,-0.00018393,-0.00013244,0.00113945,-0.00161151,-0.000
 57257,-0.00037010,0.00041396,0.00057590,0.00019497,0.00014908,0.000111
 44,-0.00002020,0.00006837,0.00003978,-0.00001337,0.00008188,0.00015620
 ,0.00009038,0.00030567,0.00001164,-0.00002518,0.00005632,0.00007884,0.
 00003793,0.00005888,0.00001028,-0.00001056,0.00000506,-0.00001456,0.00
 017568,0.00032213,-0.00053493,0.00020538,0.00052402,-0.00010181,0.0002
 5245,-0.00006166,0.00008889,0.00005027,-0.00004447,-0.00001172,0.00000
 639,-0.00000477,0.00000260,-0.00001403,-0.00001435,-0.00000561,0.00007
 799,-0.00005818,-0.00002811,0.03170372,-0.07989003,-0.08343639,0.00092
 270,-0.00146850,0.00049157,-0.00026643,-0.00014952,-0.00023783,0.00006
 578,-0.00001670,-0.00026162,0.00005341,-0.00005185,0.00001486,-0.00000
 528,0.00000015,-0.00000531,-0.00000636,-0.00003534,-0.00001359,0.00001
 485,0.00000805,-0.00000639,0.00002629,-0.00006520,-0.00007804,-0.00010
 229,0.00000972,0.00003150,0.00005116,-0.00000624,-0.00004384,-0.000012
 96,-0.00000086,0.00000783,0.00000352,-0.00000420,0.00001512,-0.0420824
 0,0.09432346,0.09724543,0.00010678,0.00007335,-0.00023565,0.00002265,0
 .00000896,-0.00022424,0.00059349,0.00008602,0.00023376,-0.00033737,-0.
 00014638,-0.00002364,-0.00009469,0.00002690,-0.00004540,0.00014580,0.0
 0016883,-0.00004413,-0.00021301,-0.00093978,-0.00049150,-0.00853598,-0
 .00657967,0.00116224,0.00063922,0.00090240,0.00138485,0.00001608,-0.00
 052368,0.00004886,-0.00004838,-0.00019560,0.00002332,-0.00001318,-0.00
 017083,0.00033046,-0.00006076,-0.00007258,0.00033049,-0.00013331,0.000
 15992,0.00006440,-0.00001641,0.00007637,0.00004100,0.00035619,0.000185
 54,0.00014433,-0.00001632,-0.00000117,0.00007651,-0.00007574,0.0000619
 4,0.00014879,0.00001303,0.00002050,0.00001389,0.00000437,0.00003872,-0
 .00001295,-0.00007338,-0.00028369,0.00009692,-0.00013159,0.00000203,-0
 .00001671,-0.00000787,-0.00001269,0.00000399,-0.00001366,-0.00000080,-
 0.00000951,0.00000021,0.00000135,0.00000320,-0.00017700,0.00008726,0.0
 0004960,-0.20321661,-0.13835693,-0.00904401,0.00011654,0.00034682,-0.0
 0020100,0.00020748,0.00014087,-0.00013088,0.00002185,-0.00009117,-0.00
 010054,0.00019729,-0.00015703,0.00006815,0.00000536,-0.00000027,-0.000
 00607,0.00002417,-0.00004117,-0.00000779,-0.00000267,-0.00000032,-0.00
 000534,0.00005140,-0.00013691,-0.00019744,-0.00014471,0.00008449,-0.00
 000938,0.00008373,-0.00004067,0.00000276,-0.00000108,0.00001309,-0.000
 00744,-0.00002928,-0.00000008,-0.00000460,0.01019443,0.00894052,-0.000
 23799,0.21420894,0.00018400,-0.00032647,-0.00030911,0.00045813,-0.0000
 3824,-0.00088824,-0.00005032,0.00002440,-0.00028411,0.00017124,-0.0000
 2571,0.00012093,-0.00011859,0.00001578,-0.00001037,0.00000297,-0.00008
 515,0.00007308,0.00036926,0.00008183,-0.00023814,-0.00261843,-0.004109
 60,0.00104390,0.00034284,0.00097593,0.00103876,-0.00030639,-0.00004381
 ,-0.00033284,-0.00003968,-0.00008854,-0.00002929,0.00037277,0.00002630
 ,-0.00042525,-0.00016303,-0.00018562,-0.00042470,0.00011247,-0.0001643
 5,-0.00007891,0.00002903,-0.00007337,-0.00010175,-0.00003215,-0.000087
 43,-0.00008394,-0.00004128,0.00001297,0.00014721,-0.00000322,-0.000022
 06,0.00000312,-0.00000927,0.00001423,0.00000249,0.00000621,0.00003613,
 0.00001096,0.00011912,0.00026958,-0.00023580,0.00001456,0.00002939,0.0
 0009221,0.00000615,0.00000958,0.00010540,0.00000715,0.00000072,-0.0000
 0352,0.00000361,-0.00000855,0.00000741,0.00002171,0.00002499,0.0000404
 4,-0.13954104,-0.17414495,-0.00708244,-0.00094234,-0.00010661,0.000127
 17,0.00009161,-0.00025698,0.00052354,0.00000278,0.00008267,0.00017387,
 -0.00017816,0.00014588,-0.00007433,-0.00000326,0.00000270,0.00000398,-
 0.00001691,0.00003821,0.00002031,-0.00001261,-0.00000536,0.00000554,-0
 .00011858,0.00018023,0.00015946,0.00015076,-0.00003124,0.00000828,-0.0
 0011702,0.00001383,-0.00001773,0.00001410,-0.00001359,0.00001606,0.000
 03274,0.00001998,0.00001061,-0.02031789,-0.01483136,-0.00068257,0.1516
 7549,0.18355159,-0.00004387,-0.00067826,-0.00006925,0.00039029,-0.0002
 5716,-0.00076633,0.00001623,0.00010932,-0.00019391,-0.00012143,-0.0001
 9006,0.00010143,-0.00011855,0.00009733,-0.00014317,0.00026515,0.000056
 69,0.00007703,-0.00000049,0.00085946,0.00137192,0.02976437,0.02759152,
 -0.00324886,-0.00022855,-0.00193454,-0.00574766,0.00143367,0.00118658,
 0.00009531,-0.00011558,0.00036203,0.00012450,-0.00040749,-0.00012318,0
 .00006921,0.00017338,-0.00016588,-0.00012794,0.00007096,-0.00005609,0.
 00008639,-0.00003682,-0.00006205,0.00006582,0.00028645,-0.00013049,0.0
 0006357,0.00013781,-0.00001122,-0.00050903,0.00010385,-0.00001255,-0.0
 0014170,-0.00001164,-0.00004060,-0.00003888,-0.00002163,-0.00005423,0.
 00001924,0.00000339,0.00015942,-0.00006077,0.00006381,-0.00020195,-0.0
 0017232,0.00002106,0.00003114,-0.00003385,0.00000251,0.00001424,-0.000
 00107,-0.00000871,0.00002601,0.00001594,-0.00010032,0.00005709,0.00002
 927,-0.01857467,-0.01590145,-0.05105864,0.00105354,0.00009523,0.001293
 92,-0.00004314,0.00028047,-0.00013370,0.00000464,0.00000364,-0.0000350
 9,-0.00010189,0.00005457,-0.00007997,-0.00001673,0.00000166,-0.0000069
 1,0.00001290,0.00004737,-0.00004095,0.00001944,0.00001184,-0.00000572,
 -0.00002111,0.00000382,-0.00006225,-0.00008169,0.00002230,0.00019043,0
 .00003127,-0.00000708,-0.00008779,0.00000242,-0.00000301,0.00000908,0.
 00003034,-0.00001534,0.00002571,-0.00939448,-0.00617068,0.00003777,0.0
 0676853,0.00781623,0.05852211,-0.00007803,0.00015372,-0.00012858,-0.00
 016102,-0.00002148,-0.00007497,-0.00005662,-0.00006845,-0.00004305,0.0
 0012916,0.00005462,0.00003195,0.00001783,-0.00000665,0.00003264,-0.000
 06368,-0.00005201,0.00003347,0.00114437,-0.00077408,0.00040744,0.00988
 229,-0.00609888,0.01110846,0.00196060,0.00030031,0.00110444,0.00005492
 ,0.00003076,-0.00001009,0.00013747,-0.00008296,0.00003077,0.00050096,-
 0.00010276,-0.00026840,-0.00014516,-0.00002779,-0.00021985,0.00002881,
 -0.00006573,-0.00006929,0.00001414,-0.00002227,-0.00006936,-0.00001638
 ,0.00029538,-0.00037314,0.00000609,0.00001646,-0.00003729,-0.00000141,
 0.00002131,-0.00000527,-0.00007557,-0.00005379,0.00001457,-0.00001608,
 0.00001520,-0.00005833,-0.00019047,-0.00007556,-0.00001201,0.00000907,
 -0.00015599,-0.00047550,-0.00000583,-0.00000480,0.00001985,0.00000536,
 -0.00000239,0.00000438,-0.00000027,-0.00000884,-0.00000850,0.00011791,
 -0.00007346,-0.00000155,-0.21183008,0.07331632,-0.11972712,-0.00089400
 ,-0.00035152,0.00245520,0.00007929,-0.00017580,0.00032361,-0.00000920,
 0.00001809,0.00011067,-0.00005385,0.00005377,-0.00000764,0.00000747,0.
 00000142,0.00000649,-0.00000940,0.00000873,0.00002185,-0.00000581,-0.0
 0000564,0.00000670,-0.00004923,0.00009454,0.00010682,0.00011936,-0.000
 02644,-0.00003570,-0.00007215,0.00001467,0.00001928,0.00001184,-0.0000
 0447,0.00000440,0.00001187,0.00000968,-0.00000664,-0.00651865,0.000571
 49,-0.00543538,-0.01366602,0.01044147,-0.01120720,0.21968010,-0.000096
 01,0.00017316,-0.00001483,0.00009569,-0.00009802,0.00013037,-0.0001521
 5,-0.00005249,-0.00007757,0.00016121,0.00013250,0.00004922,0.00003267,
 -0.00004740,0.00004199,-0.00006796,-0.00005663,0.00004450,-0.00097570,
 0.00061864,-0.00122138,0.00386194,-0.00323712,0.00421480,0.00171028,0.
 00008261,0.00073039,-0.00027120,0.00007552,-0.00014850,0.00004813,0.00
 002823,-0.00016900,0.00031974,-0.00010918,0.00015993,-0.00000780,0.000
 10240,-0.00008187,0.00003751,-0.00002805,-0.00000090,0.00000607,0.0000
 0539,0.00006000,-0.00067363,-0.00019542,0.00015168,-0.00003763,0.00001
 778,0.00003834,0.00000551,-0.00005236,-0.00013042,0.00001832,-0.000048
 50,-0.00003194,-0.00000682,-0.00002723,0.00001464,-0.00000555,0.000004
 36,-0.00001122,0.00006512,0.00031258,0.00004828,0.00000633,-0.00000981
 ,0.00000260,0.00001490,-0.00000030,0.00000482,-0.00000427,-0.00000613,
 -0.00000829,0.00012416,-0.00010924,-0.00004667,0.07016305,-0.08105946,
 0.05185116,-0.00113606,0.00043110,0.00028814,-0.00013480,-0.00022438,0
 .00002540,-0.00001148,0.00003985,-0.00010763,-0.00004737,0.00003693,-0
 .00001931,-0.00000473,0.00000063,-0.00000311,-0.00001246,-0.00000422,-
 0.00000386,0.00000766,0.00000840,-0.00000194,-0.00001733,0.00002748,0.
 00002577,-0.00000410,-0.00002264,-0.00002047,0.00000744,0.00001070,0.0
 0000159,-0.00001128,-0.00000244,0.00000113,-0.00000035,-0.00000066,0.0
 0000307,0.01949903,-0.00661149,0.01605917,-0.01534994,0.00909209,-0.01
 287215,-0.07715613,0.08080281,-0.00013932,0.00008063,-0.00008846,0.000
 20671,-0.00022174,0.00002903,-0.00004999,0.00015143,-0.00008874,0.0001
 0250,-0.00001036,0.00007779,-0.00000060,-0.00003727,-0.00000351,-0.000
 01270,-0.00005603,0.00004714,-0.00235340,0.00199096,0.00106804,-0.0250
 0176,0.01398923,-0.02946222,-0.00215729,-0.00157270,0.00061112,0.00016
 538,-0.00015774,0.00038959,0.00040161,-0.00011487,0.00031400,-0.001766
 64,0.00067738,-0.00013920,-0.00010051,-0.00009584,0.00016300,0.0000123
 1,-0.00005158,0.00003319,-0.00002061,-0.00006155,-0.00007712,0.0008820
 6,0.00045482,0.00042079,0.00002838,-0.00001517,-0.00006313,-0.00005379
 ,-0.00002052,0.00013629,-0.00004820,-0.00008711,0.00022100,0.00007668,
 0.00001703,-0.00002793,0.00020064,0.00006487,0.00007233,0.00096858,-0.
 00080330,-0.00010889,0.00003521,0.00001571,0.00004300,0.00000958,-0.00
 000228,0.00000859,-0.00000009,0.00000019,0.00000235,0.00005490,-0.0000
 9879,0.00001572,-0.10965310,0.04934179,-0.12912906,0.00600089,-0.00103
 144,-0.00290087,0.00015482,0.00028917,-0.00036138,0.00000758,0.0000203
 0,0.00018281,-0.00004566,0.00004471,-0.00003109,-0.00000285,0.00000032
 ,-0.00000176,0.00002579,0.00004745,-0.00000683,-0.00000560,-0.00000567
 ,0.00000154,0.00002356,0.00001937,-0.00001469,-0.00002425,-0.00001740,
 -0.00003649,0.00001687,0.00000143,0.00001259,-0.00000433,0.00000234,-0
 .00000587,-0.00000762,-0.00000058,0.00000017,0.00958220,-0.00352338,0.
 00842922,0.00006016,-0.00024794,0.00056712,0.12243189,-0.05897590,0.14
 970084\\-0.00000120,0.00000019,0.00000092,0.00000343,0.00000409,0.0000
 0442,-0.00000355,-0.00000134,-0.00000268,-0.00001407,0.00000449,0.0000
 0646,0.00000446,-0.00000275,0.00000064,0.00000024,0.00000008,-0.000000
 37,0.00001247,-0.00001827,-0.00003760,-0.00001020,0.00002234,0.0000477
 6,0.00000525,-0.00000187,-0.00001899,-0.00000723,0.00000474,0.00000476
 ,-0.00000122,-0.00000442,0.00001395,0.00002519,-0.00001021,-0.00000522
 ,0.00000074,-0.00002023,-0.00000496,-0.00002225,-0.00000587,0.00000670
 ,0.00000408,-0.00000661,-0.00001482,0.00000052,0.00000425,0.00000192,0
 .00000099,-0.00000310,-0.00000140,-0.00000074,0.00000165,0.00000053,-0
 .00000021,-0.00000026,-0.00000145,0.00000074,0.00000028,-0.00000240,-0
 .00000047,0.00000242,-0.00000099,-0.00000023,0.00000229,0.00000202,0.0
 0000134,-0.00000221,0.00000124,-0.00000088,0.00000101,0.00000301,0.000
 00140,0.00000056,0.00000146,0.00000097,0.00000078,0.00000082,0.0000012
 6,-0.00000362,-0.00001257,-0.00001593,-0.00000023,-0.00000832,-0.00000
 093,0.00000712,-0.00000207,-0.00001812,0.00000477,0.00000557,0.0000248
 5,-0.00000880,-0.00000543,0.00000667,-0.00000039,-0.00000901,-0.000004
 52,-0.00000089,0.00001206,0.00000045,0.00000163,0.00000151,0.00000142,
 0.00001548,0.00000255,-0.00000024,0.00000869,0.00001208,0.00001587,-0.
 00000673,-0.00000619,-0.00000478,0.00000338,0.00000168,-0.00000770,0.0
 0000176,0.00000118,0.00000400,0.00000386,0.00000223,-0.00000326,0.0000
 0272,-0.00000188,0.00000136,-0.00000077,0.00000092\\\@


 UNDER MOST GREENE GRASSE LY MOST GREATE SNAKES.
 -- PROVERBS AND REASONS OF THE YEAR 1585
           AS REPRINTED IN PAISLEY MAGAZINE 1828.
 Job cpu time:       1 days 18 hours 58 minutes 37.5 seconds.
 Elapsed time:       0 days  1 hours 32 minutes 15.0 seconds.
 File lengths (MBytes):  RWF=   1444 Int=      0 D2E=      0 Chk=     36 Scr=      8
 Normal termination of Gaussian 16 at Fri Jul 16 02:05:48 2021.
