 Entering Gaussian System, Link 0=g16
 Input=Nic5h3bSym.gjf
 Output=Nic5h3bSym.log
 Initial command:
 /sw/contrib/gaussian/g16/A03/g16/l1.exe "/gscratch/scrubbed/gds001/Gau-10127.inp" -scrdir="/gscratch/scrubbed/gds001/"
 Entering Link 1 = /sw/contrib/gaussian/g16/A03/g16/l1.exe PID=     10128.
  
 Copyright (c) 1988,1990,1992,1993,1995,1998,2003,2009,2016,
            Gaussian, Inc.  All Rights Reserved.
  
 This is part of the Gaussian(R) 16 program.  It is based on
 the Gaussian(R) 09 system (copyright 2009, Gaussian, Inc.),
 the Gaussian(R) 03 system (copyright 2003, Gaussian, Inc.),
 the Gaussian(R) 98 system (copyright 1998, Gaussian, Inc.),
 the Gaussian(R) 94 system (copyright 1995, Gaussian, Inc.),
 the Gaussian 92(TM) system (copyright 1992, Gaussian, Inc.),
 the Gaussian 90(TM) system (copyright 1990, Gaussian, Inc.),
 the Gaussian 88(TM) system (copyright 1988, Gaussian, Inc.),
 the Gaussian 86(TM) system (copyright 1986, Carnegie Mellon
 University), and the Gaussian 82(TM) system (copyright 1983,
 Carnegie Mellon University). Gaussian is a federally registered
 trademark of Gaussian, Inc.
  
 This software contains proprietary and confidential information,
 including trade secrets, belonging to Gaussian, Inc.
  
 This software is provided under written license and may be
 used, copied, transmitted, or stored only in accord with that
 written license.
  
 The following legend is applicable only to US Government
 contracts under FAR:
  
                    RESTRICTED RIGHTS LEGEND
  
 Use, reproduction and disclosure by the US Government is
 subject to restrictions as set forth in subparagraphs (a)
 and (c) of the Commercial Computer Software - Restricted
 Rights clause in FAR 52.227-19.
  
 Gaussian, Inc.
 340 Quinnipiac St., Bldg. 40, Wallingford CT 06492
  
  
 ---------------------------------------------------------------
 Warning -- This program may not be used in any manner that
 competes with the business of Gaussian, Inc. or will provide
 assistance to any competitor of Gaussian, Inc.  The licensee
 of this program is prohibited from giving any competitor of
 Gaussian, Inc. access to this program.  By using this program,
 the user acknowledges that Gaussian, Inc. is engaged in the
 business of creating and licensing software in the field of
 computational chemistry and represents and warrants to the
 licensee that it is not a competitor of Gaussian, Inc. and that
 it will not use this program in any manner prohibited above.
 ---------------------------------------------------------------
  

 Cite this work as:
 Gaussian 16, Revision A.03,
 M. J. Frisch, G. W. Trucks, H. B. Schlegel, G. E. Scuseria, 
 M. A. Robb, J. R. Cheeseman, G. Scalmani, V. Barone, 
 G. A. Petersson, H. Nakatsuji, X. Li, M. Caricato, A. V. Marenich, 
 J. Bloino, B. G. Janesko, R. Gomperts, B. Mennucci, H. P. Hratchian, 
 J. V. Ortiz, A. F. Izmaylov, J. L. Sonnenberg, D. Williams-Young, 
 F. Ding, F. Lipparini, F. Egidi, J. Goings, B. Peng, A. Petrone, 
 T. Henderson, D. Ranasinghe, V. G. Zakrzewski, J. Gao, N. Rega, 
 G. Zheng, W. Liang, M. Hada, M. Ehara, K. Toyota, R. Fukuda, 
 J. Hasegawa, M. Ishida, T. Nakajima, Y. Honda, O. Kitao, H. Nakai, 
 T. Vreven, K. Throssell, J. A. Montgomery, Jr., J. E. Peralta, 
 F. Ogliaro, M. J. Bearpark, J. J. Heyd, E. N. Brothers, K. N. Kudin, 
 V. N. Staroverov, T. A. Keith, R. Kobayashi, J. Normand, 
 K. Raghavachari, A. P. Rendell, J. C. Burant, S. S. Iyengar, 
 J. Tomasi, M. Cossi, J. M. Millam, M. Klene, C. Adamo, R. Cammi, 
 J. W. Ochterski, R. L. Martin, K. Morokuma, O. Farkas, 
 J. B. Foresman, and D. J. Fox, Gaussian, Inc., Wallingford CT, 2016.
 
 ******************************************
 Gaussian 16:  ES64L-G16RevA.03 25-Dec-2016
                 6-Dec-2022 
 ******************************************
 %nprocshared=28
 Will use up to   28 processors via shared memory.
 %mem=41GB
 -----------------------------
 # wB97XD/aug-cc-pVDZ opt freq
 -----------------------------
 1/18=20,19=15,26=3,38=1/1,3;
 2/9=110,12=2,17=6,18=5,40=1/2;
 3/5=16,7=10,11=2,25=1,30=1,71=1,74=-58/1,2,3;
 4//1;
 5/5=2,38=5/2;
 6/7=2,8=2,9=2,10=2,28=1/1;
 7//1,2,3,16;
 1/18=20,19=15,26=3/3(2);
 2/9=110/2;
 99//99;
 2/9=110/2;
 3/5=16,7=10,11=2,25=1,30=1,71=1,74=-58/1,2,3;
 4/5=5,16=3,69=1/1;
 5/5=2,38=5/2;
 7//1,2,3,16;
 1/18=20,19=15,26=3/3(-5);
 2/9=110/2;
 6/7=2,8=2,9=2,10=2,19=2,28=1/1;
 99/9=1/99;
 ----
 blah
 ----
 Symbolic Z-matrix:
 Charge =  1 Multiplicity = 1
 C                    -0.78726   2.68521  -0.0808 
 C                    -0.81968   1.30781   0.14661 
 C                     0.39866   0.63703   0.16275 
 N                     1.54591   1.29469  -0.0423 
 C                     1.59467   2.61657  -0.26113 
 C                     0.42328   3.35029  -0.27853 
 C                    -2.11761   0.57355   0.38385 
 N                    -2.28367  -0.6112   -0.46858 
 C                    -3.45381  -1.28855   0.11014 
 C                    -3.22603  -1.20362   1.62557 
 C                    -2.2826    0.00962   1.8071 
 O                     3.56227  -0.29265  -0.32819 
 O                     1.91154  -1.85566  -1.77158 
 O                    -0.2316   -2.46649  -0.19154 
 H                    -3.52439  -2.31439  -0.27178 
 H                    -4.1719   -1.07697   2.16142 
 H                    -2.75431  -2.11693   2.0044 
 H                    -2.68152   0.76902   2.48769 
 H                    -1.30907  -0.30716   2.20046 
 H                    -4.37999  -0.75856  -0.17823 
 H                    -2.94225   1.28476   0.18009 
 H                     0.48877  -0.43528   0.32889 
 H                     2.58003   3.0465   -0.42345 
 H                     0.45713   4.42253  -0.45564 
 H                    -1.72088   3.24785  -0.10745 
 C                    -2.43852  -0.30253  -1.88534 
 H                     2.4444    0.70287  -0.07283 
 H                    -1.01324  -1.86779  -0.3057 
 H                    -0.56083  -3.32884   0.06967 
 H                     3.16616  -1.01552  -0.8545 
 H                     4.1977   -0.66873   0.30754 
 H                     2.0643   -2.40773  -2.54091 
 H                     1.14879  -2.2351   -1.29376 
 O                     5.45159  -1.17905   1.47056 
 H                     6.37861  -1.05681   1.24817 
 H                     5.42246  -1.93857   2.05809 
 H                    -2.60271  -1.23128  -2.4436 
 H                    -1.52553   0.16776  -2.27078 
 H                    -3.2945    0.37244  -2.06706 
 O                     2.64447  -3.38674  -3.97521 
 H                     2.8148   -2.77385  -4.71144 
 H                     3.36128  -4.03615  -4.05926 
 
 Add virtual bond connecting atoms H27        and O12        Dist= 2.87D+00.
 Add virtual bond connecting atoms H30        and O13        Dist= 3.34D+00.
 Add virtual bond connecting atoms N8         and H28        Dist= 3.39D+00.
 Add virtual bond connecting atoms H33        and O14        Dist= 3.37D+00.
 Add virtual bond connecting atoms O34        and H31        Dist= 3.37D+00.
 Add virtual bond connecting atoms O40        and H32        Dist= 3.46D+00.

 GradGradGradGradGradGradGradGradGradGradGradGradGradGradGradGradGradGrad
 Berny optimization.
 Initialization pass.
                           ----------------------------
                           !    Initial Parameters    !
                           ! (Angstroms and Degrees)  !
 --------------------------                            --------------------------
 ! Name  Definition              Value          Derivative Info.                !
 --------------------------------------------------------------------------------
 ! R1    R(1,2)                  1.3964         estimate D2E/DX2                !
 ! R2    R(1,6)                  1.3953         estimate D2E/DX2                !
 ! R3    R(1,25)                 1.0904         estimate D2E/DX2                !
 ! R4    R(2,3)                  1.3909         estimate D2E/DX2                !
 ! R5    R(2,7)                  1.51           estimate D2E/DX2                !
 ! R6    R(3,4)                  1.3382         estimate D2E/DX2                !
 ! R7    R(3,22)                 1.0888         estimate D2E/DX2                !
 ! R8    R(4,5)                  1.3408         estimate D2E/DX2                !
 ! R9    R(4,27)                 1.0763         estimate D2E/DX2                !
 ! R10   R(5,6)                  1.3823         estimate D2E/DX2                !
 ! R11   R(5,23)                 1.0873         estimate D2E/DX2                !
 ! R12   R(6,24)                 1.0873         estimate D2E/DX2                !
 ! R13   R(7,8)                  1.469          estimate D2E/DX2                !
 ! R14   R(7,11)                 1.5398         estimate D2E/DX2                !
 ! R15   R(7,21)                 1.1079         estimate D2E/DX2                !
 ! R16   R(8,9)                  1.4707         estimate D2E/DX2                !
 ! R17   R(8,26)                 1.4582         estimate D2E/DX2                !
 ! R18   R(8,28)                 1.7943         estimate D2E/DX2                !
 ! R19   R(9,10)                 1.5348         estimate D2E/DX2                !
 ! R20   R(9,15)                 1.0969         estimate D2E/DX2                !
 ! R21   R(9,20)                 1.1054         estimate D2E/DX2                !
 ! R22   R(10,11)                1.5476         estimate D2E/DX2                !
 ! R23   R(10,16)                1.0945         estimate D2E/DX2                !
 ! R24   R(10,17)                1.0955         estimate D2E/DX2                !
 ! R25   R(11,18)                1.095          estimate D2E/DX2                !
 ! R26   R(11,19)                1.0967         estimate D2E/DX2                !
 ! R27   R(12,27)                1.5185         estimate D2E/DX2                !
 ! R28   R(12,30)                0.978          estimate D2E/DX2                !
 ! R29   R(12,31)                0.9744         estimate D2E/DX2                !
 ! R30   R(13,30)                1.7666         estimate D2E/DX2                !
 ! R31   R(13,32)                0.9592         estimate D2E/DX2                !
 ! R32   R(13,33)                0.9768         estimate D2E/DX2                !
 ! R33   R(14,28)                0.9912         estimate D2E/DX2                !
 ! R34   R(14,29)                0.9593         estimate D2E/DX2                !
 ! R35   R(14,33)                1.7815         estimate D2E/DX2                !
 ! R36   R(26,37)                1.096          estimate D2E/DX2                !
 ! R37   R(26,38)                1.0969         estimate D2E/DX2                !
 ! R38   R(26,39)                1.1051         estimate D2E/DX2                !
 ! R39   R(31,34)                1.7847         estimate D2E/DX2                !
 ! R40   R(32,40)                1.8309         estimate D2E/DX2                !
 ! R41   R(34,35)                0.9611         estimate D2E/DX2                !
 ! R42   R(34,36)                0.9607         estimate D2E/DX2                !
 ! R43   R(40,41)                0.973          estimate D2E/DX2                !
 ! R44   R(40,42)                0.9709         estimate D2E/DX2                !
 ! A1    A(2,1,6)              120.8895         estimate D2E/DX2                !
 ! A2    A(2,1,25)             119.5431         estimate D2E/DX2                !
 ! A3    A(6,1,25)             119.5671         estimate D2E/DX2                !
 ! A4    A(1,2,3)              117.2106         estimate D2E/DX2                !
 ! A5    A(1,2,7)              121.6809         estimate D2E/DX2                !
 ! A6    A(3,2,7)              121.1038         estimate D2E/DX2                !
 ! A7    A(2,3,4)              120.8082         estimate D2E/DX2                !
 ! A8    A(2,3,22)             123.3133         estimate D2E/DX2                !
 ! A9    A(4,3,22)             115.876          estimate D2E/DX2                !
 ! A10   A(3,4,5)              122.7331         estimate D2E/DX2                !
 ! A11   A(3,4,27)             116.7303         estimate D2E/DX2                !
 ! A12   A(5,4,27)             120.472          estimate D2E/DX2                !
 ! A13   A(4,5,6)              119.6399         estimate D2E/DX2                !
 ! A14   A(4,5,23)             116.564          estimate D2E/DX2                !
 ! A15   A(6,5,23)             123.7947         estimate D2E/DX2                !
 ! A16   A(1,6,5)              118.7127         estimate D2E/DX2                !
 ! A17   A(1,6,24)             121.3429         estimate D2E/DX2                !
 ! A18   A(5,6,24)             119.9405         estimate D2E/DX2                !
 ! A19   A(2,7,8)              113.4648         estimate D2E/DX2                !
 ! A20   A(2,7,11)             114.546          estimate D2E/DX2                !
 ! A21   A(2,7,21)             107.3826         estimate D2E/DX2                !
 ! A22   A(8,7,11)             103.2317         estimate D2E/DX2                !
 ! A23   A(8,7,21)             109.0794         estimate D2E/DX2                !
 ! A24   A(11,7,21)            108.9877         estimate D2E/DX2                !
 ! A25   A(7,8,9)              103.4767         estimate D2E/DX2                !
 ! A26   A(7,8,26)             113.8958         estimate D2E/DX2                !
 ! A27   A(7,8,28)             115.6009         estimate D2E/DX2                !
 ! A28   A(9,8,26)             113.2856         estimate D2E/DX2                !
 ! A29   A(9,8,28)             101.834          estimate D2E/DX2                !
 ! A30   A(26,8,28)            108.1568         estimate D2E/DX2                !
 ! A31   A(8,9,10)             104.1802         estimate D2E/DX2                !
 ! A32   A(8,9,15)             110.177          estimate D2E/DX2                !
 ! A33   A(8,9,20)             110.0705         estimate D2E/DX2                !
 ! A34   A(10,9,15)            113.8962         estimate D2E/DX2                !
 ! A35   A(10,9,20)            110.8178         estimate D2E/DX2                !
 ! A36   A(15,9,20)            107.6773         estimate D2E/DX2                !
 ! A37   A(9,10,11)            104.458          estimate D2E/DX2                !
 ! A38   A(9,10,16)            111.1961         estimate D2E/DX2                !
 ! A39   A(9,10,17)            111.0513         estimate D2E/DX2                !
 ! A40   A(11,10,16)           112.254          estimate D2E/DX2                !
 ! A41   A(11,10,17)           110.5187         estimate D2E/DX2                !
 ! A42   A(16,10,17)           107.4155         estimate D2E/DX2                !
 ! A43   A(7,11,10)            104.124          estimate D2E/DX2                !
 ! A44   A(7,11,18)            111.0725         estimate D2E/DX2                !
 ! A45   A(7,11,19)            110.0107         estimate D2E/DX2                !
 ! A46   A(10,11,18)           113.2349         estimate D2E/DX2                !
 ! A47   A(10,11,19)           110.9019         estimate D2E/DX2                !
 ! A48   A(18,11,19)           107.504          estimate D2E/DX2                !
 ! A49   A(27,12,30)           106.0757         estimate D2E/DX2                !
 ! A50   A(27,12,31)           128.5665         estimate D2E/DX2                !
 ! A51   A(30,12,31)           109.2669         estimate D2E/DX2                !
 ! A52   A(30,13,32)           125.2401         estimate D2E/DX2                !
 ! A53   A(30,13,33)           119.0363         estimate D2E/DX2                !
 ! A54   A(32,13,33)           107.0461         estimate D2E/DX2                !
 ! A55   A(28,14,29)           107.6798         estimate D2E/DX2                !
 ! A56   A(28,14,33)           117.4722         estimate D2E/DX2                !
 ! A57   A(29,14,33)           123.4444         estimate D2E/DX2                !
 ! A58   A(8,26,37)            109.3542         estimate D2E/DX2                !
 ! A59   A(8,26,38)            110.1057         estimate D2E/DX2                !
 ! A60   A(8,26,39)            111.7947         estimate D2E/DX2                !
 ! A61   A(37,26,38)           108.0004         estimate D2E/DX2                !
 ! A62   A(37,26,39)           108.5282         estimate D2E/DX2                !
 ! A63   A(38,26,39)           108.9676         estimate D2E/DX2                !
 ! A64   A(12,30,13)           156.7109         estimate D2E/DX2                !
 ! A65   A(13,33,14)           163.368          estimate D2E/DX2                !
 ! A66   A(31,34,35)           119.3723         estimate D2E/DX2                !
 ! A67   A(31,34,36)           127.1055         estimate D2E/DX2                !
 ! A68   A(35,34,36)           105.7423         estimate D2E/DX2                !
 ! A69   A(32,40,41)           108.1441         estimate D2E/DX2                !
 ! A70   A(32,40,42)           131.2564         estimate D2E/DX2                !
 ! A71   A(41,40,42)           103.0961         estimate D2E/DX2                !
 ! A72   L(4,27,12,14,-1)      171.4839         estimate D2E/DX2                !
 ! A73   L(8,28,14,3,-1)       172.6673         estimate D2E/DX2                !
 ! A74   L(12,31,34,42,-1)     184.2298         estimate D2E/DX2                !
 ! A75   L(13,32,40,37,-1)     188.8462         estimate D2E/DX2                !
 ! A76   L(4,27,12,14,-2)      172.1932         estimate D2E/DX2                !
 ! A77   L(8,28,14,3,-2)       179.9377         estimate D2E/DX2                !
 ! A78   L(12,31,34,42,-2)     174.7002         estimate D2E/DX2                !
 ! A79   L(13,32,40,37,-2)     176.5479         estimate D2E/DX2                !
 ! D1    D(6,1,2,3)             -0.1729         estimate D2E/DX2                !
 ! D2    D(6,1,2,7)            179.044          estimate D2E/DX2                !
 ! D3    D(25,1,2,3)           179.6227         estimate D2E/DX2                !
 ! D4    D(25,1,2,7)            -1.1604         estimate D2E/DX2                !
 ! D5    D(2,1,6,5)              0.7566         estimate D2E/DX2                !
 ! D6    D(2,1,6,24)          -179.9671         estimate D2E/DX2                !
 ! D7    D(25,1,6,5)          -179.0389         estimate D2E/DX2                !
 ! D8    D(25,1,6,24)            0.2373         estimate D2E/DX2                !
 ! D9    D(1,2,3,4)             -0.4762         estimate D2E/DX2                !
 ! D10   D(1,2,3,22)          -179.8732         estimate D2E/DX2                !
 ! D11   D(7,2,3,4)           -179.6979         estimate D2E/DX2                !
 ! D12   D(7,2,3,22)             0.905          estimate D2E/DX2                !
 ! D13   D(1,2,7,8)            129.3104         estimate D2E/DX2                !
 ! D14   D(1,2,7,11)          -112.4891         estimate D2E/DX2                !
 ! D15   D(1,2,7,21)             8.694          estimate D2E/DX2                !
 ! D16   D(3,2,7,8)            -51.5029         estimate D2E/DX2                !
 ! D17   D(3,2,7,11)            66.6976         estimate D2E/DX2                !
 ! D18   D(3,2,7,21)          -172.1193         estimate D2E/DX2                !
 ! D19   D(2,3,4,5)              0.5451         estimate D2E/DX2                !
 ! D20   D(2,3,4,27)          -176.5414         estimate D2E/DX2                !
 ! D21   D(22,3,4,5)           179.9851         estimate D2E/DX2                !
 ! D22   D(22,3,4,27)            2.8986         estimate D2E/DX2                !
 ! D23   D(3,4,5,6)              0.0666         estimate D2E/DX2                !
 ! D24   D(3,4,5,23)          -179.5291         estimate D2E/DX2                !
 ! D25   D(27,4,5,6)           177.0473         estimate D2E/DX2                !
 ! D26   D(27,4,5,23)           -2.5484         estimate D2E/DX2                !
 ! D27   D(3,4,12,30)           38.9282         estimate D2E/DX2                !
 ! D28   D(3,4,12,31)          -90.8639         estimate D2E/DX2                !
 ! D29   D(5,4,12,30)         -132.1342         estimate D2E/DX2                !
 ! D30   D(5,4,12,31)           98.0737         estimate D2E/DX2                !
 ! D31   D(4,5,6,1)             -0.7066         estimate D2E/DX2                !
 ! D32   D(4,5,6,24)          -179.9933         estimate D2E/DX2                !
 ! D33   D(23,5,6,1)           178.8583         estimate D2E/DX2                !
 ! D34   D(23,5,6,24)           -0.4284         estimate D2E/DX2                !
 ! D35   D(2,7,8,9)            169.4229         estimate D2E/DX2                !
 ! D36   D(2,7,8,26)           -67.1554         estimate D2E/DX2                !
 ! D37   D(2,7,8,28)            59.0172         estimate D2E/DX2                !
 ! D38   D(11,7,8,9)            44.8613         estimate D2E/DX2                !
 ! D39   D(11,7,8,26)          168.283          estimate D2E/DX2                !
 ! D40   D(11,7,8,28)          -65.5444         estimate D2E/DX2                !
 ! D41   D(21,7,8,9)           -70.9236         estimate D2E/DX2                !
 ! D42   D(21,7,8,26)           52.4981         estimate D2E/DX2                !
 ! D43   D(21,7,8,28)          178.6707         estimate D2E/DX2                !
 ! D44   D(2,7,11,10)         -152.9209         estimate D2E/DX2                !
 ! D45   D(2,7,11,18)           84.8767         estimate D2E/DX2                !
 ! D46   D(2,7,11,19)          -34.0286         estimate D2E/DX2                !
 ! D47   D(8,7,11,10)          -29.0677         estimate D2E/DX2                !
 ! D48   D(8,7,11,18)         -151.27           estimate D2E/DX2                !
 ! D49   D(8,7,11,19)           89.8247         estimate D2E/DX2                !
 ! D50   D(21,7,11,10)          86.7826         estimate D2E/DX2                !
 ! D51   D(21,7,11,18)         -35.4197         estimate D2E/DX2                !
 ! D52   D(21,7,11,19)        -154.325          estimate D2E/DX2                !
 ! D53   D(7,8,9,10)           -42.8282         estimate D2E/DX2                !
 ! D54   D(7,8,9,15)          -165.3742         estimate D2E/DX2                !
 ! D55   D(7,8,9,20)            76.0261         estimate D2E/DX2                !
 ! D56   D(26,8,9,10)         -166.6505         estimate D2E/DX2                !
 ! D57   D(26,8,9,15)           70.8034         estimate D2E/DX2                !
 ! D58   D(26,8,9,20)          -47.7962         estimate D2E/DX2                !
 ! D59   D(28,8,9,10)           77.4499         estimate D2E/DX2                !
 ! D60   D(28,8,9,15)          -45.0961         estimate D2E/DX2                !
 ! D61   D(28,8,9,20)         -163.6958         estimate D2E/DX2                !
 ! D62   D(7,8,14,29)          122.503          estimate D2E/DX2                !
 ! D63   D(7,8,14,33)          -89.9002         estimate D2E/DX2                !
 ! D64   D(9,8,14,29)           10.8585         estimate D2E/DX2                !
 ! D65   D(9,8,14,33)          158.4553         estimate D2E/DX2                !
 ! D66   D(26,8,14,29)        -109.9438         estimate D2E/DX2                !
 ! D67   D(26,8,14,33)          37.6529         estimate D2E/DX2                !
 ! D68   D(7,8,26,37)         -177.4003         estimate D2E/DX2                !
 ! D69   D(7,8,26,38)           64.0859         estimate D2E/DX2                !
 ! D70   D(7,8,26,39)          -57.1892         estimate D2E/DX2                !
 ! D71   D(9,8,26,37)          -59.4842         estimate D2E/DX2                !
 ! D72   D(9,8,26,38)         -177.9979         estimate D2E/DX2                !
 ! D73   D(9,8,26,39)           60.727          estimate D2E/DX2                !
 ! D74   D(28,8,26,37)          52.6082         estimate D2E/DX2                !
 ! D75   D(28,8,26,38)         -65.9056         estimate D2E/DX2                !
 ! D76   D(28,8,26,39)         172.8194         estimate D2E/DX2                !
 ! D77   D(8,9,10,11)           23.477          estimate D2E/DX2                !
 ! D78   D(8,9,10,16)          144.7734         estimate D2E/DX2                !
 ! D79   D(8,9,10,17)          -95.6733         estimate D2E/DX2                !
 ! D80   D(15,9,10,11)         143.5474         estimate D2E/DX2                !
 ! D81   D(15,9,10,16)         -95.1562         estimate D2E/DX2                !
 ! D82   D(15,9,10,17)          24.3971         estimate D2E/DX2                !
 ! D83   D(20,9,10,11)         -94.8663         estimate D2E/DX2                !
 ! D84   D(20,9,10,16)          26.4301         estimate D2E/DX2                !
 ! D85   D(20,9,10,17)         145.9834         estimate D2E/DX2                !
 ! D86   D(9,10,11,7)            3.3865         estimate D2E/DX2                !
 ! D87   D(9,10,11,18)         124.1511         estimate D2E/DX2                !
 ! D88   D(9,10,11,19)        -114.8958         estimate D2E/DX2                !
 ! D89   D(16,10,11,7)        -117.2068         estimate D2E/DX2                !
 ! D90   D(16,10,11,18)          3.5578         estimate D2E/DX2                !
 ! D91   D(16,10,11,19)        124.5109         estimate D2E/DX2                !
 ! D92   D(17,10,11,7)         122.8966         estimate D2E/DX2                !
 ! D93   D(17,10,11,18)       -116.3388         estimate D2E/DX2                !
 ! D94   D(17,10,11,19)          4.6143         estimate D2E/DX2                !
 ! D95   D(27,12,30,13)          5.6242         estimate D2E/DX2                !
 ! D96   D(31,12,30,13)        147.6248         estimate D2E/DX2                !
 ! D97   D(27,12,34,35)       -122.8599         estimate D2E/DX2                !
 ! D98   D(27,12,34,36)         90.8996         estimate D2E/DX2                !
 ! D99   D(30,12,34,35)        102.5419         estimate D2E/DX2                !
 ! D100  D(30,12,34,36)        -43.6985         estimate D2E/DX2                !
 ! D101  D(32,13,30,12)        144.4095         estimate D2E/DX2                !
 ! D102  D(33,13,30,12)        -72.2019         estimate D2E/DX2                !
 ! D103  D(30,13,40,41)        -77.7982         estimate D2E/DX2                !
 ! D104  D(30,13,40,42)         46.3314         estimate D2E/DX2                !
 ! D105  D(33,13,40,41)        136.2841         estimate D2E/DX2                !
 ! D106  D(33,13,40,42)        -99.5863         estimate D2E/DX2                !
 ! D107  D(30,13,33,14)         45.885          estimate D2E/DX2                !
 ! D108  D(32,13,33,14)       -164.7438         estimate D2E/DX2                !
 ! D109  D(28,14,33,13)         62.5158         estimate D2E/DX2                !
 ! D110  D(29,14,33,13)       -158.5773         estimate D2E/DX2                !
 --------------------------------------------------------------------------------
 Trust Radius=3.00D-01 FncErr=1.00D-07 GrdErr=1.00D-06 EigMax=2.50D+02 EigMin=1.00D-04
 Number of steps in this run=    243 maximum allowed number of steps=    252.
 GradGradGradGradGradGradGradGradGradGradGradGradGradGradGradGradGradGrad

                          Input orientation:                          
 ---------------------------------------------------------------------
 Center     Atomic      Atomic             Coordinates (Angstroms)
 Number     Number       Type             X           Y           Z
 ---------------------------------------------------------------------
      1          6           0       -0.787260    2.685210   -0.080795
      2          6           0       -0.819675    1.307814    0.146609
      3          6           0        0.398660    0.637025    0.162746
      4          7           0        1.545910    1.294685   -0.042300
      5          6           0        1.594674    2.616565   -0.261125
      6          6           0        0.423275    3.350286   -0.278525
      7          6           0       -2.117612    0.573547    0.383854
      8          7           0       -2.283674   -0.611203   -0.468583
      9          6           0       -3.453805   -1.288549    0.110135
     10          6           0       -3.226030   -1.203618    1.625572
     11          6           0       -2.282597    0.009620    1.807098
     12          8           0        3.562267   -0.292647   -0.328185
     13          8           0        1.911544   -1.855655   -1.771581
     14          8           0       -0.231597   -2.466485   -0.191536
     15          1           0       -3.524391   -2.314391   -0.271777
     16          1           0       -4.171904   -1.076971    2.161416
     17          1           0       -2.754310   -2.116927    2.004403
     18          1           0       -2.681523    0.769024    2.487690
     19          1           0       -1.309067   -0.307159    2.200460
     20          1           0       -4.379989   -0.758560   -0.178230
     21          1           0       -2.942251    1.284755    0.180090
     22          1           0        0.488772   -0.435281    0.328892
     23          1           0        2.580027    3.046503   -0.423453
     24          1           0        0.457132    4.422534   -0.455643
     25          1           0       -1.720883    3.247848   -0.107446
     26          6           0       -2.438516   -0.302530   -1.885341
     27          1           0        2.444399    0.702873   -0.072828
     28          1           0       -1.013236   -1.867790   -0.305697
     29          1           0       -0.560827   -3.328844    0.069670
     30          1           0        3.166155   -1.015522   -0.854496
     31          1           0        4.197704   -0.668734    0.307540
     32          1           0        2.064296   -2.407726   -2.540910
     33          1           0        1.148793   -2.235099   -1.293755
     34          8           0        5.451591   -1.179045    1.470558
     35          1           0        6.378607   -1.056810    1.248165
     36          1           0        5.422456   -1.938572    2.058091
     37          1           0       -2.602709   -1.231283   -2.443598
     38          1           0       -1.525533    0.167761   -2.270776
     39          1           0       -3.294498    0.372439   -2.067059
     40          8           0        2.644470   -3.386742   -3.975210
     41          1           0        2.814795   -2.773846   -4.711441
     42          1           0        3.361284   -4.036147   -4.059264
 ---------------------------------------------------------------------
                    Distance matrix (angstroms):
                    1          2          3          4          5
     1  C    0.000000
     2  C    1.396418   0.000000
     3  C    2.379239   1.390884   0.000000
     4  N    2.716381   2.373152   1.338186   0.000000
     5  C    2.389737   2.776357   2.351318   1.340757   0.000000
     6  C    1.395284   2.428447   2.749020   2.354062   1.382326
     7  C    2.538672   1.509991   2.526765   3.758063   4.286139
     8  N    3.640875   2.490859   3.025155   4.298818   5.050060
     9  C    4.789330   3.698793   4.307214   5.629697   6.393347
    10  C    4.897170   3.779572   4.320440   5.638681   6.433709
    11  C    3.599855   2.565672   3.207284   4.441749   5.109495
    12  O    5.277046   4.689171   3.333724   2.582063   3.512753
    13  O    5.546328   4.598537   3.499127   3.612304   4.731029
    14  O    5.182759   3.834776   3.186615   4.162716   5.401621
    15  H    5.703014   4.539923   4.928488   6.227844   7.107691
    16  H    5.535100   4.580839   5.274706   6.570732   7.263906
    17  H    5.592661   4.350065   4.573529   5.858326   6.815587
    18  H    3.722515   3.039315   3.861388   4.954630   5.408812
    19  H    3.798773   2.658185   2.821364   3.968220   4.799924
    20  H    4.977625   4.129317   4.989931   6.273003   6.862575
    21  H    2.583277   2.122965   3.403166   4.493678   4.748903
    22  H    3.396110   2.187154   1.088836   2.061094   3.299228
    23  H    3.403905   3.860827   3.302662   2.069672   1.087252
    24  H    2.169635   3.419711   3.836131   3.337623   2.143213
    25  H    1.090378   2.154171   3.373702   3.806708   3.378617
    26  C    3.861298   3.056579   3.623119   4.671568   5.236966
    27  H    3.791219   3.326903   2.060310   1.076316   2.102310
    28  H    4.564149   3.213488   2.913243   4.076746   5.187738
    29  H    6.020196   4.644515   4.081347   5.082116   6.332732
    30  H    5.470240   4.720905   3.380048   2.936309   4.001712
    31  H    6.020765   5.395066   4.019789   3.318044   4.229933
    32  H    6.334156   5.417129   4.399387   4.496624   5.537280
    33  H    5.424852   4.301366   3.306538   3.766061   4.980339
    34  O    7.500828   6.875034   5.526355   4.864404   5.681654
    35  H    8.192588   7.656379   6.309277   5.527186   6.217528
    36  H    8.032108   7.290884   5.955213   5.467468   6.385918
    37  H    4.921139   4.041707   4.392245   5.418283   6.098126
    38  H    3.417399   2.764364   3.137636   3.958513   4.446463
    39  H    3.947201   3.449638   4.322205   5.327263   5.674637
    40  O    7.988232   7.143427   6.193307   6.212115   7.136960
    41  H    8.013675   7.312317   6.421016   6.321700   7.095812
    42  H    8.843940   7.982964   6.959961   6.917323   7.861638
                    6          7          8          9         10
     6  C    0.000000
     7  C    3.821666   0.000000
     8  N    4.801780   1.468965   0.000000
     9  C    6.058184   2.308189   1.470686   0.000000
    10  C    6.138490   2.434906   2.371598   1.534811   0.000000
    11  C    4.778244   1.539759   2.358844   2.436525   1.547567
    12  O    4.809023   5.789501   5.856297   7.099944   7.122360
    13  O    5.616581   5.175038   4.565777   5.713968   6.193583
    14  O    5.854165   3.623523   2.780260   3.444004   3.723351
    15  H    6.904540   3.278577   2.116356   1.096901   2.218731
    16  H    6.831514   3.178687   3.270970   2.183617   1.094461
    17  H    6.723037   3.204717   2.933319   2.182603   1.095521
    18  H    4.894347   2.186855   3.286771   3.237714   2.220597
    19  H    4.745870   2.174729   2.857638   3.151585   2.192916
    20  H    6.321710   2.684920   2.121451   1.105378   2.187098
    21  H    3.975363   1.107866   2.109303   2.624590   2.891703
    22  H    3.834549   2.795352   2.890220   4.039781   4.008924
    23  H    2.182858   5.369829   6.085757   7.448793   7.481466
    24  H    1.087305   4.706247   5.731552   6.944926   7.039228
    25  H    2.153410   2.747846   3.916558   4.860994   5.008430
    26  C    4.910679   2.453515   1.458238   2.446420   3.709265
    27  H    3.337072   4.586636   4.923220   6.228005   6.218765
    28  H    5.412266   2.766813   1.794312   2.542600   3.011209
    29  H    6.760213   4.213187   3.262436   3.540305   3.747095
    30  H    5.188007   5.654807   5.478416   6.695441   6.859019
    31  H    5.544575   6.436793   6.527935   7.679110   7.558779
    32  H    6.400472   5.910210   5.140708   6.223346   6.840833
    33  H    5.723076   4.623015   3.885843   4.904159   5.359617
    34  O    6.989856   7.845084   7.994813   9.009374   8.679040
    35  H    7.564341   8.694299   8.841996   9.900765   9.613170
    36  H    7.643533   8.121972   8.217690   9.110712   8.690428
    37  H    5.902109   3.389279   2.094509   2.692433   4.116727
    38  H    4.230293   2.749960   2.104629   3.392316   4.466979
    39  H    5.088051   2.726257   2.131770   2.743070   4.015491
    40  O    7.999171   7.573821   6.654822   7.634227   8.402236
    41  H    7.929383   7.841920   6.976622   8.046680   8.894657
    42  H    8.802573   8.426677   7.515902   8.448587   9.150590
                   11         12         13         14         15
    11  C    0.000000
    12  O    6.230027   0.000000
    13  O    5.820396   2.692819   0.000000
    14  O    3.785794   4.374660   2.731796   0.000000
    15  H    3.356308   7.369624   5.657671   3.297281   0.000000
    16  H    2.208099   8.162762   7.285819   4.795117   2.805514
    17  H    2.187154   6.976253   6.008037   3.362799   2.411019
    18  H    1.095008   6.931177   6.791656   4.863014   4.222858
    19  H    1.096742   5.488547   5.342966   3.397834   3.879252
    20  H    2.988424   7.957323   6.582232   4.486239   1.778035
    21  H    2.169854   6.712324   6.101682   4.643011   3.673816
    22  H    3.172305   3.146183   2.907530   2.217108   4.471838
    23  H    6.151677   3.481924   5.127911   6.192903   8.125645
    24  H    5.665679   5.647215   6.577436   6.928397   7.827675
    25  H    3.803567   6.363608   6.481482   5.905815   5.849628
    26  C    3.708889   6.199535   4.620407   3.524510   2.798267
    27  H    5.134122   1.518518   3.117012   4.149684   6.691033
    28  H    3.098362   4.839092   3.271590   0.991175   2.550785
    29  H    4.138658   5.135824   3.416593   0.959314   3.150938
    30  H    6.150114   0.977986   1.766612   3.753602   6.840324
    31  H    6.686041   0.974355   3.310295   4.806214   7.916726
    32  H    6.606377   3.407877   0.959157   3.285443   6.032503
    33  H    5.140865   3.245043   0.976773   1.781545   4.784284
    34  O    7.832231   2.755127   4.847804   6.059594   9.213739
    35  H    8.744492   3.316715   5.450841   6.910479  10.097579
    36  H    7.951496   3.444370   5.196130   6.108014   9.252870
    37  H    4.439677   6.585054   4.606509   3.495666   2.596041
    38  H    4.150568   5.465468   4.019565   3.596771   3.761982
    39  H    4.020532   7.105016   5.670501   4.578039   3.239590
    40  O    8.321439   4.869966   2.781616   4.840953   7.274627
    41  H    8.730547   5.091954   3.209629   5.459352   7.752871
    42  H    9.090425   5.289153   3.477037   5.507446   8.045000
                   16         17         18         19         20
    16  H    0.000000
    17  H    1.765144   0.000000
    18  H    2.394867   2.927042   0.000000
    19  H    2.964788   2.324312   1.767571   0.000000
    20  H    2.370365   3.041690   3.510759   3.910561   0.000000
    21  H    3.318953   3.864567   2.378860   3.046863   2.524009
    22  H    5.048942   4.019061   4.020141   2.598347   4.905764
    23  H    8.323050   7.810931   6.430052   5.766890   7.936023
    24  H    7.649936   7.689586   5.644688   5.704764   7.093549
    25  H    5.464366   5.857362   3.715122   4.258415   4.809071
    26  C    4.469970   4.303704   4.508956   4.239038   2.625168
    27  H    7.206605   6.268392   5.730245   4.502945   6.979912
    28  H    4.085245   2.903441   4.187957   2.967138   3.547064
    29  H    4.741963   3.165960   5.209289   3.772361   4.610186
    30  H    7.933890   6.666206   6.967794   5.464627   7.580742
    31  H    8.582182   7.301172   7.358258   5.834245   8.591907
    32  H    7.922939   6.630490   7.609294   6.186481   7.059094
    33  H    6.448975   5.111362   6.164041   4.686957   5.830265
    34  O    9.648801   8.276559   8.424789   6.855614   9.977739
    35  H   10.589982   9.225287   9.325023   7.782620  10.856839
    36  H    9.633524   8.178887   8.555122   6.927855  10.123314
    37  H    4.867478   4.537848   5.322127   4.908644   2.917890
    38  H    5.310081   5.000685   4.933643   4.501595   3.658516
    39  H    4.555286   4.802661   4.612890   4.755577   2.454613
    40  O    9.458128   8.155675   9.349100   7.953187   8.406392
    41  H    9.946332   8.749231   9.725684   8.418145   8.739354
    42  H   10.207963   8.823376  10.122638   8.654576   9.259175
                   21         22         23         24         25
    21  H    0.000000
    22  H    3.840909   0.000000
    23  H    5.827828   4.130640   0.000000
    24  H    4.669649   4.920860   2.530055   0.000000
    25  H    2.329839   4.317222   4.317201   2.498975   0.000000
    26  C    2.653154   3.672801   6.207972   5.723202   4.034983
    27  H    5.423887   2.298097   2.373591   4.234579   4.881359
    28  H    3.727684   2.170441   6.088980   6.461628   5.168154
    29  H    5.193137   3.088942   7.124127   7.835563   6.680567
    30  H    6.608651   2.984203   4.126668   6.088542   6.528212
    31  H    7.403467   3.716333   4.117550   6.363595   7.109255
    32  H    6.789976   3.822117   5.873518   7.320093   7.227368
    33  H    5.594482   2.511564   5.540864   6.745732   6.301196
    34  O    8.842635   5.146470   5.448707   7.748068   8.575072
    35  H    9.669649   5.993456   5.836154   8.245607   9.271974
    36  H    9.158878   5.439784   6.252075   8.452039   9.089323
    37  H    3.650955   4.228188   7.017207   6.729059   5.128142
    38  H    3.043273   3.343555   5.343723   5.032769   3.768965
    39  H    2.450730   4.550398   6.660488   5.751057   3.818943
    40  O    8.384561   5.646543   7.348862   8.840622   8.833668
    41  H    8.575716   6.023639   7.233147   8.686673   8.833456
    42  H    9.274626   6.361877   7.999589   9.642068   9.721208
                   26         27         28         29         30
    26  C    0.000000
    27  H    5.304611   0.000000
    28  H    2.641351   4.314832   0.000000
    29  H    4.062802   5.030550   1.574882   0.000000
    30  H    5.743112   2.021093   4.300564   4.482849   0.000000
    31  H    6.998732   2.258332   5.382164   5.456774   1.592069
    32  H    5.013675   3.988951   3.841733   3.815083   2.448738
    33  H    4.117473   3.435249   2.405316   2.444996   2.397930
    34  O    8.618824   3.868703   6.739691   6.537071   3.264327
    35  H    9.387729   4.507716   7.596810   7.396400   3.839627
    36  H    8.945511   4.515182   6.856430   6.456497   3.798168
    37  H    1.095989   5.902102   2.739012   3.858181   5.987620
    38  H    1.096937   4.569210   2.875318   4.316780   5.041621
    39  H    1.105129   6.084495   3.650367   5.073270   6.718391
    40  O    6.302116   5.656286   5.399200   5.161234   3.953947
    41  H    6.456898   5.808743   5.906382   5.878935   4.253373
    42  H    7.232118   6.260245   6.158528   5.738583   4.408264
                   31         32         33         34         35
    31  H    0.000000
    32  H    3.960958   0.000000
    33  H    3.783319   1.556709   0.000000
    34  O    1.784730   5.392152   5.222140   0.000000
    35  H    2.406598   5.898758   5.933016   0.961124   0.000000
    36  H    2.485344   5.713856   5.439393   0.960690   1.532224
    37  H    7.357366   4.813982   4.050130   8.955171   9.712033
    38  H    6.332683   4.426396   3.725631   8.030674   8.738304
    39  H    7.928168   6.055619   5.209615   9.561167  10.324845
    40  O    5.304908   1.830926   3.279258   6.512315   6.830520
    41  H    5.615523   2.325618   3.840103   6.907474   7.153032
    42  H    5.577459   2.576691   3.973277   6.565923   6.793342
                   36         37         38         39         40
    36  H    0.000000
    37  H    9.228691   0.000000
    38  H    8.452827   1.774119   0.000000
    39  H    9.916800   1.786695   1.792381   0.000000
    40  O    6.798171   5.875775   5.738337   7.283119   0.000000
    41  H    7.302338   6.072229   5.783455   7.363106   0.972979
    42  H    6.787509   6.785784   6.689732   8.228241   0.970883
                   41         42
    41  H    0.000000
    42  H    1.522298   0.000000
 Stoichiometry    C10H25N2O5(1+)
 Framework group  C1[X(C10H25N2O5)]
 Deg. of freedom   120
 Full point group                 C1      NOp   1
 Largest Abelian subgroup         C1      NOp   1
 Largest concise Abelian subgroup C1      NOp   1
                         Standard orientation:                         
 ---------------------------------------------------------------------
 Center     Atomic      Atomic             Coordinates (Angstroms)
 Number     Number       Type             X           Y           Z
 ---------------------------------------------------------------------
      1          6           0        1.588265   -2.389216   -1.166803
      2          6           0        1.376763   -1.267252   -0.362783
      3          6           0        0.069961   -1.008606    0.037129
      4          7           0       -0.934784   -1.804258   -0.347797
      5          6           0       -0.748890   -2.885428   -1.118604
      6          6           0        0.525528   -3.211043   -1.543643
      7          6           0        2.516450   -0.377783    0.073143
      8          7           0        2.277005    1.048402   -0.184768
      9          6           0        3.367574    1.715929    0.541859
     10          6           0        3.441371    0.967402    1.879733
     11          6           0        2.817365   -0.417281    1.582695
     12          8           0       -3.252719   -0.831911    0.242771
     13          8           0       -2.249993    1.557054   -0.491164
     14          8           0       -0.028255    2.017746    1.030136
     15          1           0        3.154566    2.787164    0.643214
     16          1           0        4.474287    0.889369    2.233063
     17          1           0        2.868330    1.488627    2.654404
     18          1           0        3.481138   -1.252284    1.830118
     19          1           0        1.887458   -0.556633    2.147228
     20          1           0        4.314989    1.613621   -0.018317
     21          1           0        3.418960   -0.699807   -0.482863
     22          1           0       -0.207578   -0.161220    0.662008
     23          1           0       -1.637160   -3.456302   -1.377826
     24          1           0        0.681866   -4.086688   -2.168973
     25          1           0        2.597107   -2.624172   -1.507328
     26          6           0        2.232158    1.393183   -1.600951
     27          1           0       -1.926247   -1.511317   -0.048391
     28          1           0        0.825990    1.746530    0.606893
     29          1           0        0.157959    2.753663    1.616680
     30          1           0       -3.116500    0.118676    0.057609
     31          1           0       -3.825747   -0.928221    1.024903
     32          1           0       -2.650442    2.311591   -0.927395
     33          1           0       -1.508032    1.897088    0.045451
     34          8           0       -4.925305   -1.284105    2.384896
     35          1           0       -5.831834   -1.545918    2.202095
     36          1           0       -4.947152   -0.849698    3.241482
     37          1           0        2.097136    2.475626   -1.707150
     38          1           0        1.381262    0.896509   -2.083198
     39          1           0        3.161338    1.102226   -2.123712
     40          8           0       -3.670682    3.596295   -1.740375
     41          1           0       -3.841833    3.313166   -2.655380
     42          1           0       -4.509061    4.009332   -1.477437
 ---------------------------------------------------------------------
 Rotational constants (GHZ):           0.3820632           0.2341536           0.1889793
 Standard basis: Aug-CC-pVDZ (5D, 7F)
 There are   650 symmetry adapted cartesian basis functions of A   symmetry.
 There are   616 symmetry adapted basis functions of A   symmetry.
   616 basis functions,  1006 primitive gaussians,   650 cartesian basis functions
    69 alpha electrons       69 beta electrons
       nuclear repulsion energy      1340.7952891219 Hartrees.
 NAtoms=   42 NActive=   42 NUniq=   42 SFac= 1.00D+00 NAtFMM=   60 NAOKFM=F Big=F
 Integral buffers will be    131072 words long.
 Raffenetti 2 integral format.
 Two-electron integral symmetry is turned on.
 Nuclear repulsion after empirical dispersion term =     1340.7647252216 Hartrees.
 One-electron integrals computed using PRISM.
 NBasis=   616 RedAO= T EigKep=  1.89D-06  NBF=   616
 NBsUse=   616 1.00D-06 EigRej= -1.00D+00 NBFU=   616
 ExpMin= 2.97D-02 ExpMax= 1.17D+04 ExpMxC= 4.01D+02 IAcc=3 IRadAn=         5 AccDes= 0.00D+00
 Harris functional with IExCor= 4639 and IRadAn=       5 diagonalized for initial guess.
 HarFok:  IExCor= 4639 AccDes= 0.00D+00 IRadAn=         5 IDoV= 1 UseB2=F ITyADJ=14
 ICtDFT=  3500011 ScaDFX=  1.000000  1.000000  1.000000  1.000000
 FoFCou: FMM=F IPFlag=           0 FMFlag=      100000 FMFlg1=           0
         NFxFlg=           0 DoJE=T BraDBF=F KetDBF=T FulRan=T
         wScrn=  0.000000 ICntrl=       500 IOpCl=  0 I1Cent=   200000004 NGrid=           0
         NMat0=    1 NMatS0=      1 NMatT0=    0 NMatD0=    1 NMtDS0=    0 NMtDT0=    0
 Petite list used in FoFCou.
 Requested convergence on RMS density matrix=1.00D-08 within 128 cycles.
 Requested convergence on MAX density matrix=1.00D-06.
 Requested convergence on             energy=1.00D-06.
 No special actions if energy rises.
 SCF Done:  E(RwB97XD) =  -881.464960636     A.U. after   16 cycles
            NFock= 16  Conv=0.13D-08     -V/T= 2.0062

 **********************************************************************

            Population analysis using the SCF density.

 **********************************************************************

 Orbital symmetries:
       Occupied  (A) (A) (A) (A) (A) (A) (A) (A) (A) (A) (A) (A)
                 (A) (A) (A) (A) (A) (A) (A) (A) (A) (A) (A) (A)
                 (A) (A) (A) (A) (A) (A) (A) (A) (A) (A) (A) (A)
                 (A) (A) (A) (A) (A) (A) (A) (A) (A) (A) (A) (A)
                 (A) (A) (A) (A) (A) (A) (A) (A) (A) (A) (A) (A)
                 (A) (A) (A) (A) (A) (A) (A) (A) (A)
       Virtual   (A) (A) (A) (A) (A) (A) (A) (A) (A) (A) (A) (A)
                 (A) (A) (A) (A) (A) (A) (A) (A) (A) (A) (A) (A)
                 (A) (A) (A) (A) (A) (A) (A) (A) (A) (A) (A) (A)
                 (A) (A) (A) (A) (A) (A) (A) (A) (A) (A) (A) (A)
                 (A) (A) (A) (A) (A) (A) (A) (A) (A) (A) (A) (A)
                 (A) (A) (A) (A) (A) (A) (A) (A) (A) (A) (A) (A)
                 (A) (A) (A) (A) (A) (A) (A) (A) (A) (A) (A) (A)
                 (A) (A) (A) (A) (A) (A) (A) (A) (A) (A) (A) (A)
                 (A) (A) (A) (A) (A) (A) (A) (A) (A) (A) (A) (A)
                 (A) (A) (A) (A) (A) (A) (A) (A) (A) (A) (A) (A)
                 (A) (A) (A) (A) (A) (A) (A) (A) (A) (A) (A) (A)
                 (A) (A) (A) (A) (A) (A) (A) (A) (A) (A) (A) (A)
                 (A) (A) (A) (A) (A) (A) (A) (A) (A) (A) (A) (A)
                 (A) (A) (A) (A) (A) (A) (A) (A) (A) (A) (A) (A)
                 (A) (A) (A) (A) (A) (A) (A) (A) (A) (A) (A) (A)
                 (A) (A) (A) (A) (A) (A) (A) (A) (A) (A) (A) (A)
                 (A) (A) (A) (A) (A) (A) (A) (A) (A) (A) (A) (A)
                 (A) (A) (A) (A) (A) (A) (A) (A) (A) (A) (A) (A)
                 (A) (A) (A) (A) (A) (A) (A) (A) (A) (A) (A) (A)
                 (A) (A) (A) (A) (A) (A) (A) (A) (A) (A) (A) (A)
                 (A) (A) (A) (A) (A) (A) (A) (A) (A) (A) (A) (A)
                 (A) (A) (A) (A) (A) (A) (A) (A) (A) (A) (A) (A)
                 (A) (A) (A) (A) (A) (A) (A) (A) (A) (A) (A) (A)
                 (A) (A) (A) (A) (A) (A) (A) (A) (A) (A) (A) (A)
                 (A) (A) (A) (A) (A) (A) (A) (A) (A) (A) (A) (A)
                 (A) (A) (A) (A) (A) (A) (A) (A) (A) (A) (A) (A)
                 (A) (A) (A) (A) (A) (A) (A) (A) (A) (A) (A) (A)
                 (A) (A) (A) (A) (A) (A) (A) (A) (A) (A) (A) (A)
                 (A) (A) (A) (A) (A) (A) (A) (A) (A) (A) (A) (A)
                 (A) (A) (A) (A) (A) (A) (A) (A) (A) (A) (A) (A)
                 (A) (A) (A) (A) (A) (A) (A) (A) (A) (A) (A) (A)
                 (A) (A) (A) (A) (A) (A) (A) (A) (A) (A) (A) (A)
                 (A) (A) (A) (A) (A) (A) (A) (A) (A) (A) (A) (A)
                 (A) (A) (A) (A) (A) (A) (A) (A) (A) (A) (A) (A)
                 (A) (A) (A) (A) (A) (A) (A) (A) (A) (A) (A) (A)
                 (A) (A) (A) (A) (A) (A) (A) (A) (A) (A) (A) (A)
                 (A) (A) (A) (A) (A) (A) (A) (A) (A) (A) (A) (A)
                 (A) (A) (A) (A) (A) (A) (A) (A) (A) (A) (A) (A)
                 (A) (A) (A) (A) (A) (A) (A) (A) (A) (A) (A) (A)
                 (A) (A) (A) (A) (A) (A) (A) (A) (A) (A) (A) (A)
                 (A) (A) (A) (A) (A) (A) (A) (A) (A) (A) (A) (A)
                 (A) (A) (A) (A) (A) (A) (A) (A) (A) (A) (A) (A)
                 (A) (A) (A) (A) (A) (A) (A) (A) (A) (A) (A) (A)
                 (A) (A) (A) (A) (A) (A) (A) (A) (A) (A) (A) (A)
                 (A) (A) (A) (A) (A) (A) (A) (A) (A) (A) (A) (A)
                 (A) (A) (A) (A) (A) (A) (A)
 The electronic state is 1-A.
 Alpha  occ. eigenvalues --  -19.39321 -19.38428 -19.37204 -19.36102 -19.34087
 Alpha  occ. eigenvalues --  -14.65640 -14.57447 -10.49723 -10.49222 -10.46731
 Alpha  occ. eigenvalues --  -10.46197 -10.45758 -10.45727 -10.42922 -10.42466
 Alpha  occ. eigenvalues --  -10.40954 -10.40128  -1.24267  -1.23658  -1.22245
 Alpha  occ. eigenvalues --   -1.21540  -1.20534  -1.18209  -1.16853  -1.07137
 Alpha  occ. eigenvalues --   -1.03466  -0.99960  -0.95126  -0.89304  -0.88915
 Alpha  occ. eigenvalues --   -0.87815  -0.81341  -0.79163  -0.78720  -0.74077
 Alpha  occ. eigenvalues --   -0.73680  -0.73382  -0.72809  -0.72278  -0.71894
 Alpha  occ. eigenvalues --   -0.70761  -0.70072  -0.68933  -0.67577  -0.66613
 Alpha  occ. eigenvalues --   -0.64892  -0.63692  -0.63063  -0.62070  -0.60958
 Alpha  occ. eigenvalues --   -0.60667  -0.59750  -0.58325  -0.57712  -0.56664
 Alpha  occ. eigenvalues --   -0.56151  -0.55753  -0.55098  -0.54365  -0.53429
 Alpha  occ. eigenvalues --   -0.52313  -0.52143  -0.51434  -0.51035  -0.50687
 Alpha  occ. eigenvalues --   -0.50227  -0.48369  -0.47949  -0.43819
 Alpha virt. eigenvalues --   -0.12593  -0.09895  -0.05717  -0.04949  -0.04487
 Alpha virt. eigenvalues --   -0.04222  -0.03572  -0.03120  -0.02580  -0.02504
 Alpha virt. eigenvalues --   -0.01457  -0.01252  -0.01152  -0.00572  -0.00295
 Alpha virt. eigenvalues --   -0.00079   0.00481   0.00701   0.01137   0.01284
 Alpha virt. eigenvalues --    0.02078   0.02357   0.02624   0.02969   0.03129
 Alpha virt. eigenvalues --    0.03450   0.03735   0.04002   0.04359   0.04502
 Alpha virt. eigenvalues --    0.04690   0.05563   0.05723   0.05874   0.06070
 Alpha virt. eigenvalues --    0.06354   0.06529   0.06985   0.07113   0.07371
 Alpha virt. eigenvalues --    0.07485   0.07978   0.07984   0.08486   0.08524
 Alpha virt. eigenvalues --    0.08777   0.09000   0.09562   0.09884   0.10417
 Alpha virt. eigenvalues --    0.10496   0.11109   0.11222   0.11371   0.11796
 Alpha virt. eigenvalues --    0.11987   0.12193   0.12331   0.12872   0.13123
 Alpha virt. eigenvalues --    0.13565   0.13694   0.14086   0.14302   0.14618
 Alpha virt. eigenvalues --    0.14728   0.14801   0.15065   0.15563   0.15768
 Alpha virt. eigenvalues --    0.16111   0.16419   0.16624   0.16707   0.16981
 Alpha virt. eigenvalues --    0.17095   0.17334   0.17542   0.18241   0.18437
 Alpha virt. eigenvalues --    0.18630   0.18844   0.19020   0.19339   0.19610
 Alpha virt. eigenvalues --    0.19912   0.20237   0.20581   0.21020   0.21300
 Alpha virt. eigenvalues --    0.21499   0.21743   0.21879   0.22419   0.22571
 Alpha virt. eigenvalues --    0.22623   0.23294   0.23734   0.23934   0.24365
 Alpha virt. eigenvalues --    0.24697   0.24842   0.25294   0.25508   0.25939
 Alpha virt. eigenvalues --    0.26127   0.26555   0.26936   0.27301   0.27502
 Alpha virt. eigenvalues --    0.27713   0.27872   0.28197   0.28416   0.28937
 Alpha virt. eigenvalues --    0.29285   0.29528   0.29588   0.30371   0.30541
 Alpha virt. eigenvalues --    0.30743   0.31357   0.31587   0.32311   0.32411
 Alpha virt. eigenvalues --    0.32815   0.33076   0.33360   0.33705   0.33755
 Alpha virt. eigenvalues --    0.34518   0.34622   0.35048   0.35350   0.36006
 Alpha virt. eigenvalues --    0.36614   0.36984   0.37216   0.37660   0.37900
 Alpha virt. eigenvalues --    0.38532   0.38702   0.38963   0.39166   0.39721
 Alpha virt. eigenvalues --    0.40082   0.40763   0.40923   0.41261   0.41857
 Alpha virt. eigenvalues --    0.42128   0.42612   0.43336   0.43496   0.43617
 Alpha virt. eigenvalues --    0.44379   0.44534   0.44876   0.44960   0.45162
 Alpha virt. eigenvalues --    0.45566   0.46094   0.46275   0.46674   0.47106
 Alpha virt. eigenvalues --    0.47448   0.47779   0.47994   0.48229   0.48357
 Alpha virt. eigenvalues --    0.48830   0.49525   0.49856   0.50187   0.50575
 Alpha virt. eigenvalues --    0.50814   0.51486   0.51794   0.52151   0.52410
 Alpha virt. eigenvalues --    0.52843   0.52980   0.53423   0.53798   0.53830
 Alpha virt. eigenvalues --    0.54175   0.54527   0.54865   0.55194   0.55493
 Alpha virt. eigenvalues --    0.55993   0.56329   0.57093   0.57238   0.57744
 Alpha virt. eigenvalues --    0.57906   0.58098   0.58721   0.58981   0.59965
 Alpha virt. eigenvalues --    0.60056   0.60616   0.60826   0.61390   0.61928
 Alpha virt. eigenvalues --    0.62430   0.62576   0.62881   0.63364   0.64080
 Alpha virt. eigenvalues --    0.64638   0.64995   0.65550   0.65778   0.66049
 Alpha virt. eigenvalues --    0.67286   0.67480   0.67830   0.68123   0.68671
 Alpha virt. eigenvalues --    0.68869   0.69331   0.69800   0.70010   0.70433
 Alpha virt. eigenvalues --    0.71016   0.71515   0.72140   0.72525   0.72855
 Alpha virt. eigenvalues --    0.72888   0.73246   0.74055   0.74479   0.74668
 Alpha virt. eigenvalues --    0.74953   0.75502   0.75625   0.76735   0.76775
 Alpha virt. eigenvalues --    0.77207   0.78022   0.78254   0.78994   0.79482
 Alpha virt. eigenvalues --    0.79971   0.80395   0.80816   0.81344   0.81553
 Alpha virt. eigenvalues --    0.82234   0.82755   0.83405   0.83924   0.84729
 Alpha virt. eigenvalues --    0.85532   0.85684   0.86599   0.86647   0.87617
 Alpha virt. eigenvalues --    0.88064   0.88868   0.89325   0.90138   0.90651
 Alpha virt. eigenvalues --    0.90944   0.92027   0.92661   0.93251   0.93816
 Alpha virt. eigenvalues --    0.93944   0.95061   0.95723   0.96048   0.96731
 Alpha virt. eigenvalues --    0.97090   0.97446   0.98207   0.99008   1.00457
 Alpha virt. eigenvalues --    1.01642   1.01934   1.03547   1.03796   1.04116
 Alpha virt. eigenvalues --    1.04544   1.05237   1.05417   1.06471   1.06854
 Alpha virt. eigenvalues --    1.07738   1.08753   1.09618   1.10315   1.10893
 Alpha virt. eigenvalues --    1.11455   1.12195   1.12966   1.13579   1.14062
 Alpha virt. eigenvalues --    1.14238   1.14620   1.15837   1.17001   1.17488
 Alpha virt. eigenvalues --    1.18071   1.18956   1.19708   1.20104   1.20727
 Alpha virt. eigenvalues --    1.21177   1.22235   1.22536   1.23483   1.24413
 Alpha virt. eigenvalues --    1.26086   1.26983   1.27164   1.28613   1.29764
 Alpha virt. eigenvalues --    1.30132   1.30723   1.30835   1.31484   1.32831
 Alpha virt. eigenvalues --    1.33536   1.34826   1.35234   1.35629   1.36403
 Alpha virt. eigenvalues --    1.37543   1.38615   1.38884   1.39331   1.40568
 Alpha virt. eigenvalues --    1.41332   1.42670   1.43753   1.44662   1.45424
 Alpha virt. eigenvalues --    1.46288   1.47270   1.47940   1.48462   1.49276
 Alpha virt. eigenvalues --    1.50418   1.51393   1.51923   1.53072   1.54181
 Alpha virt. eigenvalues --    1.55118   1.55943   1.56501   1.56795   1.58950
 Alpha virt. eigenvalues --    1.59648   1.60624   1.61616   1.62331   1.63298
 Alpha virt. eigenvalues --    1.63531   1.63858   1.64870   1.65496   1.66134
 Alpha virt. eigenvalues --    1.66590   1.68071   1.68430   1.69387   1.70652
 Alpha virt. eigenvalues --    1.70786   1.71839   1.72702   1.72940   1.73848
 Alpha virt. eigenvalues --    1.74060   1.74635   1.75073   1.76271   1.76922
 Alpha virt. eigenvalues --    1.78415   1.78788   1.79692   1.80370   1.81298
 Alpha virt. eigenvalues --    1.81708   1.82877   1.83250   1.83793   1.84636
 Alpha virt. eigenvalues --    1.84883   1.85799   1.86819   1.87597   1.87787
 Alpha virt. eigenvalues --    1.88229   1.88427   1.88996   1.90218   1.90878
 Alpha virt. eigenvalues --    1.91474   1.92558   1.93068   1.94049   1.94354
 Alpha virt. eigenvalues --    1.95141   1.95927   1.96746   1.97861   1.98775
 Alpha virt. eigenvalues --    1.99816   2.00454   2.00751   2.01405   2.01795
 Alpha virt. eigenvalues --    2.03416   2.04658   2.05272   2.05894   2.06427
 Alpha virt. eigenvalues --    2.07545   2.08265   2.10282   2.10674   2.11900
 Alpha virt. eigenvalues --    2.12509   2.12888   2.13129   2.14139   2.14425
 Alpha virt. eigenvalues --    2.14773   2.15163   2.16000   2.17036   2.17382
 Alpha virt. eigenvalues --    2.18044   2.19615   2.20933   2.22082   2.23581
 Alpha virt. eigenvalues --    2.23875   2.25064   2.25371   2.27408   2.28148
 Alpha virt. eigenvalues --    2.29031   2.29834   2.30409   2.30937   2.32282
 Alpha virt. eigenvalues --    2.33032   2.33818   2.35846   2.36587   2.38476
 Alpha virt. eigenvalues --    2.38733   2.39714   2.41649   2.42351   2.43756
 Alpha virt. eigenvalues --    2.44980   2.45678   2.46345   2.46889   2.47463
 Alpha virt. eigenvalues --    2.49189   2.50346   2.51638   2.53389   2.54328
 Alpha virt. eigenvalues --    2.55955   2.56446   2.57278   2.57623   2.59449
 Alpha virt. eigenvalues --    2.60579   2.61571   2.62039   2.63062   2.63752
 Alpha virt. eigenvalues --    2.64752   2.65388   2.68882   2.69392   2.70330
 Alpha virt. eigenvalues --    2.70745   2.71823   2.73610   2.74044   2.74236
 Alpha virt. eigenvalues --    2.76229   2.76808   2.77414   2.79662   2.80322
 Alpha virt. eigenvalues --    2.80787   2.84213   2.84528   2.85820   2.86427
 Alpha virt. eigenvalues --    2.87964   2.89841   2.90414   2.91892   2.93110
 Alpha virt. eigenvalues --    2.95575   2.97525   3.00183   3.04789   3.07074
 Alpha virt. eigenvalues --    3.08281   3.12735   3.17928   3.21364   3.24912
 Alpha virt. eigenvalues --    3.30168   3.30347   3.31879   3.36468   3.36808
 Alpha virt. eigenvalues --    3.40741   3.43467   3.43652   3.44778   3.46253
 Alpha virt. eigenvalues --    3.46739   3.47600   3.49793   3.51157   3.54318
 Alpha virt. eigenvalues --    3.59758   3.62744   3.65445   3.66259   3.67632
 Alpha virt. eigenvalues --    3.72921   3.74633   3.89127   3.91185   3.93139
 Alpha virt. eigenvalues --    3.95165   4.00306   4.10572   4.11220   4.16238
 Alpha virt. eigenvalues --    4.38288   4.99008
          Condensed to atoms (all electrons):
               1          2          3          4          5          6
     1  C   24.810362 -10.172309  -2.968145  -0.281527   1.850326  -5.036634
     2  C  -10.172309  25.872239  -3.828629  -0.378641  -0.756314   0.574775
     3  C   -2.968145  -3.828629  16.979469  -1.151181  -1.913822   0.760068
     4  N   -0.281527  -0.378641  -1.151181   7.934423   0.303866  -0.009263
     5  C    1.850326  -0.756314  -1.913822   0.303866  10.473697  -2.716647
     6  C   -5.036634   0.574775   0.760068  -0.009263  -2.716647  12.284338
     7  C   -0.485608  -9.887302  -2.011902   1.023512  -0.700923   0.126190
     8  N   -0.347119   2.016607   0.634808  -0.127555   0.134834  -0.251534
     9  C    0.000472  -0.451688  -0.206866   0.049894  -0.012064  -0.064224
    10  C    0.001130   0.386492  -0.059058   0.022031   0.019668  -0.026768
    11  C   -0.358904   0.180453  -0.944096   0.029578  -0.107900   0.045321
    12  O    0.037849  -0.141478   0.049689  -0.197346   0.014288  -0.023814
    13  O   -0.007617   0.025331  -0.044662  -0.000913   0.018392  -0.007874
    14  O   -0.012148  -0.042684  -0.079502   0.005111  -0.014467   0.010456
    15  H    0.022593  -0.169229  -0.024509   0.002634   0.000608  -0.002443
    16  H    0.003745   0.038900   0.027657  -0.002724   0.002934  -0.003927
    17  H    0.002908  -0.121096  -0.027295   0.005231  -0.001492   0.000172
    18  H   -0.081850   0.440670   0.276182  -0.014587  -0.003578   0.005315
    19  H    0.073660   0.038449  -0.171418   0.018257   0.019243  -0.026572
    20  H    0.020614   0.118187   0.025313  -0.000167  -0.001935   0.001778
    21  H    0.015826   1.147037  -0.296862   0.002385   0.042090  -0.003880
    22  H   -0.215582  -1.140529  -0.645032  -0.031058  -0.302231   0.150623
    23  H    0.239637   0.008256   0.146754  -0.143303  -0.596906   0.146274
    24  H    0.699874  -0.059221  -0.185400  -0.014212   0.392806  -1.184862
    25  H   -2.736609   1.339027   0.326767  -0.089406  -0.231979   0.820717
    26  C   -0.255285   0.790001   0.062807  -0.062460  -0.009068   0.041009
    27  H   -0.056902  -0.566877   0.724288   0.048030  -0.660851  -0.008062
    28  H    0.031977  -0.168885  -0.090719   0.025157  -0.004338   0.005978
    29  H   -0.000776   0.010578   0.018288  -0.003033   0.000660  -0.000278
    30  H   -0.010449   0.012893  -0.043139   0.022297  -0.008943   0.013029
    31  H    0.011540  -0.009901   0.024252  -0.025200  -0.011429  -0.001899
    32  H   -0.001132   0.003266  -0.002472   0.007863   0.001750  -0.001705
    33  H   -0.008312  -0.001145   0.002398   0.000604   0.001469   0.003097
    34  O   -0.000659   0.003362  -0.003172   0.003241   0.002379   0.001646
    35  H   -0.000195   0.000067   0.001187  -0.000113  -0.001490   0.000143
    36  H   -0.000219   0.000233  -0.001649   0.000365   0.000248   0.000131
    37  H   -0.016071   0.028057  -0.082404  -0.000775  -0.004228   0.010320
    38  H   -0.019133  -0.048598   0.121503  -0.001521  -0.042448   0.065011
    39  H    0.006931   0.181370   0.027068  -0.006485   0.017812  -0.018981
    40  O    0.000470   0.000751  -0.000593   0.000392   0.000092  -0.000177
    41  H    0.000014   0.000113  -0.000867   0.000317   0.000010   0.000010
    42  H    0.000093  -0.000024   0.000050  -0.000030  -0.000032  -0.000003
               7          8          9         10         11         12
     1  C   -0.485608  -0.347119   0.000472   0.001130  -0.358904   0.037849
     2  C   -9.887302   2.016607  -0.451688   0.386492   0.180453  -0.141478
     3  C   -2.011902   0.634808  -0.206866  -0.059058  -0.944096   0.049689
     4  N    1.023512  -0.127555   0.049894   0.022031   0.029578  -0.197346
     5  C   -0.700923   0.134834  -0.012064   0.019668  -0.107900   0.014288
     6  C    0.126190  -0.251534  -0.064224  -0.026768   0.045321  -0.023814
     7  C   27.652046  -6.438968  -0.244938  -0.059458  -1.166516   0.012326
     8  N   -6.438968  15.453286  -0.152663  -0.348585  -0.949963  -0.000131
     9  C   -0.244938  -0.152663   5.865646   0.032975   0.740759   0.000317
    10  C   -0.059458  -0.348585   0.032975   6.245498  -0.943595  -0.001544
    11  C   -1.166516  -0.949963   0.740759  -0.943595   8.479902  -0.004913
    12  O    0.012326  -0.000131   0.000317  -0.001544  -0.004913   8.103003
    13  O    0.003358   0.001442   0.002462   0.000825  -0.003850  -0.065996
    14  O    0.081748  -0.075709   0.037982  -0.016645   0.033158   0.005631
    15  H    0.627874  -1.121717  -0.156720   0.133836   0.078057  -0.000061
    16  H   -0.128249  -0.123509   0.160994  -0.228906   0.234453  -0.000089
    17  H    0.260694   0.117369  -0.038502  -0.399180   0.248703  -0.000208
    18  H   -0.041589   0.443147  -0.214107   0.174957  -1.112674   0.000188
    19  H   -0.178674  -0.115466   0.032703   0.332087  -0.131916  -0.001883
    20  H    0.113170  -0.257629  -0.311406   0.006256   0.014319   0.000047
    21  H   -2.794225  -0.381057  -0.005947  -0.058227   0.740643   0.000443
    22  H    0.078255  -0.144931   0.034427  -0.029259   0.045114   0.042998
    23  H   -0.017952   0.008382  -0.000151   0.000886   0.007953   0.012402
    24  H    0.098183  -0.001992   0.000295   0.000069  -0.005446  -0.000240
    25  H   -0.314971   0.031783  -0.013991  -0.007586  -0.013234   0.000210
    26  C   -1.393286   1.229433  -0.268096  -0.017501  -0.186006   0.000544
    27  H   -0.026353  -0.019075  -0.012608  -0.002753  -0.055340   0.011753
    28  H    0.542191  -0.244896  -0.117129   0.013983  -0.019222  -0.000900
    29  H   -0.037718  -0.023858   0.021262  -0.007300   0.018038   0.001306
    30  H    0.015882  -0.005163  -0.000200  -0.000155  -0.000308   0.310386
    31  H   -0.002814   0.002495   0.000744  -0.000228   0.002264   0.354991
    32  H   -0.012424   0.012580  -0.000586  -0.001170  -0.001335   0.004809
    33  H    0.054248  -0.056331   0.003798   0.011105   0.006271  -0.010426
    34  O    0.000048  -0.000017   0.000006   0.000026   0.000048  -0.057544
    35  H    0.000040  -0.000038  -0.000001   0.000003  -0.000007   0.000810
    36  H    0.000023   0.000021  -0.000013   0.000013  -0.000029   0.004030
    37  H    0.158985  -0.236424  -0.005964   0.072486  -0.067655  -0.000005
    38  H   -0.007605   0.101322  -0.084940  -0.043327   0.077521   0.000422
    39  H   -0.299872  -0.520285   0.114936  -0.005555   0.049163  -0.000031
    40  O    0.000218   0.000033   0.000040   0.000036  -0.000000  -0.000709
    41  H    0.000433  -0.000085   0.000039   0.000013   0.000007   0.000006
    42  H    0.000017  -0.000035  -0.000027   0.000005   0.000011   0.000050
              13         14         15         16         17         18
     1  C   -0.007617  -0.012148   0.022593   0.003745   0.002908  -0.081850
     2  C    0.025331  -0.042684  -0.169229   0.038900  -0.121096   0.440670
     3  C   -0.044662  -0.079502  -0.024509   0.027657  -0.027295   0.276182
     4  N   -0.000913   0.005111   0.002634  -0.002724   0.005231  -0.014587
     5  C    0.018392  -0.014467   0.000608   0.002934  -0.001492  -0.003578
     6  C   -0.007874   0.010456  -0.002443  -0.003927   0.000172   0.005315
     7  C    0.003358   0.081748   0.627874  -0.128249   0.260694  -0.041589
     8  N    0.001442  -0.075709  -1.121717  -0.123509   0.117369   0.443147
     9  C    0.002462   0.037982  -0.156720   0.160994  -0.038502  -0.214107
    10  C    0.000825  -0.016645   0.133836  -0.228906  -0.399180   0.174957
    11  C   -0.003850   0.033158   0.078057   0.234453   0.248703  -1.112674
    12  O   -0.065996   0.005631  -0.000061  -0.000089  -0.000208   0.000188
    13  O    7.861282  -0.043639  -0.000289  -0.000063   0.000591  -0.000022
    14  O   -0.043639   7.992216   0.027353  -0.004502   0.010679   0.002240
    15  H   -0.000289   0.027353   2.905676   0.129144  -0.319114  -0.041377
    16  H   -0.000063  -0.004502   0.129144   2.101663  -0.615165  -0.313592
    17  H    0.000591   0.010679  -0.319114  -0.615165   2.234170   0.181467
    18  H   -0.000022   0.002240  -0.041377  -0.313592   0.181467   2.621314
    19  H   -0.001301  -0.020910   0.055431   0.204491  -0.438996  -0.676523
    20  H   -0.000110   0.003217  -0.573532  -0.251786   0.194299   0.061246
    21  H    0.000165  -0.001755   0.093185   0.064442  -0.059632  -0.344872
    22  H    0.020880   0.055054  -0.026392  -0.007124   0.026830   0.077236
    23  H    0.000622  -0.000617   0.000080   0.000148  -0.000129   0.000401
    24  H   -0.000035   0.000287   0.000057  -0.000142   0.000083  -0.001574
    25  H   -0.000296  -0.001169  -0.002635   0.003194  -0.001611   0.011136
    26  C    0.003626  -0.009764  -0.173444  -0.019590   0.013285   0.081098
    27  H   -0.009234  -0.001314  -0.000863  -0.000453   0.001058   0.002257
    28  H    0.001468   0.097712   0.064896  -0.001467   0.011796  -0.020103
    29  H    0.008766   0.374588   0.000219   0.001047  -0.000274   0.001220
    30  H    0.057047  -0.001695   0.000702   0.000112  -0.000488  -0.000389
    31  H   -0.007456   0.000599  -0.000027  -0.000036   0.000025   0.000056
    32  H    0.305208  -0.001487  -0.002032  -0.000098   0.000457   0.000247
    33  H    0.329303   0.028521   0.007525   0.000217  -0.001111  -0.001603
    34  O   -0.000234   0.000078   0.000001   0.000003  -0.000021  -0.000019
    35  H    0.000038  -0.000013  -0.000000   0.000001  -0.000000  -0.000000
    36  H   -0.000020  -0.000007   0.000001   0.000001  -0.000006  -0.000011
    37  H    0.003758   0.002241  -0.006874  -0.005241   0.013352   0.002872
    38  H   -0.007415   0.012967   0.009114   0.000527  -0.007119  -0.002453
    39  H   -0.000224  -0.005876   0.030600   0.006663  -0.006466   0.007807
    40  O   -0.052779   0.000762   0.000146   0.000004  -0.000032  -0.000001
    41  H    0.001449  -0.000067   0.000046   0.000002  -0.000007  -0.000002
    42  H    0.004150   0.000208  -0.000003   0.000001  -0.000007  -0.000000
              19         20         21         22         23         24
     1  C    0.073660   0.020614   0.015826  -0.215582   0.239637   0.699874
     2  C    0.038449   0.118187   1.147037  -1.140529   0.008256  -0.059221
     3  C   -0.171418   0.025313  -0.296862  -0.645032   0.146754  -0.185400
     4  N    0.018257  -0.000167   0.002385  -0.031058  -0.143303  -0.014212
     5  C    0.019243  -0.001935   0.042090  -0.302231  -0.596906   0.392806
     6  C   -0.026572   0.001778  -0.003880   0.150623   0.146274  -1.184862
     7  C   -0.178674   0.113170  -2.794225   0.078255  -0.017952   0.098183
     8  N   -0.115466  -0.257629  -0.381057  -0.144931   0.008382  -0.001992
     9  C    0.032703  -0.311406  -0.005947   0.034427  -0.000151   0.000295
    10  C    0.332087   0.006256  -0.058227  -0.029259   0.000886   0.000069
    11  C   -0.131916   0.014319   0.740643   0.045114   0.007953  -0.005446
    12  O   -0.001883   0.000047   0.000443   0.042998   0.012402  -0.000240
    13  O   -0.001301  -0.000110   0.000165   0.020880   0.000622  -0.000035
    14  O   -0.020910   0.003217  -0.001755   0.055054  -0.000617   0.000287
    15  H    0.055431  -0.573532   0.093185  -0.026392   0.000080   0.000057
    16  H    0.204491  -0.251786   0.064442  -0.007124   0.000148  -0.000142
    17  H   -0.438996   0.194299  -0.059632   0.026830  -0.000129   0.000083
    18  H   -0.676523   0.061246  -0.344872   0.077236   0.000401  -0.001574
    19  H    2.317467  -0.059539   0.224650  -0.192829   0.001494  -0.000133
    20  H   -0.059539   2.499271  -0.095500   0.012837  -0.000066  -0.000105
    21  H    0.224650  -0.095500   3.672198  -0.044861   0.001744   0.000524
    22  H   -0.192829   0.012837  -0.044861   4.581668   0.003445  -0.007425
    23  H    0.001494  -0.000066   0.001744   0.003445   2.157916  -0.105426
    24  H   -0.000133  -0.000105   0.000524  -0.007425  -0.105426   2.066377
    25  H    0.001013   0.000296  -0.172744  -0.009046  -0.010592  -0.127724
    26  C   -0.036394  -0.028556  -0.034591   0.054537   0.002596  -0.005622
    27  H   -0.014726   0.000612  -0.001928  -0.015935  -0.233281   0.009544
    28  H    0.018560   0.018698   0.007749  -0.073020   0.000675   0.000169
    29  H    0.006693  -0.000039   0.000470   0.000352  -0.000089  -0.000027
    30  H    0.001569  -0.000280   0.000929  -0.002405   0.002292  -0.000538
    31  H    0.000783   0.000048  -0.000196   0.001553   0.005665   0.000116
    32  H   -0.001228   0.000158  -0.001060   0.004803   0.000334   0.000033
    33  H    0.003623   0.000022   0.003801  -0.035688  -0.001162   0.000406
    34  O    0.000386   0.000000  -0.000016  -0.001257   0.001029   0.000007
    35  H   -0.000038  -0.000000   0.000000   0.000967  -0.000194   0.000007
    36  H    0.000091  -0.000001   0.000003  -0.001235  -0.000057   0.000001
    37  H   -0.007414   0.011685   0.013030   0.003294   0.000167  -0.000606
    38  H    0.009900   0.003205   0.024728  -0.002333  -0.001920  -0.000014
    39  H    0.004258   0.035426   0.098907   0.003582   0.000520  -0.000400
    40  O    0.000086  -0.000016  -0.000005  -0.001160   0.000016  -0.000001
    41  H    0.000018  -0.000005   0.000024  -0.000304  -0.000020   0.000003
    42  H    0.000010   0.000000  -0.000001   0.000186  -0.000014   0.000000
              25         26         27         28         29         30
     1  C   -2.736609  -0.255285  -0.056902   0.031977  -0.000776  -0.010449
     2  C    1.339027   0.790001  -0.566877  -0.168885   0.010578   0.012893
     3  C    0.326767   0.062807   0.724288  -0.090719   0.018288  -0.043139
     4  N   -0.089406  -0.062460   0.048030   0.025157  -0.003033   0.022297
     5  C   -0.231979  -0.009068  -0.660851  -0.004338   0.000660  -0.008943
     6  C    0.820717   0.041009  -0.008062   0.005978  -0.000278   0.013029
     7  C   -0.314971  -1.393286  -0.026353   0.542191  -0.037718   0.015882
     8  N    0.031783   1.229433  -0.019075  -0.244896  -0.023858  -0.005163
     9  C   -0.013991  -0.268096  -0.012608  -0.117129   0.021262  -0.000200
    10  C   -0.007586  -0.017501  -0.002753   0.013983  -0.007300  -0.000155
    11  C   -0.013234  -0.186006  -0.055340  -0.019222   0.018038  -0.000308
    12  O    0.000210   0.000544   0.011753  -0.000900   0.001306   0.310386
    13  O   -0.000296   0.003626  -0.009234   0.001468   0.008766   0.057047
    14  O   -0.001169  -0.009764  -0.001314   0.097712   0.374588  -0.001695
    15  H   -0.002635  -0.173444  -0.000863   0.064896   0.000219   0.000702
    16  H    0.003194  -0.019590  -0.000453  -0.001467   0.001047   0.000112
    17  H   -0.001611   0.013285   0.001058   0.011796  -0.000274  -0.000488
    18  H    0.011136   0.081098   0.002257  -0.020103   0.001220  -0.000389
    19  H    0.001013  -0.036394  -0.014726   0.018560   0.006693   0.001569
    20  H    0.000296  -0.028556   0.000612   0.018698  -0.000039  -0.000280
    21  H   -0.172744  -0.034591  -0.001928   0.007749   0.000470   0.000929
    22  H   -0.009046   0.054537  -0.015935  -0.073020   0.000352  -0.002405
    23  H   -0.010592   0.002596  -0.233281   0.000675  -0.000089   0.002292
    24  H   -0.127724  -0.005622   0.009544   0.000169  -0.000027  -0.000538
    25  H    3.067235   0.033973   0.009523  -0.004889   0.000323  -0.000564
    26  C    0.033973   4.892049  -0.000355  -0.133130   0.016826  -0.000901
    27  H    0.009523  -0.000355   1.768837  -0.001733   0.000983  -0.017991
    28  H   -0.004889  -0.133130  -0.001733   0.676080  -0.184903   0.004462
    29  H    0.000323   0.016826   0.000983  -0.184903   0.624089  -0.000602
    30  H   -0.000564  -0.000901  -0.017991   0.004462  -0.000602   0.628627
    31  H    0.000062  -0.000044  -0.000664  -0.001209   0.000164  -0.174173
    32  H    0.000414   0.001815   0.003622   0.002048  -0.001351  -0.011574
    33  H   -0.001454  -0.022898  -0.002265  -0.001537  -0.002125  -0.005240
    34  O   -0.000005  -0.000010  -0.001812   0.000194   0.000009  -0.005677
    35  H   -0.000003  -0.000011   0.002479   0.000019  -0.000020  -0.001670
    36  H   -0.000003   0.000013   0.003028   0.000020   0.000020  -0.002068
    37  H    0.000579   0.199573  -0.000292   0.042275   0.000028   0.000471
    38  H    0.001225   0.061274  -0.001957   0.003206  -0.002045   0.000282
    39  H    0.006481   0.236286   0.001115  -0.037859   0.006101  -0.000099
    40  O    0.000017   0.000329   0.001885  -0.001519   0.000085  -0.002415
    41  H   -0.000008  -0.000218   0.000290  -0.000052  -0.000083  -0.001323
    42  H    0.000002   0.000021   0.000120   0.000152   0.000034  -0.002123
              31         32         33         34         35         36
     1  C    0.011540  -0.001132  -0.008312  -0.000659  -0.000195  -0.000219
     2  C   -0.009901   0.003266  -0.001145   0.003362   0.000067   0.000233
     3  C    0.024252  -0.002472   0.002398  -0.003172   0.001187  -0.001649
     4  N   -0.025200   0.007863   0.000604   0.003241  -0.000113   0.000365
     5  C   -0.011429   0.001750   0.001469   0.002379  -0.001490   0.000248
     6  C   -0.001899  -0.001705   0.003097   0.001646   0.000143   0.000131
     7  C   -0.002814  -0.012424   0.054248   0.000048   0.000040   0.000023
     8  N    0.002495   0.012580  -0.056331  -0.000017  -0.000038   0.000021
     9  C    0.000744  -0.000586   0.003798   0.000006  -0.000001  -0.000013
    10  C   -0.000228  -0.001170   0.011105   0.000026   0.000003   0.000013
    11  C    0.002264  -0.001335   0.006271   0.000048  -0.000007  -0.000029
    12  O    0.354991   0.004809  -0.010426  -0.057544   0.000810   0.004030
    13  O   -0.007456   0.305208   0.329303  -0.000234   0.000038  -0.000020
    14  O    0.000599  -0.001487   0.028521   0.000078  -0.000013  -0.000007
    15  H   -0.000027  -0.002032   0.007525   0.000001  -0.000000   0.000001
[...]
 .00015857,-0.00013923,-0.00002445,0.00007006,-0.00014585,-0.00014838,-
 0.00045978,0.00016539,0.00004610,-0.00006924,0.00027791,0.00009536,-0.
 00014383,0.00001591,-0.00055725,0.00000175,-0.00001235,-0.00019928,-0.
 00002892,-0.00005026,0.00006201,-0.00005953,-0.00004683,-0.00002927,0.
 00009538,-0.00021020,-0.00001414,-0.00005544,-0.00026778,-0.00020260,0
 .00003778,0.00012659,-0.00005754,-0.00000958,-0.00000107,0.00000145,0.
 00000484,0.00000755,-0.00000044,-0.00000183,0.00001516,-0.00000376,0.0
 6686961,0.03391834,-0.07395262,-0.00028078,0.00020013,0.00001693,0.000
 77748,-0.00039489,-0.00007911,-0.00000684,0.00000496,-0.00001055,-0.00
 000173,0.00004882,0.00004542,-0.00003964,0.00001491,-0.00004726,0.0000
 2987,-0.00000152,0.00011573,-0.00001970,0.00012662,-0.00002664,0.00002
 246,-0.00001894,0.00002097,-0.00000464,0.00000295,0.00000059,0.0000017
 5,0.00000650,-0.00000194,-0.01348884,-0.00561382,0.00580988,-0.0793306
 5,-0.04391537,0.08867077,-0.00014515,0.00030881,-0.00003369,0.00001874
 ,-0.00022104,-0.00001841,-0.00025989,0.00013421,0.00004096,0.00028356,
 0.00008698,-0.00004431,0.00004090,-0.00011458,0.00003015,-0.00014164,-
 0.00006824,0.00007771,0.00074087,0.00052901,0.00102954,-0.00209669,0.0
 0232871,-0.00762242,0.00278644,-0.00178614,0.00107797,0.00007849,-0.00
 008757,0.00016634,0.00030659,-0.00018227,0.00002293,-0.00007751,-0.000
 09004,-0.00006770,-0.00033392,0.00007052,0.00000632,-0.00070215,0.0006
 4489,-0.00008846,-0.00012986,0.00012983,0.00002175,-0.00001157,0.00001
 945,-0.00007198,-0.00003683,0.00000535,0.00008415,-0.00000354,-0.00000
 493,-0.00009678,-0.00004589,-0.00010779,0.00016346,0.00052096,0.001014
 41,-0.00104410,-0.00024694,-0.00090666,-0.00111377,0.00013768,0.000058
 75,0.00009518,0.00000957,-0.00001096,-0.00000679,-0.00002008,-0.000009
 69,-0.00001369,0.00002481,-0.00010606,-0.00011399,-0.20126112,0.114784
 53,-0.02908933,-0.00002901,0.00006167,0.00001519,0.00110128,-0.0012415
 1,0.00020900,-0.00005038,-0.00006086,0.00002254,0.00012717,0.00009515,
 0.00008697,0.00004269,-0.00001085,0.00002917,0.00006713,-0.00008730,-0
 .00010271,0.00020781,-0.00005775,-0.00003092,-0.00002977,-0.00000496,-
 0.00002319,0.00000807,0.00000593,0.00000241,0.00001133,0.00000297,0.00
 000813,0.00355753,-0.00369813,0.00117113,-0.01811782,0.01674845,-0.003
 99369,0.21368083,0.00009603,0.00002591,0.00005495,0.00000088,-0.000157
 70,0.00011245,-0.00007332,-0.00008111,0.00003248,0.00012940,0.00008772
 ,-0.00001997,0.00003504,-0.00002679,0.00001315,-0.00002369,0.00000524,
 -0.00001158,-0.00248381,0.00185868,-0.00114562,0.00531515,-0.00459344,
 0.00811567,0.00208930,0.00031755,-0.00061833,-0.00032949,0.00022575,-0
 .00006585,-0.00012341,0.00005665,-0.00022203,0.00006824,0.00001108,0.0
 0000644,0.00011645,0.00009613,-0.00009586,0.00064816,-0.00053782,0.000
 11216,0.00002834,-0.00010295,-0.00012907,-0.00002515,0.00003066,0.0001
 1423,-0.00009112,-0.00002867,-0.00016696,0.00000767,-0.00001605,0.0000
 5874,0.00001357,-0.00003390,-0.00010605,-0.00093271,-0.00021932,0.0004
 5480,0.00047711,0.00074261,0.00112016,-0.00006231,-0.00005128,0.000018
 84,0.00000009,0.00000192,-0.00000157,0.00000774,0.00000309,-0.00000084
 ,-0.00000108,-0.00001020,0.00001327,0.11393843,-0.13704055,0.02196324,
 -0.00004233,0.00003021,0.00001972,-0.00099444,0.00101102,-0.00011120,0
 .00005445,0.00005152,-0.00010535,-0.00004619,-0.00003522,-0.00001245,-
 0.00002765,0.00000447,-0.00001927,-0.00002989,0.00001152,0.00004581,-0
 .00019267,-0.00008213,0.00011737,0.00002174,0.00000184,0.00001230,-0.0
 0000605,-0.00000315,-0.00000068,-0.00000952,-0.00000115,-0.00000463,0.
 02196803,-0.01430711,0.00476157,-0.01132778,0.00880355,-0.00296125,-0.
 12820618,0.14396333,-0.00014662,-0.00005475,0.00001891,0.00029592,-0.0
 0034588,-0.00012682,0.00003564,0.00016862,-0.00001244,-0.00000284,-0.0
 0010776,0.00002274,-0.00005072,-0.00001556,-0.00003035,0.00002570,-0.0
 0002767,0.00002287,-0.00185963,0.00516860,0.00249089,-0.02857537,0.024
 22763,-0.02258286,-0.00495204,-0.00083782,0.00157114,0.00030046,-0.000
 36512,0.00035390,0.00048923,-0.00022690,0.00022737,0.00002560,0.000020
 79,0.00005707,0.00011642,-0.00012204,0.00023815,-0.00141444,0.00118907
 ,0.00044310,0.00045913,-0.00000446,-0.00011503,0.00004301,-0.00007575,
 -0.00007824,0.00003107,-0.00004524,0.00018332,0.00012549,-0.00004737,-
 0.00009439,0.00007007,-0.00007848,0.00021090,0.00159817,-0.00069408,0.
 00051211,0.00130475,-0.00137436,0.00036229,0.00011353,0.00003883,-0.00
 004344,0.00000068,-0.00000809,0.00000385,-0.00000493,-0.00000503,-0.00
 000237,-0.00000872,-0.00002573,-0.00000071,-0.02800573,0.02118259,-0.0
 5430576,0.00000850,-0.00000393,-0.00001987,0.00183204,-0.00176439,-0.0
 0098490,-0.00008917,-0.00000759,-0.00004729,-0.00005151,-0.00003777,-0
 .00006109,-0.00001045,0.00000960,-0.00002165,-0.00007556,0.00002916,-0
 .00001517,0.00008135,0.00014984,-0.00029860,0.00000224,-0.00000377,0.0
 0001586,-0.00000055,-0.00000044,-0.00000318,0.00000572,0.00000063,-0.0
 0000402,0.01225106,-0.00777734,0.00328540,0.00684125,-0.00678649,0.002
 20563,0.03917831,-0.03133378,0.06661167,-0.00001478,-0.00004617,0.0000
 0945,-0.00005288,0.00003533,0.00001234,-0.00000308,-0.00007406,0.00001
 143,0.00017681,-0.00013694,0.00000914,-0.00004565,0.00007409,-0.000019
 00,0.00008235,-0.00000870,-0.00000263,-0.00005577,-0.00012953,-0.00006
 302,-0.00004726,0.00011472,0.00011452,0.00005469,-0.00001169,-0.000005
 29,0.00000159,0.00000106,-0.00001384,0.00000403,0.00001949,0.00002028,
 0.00078042,0.00003479,-0.00001272,0.00296885,0.00171888,0.00411157,0.0
 0003644,0.00014404,0.00032474,0.00001408,0.00002797,-0.00000777,-0.000
 00437,0.00000810,0.00001116,0.00000689,0.00000010,-0.00000530,-0.00000
 586,0.00000888,0.00001307,0.00000858,-0.00000892,0.00000233,-0.0000058
 6,0.00000832,-0.00000346,-0.00000114,0.00002813,0.00000203,-0.00003164
 ,-0.00005115,-0.00004213,-0.00001474,0.00001305,0.00000559,0.,-0.00000
 081,-0.00000314,0.00000043,-0.00001051,-0.00000699,0.00000674,-0.00006
 234,-0.00012660,-0.00039298,0.00024485,0.00002359,0.00007032,-0.000113
 74,-0.00010942,-0.00002234,0.00000390,-0.00017690,-0.00089468,-0.00025
 237,-0.00002074,-0.00012743,0.00010499,0.00005534,-0.00473918,0.001597
 28,-0.00245316,-0.00007005,-0.00016054,-0.00028289,0.00007999,-0.00008
 114,-0.00013450,0.00000126,0.00003889,0.00009618,-0.00003386,0.0000152
 6,0.00007877,0.00010089,0.00005062,-0.00001079,-0.00000901,-0.00008349
 ,-0.00003246,-0.00002184,0.00002328,0.00004933,0.29782274,0.00001441,0
 .00005752,0.00000377,-0.00004967,-0.00013181,0.00002784,-0.00013768,0.
 00003964,0.00003338,0.00028075,-0.00015976,-0.00006320,0.00004046,0.00
 013845,0.00000034,0.00001716,-0.00000918,-0.00000508,-0.00008317,0.000
 00800,-0.00001053,0.00020405,0.00002766,-0.00005085,-0.00012355,-0.000
 10539,0.00002726,0.00001005,-0.00000644,-0.00002149,0.00000469,0.00002
 267,0.00003361,-0.00051957,-0.00060540,-0.00091898,0.00188441,0.000483
 34,-0.00825798,0.00057524,0.00050957,-0.00043202,-0.00000204,0.0000224
 4,0.00000437,0.00001847,-0.00000116,-0.00001021,-0.00001074,0.00000971
 ,0.00000098,0.00000820,-0.00000232,-0.00000096,0.00000446,-0.00000265,
 0.00002049,0.00003147,-0.00000387,-0.00000028,0.00002306,-0.00000460,0
 .00000257,-0.00010456,0.00000987,0.00012540,0.00000265,0.00002697,0.00
 002823,0.00000569,0.00000617,0.00000886,0.00000292,-0.00000591,0.00000
 686,-0.00012196,-0.00007245,0.00002549,-0.00038930,0.00042844,0.000183
 29,-0.00009401,0.00003512,0.00003464,0.00018001,-0.00021732,-0.0001633
 6,0.00099753,0.00070089,0.00099794,0.00031314,-0.00022699,0.00033524,0
 .00014516,-0.00715679,0.00310573,-0.00118908,-0.00177420,-0.00010179,-
 0.00014735,0.00013041,-0.00020303,0.00002576,-0.00002107,0.00003132,-0
 .00000971,-0.00005937,0.00000837,-0.00003772,-0.00001289,0.00000378,0.
 00000845,0.00009346,0.00000555,0.00004534,-0.00000679,-0.00002828,-0.3
 0195727,0.37598658,0.00006151,0.00011153,0.00000099,0.00000673,-0.0002
 3862,0.00003706,-0.00023943,0.00016984,-0.00000344,0.00041251,-0.00023
 540,-0.00004058,0.00010506,0.00013848,-0.00002401,-0.00004881,-0.00004
 399,0.00002200,-0.00008663,0.00003655,0.00002877,0.00033421,-0.0002148
 4,0.00008152,-0.00013489,-0.00003440,0.00005492,-0.00001608,0.00001566
 ,-0.00002049,-0.00001719,0.00003621,0.00002266,-0.00075215,-0.00114876
 ,-0.00092597,0.00423702,-0.00748233,-0.00864151,0.00113052,-0.00010626
 ,-0.00058191,-0.00002838,0.00001829,-0.00001221,0.00002441,-0.00001237
 ,-0.00000194,-0.00001504,-0.00000898,0.00003026,0.00001579,-0.00001360
 ,0.00000424,0.00001417,0.00001035,0.00003370,0.00005388,-0.00002921,-0
 .00000128,0.00004247,-0.00003803,-0.00000443,-0.00012499,0.00013036,0.
 00015593,-0.00000669,0.00001739,-0.00000868,0.00001009,-0.00000400,-0.
 00000856,0.00000878,-0.00000986,-0.00000620,-0.00006641,-0.00000592,-0
 .00015750,-0.00058658,0.00069850,0.00016011,-0.00049224,0.00048914,-0.
 00009437,-0.00004769,-0.00005246,0.00001895,0.00157976,0.00130444,0.00
 114589,0.00030410,-0.00012353,0.00030825,-0.00411618,0.00146310,-0.004
 39535,-0.00169413,-0.00122198,0.00049624,-0.00021263,-0.00004318,-0.00
 025423,0.00006728,0.00004904,0.00002409,0.00004496,0.00002570,0.000098
 72,-0.00000376,0.00003759,-0.00003478,-0.00003006,0.00002294,-0.000053
 09,0.00006230,-0.00003236,0.00000500,-0.00975470,-0.15837719,0.5311069
 4,-0.00000094,0.00001128,-0.00000559,0.00002868,0.00001513,-0.00001209
 ,0.00002879,0.00000578,0.00000005,-0.00011923,0.00008502,0.00000271,0.
 00001805,-0.00004991,0.00000943,-0.00003701,0.00001121,-0.00000120,0.0
 0004297,0.00006826,0.00002574,-0.00002818,-0.00001266,-0.00009727,-0.0
 0001579,-0.00000512,-0.00001023,0.00000374,-0.00000349,0.00000993,-0.0
 0000028,-0.00001667,-0.00001358,-0.00013333,0.00012160,0.00015748,-0.0
 0045674,0.00079048,0.00052081,-0.00019912,0.00003265,-0.00003762,0.000
 00071,-0.00001506,0.00000810,-0.00000077,-0.00000207,-0.00000737,-0.00
 000189,0.00000247,-0.00000515,0.00000034,-0.00000204,-0.00000902,-0.00
 000744,0.00000217,-0.00000733,-0.00000582,0.00000274,0.00000312,-0.000
 00586,-0.00000681,0.00000175,0.00003042,-0.00000345,-0.00000200,0.0000
 0798,-0.00000716,-0.00000462,-0.00000004,0.00000122,0.00000282,-0.0000
 0154,0.00000822,0.00000531,-0.00000460,0.00003038,0.00011151,0.0002267
 1,-0.00018042,-0.00003344,0.00007693,-0.00006059,0.00007780,0.00003229
 ,-0.00001123,0.00003127,0.00001407,-0.00002346,-0.00013883,0.00000442,
 0.00001078,-0.00004388,0.00030672,-0.00150338,-0.00094150,0.00031885,-
 0.00010400,-0.00010746,-0.00000988,0.00000677,0.00006244,0.00000066,-0
 .00000783,-0.00003495,0.00001114,0.00000015,-0.00002310,-0.00006052,-0
 .00004802,0.00002319,0.00001791,0.00005530,0.00003551,0.00000436,-0.00
 000529,-0.00003149,-0.02453498,0.02425436,0.00543311,0.02721209,0.0000
 1997,0.00000998,-0.00000381,0.00003082,-0.00001653,-0.00000248,-0.0000
 1154,0.00004383,-0.00002050,0.00000483,0.00000416,0.00001590,0.0000179
 3,-0.00002727,-0.00000815,-0.00002851,-0.00001465,0.00001428,0.0000175
 8,0.00000702,0.00001230,-0.00001825,-0.00007723,0.00004670,0.00002567,
 0.00004111,0.00000500,-0.00000847,0.00000395,0.00000680,-0.00000615,-0
 .00000294,-0.00001130,-0.00007851,-0.00015943,0.00006334,0.00073691,-0
 .00235479,-0.00145080,0.00009698,-0.00012906,-0.00004551,-0.00000478,-
 0.00000820,-0.00000373,-0.00000250,-0.00000251,0.00000458,0.00000059,-
 0.00000641,0.00000622,0.00000030,-0.00000194,0.00000181,0.00000053,0.0
 0000328,0.00000005,-0.00000143,-0.00000300,-0.00000137,0.00000108,-0.0
 0000778,-0.00000370,-0.00000204,0.00003634,0.00000419,-0.00000533,-0.0
 0000926,-0.00002235,0.00000126,-0.00000633,-0.00000976,0.00000187,-0.0
 0000130,-0.00000556,0.00005504,0.00005064,-0.00004971,-0.00001971,0.00
 004538,-0.00003756,-0.00007632,0.00011113,-0.00002014,-0.00001905,0.00
 003424,0.00003584,0.00018970,0.00018686,-0.00000557,-0.00003524,0.0000
 2995,-0.00004278,-0.00143594,0.00402937,0.00115696,-0.00002242,-0.0000
 2614,0.00007030,0.00000506,-0.00004129,0.00002237,0.00000172,0.0000158
 4,-0.00001065,0.00000852,0.00001785,0.00000805,0.00000979,0.00001313,-
 0.00000637,-0.00001759,-0.00003330,-0.00002740,-0.00000493,-0.00000781
 ,0.00001157,0.03806304,-0.09636069,0.15656911,-0.03767053,0.10649353,-
 0.00000168,-0.00001928,0.00000237,-0.00000769,0.00003340,-0.00000639,0
 .00004389,-0.00000241,-0.00000333,-0.00008374,0.00005565,0.00001369,-0
 .00001066,-0.00003205,0.00000095,0.00000087,0.00000069,-0.00000084,0.0
 0001455,-0.00001844,-0.00000713,-0.00006887,0.00003682,0.00000279,0.00
 003371,0.00000629,-0.00000755,0.00000182,-0.00000202,0.00000304,0.0000
 0177,-0.00000460,-0.00000380,-0.00003518,0.00012891,0.00015984,-0.0000
 4705,-0.00076992,0.00037611,-0.00011356,0.00004370,0.00010117,0.000005
 92,-0.00000128,0.00000064,-0.00000492,0.00000197,0.00000279,0.00000262
 ,0.00000060,-0.00000456,-0.00000234,0.00000283,0.00000139,-0.00000229,
 -0.00000176,-0.00000468,-0.00001050,0.00000779,-0.00000051,-0.00000858
 ,0.00000801,-0.00000014,0.00000976,-0.00001714,-0.00001592,0.00000129,
 -0.00000840,-0.00000301,-0.00000086,-0.00000023,0.00000115,-0.00000239
 ,-0.00000086,0.00000086,0.00002380,0.00000145,-0.00000030,0.00013433,-
 0.00011718,-0.00003508,0.00007272,-0.00006911,-0.00001297,0.00001086,0
 .00000279,-0.00002263,0.00000068,-0.00008759,-0.00017969,-0.00004493,0
 .00000339,-0.00006143,0.00003280,0.00198634,-0.00155778,0.00009449,0.0
 0001492,-0.00006250,0.00002606,0.00001527,0.00006548,-0.00001225,-0.00
 001391,-0.00002151,-0.00000249,-0.00000586,-0.00002542,0.00002433,0.00
 000029,0.00000691,0.00000454,-0.00002951,0.00000003,-0.00002187,0.0000
 1223,0.00001486,-0.03468841,0.19519948,-0.47035131,0.02778919,-0.18998
 881,0.47177555,0.00000460,0.00001357,-0.00000339,0.00001846,-0.0000120
 6,-0.00000453,0.00000018,0.00002958,-0.00000514,-0.00007683,0.00005351
 ,-0.00000268,0.00001287,-0.00002759,0.00000601,-0.00002937,0.00000346,
 0.00000082,0.00001755,0.00003846,0.00002439,0.00001852,-0.00005332,-0.
 00002200,-0.00001030,0.00001514,0.00000389,-0.00000334,0.00000187,0.00
 000447,-0.00000005,-0.00000454,-0.00000635,-0.00027598,0.00004776,0.00
 000524,0.00013570,-0.00046130,-0.00100882,0.00004512,-0.00013029,-0.00
 009340,-0.00000517,-0.00000841,-0.00000053,0.00000143,-0.00000327,-0.0
 0000186,-0.00000173,-0.00000122,0.00000472,0.00000220,-0.00000433,-0.0
 0000329,-0.00000305,0.00000390,0.00000052,0.00000158,-0.00000424,0.000
 00020,0.00000081,-0.00001054,-0.00000200,0.00001578,0.00002532,0.00001
 221,0.00000676,-0.00000458,0.00000080,-0.00000018,0.00000035,0.0000016
 7,0.00000040,0.00000310,0.00000229,-0.00000098,0.00001712,0.00001672,0
 .00016404,-0.00011217,-0.00000861,-0.00005424,0.00007172,0.00000404,-0
 .00002620,0.00004126,0.00008555,0.00025608,0.00004509,0.00005243,0.000
 08011,-0.00004455,-0.00001619,-0.00050094,0.00032925,0.00144722,-0.000
 03496,0.00010876,-0.00008822,-0.00005244,0.00005189,0.00007383,0.00000
 197,-0.00002949,-0.00005396,0.00002473,-0.00000898,-0.00004617,-0.0000
 0998,-0.00000609,-0.00000207,-0.00000168,0.00000748,0.00000452,0.00000
 479,-0.00000503,-0.00000489,-0.27108775,0.27587948,0.00452604,-0.00276
 388,0.00018001,0.00684024,0.27412539,0.00000219,-0.00000645,-0.0000019
 5,0.00001387,0.00002209,-0.00000304,0.00003139,0.00001286,-0.00001002,
 -0.00010745,0.00007420,0.00001755,-0.00000205,-0.00004446,0.00000201,-
 0.00001952,0.00000250,0.00000267,0.00002218,0.00000254,0.00000625,-0.0
 0004419,-0.00001890,0.00002138,0.00003222,0.00002940,-0.00000882,-0.00
 000393,0.00000533,0.00000503,-0.00000214,-0.00000571,-0.00000938,-0.00
 010040,0.00014650,0.00026320,-0.00052408,0.00023590,0.00025181,-0.0000
 8056,-0.00011469,0.00010834,-0.00000055,-0.00000510,-0.00000362,-0.000
 00515,-0.00000020,0.00000302,0.00000362,-0.00000430,0.00000126,-0.0000
 0176,-0.00000013,0.00000056,-0.00000163,0.00000203,-0.00000428,-0.0000
 0737,-0.00000005,0.00000002,-0.00000572,-0.00000091,-0.00000099,0.0000
 2237,0.00000842,-0.00002041,0.00000262,-0.00001025,-0.00001029,-0.0000
 0128,-0.00000185,-0.00000331,-0.00000122,0.00000128,-0.00000256,0.0000
 2252,0.00000928,-0.00001693,0.00019207,-0.00015796,-0.00004774,0.00000
 486,0.00001094,-0.00001802,-0.00003966,0.00006751,0.00001908,0.0000595
 5,-0.00012539,-0.00026332,-0.00005609,0.00003032,-0.00013331,0.0014650
 9,-0.00110504,-0.00001802,0.00010461,0.00013842,-0.00030167,0.00002520
 ,-0.00002911,0.00010682,-0.00000903,0.00000226,-0.00004139,0.00001013,
 0.00002572,-0.00002257,0.00001361,0.00000471,-0.00000452,-0.00000528,-
 0.00002081,-0.00000132,-0.00000652,0.00000270,0.00000893,0.26081032,-0
 .27178985,0.00813304,0.01422325,-0.01187972,-0.00637244,-0.27603610,0.
 28448598,-0.00000230,-0.00000565,0.00000019,-0.00000820,0.00001107,-0.
 00000316,0.00002303,0.00000361,-0.00000136,-0.00008038,0.00006129,-0.0
 0000396,-0.00000518,-0.00001841,0.00000654,-0.00000271,0.00000347,-0.0
 0000215,0.00000631,0.00000276,-0.00000066,-0.00003558,0.00003961,-0.00
 002792,0.00000756,-0.00000762,-0.00000360,0.00000509,-0.00000663,0.000
 00288,0.00000624,-0.00000581,-0.00000017,-0.00028159,0.00009431,-0.000
 06353,-0.00068347,-0.00043573,-0.00281322,-0.00009054,0.00018706,-0.00
 008357,0.00000543,-0.00000364,0.00000376,-0.00000222,0.00000194,-0.000
 00140,0.00000095,0.00000433,-0.00000550,-0.00000115,0.00000181,-0.0000
 0170,-0.00000382,-0.00000242,-0.00000284,-0.00000588,0.00000637,-0.000
 00102,-0.00000499,0.00000513,-0.00000050,0.00000206,-0.00001799,0.0000
 1673,0.00000398,-0.00000384,0.00000438,-0.00000104,0.00000114,0.000002
 34,-0.00000127,0.00000020,0.00000242,-0.00000194,-0.00000627,0.0000405
 8,0.00015999,-0.00011811,0.00000419,0.00007436,-0.00008036,0.00004276,
 0.00010578,-0.00005978,-0.00002106,0.00033320,-0.00003885,0.00006287,0
 .00004570,-0.00010992,-0.00001056,0.00190165,0.00027348,0.00454980,0.0
 0003788,-0.00029279,0.00005108,0.00000698,0.00011537,0.00007698,-0.000
 02550,-0.00004411,-0.00003258,-0.00001771,-0.00004675,-0.00007663,-0.0
 0000863,-0.00000920,0.00000527,0.00000398,0.00001376,0.00000538,-0.000
 00380,0.00000511,-0.00000884,0.04302498,-0.03160955,-0.04821437,-0.032
 74358,0.03372266,-0.00014116,-0.01174372,-0.00163105,0.04664332\\0.000
 00228,0.00000323,-0.00000118,0.00000178,-0.00000293,-0.00000082,-0.000
 00424,-0.00000196,0.00000252,0.00000778,0.00000215,-0.00000479,0.00000
 053,-0.00000367,0.00000022,-0.00000380,0.00000060,-0.00000083,-0.00000
 261,0.00000477,0.00000341,0.00000758,-0.00000699,0.00000365,-0.0000051
 0,0.00000046,0.00000322,0.00000030,0.00000016,-0.00000054,0.00000054,-
 0.00000116,-0.00000033,0.00000272,-0.00000796,-0.00000972,-0.00000666,
 0.00000228,0.00000800,0.00000740,-0.00000009,0.00000131,0.00000055,-0.
 00000048,0.00000113,0.00000055,-0.00000012,0.00000109,0.00000118,0.000
 00048,0.00000030,0.00000031,0.00000061,0.00000027,-0.00000014,0.000000
 42,0.00000083,0.00000105,-0.00000050,0.00000014,0.00000090,-0.00000063
 ,0.00000076,0.00000120,-0.00000044,-0.00000130,-0.00000049,0.00000061,
 -0.00000126,-0.00000002,-0.00000001,-0.00000110,-0.00000054,-0.0000006
 2,-0.00000016,-0.00000113,-0.00000047,-0.00000364,-0.00000817,0.000006
 16,0.00000655,-0.00000368,0.00000178,-0.00000208,-0.00000307,0.0000003
 4,0.00000070,-0.00000139,-0.00000024,0.00000497,0.00000262,0.00000544,
 0.00000168,0.00000699,-0.00000430,-0.00000908,-0.00000026,0.00000338,-
 0.00000214,-0.00000390,-0.00000045,-0.00000416,0.00000025,0.00000083,-
 0.00000065,0.00000287,0.00000158,0.00000067,-0.00000067,-0.00000041,0.
 00000085,-0.00000061,-0.00000022,0.00000060,-0.00000053,-0.00000056,0.
 00000072,-0.00000435,0.00000053,0.00000258,0.00000202,-0.00000297,0.00
 000070,-0.00000003,0.00000139,-0.00000309\\\@


 A SCIENTIST IS SOMEONE WHOSE CURIOSITY SURVIVES
 EDUCATION'S ASSAULTS ON IT.
                          - SIR HERMANN BONDI
 Job cpu time:       1 days 14 hours 16 minutes 29.4 seconds.
 Elapsed time:       0 days  1 hours 22 minutes  4.9 seconds.
 File lengths (MBytes):  RWF=   1440 Int=      0 D2E=      0 Chk=     36 Scr=      8
 Normal termination of Gaussian 16 at Tue Dec  6 16:26:49 2022.
