 Entering Gaussian System, Link 0=g16
 Input=Nic5h3bPyB.gjf
 Output=Nic5h3bPyB.log
 Initial command:
 /sw/contrib/gaussian/g16/A03/g16/l1.exe "/gscratch/scrubbed/gds001/Gau-8457.inp" -scrdir="/gscratch/scrubbed/gds001/"
 Entering Link 1 = /sw/contrib/gaussian/g16/A03/g16/l1.exe PID=      8458.
  
 Copyright (c) 1988,1990,1992,1993,1995,1998,2003,2009,2016,
            Gaussian, Inc.  All Rights Reserved.
  
 This is part of the Gaussian(R) 16 program.  It is based on
 the Gaussian(R) 09 system (copyright 2009, Gaussian, Inc.),
 the Gaussian(R) 03 system (copyright 2003, Gaussian, Inc.),
 the Gaussian(R) 98 system (copyright 1998, Gaussian, Inc.),
 the Gaussian(R) 94 system (copyright 1995, Gaussian, Inc.),
 the Gaussian 92(TM) system (copyright 1992, Gaussian, Inc.),
 the Gaussian 90(TM) system (copyright 1990, Gaussian, Inc.),
 the Gaussian 88(TM) system (copyright 1988, Gaussian, Inc.),
 the Gaussian 86(TM) system (copyright 1986, Carnegie Mellon
 University), and the Gaussian 82(TM) system (copyright 1983,
 Carnegie Mellon University). Gaussian is a federally registered
 trademark of Gaussian, Inc.
  
 This software contains proprietary and confidential information,
 including trade secrets, belonging to Gaussian, Inc.
  
 This software is provided under written license and may be
 used, copied, transmitted, or stored only in accord with that
 written license.
  
 The following legend is applicable only to US Government
 contracts under FAR:
  
                    RESTRICTED RIGHTS LEGEND
  
 Use, reproduction and disclosure by the US Government is
 subject to restrictions as set forth in subparagraphs (a)
 and (c) of the Commercial Computer Software - Restricted
 Rights clause in FAR 52.227-19.
  
 Gaussian, Inc.
 340 Quinnipiac St., Bldg. 40, Wallingford CT 06492
  
  
 ---------------------------------------------------------------
 Warning -- This program may not be used in any manner that
 competes with the business of Gaussian, Inc. or will provide
 assistance to any competitor of Gaussian, Inc.  The licensee
 of this program is prohibited from giving any competitor of
 Gaussian, Inc. access to this program.  By using this program,
 the user acknowledges that Gaussian, Inc. is engaged in the
 business of creating and licensing software in the field of
 computational chemistry and represents and warrants to the
 licensee that it is not a competitor of Gaussian, Inc. and that
 it will not use this program in any manner prohibited above.
 ---------------------------------------------------------------
  

 Cite this work as:
 Gaussian 16, Revision A.03,
 M. J. Frisch, G. W. Trucks, H. B. Schlegel, G. E. Scuseria, 
 M. A. Robb, J. R. Cheeseman, G. Scalmani, V. Barone, 
 G. A. Petersson, H. Nakatsuji, X. Li, M. Caricato, A. V. Marenich, 
 J. Bloino, B. G. Janesko, R. Gomperts, B. Mennucci, H. P. Hratchian, 
 J. V. Ortiz, A. F. Izmaylov, J. L. Sonnenberg, D. Williams-Young, 
 F. Ding, F. Lipparini, F. Egidi, J. Goings, B. Peng, A. Petrone, 
 T. Henderson, D. Ranasinghe, V. G. Zakrzewski, J. Gao, N. Rega, 
 G. Zheng, W. Liang, M. Hada, M. Ehara, K. Toyota, R. Fukuda, 
 J. Hasegawa, M. Ishida, T. Nakajima, Y. Honda, O. Kitao, H. Nakai, 
 T. Vreven, K. Throssell, J. A. Montgomery, Jr., J. E. Peralta, 
 F. Ogliaro, M. J. Bearpark, J. J. Heyd, E. N. Brothers, K. N. Kudin, 
 V. N. Staroverov, T. A. Keith, R. Kobayashi, J. Normand, 
 K. Raghavachari, A. P. Rendell, J. C. Burant, S. S. Iyengar, 
 J. Tomasi, M. Cossi, J. M. Millam, M. Klene, C. Adamo, R. Cammi, 
 J. W. Ochterski, R. L. Martin, K. Morokuma, O. Farkas, 
 J. B. Foresman, and D. J. Fox, Gaussian, Inc., Wallingford CT, 2016.
 
 ******************************************
 Gaussian 16:  ES64L-G16RevA.03 25-Dec-2016
                 6-Dec-2022 
 ******************************************
 %nprocshared=28
 Will use up to   28 processors via shared memory.
 %mem=41GB
 -----------------------------
 # wB97XD/aug-cc-pVDZ opt freq
 -----------------------------
 1/18=20,19=15,26=3,38=1/1,3;
 2/9=110,12=2,17=6,18=5,40=1/2;
 3/5=16,7=10,11=2,25=1,30=1,71=1,74=-58/1,2,3;
 4//1;
 5/5=2,38=5/2;
 6/7=2,8=2,9=2,10=2,28=1/1;
 7//1,2,3,16;
 1/18=20,19=15,26=3/3(2);
 2/9=110/2;
 99//99;
 2/9=110/2;
 3/5=16,7=10,11=2,25=1,30=1,71=1,74=-58/1,2,3;
 4/5=5,16=3,69=1/1;
 5/5=2,38=5/2;
 7//1,2,3,16;
 1/18=20,19=15,26=3/3(-5);
 2/9=110/2;
 6/7=2,8=2,9=2,10=2,19=2,28=1/1;
 99/9=1/99;
 ----
 blah
 ----
 Symbolic Z-matrix:
 Charge =  1 Multiplicity = 1
 C                    -0.78726   2.68521  -0.0808 
 C                    -0.81968   1.30781   0.14661 
 C                     0.39866   0.63703   0.16275 
 N                     1.54591   1.29469  -0.0423 
 C                     1.59467   2.61657  -0.26113 
 C                     0.42328   3.35029  -0.27853 
 C                    -2.11761   0.57355   0.38385 
 N                    -2.28367  -0.6112   -0.46858 
 C                    -3.45381  -1.28855   0.11014 
 C                    -3.22603  -1.20362   1.62557 
 C                    -2.2826    0.00962   1.8071 
 O                     3.56227  -0.29265  -0.32819 
 O                     1.91154  -1.85566  -1.77158 
 O                    -0.2316   -2.46649  -0.19154 
 H                    -3.52439  -2.31439  -0.27178 
 H                    -4.1719   -1.07697   2.16142 
 H                    -2.75431  -2.11693   2.0044 
 H                    -2.68152   0.76902   2.48769 
 H                    -1.30907  -0.30716   2.20046 
 H                    -4.37999  -0.75856  -0.17823 
 H                    -2.94225   1.28476   0.18009 
 H                     0.48877  -0.43528   0.32889 
 H                     2.58003   3.0465   -0.42345 
 H                     0.45713   4.42253  -0.45564 
 H                    -1.72088   3.24785  -0.10745 
 C                    -2.43852  -0.30253  -1.88534 
 H                     2.4444    0.70287  -0.07283 
 H                    -1.01324  -1.86779  -0.3057 
 H                    -0.56083  -3.32884   0.06967 
 H                     3.16616  -1.01552  -0.8545 
 H                     4.1977   -0.66873   0.30754 
 H                     2.0643   -2.40773  -2.54091 
 H                     1.14879  -2.2351   -1.29376 
 O                     5.45159  -1.17905   1.47056 
 H                     6.37861  -1.05681   1.24817 
 H                     5.42246  -1.93857   2.05809 
 H                    -2.60271  -1.23128  -2.4436 
 H                    -1.52553   0.16776  -2.27078 
 H                    -3.2945    0.37244  -2.06706 
 O                     8.04455  -0.77848   0.66913 
 H                     8.87643  -0.39773   0.99778 
 H                     7.97974  -0.40806  -0.22922 
 
 Add virtual bond connecting atoms H27        and O12        Dist= 2.87D+00.
 Add virtual bond connecting atoms H30        and O13        Dist= 3.34D+00.
 Add virtual bond connecting atoms N8         and H28        Dist= 3.39D+00.
 Add virtual bond connecting atoms H33        and O14        Dist= 3.37D+00.
 Add virtual bond connecting atoms O34        and H31        Dist= 3.37D+00.
 Add virtual bond connecting atoms O40        and H35        Dist= 3.37D+00.

 GradGradGradGradGradGradGradGradGradGradGradGradGradGradGradGradGradGrad
 Berny optimization.
 Initialization pass.
                           ----------------------------
                           !    Initial Parameters    !
                           ! (Angstroms and Degrees)  !
 --------------------------                            --------------------------
 ! Name  Definition              Value          Derivative Info.                !
 --------------------------------------------------------------------------------
 ! R1    R(1,2)                  1.3964         estimate D2E/DX2                !
 ! R2    R(1,6)                  1.3953         estimate D2E/DX2                !
 ! R3    R(1,25)                 1.0904         estimate D2E/DX2                !
 ! R4    R(2,3)                  1.3909         estimate D2E/DX2                !
 ! R5    R(2,7)                  1.51           estimate D2E/DX2                !
 ! R6    R(3,4)                  1.3382         estimate D2E/DX2                !
 ! R7    R(3,22)                 1.0888         estimate D2E/DX2                !
 ! R8    R(4,5)                  1.3408         estimate D2E/DX2                !
 ! R9    R(4,27)                 1.0763         estimate D2E/DX2                !
 ! R10   R(5,6)                  1.3823         estimate D2E/DX2                !
 ! R11   R(5,23)                 1.0873         estimate D2E/DX2                !
 ! R12   R(6,24)                 1.0873         estimate D2E/DX2                !
 ! R13   R(7,8)                  1.469          estimate D2E/DX2                !
 ! R14   R(7,11)                 1.5398         estimate D2E/DX2                !
 ! R15   R(7,21)                 1.1079         estimate D2E/DX2                !
 ! R16   R(8,9)                  1.4707         estimate D2E/DX2                !
 ! R17   R(8,26)                 1.4582         estimate D2E/DX2                !
 ! R18   R(8,28)                 1.7943         estimate D2E/DX2                !
 ! R19   R(9,10)                 1.5348         estimate D2E/DX2                !
 ! R20   R(9,15)                 1.0969         estimate D2E/DX2                !
 ! R21   R(9,20)                 1.1054         estimate D2E/DX2                !
 ! R22   R(10,11)                1.5476         estimate D2E/DX2                !
 ! R23   R(10,16)                1.0945         estimate D2E/DX2                !
 ! R24   R(10,17)                1.0955         estimate D2E/DX2                !
 ! R25   R(11,18)                1.095          estimate D2E/DX2                !
 ! R26   R(11,19)                1.0967         estimate D2E/DX2                !
 ! R27   R(12,27)                1.5185         estimate D2E/DX2                !
 ! R28   R(12,30)                0.978          estimate D2E/DX2                !
 ! R29   R(12,31)                0.9744         estimate D2E/DX2                !
 ! R30   R(13,30)                1.7666         estimate D2E/DX2                !
 ! R31   R(13,32)                0.9592         estimate D2E/DX2                !
 ! R32   R(13,33)                0.9768         estimate D2E/DX2                !
 ! R33   R(14,28)                0.9912         estimate D2E/DX2                !
 ! R34   R(14,29)                0.9593         estimate D2E/DX2                !
 ! R35   R(14,33)                1.7815         estimate D2E/DX2                !
 ! R36   R(26,37)                1.096          estimate D2E/DX2                !
 ! R37   R(26,38)                1.0969         estimate D2E/DX2                !
 ! R38   R(26,39)                1.1051         estimate D2E/DX2                !
 ! R39   R(31,34)                1.7847         estimate D2E/DX2                !
 ! R40   R(34,35)                0.9611         estimate D2E/DX2                !
 ! R41   R(34,36)                0.9607         estimate D2E/DX2                !
 ! R42   R(35,40)                1.7855         estimate D2E/DX2                !
 ! R43   R(40,41)                0.9721         estimate D2E/DX2                !
 ! R44   R(40,42)                0.9739         estimate D2E/DX2                !
 ! A1    A(2,1,6)              120.8895         estimate D2E/DX2                !
 ! A2    A(2,1,25)             119.5431         estimate D2E/DX2                !
 ! A3    A(6,1,25)             119.5671         estimate D2E/DX2                !
 ! A4    A(1,2,3)              117.2106         estimate D2E/DX2                !
 ! A5    A(1,2,7)              121.6809         estimate D2E/DX2                !
 ! A6    A(3,2,7)              121.1038         estimate D2E/DX2                !
 ! A7    A(2,3,4)              120.8082         estimate D2E/DX2                !
 ! A8    A(2,3,22)             123.3133         estimate D2E/DX2                !
 ! A9    A(4,3,22)             115.876          estimate D2E/DX2                !
 ! A10   A(3,4,5)              122.7331         estimate D2E/DX2                !
 ! A11   A(3,4,27)             116.7303         estimate D2E/DX2                !
 ! A12   A(5,4,27)             120.472          estimate D2E/DX2                !
 ! A13   A(4,5,6)              119.6399         estimate D2E/DX2                !
 ! A14   A(4,5,23)             116.564          estimate D2E/DX2                !
 ! A15   A(6,5,23)             123.7947         estimate D2E/DX2                !
 ! A16   A(1,6,5)              118.7127         estimate D2E/DX2                !
 ! A17   A(1,6,24)             121.3429         estimate D2E/DX2                !
 ! A18   A(5,6,24)             119.9405         estimate D2E/DX2                !
 ! A19   A(2,7,8)              113.4648         estimate D2E/DX2                !
 ! A20   A(2,7,11)             114.546          estimate D2E/DX2                !
 ! A21   A(2,7,21)             107.3826         estimate D2E/DX2                !
 ! A22   A(8,7,11)             103.2317         estimate D2E/DX2                !
 ! A23   A(8,7,21)             109.0794         estimate D2E/DX2                !
 ! A24   A(11,7,21)            108.9877         estimate D2E/DX2                !
 ! A25   A(7,8,9)              103.4767         estimate D2E/DX2                !
 ! A26   A(7,8,26)             113.8958         estimate D2E/DX2                !
 ! A27   A(7,8,28)             115.6009         estimate D2E/DX2                !
 ! A28   A(9,8,26)             113.2856         estimate D2E/DX2                !
 ! A29   A(9,8,28)             101.834          estimate D2E/DX2                !
 ! A30   A(26,8,28)            108.1568         estimate D2E/DX2                !
 ! A31   A(8,9,10)             104.1802         estimate D2E/DX2                !
 ! A32   A(8,9,15)             110.177          estimate D2E/DX2                !
 ! A33   A(8,9,20)             110.0705         estimate D2E/DX2                !
 ! A34   A(10,9,15)            113.8962         estimate D2E/DX2                !
 ! A35   A(10,9,20)            110.8178         estimate D2E/DX2                !
 ! A36   A(15,9,20)            107.6773         estimate D2E/DX2                !
 ! A37   A(9,10,11)            104.458          estimate D2E/DX2                !
 ! A38   A(9,10,16)            111.1961         estimate D2E/DX2                !
 ! A39   A(9,10,17)            111.0513         estimate D2E/DX2                !
 ! A40   A(11,10,16)           112.254          estimate D2E/DX2                !
 ! A41   A(11,10,17)           110.5187         estimate D2E/DX2                !
 ! A42   A(16,10,17)           107.4155         estimate D2E/DX2                !
 ! A43   A(7,11,10)            104.124          estimate D2E/DX2                !
 ! A44   A(7,11,18)            111.0725         estimate D2E/DX2                !
 ! A45   A(7,11,19)            110.0107         estimate D2E/DX2                !
 ! A46   A(10,11,18)           113.2349         estimate D2E/DX2                !
 ! A47   A(10,11,19)           110.9019         estimate D2E/DX2                !
 ! A48   A(18,11,19)           107.504          estimate D2E/DX2                !
 ! A49   A(27,12,30)           106.0757         estimate D2E/DX2                !
 ! A50   A(27,12,31)           128.5665         estimate D2E/DX2                !
 ! A51   A(30,12,31)           109.2669         estimate D2E/DX2                !
 ! A52   A(30,13,32)           125.2401         estimate D2E/DX2                !
 ! A53   A(30,13,33)           119.0363         estimate D2E/DX2                !
 ! A54   A(32,13,33)           107.0461         estimate D2E/DX2                !
 ! A55   A(28,14,29)           107.6798         estimate D2E/DX2                !
 ! A56   A(28,14,33)           117.4722         estimate D2E/DX2                !
 ! A57   A(29,14,33)           123.4444         estimate D2E/DX2                !
 ! A58   A(8,26,37)            109.3542         estimate D2E/DX2                !
 ! A59   A(8,26,38)            110.1057         estimate D2E/DX2                !
 ! A60   A(8,26,39)            111.7947         estimate D2E/DX2                !
 ! A61   A(37,26,38)           108.0004         estimate D2E/DX2                !
 ! A62   A(37,26,39)           108.5282         estimate D2E/DX2                !
 ! A63   A(38,26,39)           108.9676         estimate D2E/DX2                !
 ! A64   A(12,30,13)           156.7109         estimate D2E/DX2                !
 ! A65   A(13,33,14)           163.368          estimate D2E/DX2                !
 ! A66   A(31,34,35)           119.3723         estimate D2E/DX2                !
 ! A67   A(31,34,36)           127.1055         estimate D2E/DX2                !
 ! A68   A(35,34,36)           105.7423         estimate D2E/DX2                !
 ! A69   A(35,40,41)           138.5774         estimate D2E/DX2                !
 ! A70   A(35,40,42)           107.2376         estimate D2E/DX2                !
 ! A71   A(41,40,42)           102.6996         estimate D2E/DX2                !
 ! A72   L(4,27,12,14,-1)      171.4839         estimate D2E/DX2                !
 ! A73   L(8,28,14,3,-1)       172.6673         estimate D2E/DX2                !
 ! A74   L(12,31,34,17,-1)     184.3115         estimate D2E/DX2                !
 ! A75   L(34,35,40,23,-1)     175.7088         estimate D2E/DX2                !
 ! A76   L(4,27,12,14,-2)      172.1932         estimate D2E/DX2                !
 ! A77   L(8,28,14,3,-2)       179.9377         estimate D2E/DX2                !
 ! A78   L(12,31,34,17,-2)     185.2669         estimate D2E/DX2                !
 ! A79   L(34,35,40,23,-2)     184.4407         estimate D2E/DX2                !
 ! D1    D(6,1,2,3)             -0.1729         estimate D2E/DX2                !
 ! D2    D(6,1,2,7)            179.044          estimate D2E/DX2                !
 ! D3    D(25,1,2,3)           179.6227         estimate D2E/DX2                !
 ! D4    D(25,1,2,7)            -1.1604         estimate D2E/DX2                !
 ! D5    D(2,1,6,5)              0.7566         estimate D2E/DX2                !
 ! D6    D(2,1,6,24)          -179.9671         estimate D2E/DX2                !
 ! D7    D(25,1,6,5)          -179.0389         estimate D2E/DX2                !
 ! D8    D(25,1,6,24)            0.2373         estimate D2E/DX2                !
 ! D9    D(1,2,3,4)             -0.4762         estimate D2E/DX2                !
 ! D10   D(1,2,3,22)          -179.8732         estimate D2E/DX2                !
 ! D11   D(7,2,3,4)           -179.6979         estimate D2E/DX2                !
 ! D12   D(7,2,3,22)             0.905          estimate D2E/DX2                !
 ! D13   D(1,2,7,8)            129.3104         estimate D2E/DX2                !
 ! D14   D(1,2,7,11)          -112.4891         estimate D2E/DX2                !
 ! D15   D(1,2,7,21)             8.694          estimate D2E/DX2                !
 ! D16   D(3,2,7,8)            -51.5029         estimate D2E/DX2                !
 ! D17   D(3,2,7,11)            66.6976         estimate D2E/DX2                !
 ! D18   D(3,2,7,21)          -172.1193         estimate D2E/DX2                !
 ! D19   D(2,3,4,5)              0.5451         estimate D2E/DX2                !
 ! D20   D(2,3,4,27)          -176.5414         estimate D2E/DX2                !
 ! D21   D(22,3,4,5)           179.9851         estimate D2E/DX2                !
 ! D22   D(22,3,4,27)            2.8986         estimate D2E/DX2                !
 ! D23   D(3,4,5,6)              0.0666         estimate D2E/DX2                !
 ! D24   D(3,4,5,23)          -179.5291         estimate D2E/DX2                !
 ! D25   D(27,4,5,6)           177.0473         estimate D2E/DX2                !
 ! D26   D(27,4,5,23)           -2.5484         estimate D2E/DX2                !
 ! D27   D(3,4,12,30)           38.9282         estimate D2E/DX2                !
 ! D28   D(3,4,12,31)          -90.8639         estimate D2E/DX2                !
 ! D29   D(5,4,12,30)         -132.1342         estimate D2E/DX2                !
 ! D30   D(5,4,12,31)           98.0737         estimate D2E/DX2                !
 ! D31   D(4,5,6,1)             -0.7066         estimate D2E/DX2                !
 ! D32   D(4,5,6,24)          -179.9933         estimate D2E/DX2                !
 ! D33   D(23,5,6,1)           178.8583         estimate D2E/DX2                !
 ! D34   D(23,5,6,24)           -0.4284         estimate D2E/DX2                !
 ! D35   D(2,7,8,9)            169.4229         estimate D2E/DX2                !
 ! D36   D(2,7,8,26)           -67.1554         estimate D2E/DX2                !
 ! D37   D(2,7,8,28)            59.0172         estimate D2E/DX2                !
 ! D38   D(11,7,8,9)            44.8613         estimate D2E/DX2                !
 ! D39   D(11,7,8,26)          168.283          estimate D2E/DX2                !
 ! D40   D(11,7,8,28)          -65.5444         estimate D2E/DX2                !
 ! D41   D(21,7,8,9)           -70.9236         estimate D2E/DX2                !
 ! D42   D(21,7,8,26)           52.4981         estimate D2E/DX2                !
 ! D43   D(21,7,8,28)          178.6707         estimate D2E/DX2                !
 ! D44   D(2,7,11,10)         -152.9209         estimate D2E/DX2                !
 ! D45   D(2,7,11,18)           84.8767         estimate D2E/DX2                !
 ! D46   D(2,7,11,19)          -34.0286         estimate D2E/DX2                !
 ! D47   D(8,7,11,10)          -29.0677         estimate D2E/DX2                !
 ! D48   D(8,7,11,18)         -151.27           estimate D2E/DX2                !
 ! D49   D(8,7,11,19)           89.8247         estimate D2E/DX2                !
 ! D50   D(21,7,11,10)          86.7826         estimate D2E/DX2                !
 ! D51   D(21,7,11,18)         -35.4197         estimate D2E/DX2                !
 ! D52   D(21,7,11,19)        -154.325          estimate D2E/DX2                !
 ! D53   D(7,8,9,10)           -42.8282         estimate D2E/DX2                !
 ! D54   D(7,8,9,15)          -165.3742         estimate D2E/DX2                !
 ! D55   D(7,8,9,20)            76.0261         estimate D2E/DX2                !
 ! D56   D(26,8,9,10)         -166.6505         estimate D2E/DX2                !
 ! D57   D(26,8,9,15)           70.8034         estimate D2E/DX2                !
 ! D58   D(26,8,9,20)          -47.7962         estimate D2E/DX2                !
 ! D59   D(28,8,9,10)           77.4499         estimate D2E/DX2                !
 ! D60   D(28,8,9,15)          -45.0961         estimate D2E/DX2                !
 ! D61   D(28,8,9,20)         -163.6958         estimate D2E/DX2                !
 ! D62   D(7,8,14,29)          122.503          estimate D2E/DX2                !
 ! D63   D(7,8,14,33)          -89.9002         estimate D2E/DX2                !
 ! D64   D(9,8,14,29)           10.8585         estimate D2E/DX2                !
 ! D65   D(9,8,14,33)          158.4553         estimate D2E/DX2                !
 ! D66   D(26,8,14,29)        -109.9438         estimate D2E/DX2                !
 ! D67   D(26,8,14,33)          37.6529         estimate D2E/DX2                !
 ! D68   D(7,8,26,37)         -177.4003         estimate D2E/DX2                !
 ! D69   D(7,8,26,38)           64.0859         estimate D2E/DX2                !
 ! D70   D(7,8,26,39)          -57.1892         estimate D2E/DX2                !
 ! D71   D(9,8,26,37)          -59.4842         estimate D2E/DX2                !
 ! D72   D(9,8,26,38)         -177.9979         estimate D2E/DX2                !
 ! D73   D(9,8,26,39)           60.727          estimate D2E/DX2                !
 ! D74   D(28,8,26,37)          52.6082         estimate D2E/DX2                !
 ! D75   D(28,8,26,38)         -65.9056         estimate D2E/DX2                !
 ! D76   D(28,8,26,39)         172.8194         estimate D2E/DX2                !
 ! D77   D(8,9,10,11)           23.477          estimate D2E/DX2                !
 ! D78   D(8,9,10,16)          144.7734         estimate D2E/DX2                !
 ! D79   D(8,9,10,17)          -95.6733         estimate D2E/DX2                !
 ! D80   D(15,9,10,11)         143.5474         estimate D2E/DX2                !
 ! D81   D(15,9,10,16)         -95.1562         estimate D2E/DX2                !
 ! D82   D(15,9,10,17)          24.3971         estimate D2E/DX2                !
 ! D83   D(20,9,10,11)         -94.8663         estimate D2E/DX2                !
 ! D84   D(20,9,10,16)          26.4301         estimate D2E/DX2                !
 ! D85   D(20,9,10,17)         145.9834         estimate D2E/DX2                !
 ! D86   D(9,10,11,7)            3.3865         estimate D2E/DX2                !
 ! D87   D(9,10,11,18)         124.1511         estimate D2E/DX2                !
 ! D88   D(9,10,11,19)        -114.8958         estimate D2E/DX2                !
 ! D89   D(16,10,11,7)        -117.2068         estimate D2E/DX2                !
 ! D90   D(16,10,11,18)          3.5578         estimate D2E/DX2                !
 ! D91   D(16,10,11,19)        124.5109         estimate D2E/DX2                !
 ! D92   D(17,10,11,7)         122.8966         estimate D2E/DX2                !
 ! D93   D(17,10,11,18)       -116.3388         estimate D2E/DX2                !
 ! D94   D(17,10,11,19)          4.6143         estimate D2E/DX2                !
 ! D95   D(27,12,30,13)          5.6242         estimate D2E/DX2                !
 ! D96   D(31,12,30,13)        147.6248         estimate D2E/DX2                !
 ! D97   D(27,12,34,35)       -122.8599         estimate D2E/DX2                !
 ! D98   D(27,12,34,36)         90.8996         estimate D2E/DX2                !
 ! D99   D(30,12,34,35)        102.5419         estimate D2E/DX2                !
 ! D100  D(30,12,34,36)        -43.6985         estimate D2E/DX2                !
 ! D101  D(32,13,30,12)        144.4095         estimate D2E/DX2                !
 ! D102  D(33,13,30,12)        -72.2019         estimate D2E/DX2                !
 ! D103  D(30,13,33,14)         45.885          estimate D2E/DX2                !
 ! D104  D(32,13,33,14)       -164.7438         estimate D2E/DX2                !
 ! D105  D(28,14,33,13)         62.5158         estimate D2E/DX2                !
 ! D106  D(29,14,33,13)       -158.5773         estimate D2E/DX2                !
 ! D107  D(31,34,40,41)        130.8229         estimate D2E/DX2                !
 ! D108  D(31,34,40,42)         -2.0294         estimate D2E/DX2                !
 ! D109  D(36,34,40,41)        -78.7149         estimate D2E/DX2                !
 ! D110  D(36,34,40,42)        148.4328         estimate D2E/DX2                !
 --------------------------------------------------------------------------------
 Trust Radius=3.00D-01 FncErr=1.00D-07 GrdErr=1.00D-06 EigMax=2.50D+02 EigMin=1.00D-04
 Number of steps in this run=    243 maximum allowed number of steps=    252.
 GradGradGradGradGradGradGradGradGradGradGradGradGradGradGradGradGradGrad

                          Input orientation:                          
 ---------------------------------------------------------------------
 Center     Atomic      Atomic             Coordinates (Angstroms)
 Number     Number       Type             X           Y           Z
 ---------------------------------------------------------------------
      1          6           0       -0.787260    2.685210   -0.080795
      2          6           0       -0.819675    1.307814    0.146609
      3          6           0        0.398660    0.637025    0.162746
      4          7           0        1.545910    1.294685   -0.042300
      5          6           0        1.594674    2.616565   -0.261125
      6          6           0        0.423275    3.350286   -0.278525
      7          6           0       -2.117612    0.573547    0.383854
      8          7           0       -2.283674   -0.611203   -0.468583
      9          6           0       -3.453805   -1.288549    0.110135
     10          6           0       -3.226030   -1.203618    1.625572
     11          6           0       -2.282597    0.009620    1.807098
     12          8           0        3.562267   -0.292647   -0.328185
     13          8           0        1.911544   -1.855655   -1.771581
     14          8           0       -0.231597   -2.466485   -0.191536
     15          1           0       -3.524391   -2.314391   -0.271777
     16          1           0       -4.171904   -1.076971    2.161416
     17          1           0       -2.754310   -2.116927    2.004403
     18          1           0       -2.681523    0.769024    2.487690
     19          1           0       -1.309067   -0.307159    2.200460
     20          1           0       -4.379989   -0.758560   -0.178230
     21          1           0       -2.942251    1.284755    0.180090
     22          1           0        0.488772   -0.435281    0.328892
     23          1           0        2.580027    3.046503   -0.423453
     24          1           0        0.457132    4.422534   -0.455643
     25          1           0       -1.720883    3.247848   -0.107446
     26          6           0       -2.438516   -0.302530   -1.885341
     27          1           0        2.444399    0.702873   -0.072828
     28          1           0       -1.013236   -1.867790   -0.305697
     29          1           0       -0.560827   -3.328844    0.069670
     30          1           0        3.166155   -1.015522   -0.854496
     31          1           0        4.197704   -0.668734    0.307540
     32          1           0        2.064296   -2.407726   -2.540910
     33          1           0        1.148793   -2.235099   -1.293755
     34          8           0        5.451591   -1.179045    1.470558
     35          1           0        6.378607   -1.056810    1.248165
     36          1           0        5.422456   -1.938572    2.058091
     37          1           0       -2.602709   -1.231283   -2.443598
     38          1           0       -1.525533    0.167761   -2.270776
     39          1           0       -3.294498    0.372439   -2.067059
     40          8           0        8.044554   -0.778475    0.669129
     41          1           0        8.876430   -0.397731    0.997776
     42          1           0        7.979738   -0.408063   -0.229217
 ---------------------------------------------------------------------
                    Distance matrix (angstroms):
                    1          2          3          4          5
     1  C    0.000000
     2  C    1.396418   0.000000
     3  C    2.379239   1.390884   0.000000
     4  N    2.716381   2.373152   1.338186   0.000000
     5  C    2.389737   2.776357   2.351318   1.340757   0.000000
     6  C    1.395284   2.428447   2.749020   2.354062   1.382326
     7  C    2.538672   1.509991   2.526765   3.758063   4.286139
     8  N    3.640875   2.490859   3.025155   4.298818   5.050060
     9  C    4.789330   3.698793   4.307214   5.629697   6.393347
    10  C    4.897170   3.779572   4.320440   5.638681   6.433709
    11  C    3.599855   2.565672   3.207284   4.441749   5.109495
    12  O    5.277046   4.689171   3.333724   2.582063   3.512753
    13  O    5.546328   4.598537   3.499127   3.612304   4.731029
    14  O    5.182759   3.834776   3.186615   4.162716   5.401621
    15  H    5.703014   4.539923   4.928488   6.227844   7.107691
    16  H    5.535100   4.580839   5.274706   6.570732   7.263906
    17  H    5.592661   4.350065   4.573529   5.858326   6.815587
    18  H    3.722515   3.039315   3.861388   4.954630   5.408812
    19  H    3.798773   2.658185   2.821364   3.968220   4.799924
    20  H    4.977625   4.129317   4.989931   6.273003   6.862575
    21  H    2.583277   2.122965   3.403166   4.493678   4.748903
    22  H    3.396110   2.187154   1.088836   2.061094   3.299228
    23  H    3.403905   3.860827   3.302662   2.069672   1.087252
    24  H    2.169635   3.419711   3.836131   3.337623   2.143213
    25  H    1.090378   2.154171   3.373702   3.806708   3.378617
    26  C    3.861298   3.056579   3.623119   4.671568   5.236966
    27  H    3.791219   3.326903   2.060310   1.076316   2.102310
    28  H    4.564149   3.213488   2.913243   4.076746   5.187738
    29  H    6.020196   4.644515   4.081347   5.082116   6.332732
    30  H    5.470240   4.720905   3.380048   2.936309   4.001712
    31  H    6.020765   5.395066   4.019789   3.318044   4.229933
    32  H    6.334156   5.417129   4.399387   4.496624   5.537280
    33  H    5.424852   4.301366   3.306538   3.766061   4.980339
    34  O    7.500828   6.875034   5.526355   4.864404   5.681654
    35  H    8.192588   7.656379   6.309277   5.527186   6.217528
    36  H    8.032108   7.290884   5.955213   5.467468   6.385918
    37  H    4.921139   4.041707   4.392245   5.418283   6.098126
    38  H    3.417399   2.764364   3.137636   3.958513   4.446463
    39  H    3.947201   3.449638   4.322205   5.327263   5.674637
    40  O    9.516325   9.121414   7.792289   6.858316   7.347967
    41  H   10.200723   9.881691   8.581409   7.594903   7.980901
    42  H    9.297883   8.973024   7.662806   6.657960   7.065298
                    6          7          8          9         10
     6  C    0.000000
     7  C    3.821666   0.000000
     8  N    4.801780   1.468965   0.000000
     9  C    6.058184   2.308189   1.470686   0.000000
    10  C    6.138490   2.434906   2.371598   1.534811   0.000000
    11  C    4.778244   1.539759   2.358844   2.436525   1.547567
    12  O    4.809023   5.789501   5.856297   7.099944   7.122360
    13  O    5.616581   5.175038   4.565777   5.713968   6.193583
    14  O    5.854165   3.623523   2.780260   3.444004   3.723351
    15  H    6.904540   3.278577   2.116356   1.096901   2.218731
    16  H    6.831514   3.178687   3.270970   2.183617   1.094461
    17  H    6.723037   3.204717   2.933319   2.182603   1.095521
    18  H    4.894347   2.186855   3.286771   3.237714   2.220597
    19  H    4.745870   2.174729   2.857638   3.151585   2.192916
    20  H    6.321710   2.684920   2.121451   1.105378   2.187098
    21  H    3.975363   1.107866   2.109303   2.624590   2.891703
    22  H    3.834549   2.795352   2.890220   4.039781   4.008924
    23  H    2.182858   5.369829   6.085757   7.448793   7.481466
    24  H    1.087305   4.706247   5.731552   6.944926   7.039228
    25  H    2.153410   2.747846   3.916558   4.860994   5.008430
    26  C    4.910679   2.453515   1.458238   2.446420   3.709265
    27  H    3.337072   4.586636   4.923220   6.228005   6.218765
    28  H    5.412266   2.766813   1.794312   2.542600   3.011209
    29  H    6.760213   4.213187   3.262436   3.540305   3.747095
    30  H    5.188007   5.654807   5.478416   6.695441   6.859019
    31  H    5.544575   6.436793   6.527935   7.679110   7.558779
    32  H    6.400472   5.910210   5.140708   6.223346   6.840833
    33  H    5.723076   4.623015   3.885843   4.904159   5.359617
    34  O    6.989856   7.845084   7.994813   9.009374   8.679040
    35  H    7.564341   8.694299   8.841996   9.900765   9.613170
    36  H    7.643533   8.121972   8.217690   9.110712   8.690428
    37  H    5.902109   3.389279   2.094509   2.692433   4.116727
    38  H    4.230293   2.749960   2.104629   3.392316   4.466979
    39  H    5.088051   2.726257   2.131770   2.743070   4.015491
    40  O    8.719439  10.255680  10.392048  11.523234  11.319081
    41  H    9.334474  11.053924  11.258051  12.394199  12.145498
    42  H    8.439654  10.163459  10.268213  11.472416  11.386061
                   11         12         13         14         15
    11  C    0.000000
    12  O    6.230027   0.000000
    13  O    5.820396   2.692819   0.000000
    14  O    3.785794   4.374660   2.731796   0.000000
    15  H    3.356308   7.369624   5.657671   3.297281   0.000000
    16  H    2.208099   8.162762   7.285819   4.795117   2.805514
    17  H    2.187154   6.976253   6.008037   3.362799   2.411019
    18  H    1.095008   6.931177   6.791656   4.863014   4.222858
    19  H    1.096742   5.488547   5.342966   3.397834   3.879252
    20  H    2.988424   7.957323   6.582232   4.486239   1.778035
    21  H    2.169854   6.712324   6.101682   4.643011   3.673816
    22  H    3.172305   3.146183   2.907530   2.217108   4.471838
    23  H    6.151677   3.481924   5.127911   6.192903   8.125645
    24  H    5.665679   5.647215   6.577436   6.928397   7.827675
    25  H    3.803567   6.363608   6.481482   5.905815   5.849628
    26  C    3.708889   6.199535   4.620407   3.524510   2.798267
    27  H    5.134122   1.518518   3.117012   4.149684   6.691033
    28  H    3.098362   4.839092   3.271590   0.991175   2.550785
    29  H    4.138658   5.135824   3.416593   0.959314   3.150938
    30  H    6.150114   0.977986   1.766612   3.753602   6.840324
    31  H    6.686041   0.974355   3.310295   4.806214   7.916726
    32  H    6.606377   3.407877   0.959157   3.285443   6.032503
    33  H    5.140865   3.245043   0.976773   1.781545   4.784284
    34  O    7.832231   2.755127   4.847804   6.059594   9.213739
    35  H    8.744492   3.316715   5.450841   6.910479  10.097579
    36  H    7.951496   3.444370   5.196130   6.108014   9.252870
    37  H    4.439677   6.585054   4.606509   3.495666   2.596041
    38  H    4.150568   5.465468   4.019565   3.596771   3.761982
    39  H    4.020532   7.105016   5.670501   4.578039   3.239590
    40  O   10.419507   4.617528   6.688139   8.490277  11.708323
    41  H   11.195750   5.478097   7.635739   9.415432  12.612126
    42  H   10.470748   4.420087   6.426305   8.465492  11.661084
                   16         17         18         19         20
    16  H    0.000000
    17  H    1.765144   0.000000
    18  H    2.394867   2.927042   0.000000
    19  H    2.964788   2.324312   1.767571   0.000000
    20  H    2.370365   3.041690   3.510759   3.910561   0.000000
    21  H    3.318953   3.864567   2.378860   3.046863   2.524009
    22  H    5.048942   4.019061   4.020141   2.598347   4.905764
    23  H    8.323050   7.810931   6.430052   5.766890   7.936023
    24  H    7.649936   7.689586   5.644688   5.704764   7.093549
    25  H    5.464366   5.857362   3.715122   4.258415   4.809071
    26  C    4.469970   4.303704   4.508956   4.239038   2.625168
    27  H    7.206605   6.268392   5.730245   4.502945   6.979912
    28  H    4.085245   2.903441   4.187957   2.967138   3.547064
    29  H    4.741963   3.165960   5.209289   3.772361   4.610186
    30  H    7.933890   6.666206   6.967794   5.464627   7.580742
    31  H    8.582182   7.301172   7.358258   5.834245   8.591907
    32  H    7.922939   6.630490   7.609294   6.186481   7.059094
    33  H    6.448975   5.111362   6.164041   4.686957   5.830265
    34  O    9.648801   8.276559   8.424789   6.855614   9.977739
    35  H   10.589982   9.225287   9.325023   7.782620  10.856839
    36  H    9.633524   8.178887   8.555122   6.927855  10.123314
    37  H    4.867478   4.537848   5.322127   4.908644   2.917890
    38  H    5.310081   5.000685   4.933643   4.501595   3.658516
    39  H    4.555286   4.802661   4.612890   4.755577   2.454613
    40  O   12.310884  10.963114  10.988660   9.489855  12.453421
    41  H   13.117715  11.800129  11.711851  10.256657  13.313371
    42  H   12.402620  11.096354  11.064792   9.601844  12.364801
                   21         22         23         24         25
    21  H    0.000000
    22  H    3.840909   0.000000
    23  H    5.827828   4.130640   0.000000
    24  H    4.669649   4.920860   2.530055   0.000000
    25  H    2.329839   4.317222   4.317201   2.498975   0.000000
    26  C    2.653154   3.672801   6.207972   5.723202   4.034983
    27  H    5.423887   2.298097   2.373591   4.234579   4.881359
    28  H    3.727684   2.170441   6.088980   6.461628   5.168154
    29  H    5.193137   3.088942   7.124127   7.835563   6.680567
    30  H    6.608651   2.984203   4.126668   6.088542   6.528212
    31  H    7.403467   3.716333   4.117550   6.363595   7.109255
    32  H    6.789976   3.822117   5.873518   7.320093   7.227368
    33  H    5.594482   2.511564   5.540864   6.745732   6.301196
    34  O    8.842635   5.146470   5.448707   7.748068   8.575072
    35  H    9.669649   5.993456   5.836154   8.245607   9.271974
    36  H    9.158878   5.439784   6.252075   8.452039   9.089323
    37  H    3.650955   4.228188   7.017207   6.729059   5.128142
    38  H    3.043273   3.343555   5.343723   5.032769   3.768965
    39  H    2.450730   4.550398   6.660488   5.751057   3.818943
    40  O   11.189547   7.571221   6.759087   9.267394  10.591417
    41  H   11.965809   8.414370   7.316238   9.809789  11.261208
    42  H   11.059974   7.511778   6.413161   8.942905  10.367380
                   26         27         28         29         30
    26  C    0.000000
    27  H    5.304611   0.000000
    28  H    2.641351   4.314832   0.000000
    29  H    4.062802   5.030550   1.574882   0.000000
    30  H    5.743112   2.021093   4.300564   4.482849   0.000000
    31  H    6.998732   2.258332   5.382164   5.456774   1.592069
    32  H    5.013675   3.988951   3.841733   3.815083   2.448738
    33  H    4.117473   3.435249   2.405316   2.444996   2.397930
    34  O    8.618824   3.868703   6.739691   6.537071   3.264327
    35  H    9.387729   4.507716   7.596810   7.396400   3.839627
    36  H    8.945511   4.515182   6.856430   6.456497   3.798168
    37  H    1.095989   5.902102   2.739012   3.858181   5.987620
    38  H    1.096937   4.569210   2.875318   4.316780   5.041621
    39  H    1.105129   6.084495   3.650367   5.073270   6.718391
    40  O   10.800306   5.840088   9.174991   8.995350   5.116288
    41  H   11.676876   6.612756  10.082937   9.925453   6.034883
    42  H   10.549593   5.647886   9.110996   9.031143   4.891888
                   31         32         33         34         35
    31  H    0.000000
    32  H    3.960958   0.000000
    33  H    3.783319   1.556709   0.000000
    34  O    1.784730   5.392152   5.222140   0.000000
    35  H    2.406598   5.898758   5.933016   0.961124   0.000000
    36  H    2.485344   5.713856   5.439393   0.960690   1.532224
    37  H    7.357366   4.813982   4.050130   8.955171   9.712033
    38  H    6.332683   4.426396   3.725631   8.030674   8.738304
    39  H    7.928168   6.055619   5.209615   9.561167  10.324845
    40  O    3.865365   6.980136   7.316160   2.743392   1.785534
    41  H    4.737124   7.935209   8.267007   3.544503   2.595419
    42  H    3.828817   6.658456   7.150742   3.142479   2.273137
                   36         37         38         39         40
    36  H    0.000000
    37  H    9.228691   0.000000
    38  H    8.452827   1.774119   0.000000
    39  H    9.916800   1.786695   1.792381   0.000000
    40  O    3.185975  11.102176  10.056091  11.721153   0.000000
    41  H    3.927900  12.012847  10.918061  12.574493   0.972107
    42  H    3.756851  10.842941   9.739082  11.449684   0.973875
                   41         42
    41  H    0.000000
    42  H    1.519761   0.000000
 Stoichiometry    C10H25N2O5(1+)
 Framework group  C1[X(C10H25N2O5)]
 Deg. of freedom   120
 Full point group                 C1      NOp   1
 Largest Abelian subgroup         C1      NOp   1
 Largest concise Abelian subgroup C1      NOp   1
                         Standard orientation:                         
 ---------------------------------------------------------------------
 Center     Atomic      Atomic             Coordinates (Angstroms)
 Number     Number       Type             X           Y           Z
 ---------------------------------------------------------------------
      1          6           0        1.501808    2.668988    0.048990
      2          6           0        1.461707    1.289616   -0.164804
      3          6           0        0.213427    0.677001   -0.132241
      4          7           0       -0.893937    1.389924    0.104884
      5          6           0       -0.873057    2.714540    0.311250
      6          6           0        0.331361    3.392242    0.280886
      7          6           0        2.714795    0.492769   -0.438441
      8          7           0        2.854510   -0.690817    0.420315
      9          6           0        3.970864   -1.427832   -0.190815
     10          6           0        3.695025   -1.345819   -1.698406
     11          6           0        2.803810   -0.091051   -1.860442
     12          8           0       -2.971414   -0.097775    0.476216
     13          8           0       -1.346853   -1.724010    1.878869
     14          8           0        0.709331   -2.449514    0.233130
     15          1           0        4.006437   -2.452400    0.199295
     16          1           0        4.626691   -1.268795   -2.267540
     17          1           0        3.168169   -2.239187   -2.051229
     18          1           0        3.214122    0.642535   -2.562252
     19          1           0        1.803469   -0.365007   -2.216966
     20          1           0        4.930306   -0.939617    0.060139
     21          1           0        3.578435    1.166031   -0.270484
     22          1           0        0.067433   -0.391297   -0.283860
     23          1           0       -1.830957    3.191975    0.502566
     24          1           0        0.353974    4.466436    0.447703
     25          1           0        2.461152    3.187118    0.037799
     26          6           0        3.072584   -0.377121    1.827617
     27          1           0       -1.817596    0.841507    0.172327
     28          1           0        1.521667   -1.887406    0.314199
     29          1           0        0.988523   -3.328766   -0.030027
     30          1           0       -2.591664   -0.833808    0.996315
     31          1           0       -3.645404   -0.449111   -0.133430
     32          1           0       -1.498616   -2.261335    2.658762
     33          1           0       -0.619725   -2.143322    1.379323
     34          8           0       -4.961331   -0.910029   -1.247499
     35          1           0       -5.873345   -0.742159   -0.994893
     36          1           0       -4.988193   -1.675319   -1.827617
     37          1           0        3.212259   -1.307553    2.389736
     38          1           0        2.196543    0.139202    2.238999
     39          1           0        3.965051    0.258267    1.972855
     40          8           0       -7.503373   -0.380273   -0.362297
     41          1           0       -8.327351    0.036377   -0.666361
     42          1           0       -7.390214   -0.005301    0.529344
 ---------------------------------------------------------------------
 Rotational constants (GHZ):           0.5419127           0.1725742           0.1516163
 Standard basis: Aug-CC-pVDZ (5D, 7F)
 There are   650 symmetry adapted cartesian basis functions of A   symmetry.
 There are   616 symmetry adapted basis functions of A   symmetry.
   616 basis functions,  1006 primitive gaussians,   650 cartesian basis functions
    69 alpha electrons       69 beta electrons
       nuclear repulsion energy      1322.9185941538 Hartrees.
 NAtoms=   42 NActive=   42 NUniq=   42 SFac= 1.00D+00 NAtFMM=   60 NAOKFM=F Big=F
 Integral buffers will be    131072 words long.
 Raffenetti 2 integral format.
 Two-electron integral symmetry is turned on.
 Nuclear repulsion after empirical dispersion term =     1322.8881071859 Hartrees.
 One-electron integrals computed using PRISM.
 NBasis=   616 RedAO= T EigKep=  1.89D-06  NBF=   616
 NBsUse=   616 1.00D-06 EigRej= -1.00D+00 NBFU=   616
 ExpMin= 2.97D-02 ExpMax= 1.17D+04 ExpMxC= 4.01D+02 IAcc=3 IRadAn=         5 AccDes= 0.00D+00
 Harris functional with IExCor= 4639 and IRadAn=       5 diagonalized for initial guess.
 HarFok:  IExCor= 4639 AccDes= 0.00D+00 IRadAn=         5 IDoV= 1 UseB2=F ITyADJ=14
 ICtDFT=  3500011 ScaDFX=  1.000000  1.000000  1.000000  1.000000
 FoFCou: FMM=F IPFlag=           0 FMFlag=      100000 FMFlg1=           0
         NFxFlg=           0 DoJE=T BraDBF=F KetDBF=T FulRan=T
         wScrn=  0.000000 ICntrl=       500 IOpCl=  0 I1Cent=   200000004 NGrid=           0
         NMat0=    1 NMatS0=      1 NMatT0=    0 NMatD0=    1 NMtDS0=    0 NMtDT0=    0
 Petite list used in FoFCou.
 Requested convergence on RMS density matrix=1.00D-08 within 128 cycles.
 Requested convergence on MAX density matrix=1.00D-06.
 Requested convergence on             energy=1.00D-06.
 No special actions if energy rises.
 SCF Done:  E(RwB97XD) =  -881.466183951     A.U. after   16 cycles
            NFock= 16  Conv=0.15D-08     -V/T= 2.0062

 **********************************************************************

            Population analysis using the SCF density.

 **********************************************************************

 Orbital symmetries:
       Occupied  (A) (A) (A) (A) (A) (A) (A) (A) (A) (A) (A) (A)
                 (A) (A) (A) (A) (A) (A) (A) (A) (A) (A) (A) (A)
                 (A) (A) (A) (A) (A) (A) (A) (A) (A) (A) (A) (A)
                 (A) (A) (A) (A) (A) (A) (A) (A) (A) (A) (A) (A)
                 (A) (A) (A) (A) (A) (A) (A) (A) (A) (A) (A) (A)
                 (A) (A) (A) (A) (A) (A) (A) (A) (A)
       Virtual   (A) (A) (A) (A) (A) (A) (A) (A) (A) (A) (A) (A)
                 (A) (A) (A) (A) (A) (A) (A) (A) (A) (A) (A) (A)
                 (A) (A) (A) (A) (A) (A) (A) (A) (A) (A) (A) (A)
                 (A) (A) (A) (A) (A) (A) (A) (A) (A) (A) (A) (A)
                 (A) (A) (A) (A) (A) (A) (A) (A) (A) (A) (A) (A)
                 (A) (A) (A) (A) (A) (A) (A) (A) (A) (A) (A) (A)
                 (A) (A) (A) (A) (A) (A) (A) (A) (A) (A) (A) (A)
                 (A) (A) (A) (A) (A) (A) (A) (A) (A) (A) (A) (A)
                 (A) (A) (A) (A) (A) (A) (A) (A) (A) (A) (A) (A)
                 (A) (A) (A) (A) (A) (A) (A) (A) (A) (A) (A) (A)
                 (A) (A) (A) (A) (A) (A) (A) (A) (A) (A) (A) (A)
                 (A) (A) (A) (A) (A) (A) (A) (A) (A) (A) (A) (A)
                 (A) (A) (A) (A) (A) (A) (A) (A) (A) (A) (A) (A)
                 (A) (A) (A) (A) (A) (A) (A) (A) (A) (A) (A) (A)
                 (A) (A) (A) (A) (A) (A) (A) (A) (A) (A) (A) (A)
                 (A) (A) (A) (A) (A) (A) (A) (A) (A) (A) (A) (A)
                 (A) (A) (A) (A) (A) (A) (A) (A) (A) (A) (A) (A)
                 (A) (A) (A) (A) (A) (A) (A) (A) (A) (A) (A) (A)
                 (A) (A) (A) (A) (A) (A) (A) (A) (A) (A) (A) (A)
                 (A) (A) (A) (A) (A) (A) (A) (A) (A) (A) (A) (A)
                 (A) (A) (A) (A) (A) (A) (A) (A) (A) (A) (A) (A)
                 (A) (A) (A) (A) (A) (A) (A) (A) (A) (A) (A) (A)
                 (A) (A) (A) (A) (A) (A) (A) (A) (A) (A) (A) (A)
                 (A) (A) (A) (A) (A) (A) (A) (A) (A) (A) (A) (A)
                 (A) (A) (A) (A) (A) (A) (A) (A) (A) (A) (A) (A)
                 (A) (A) (A) (A) (A) (A) (A) (A) (A) (A) (A) (A)
                 (A) (A) (A) (A) (A) (A) (A) (A) (A) (A) (A) (A)
                 (A) (A) (A) (A) (A) (A) (A) (A) (A) (A) (A) (A)
                 (A) (A) (A) (A) (A) (A) (A) (A) (A) (A) (A) (A)
                 (A) (A) (A) (A) (A) (A) (A) (A) (A) (A) (A) (A)
                 (A) (A) (A) (A) (A) (A) (A) (A) (A) (A) (A) (A)
                 (A) (A) (A) (A) (A) (A) (A) (A) (A) (A) (A) (A)
                 (A) (A) (A) (A) (A) (A) (A) (A) (A) (A) (A) (A)
                 (A) (A) (A) (A) (A) (A) (A) (A) (A) (A) (A) (A)
                 (A) (A) (A) (A) (A) (A) (A) (A) (A) (A) (A) (A)
                 (A) (A) (A) (A) (A) (A) (A) (A) (A) (A) (A) (A)
                 (A) (A) (A) (A) (A) (A) (A) (A) (A) (A) (A) (A)
                 (A) (A) (A) (A) (A) (A) (A) (A) (A) (A) (A) (A)
                 (A) (A) (A) (A) (A) (A) (A) (A) (A) (A) (A) (A)
                 (A) (A) (A) (A) (A) (A) (A) (A) (A) (A) (A) (A)
                 (A) (A) (A) (A) (A) (A) (A) (A) (A) (A) (A) (A)
                 (A) (A) (A) (A) (A) (A) (A) (A) (A) (A) (A) (A)
                 (A) (A) (A) (A) (A) (A) (A) (A) (A) (A) (A) (A)
                 (A) (A) (A) (A) (A) (A) (A) (A) (A) (A) (A) (A)
                 (A) (A) (A) (A) (A) (A) (A) (A) (A) (A) (A) (A)
                 (A) (A) (A) (A) (A) (A) (A)
 The electronic state is 1-A.
 Alpha  occ. eigenvalues --  -19.38608 -19.37963 -19.37048 -19.36150 -19.35814
 Alpha  occ. eigenvalues --  -14.65872 -14.57780 -10.49945 -10.49504 -10.46962
 Alpha  occ. eigenvalues --  -10.46456 -10.45989 -10.45982 -10.43195 -10.42799
 Alpha  occ. eigenvalues --  -10.41177 -10.40360  -1.24492  -1.22525  -1.22485
 Alpha  occ. eigenvalues --   -1.21416  -1.20560  -1.19659  -1.17168  -1.07378
 Alpha  occ. eigenvalues --   -1.03715  -1.00226  -0.95385  -0.89549  -0.89194
 Alpha  occ. eigenvalues --   -0.88075  -0.81585  -0.79428  -0.78996  -0.73937
 Alpha  occ. eigenvalues --   -0.73866  -0.73131  -0.72868  -0.72667  -0.71948
 Alpha  occ. eigenvalues --   -0.70949  -0.70495  -0.69261  -0.67861  -0.66862
 Alpha  occ. eigenvalues --   -0.65177  -0.63982  -0.63309  -0.61973  -0.61223
 Alpha  occ. eigenvalues --   -0.60550  -0.60207  -0.58442  -0.57768  -0.56946
 Alpha  occ. eigenvalues --   -0.56418  -0.55989  -0.55446  -0.54815  -0.53691
 Alpha  occ. eigenvalues --   -0.52523  -0.51722  -0.51566  -0.51292  -0.50547
 Alpha  occ. eigenvalues --   -0.50244  -0.49190  -0.48512  -0.44180
 Alpha virt. eigenvalues --   -0.12832  -0.10144  -0.05759  -0.04985  -0.04672
 Alpha virt. eigenvalues --   -0.03859  -0.03696  -0.02944  -0.02534  -0.02321
 Alpha virt. eigenvalues --   -0.01826  -0.01563  -0.01224  -0.00540  -0.00358
 Alpha virt. eigenvalues --   -0.00023   0.00218   0.00766   0.01126   0.01614
 Alpha virt. eigenvalues --    0.01774   0.02027   0.02450   0.02727   0.03020
 Alpha virt. eigenvalues --    0.03522   0.03615   0.03705   0.04073   0.04299
 Alpha virt. eigenvalues --    0.04941   0.05242   0.05615   0.05658   0.05923
 Alpha virt. eigenvalues --    0.06130   0.06505   0.06671   0.06982   0.07250
 Alpha virt. eigenvalues --    0.07494   0.07525   0.08009   0.08019   0.08509
 Alpha virt. eigenvalues --    0.08712   0.09180   0.09305   0.09801   0.10017
 Alpha virt. eigenvalues --    0.10270   0.10891   0.11030   0.11263   0.11525
 Alpha virt. eigenvalues --    0.11763   0.11829   0.12081   0.12603   0.12883
 Alpha virt. eigenvalues --    0.13020   0.13408   0.13875   0.14047   0.14291
 Alpha virt. eigenvalues --    0.14475   0.14519   0.15357   0.15456   0.15660
 Alpha virt. eigenvalues --    0.16094   0.16288   0.16355   0.16814   0.16999
 Alpha virt. eigenvalues --    0.17144   0.17212   0.17577   0.17910   0.18318
 Alpha virt. eigenvalues --    0.18403   0.18739   0.18897   0.19199   0.19593
 Alpha virt. eigenvalues --    0.19667   0.20153   0.20395   0.20783   0.21323
 Alpha virt. eigenvalues --    0.21420   0.21678   0.21795   0.21975   0.22150
 Alpha virt. eigenvalues --    0.22538   0.22814   0.23272   0.23386   0.23883
 Alpha virt. eigenvalues --    0.24555   0.24813   0.25151   0.25270   0.25518
 Alpha virt. eigenvalues --    0.25618   0.26456   0.26602   0.27031   0.27204
 Alpha virt. eigenvalues --    0.27470   0.27571   0.27862   0.28241   0.28894
 Alpha virt. eigenvalues --    0.28974   0.29224   0.29883   0.30038   0.30348
 Alpha virt. eigenvalues --    0.30947   0.31130   0.31546   0.31986   0.32328
 Alpha virt. eigenvalues --    0.32397   0.32673   0.33103   0.33360   0.33513
 Alpha virt. eigenvalues --    0.33870   0.34459   0.34995   0.35353   0.35983
 Alpha virt. eigenvalues --    0.36166   0.36442   0.37138   0.37288   0.37522
 Alpha virt. eigenvalues --    0.37758   0.38403   0.38968   0.39063   0.39495
 Alpha virt. eigenvalues --    0.39666   0.39965   0.40560   0.40866   0.41139
 Alpha virt. eigenvalues --    0.41569   0.42566   0.42983   0.43093   0.43359
 Alpha virt. eigenvalues --    0.43894   0.44180   0.44517   0.44763   0.45302
 Alpha virt. eigenvalues --    0.45550   0.45844   0.45987   0.46544   0.47019
 Alpha virt. eigenvalues --    0.47297   0.47613   0.47854   0.48192   0.48686
 Alpha virt. eigenvalues --    0.49214   0.49328   0.49970   0.50308   0.50452
 Alpha virt. eigenvalues --    0.50976   0.51368   0.51853   0.52060   0.52442
 Alpha virt. eigenvalues --    0.52611   0.52997   0.53507   0.53801   0.53984
 Alpha virt. eigenvalues --    0.54313   0.54450   0.54757   0.55059   0.55114
 Alpha virt. eigenvalues --    0.55638   0.56350   0.56469   0.56911   0.57272
 Alpha virt. eigenvalues --    0.57869   0.58245   0.58274   0.59000   0.59682
 Alpha virt. eigenvalues --    0.59969   0.60036   0.60752   0.60964   0.61746
 Alpha virt. eigenvalues --    0.62025   0.62337   0.62792   0.63105   0.63698
 Alpha virt. eigenvalues --    0.64294   0.64665   0.65105   0.65789   0.65966
 Alpha virt. eigenvalues --    0.66734   0.67093   0.67369   0.67493   0.67989
 Alpha virt. eigenvalues --    0.68879   0.68999   0.69369   0.69855   0.70078
 Alpha virt. eigenvalues --    0.70548   0.70958   0.71514   0.71866   0.72600
 Alpha virt. eigenvalues --    0.72799   0.73400   0.73686   0.74190   0.74631
 Alpha virt. eigenvalues --    0.74838   0.75274   0.75584   0.76173   0.76695
 Alpha virt. eigenvalues --    0.76953   0.77150   0.77551   0.78566   0.78927
 Alpha virt. eigenvalues --    0.78943   0.80015   0.80463   0.81237   0.81604
 Alpha virt. eigenvalues --    0.81828   0.82517   0.83007   0.83600   0.84132
 Alpha virt. eigenvalues --    0.84800   0.85286   0.86116   0.86444   0.86657
 Alpha virt. eigenvalues --    0.87691   0.88186   0.88892   0.89756   0.90326
 Alpha virt. eigenvalues --    0.90724   0.90906   0.92016   0.92565   0.93542
 Alpha virt. eigenvalues --    0.93830   0.94600   0.95366   0.95605   0.96611
 Alpha virt. eigenvalues --    0.96744   0.97124   0.98461   0.99551   1.00149
 Alpha virt. eigenvalues --    1.00922   1.01434   1.01591   1.03006   1.03123
 Alpha virt. eigenvalues --    1.03685   1.04285   1.04459   1.05380   1.06745
 Alpha virt. eigenvalues --    1.07081   1.08853   1.09267   1.10150   1.10515
 Alpha virt. eigenvalues --    1.11194   1.11336   1.12234   1.12599   1.12917
 Alpha virt. eigenvalues --    1.13537   1.14407   1.15842   1.16126   1.17105
 Alpha virt. eigenvalues --    1.17968   1.18421   1.19121   1.19767   1.20104
 Alpha virt. eigenvalues --    1.21576   1.21845   1.22492   1.23758   1.24027
 Alpha virt. eigenvalues --    1.25152   1.26149   1.26898   1.28345   1.28796
 Alpha virt. eigenvalues --    1.29870   1.30432   1.31226   1.31750   1.33037
 Alpha virt. eigenvalues --    1.33311   1.33771   1.34572   1.35481   1.35719
 Alpha virt. eigenvalues --    1.37650   1.38272   1.38640   1.39365   1.40688
 Alpha virt. eigenvalues --    1.41876   1.42592   1.43341   1.44058   1.45378
 Alpha virt. eigenvalues --    1.45580   1.46130   1.47242   1.47815   1.48134
 Alpha virt. eigenvalues --    1.49856   1.50678   1.51531   1.52494   1.53746
 Alpha virt. eigenvalues --    1.54773   1.55504   1.56178   1.56433   1.58177
 Alpha virt. eigenvalues --    1.59265   1.60189   1.60890   1.61622   1.62918
 Alpha virt. eigenvalues --    1.63025   1.63783   1.64437   1.65107   1.65730
 Alpha virt. eigenvalues --    1.66229   1.67702   1.68070   1.69046   1.69963
 Alpha virt. eigenvalues --    1.70446   1.71883   1.72480   1.72664   1.73277
 Alpha virt. eigenvalues --    1.73523   1.73966   1.75301   1.76658   1.77332
 Alpha virt. eigenvalues --    1.78000   1.79345   1.79760   1.80094   1.80984
 Alpha virt. eigenvalues --    1.81416   1.81962   1.82513   1.83094   1.83681
 Alpha virt. eigenvalues --    1.84629   1.85588   1.86411   1.87040   1.87463
 Alpha virt. eigenvalues --    1.88031   1.88734   1.89131   1.89799   1.90803
 Alpha virt. eigenvalues --    1.91823   1.92139   1.92671   1.92891   1.94249
 Alpha virt. eigenvalues --    1.94939   1.95815   1.96214   1.96936   1.98162
 Alpha virt. eigenvalues --    1.98218   2.00067   2.00121   2.00835   2.01346
 Alpha virt. eigenvalues --    2.03217   2.03641   2.04957   2.05482   2.05725
 Alpha virt. eigenvalues --    2.07165   2.07516   2.09840   2.10127   2.11571
 Alpha virt. eigenvalues --    2.12058   2.12386   2.13048   2.13305   2.13509
 Alpha virt. eigenvalues --    2.14005   2.15487   2.16576   2.16983   2.17462
 Alpha virt. eigenvalues --    2.19355   2.20174   2.22782   2.23228   2.24640
 Alpha virt. eigenvalues --    2.25020   2.25423   2.26381   2.27448   2.27734
 Alpha virt. eigenvalues --    2.28683   2.29169   2.29516   2.30770   2.31497
 Alpha virt. eigenvalues --    2.33237   2.33883   2.34879   2.35844   2.36948
 Alpha virt. eigenvalues --    2.37978   2.39351   2.41369   2.41964   2.43431
 Alpha virt. eigenvalues --    2.44868   2.45386   2.46094   2.46356   2.47404
 Alpha virt. eigenvalues --    2.48813   2.50027   2.51922   2.53360   2.55335
 Alpha virt. eigenvalues --    2.55726   2.56677   2.57072   2.58225   2.59846
 Alpha virt. eigenvalues --    2.60623   2.61853   2.62473   2.63050   2.64257
 Alpha virt. eigenvalues --    2.64916   2.67272   2.68704   2.69319   2.69853
 Alpha virt. eigenvalues --    2.71649   2.72161   2.72498   2.73296   2.74670
 Alpha virt. eigenvalues --    2.75791   2.76473   2.76886   2.78395   2.79122
 Alpha virt. eigenvalues --    2.79969   2.82667   2.83736   2.84749   2.85759
 Alpha virt. eigenvalues --    2.87334   2.89185   2.89811   2.91010   2.92566
 Alpha virt. eigenvalues --    2.94777   2.96580   2.99547   3.04421   3.06469
 Alpha virt. eigenvalues --    3.07852   3.12296   3.17677   3.21127   3.24544
 Alpha virt. eigenvalues --    3.29978   3.30627   3.34839   3.36509   3.38103
 Alpha virt. eigenvalues --    3.40707   3.41734   3.42378   3.43060   3.44186
 Alpha virt. eigenvalues --    3.45191   3.47846   3.50092   3.52694   3.53640
 Alpha virt. eigenvalues --    3.56584   3.62150   3.64298   3.64477   3.71857
 Alpha virt. eigenvalues --    3.74148   3.80693   3.83941   3.90149   3.92432
 Alpha virt. eigenvalues --    3.95351   4.04718   4.06014   4.10707   4.12394
 Alpha virt. eigenvalues --    4.37346   4.98788
          Condensed to atoms (all electrons):
               1          2          3          4          5          6
     1  C   24.957634 -10.168686  -3.123570  -0.274942   2.050170  -5.302321
     2  C  -10.168686  25.564579  -3.519322  -0.383312  -0.772699   0.694688
     3  C   -3.123570  -3.519322  16.598012  -1.102566  -2.068412   0.956327
     4  N   -0.274942  -0.383312  -1.102566   7.918758   0.293399  -0.015496
     5  C    2.050170  -0.772699  -2.068412   0.293399  10.674401  -2.967967
     6  C   -5.302321   0.694688   0.956327  -0.015496  -2.967967  12.509886
     7  C   -0.412661 -10.045646  -1.940340   1.039866  -0.653269   0.075763
     8  N   -0.301466   2.056323   0.545484  -0.128939   0.143620  -0.263268
     9  C    0.001797  -0.428127  -0.206226   0.049487  -0.010935  -0.061062
    10  C    0.011390   0.363802  -0.034929   0.022395   0.020950  -0.029431
    11  C   -0.340561   0.200854  -0.889623   0.029536  -0.101345   0.042454
    12  O    0.040819  -0.133455   0.040046  -0.197043   0.019792  -0.027951
    13  O   -0.004590   0.011748  -0.029396   0.000461   0.015632  -0.008274
    14  O   -0.013568  -0.031685  -0.075529   0.001898  -0.014857   0.011297
    15  H    0.020489  -0.172659  -0.018701   0.002589   0.000551  -0.002108
    16  H    0.002431   0.042501   0.026539  -0.002738   0.002743  -0.003476
    17  H    0.005532  -0.123525  -0.023066   0.005141  -0.001049  -0.000449
    18  H   -0.081204   0.434982   0.271531  -0.014840  -0.004270   0.006160
    19  H    0.078689   0.038976  -0.164513   0.017756   0.024062  -0.031374
    20  H    0.021630   0.117958   0.025097  -0.000190  -0.001729   0.001317
    21  H    0.003662   1.142425  -0.288824   0.001752   0.041878  -0.004798
    22  H   -0.282819  -1.137494  -0.605668  -0.062958  -0.353617   0.201240
    23  H    0.236741  -0.003047   0.135850  -0.128769  -0.588094   0.146490
    24  H    0.718768  -0.081549  -0.188578  -0.014576   0.423303  -1.206699
    25  H   -2.734844   1.338049   0.310199  -0.085825  -0.235785   0.848080
    26  C   -0.273505   0.785691   0.056416  -0.061934  -0.013743   0.043748
    27  H   -0.083096  -0.531074   0.749770   0.035490  -0.698369   0.022082
    28  H    0.043961  -0.183647  -0.082514   0.026571   0.000156  -0.000143
    29  H   -0.001960   0.011432   0.012257  -0.001866   0.000144   0.000416
    30  H   -0.020977   0.018202  -0.029109   0.019690  -0.016699   0.017306
    31  H    0.022151  -0.010875   0.005265  -0.019053   0.003949  -0.010874
    32  H    0.001563   0.002748  -0.008635   0.004845   0.001131  -0.000416
    33  H   -0.007207  -0.009593   0.034740  -0.001944   0.003099  -0.000879
    34  O   -0.000544   0.002946  -0.001443   0.001380   0.002341   0.001567
    35  H   -0.000783   0.000489   0.002999  -0.000521  -0.002782   0.000656
    36  H   -0.000103  -0.000063  -0.002133   0.000745   0.000602   0.000060
    37  H   -0.017574   0.018158  -0.072582  -0.000625  -0.004702   0.010440
    38  H   -0.025289  -0.035661   0.124929  -0.000536  -0.042586   0.057947
    39  H    0.003777   0.181437   0.021996  -0.006659   0.017132  -0.016188
    40  O   -0.000010   0.000005  -0.000155   0.000228   0.000037   0.000046
    41  H    0.000015  -0.000004  -0.000078  -0.000014   0.000093  -0.000038
    42  H   -0.000017  -0.000059   0.000158   0.000068  -0.000283   0.000097
               7          8          9         10         11         12
     1  C   -0.412661  -0.301466   0.001797   0.011390  -0.340561   0.040819
     2  C  -10.045646   2.056323  -0.428127   0.363802   0.200854  -0.133455
     3  C   -1.940340   0.545484  -0.206226  -0.034929  -0.889623   0.040046
     4  N    1.039866  -0.128939   0.049487   0.022395   0.029536  -0.197043
     5  C   -0.653269   0.143620  -0.010935   0.020950  -0.101345   0.019792
     6  C    0.075763  -0.263268  -0.061062  -0.029431   0.042454  -0.027951
     7  C   27.785130  -6.587223  -0.285377  -0.034377  -1.236068   0.016738
     8  N   -6.587223  15.414726  -0.077830  -0.368440  -0.810893  -0.000833
     9  C   -0.285377  -0.077830   5.830489   0.035218   0.700892   0.000473
    10  C   -0.034377  -0.368440   0.035218   6.233301  -0.949878  -0.001332
    11  C   -1.236068  -0.810893   0.700892  -0.949878   8.365124  -0.004680
    12  O    0.016738  -0.000833   0.000473  -0.001332  -0.004680   8.095835
    13  O    0.007264   0.004569   0.002790   0.000306  -0.003601  -0.057033
    14  O    0.069937  -0.059597   0.034871  -0.017827   0.028167   0.003888
    15  H    0.654985  -1.101351  -0.174164   0.140286   0.056296  -0.000016
    16  H   -0.123138  -0.119994   0.155027  -0.223330   0.225837  -0.000086
    17  H    0.248317   0.111596  -0.030957  -0.402940   0.258734  -0.000118
    18  H   -0.063877   0.438192  -0.207224   0.173007  -1.078087   0.000142
    19  H   -0.190434  -0.087359   0.028717   0.329421  -0.153506  -0.000833
    20  H    0.111729  -0.267631  -0.307886   0.006774   0.013641   0.000048
    21  H   -2.758798  -0.385112  -0.009682  -0.054864   0.724993   0.000558
    22  H    0.151899  -0.219676   0.034666  -0.022469   0.057051   0.029484
    23  H   -0.019172   0.008791  -0.000263   0.000922   0.007520   0.013183
    24  H    0.097645  -0.002252   0.000258  -0.000031  -0.005298  -0.000308
    25  H   -0.330799   0.034146  -0.013540  -0.007427  -0.009698   0.000199
    26  C   -1.376740   1.249056  -0.252519  -0.023796  -0.156494  -0.000040
    27  H   -0.027310  -0.019249  -0.010677  -0.002686  -0.052024   0.015186
    28  H    0.549779  -0.261510  -0.103530   0.010343  -0.014321  -0.001162
    29  H   -0.031732  -0.026099   0.018608  -0.005630   0.017502   0.000710
    30  H    0.009653  -0.002383  -0.000108  -0.000475  -0.000222   0.317568
    31  H    0.001068   0.002654   0.000782  -0.000096   0.002147   0.348521
    32  H   -0.001393   0.002972  -0.000590  -0.000395  -0.000027   0.000814
    33  H    0.020071  -0.027668   0.003512   0.008226  -0.000890  -0.000691
    34  O    0.000025  -0.000019   0.000008   0.000024   0.000087  -0.060102
    35  H   -0.000251  -0.000035  -0.000014   0.000009   0.000024   0.001356
    36  H    0.000127   0.000003  -0.000002   0.000005  -0.000043   0.003528
    37  H    0.174502  -0.242610   0.000216   0.071483  -0.069095  -0.000032
    38  H   -0.013417   0.095272  -0.087771  -0.044747   0.075681   0.000713
    39  H   -0.302218  -0.492227   0.112180  -0.003681   0.053485  -0.000074
    40  O    0.000000  -0.000000   0.000000  -0.000000  -0.000000   0.001141
    41  H    0.000006   0.000000   0.000000  -0.000000  -0.000001  -0.000099
    42  H   -0.000010  -0.000002   0.000000   0.000000   0.000001   0.000830
              13         14         15         16         17         18
     1  C   -0.004590  -0.013568   0.020489   0.002431   0.005532  -0.081204
     2  C    0.011748  -0.031685  -0.172659   0.042501  -0.123525   0.434982
     3  C   -0.029396  -0.075529  -0.018701   0.026539  -0.023066   0.271531
     4  N    0.000461   0.001898   0.002589  -0.002738   0.005141  -0.014840
     5  C    0.015632  -0.014857   0.000551   0.002743  -0.001049  -0.004270
     6  C   -0.008274   0.011297  -0.002108  -0.003476  -0.000449   0.006160
     7  C    0.007264   0.069937   0.654985  -0.123138   0.248317  -0.063877
     8  N    0.004569  -0.059597  -1.101351  -0.119994   0.111596   0.438192
     9  C    0.002790   0.034871  -0.174164   0.155027  -0.030957  -0.207224
    10  C    0.000306  -0.017827   0.140286  -0.223330  -0.402940   0.173007
    11  C   -0.003601   0.028167   0.056296   0.225837   0.258734  -1.078087
    12  O   -0.057033   0.003888  -0.000016  -0.000086  -0.000118   0.000142
    13  O    7.799665  -0.036622  -0.000183  -0.000037   0.000350  -0.000045
    14  O   -0.036622   7.965225   0.023450  -0.004257   0.011103   0.002971
    15  H   -0.000183   0.023450   2.892034   0.127639  -0.315926  -0.040525
    16  H   -0.000037  -0.004257   0.127639   2.098461  -0.612722  -0.312794
    17  H    0.000350   0.011103  -0.315926  -0.612722   2.229084   0.181129
    18  H   -0.000045   0.002971  -0.040525  -0.312794   0.181129   2.612545
    19  H   -0.001091  -0.021964   0.051204   0.202500  -0.435538  -0.667825
    20  H   -0.000105   0.003315  -0.569954  -0.251136   0.193482   0.061438
    21  H    0.000204  -0.002510   0.092976   0.064651  -0.059891  -0.344240
    22  H    0.014097   0.055671  -0.020198  -0.005852   0.023156   0.071029
    23  H    0.000399  -0.000555   0.000062   0.000135  -0.000108   0.000326
    24  H   -0.000051   0.000306   0.000052  -0.000132   0.000064  -0.001442
    25  H   -0.000163  -0.001120  -0.002661   0.003077  -0.001449   0.010979
    26  C    0.002725  -0.007743  -0.177032  -0.020394   0.014987   0.078646
    27  H   -0.001228  -0.002319  -0.000630  -0.000331   0.000983   0.002508
    28  H    0.000934   0.101531   0.067973  -0.000857   0.009028  -0.020672
    29  H    0.006958   0.371363   0.000403   0.000792   0.000523   0.000880
    30  H    0.034941  -0.003433   0.000198   0.000025  -0.000002  -0.000150
    31  H   -0.009197   0.001184   0.000077  -0.000031  -0.000100  -0.000110
    32  H    0.358075  -0.000823  -0.000334  -0.000018   0.000012   0.000048
    33  H    0.293307   0.043436   0.002751   0.000196  -0.000554  -0.000434
    34  O   -0.000098   0.000111   0.000001   0.000003  -0.000021  -0.000013
    35  H    0.000169  -0.000039  -0.000005   0.000002  -0.000002   0.000002
    36  H   -0.000022   0.000021   0.000004  -0.000001  -0.000001  -0.000009
    37  H    0.002787   0.002073  -0.006516  -0.004910   0.012542   0.002597
    38  H   -0.007837   0.012289   0.006819   0.000393  -0.006566  -0.002234
    39  H   -0.000113  -0.005291   0.029506   0.006126  -0.005757   0.007670
    40  O    0.000041   0.000000  -0.000000  -0.000000   0.000000   0.000000
    41  H   -0.000001  -0.000000   0.000000  -0.000000   0.000000  -0.000000
    42  H    0.000049   0.000001   0.000000   0.000000  -0.000000   0.000000
              19         20         21         22         23         24
     1  C    0.078689   0.021630   0.003662  -0.282819   0.236741   0.718768
     2  C    0.038976   0.117958   1.142425  -1.137494  -0.003047  -0.081549
     3  C   -0.164513   0.025097  -0.288824  -0.605668   0.135850  -0.188578
     4  N    0.017756  -0.000190   0.001752  -0.062958  -0.128769  -0.014576
     5  C    0.024062  -0.001729   0.041878  -0.353617  -0.588094   0.423303
     6  C   -0.031374   0.001317  -0.004798   0.201240   0.146490  -1.206699
     7  C   -0.190434   0.111729  -2.758798   0.151899  -0.019172   0.097645
     8  N   -0.087359  -0.267631  -0.385112  -0.219676   0.008791  -0.002252
     9  C    0.028717  -0.307886  -0.009682   0.034666  -0.000263   0.000258
    10  C    0.329421   0.006774  -0.054864  -0.022469   0.000922  -0.000031
    11  C   -0.153506   0.013641   0.724993   0.057051   0.007520  -0.005298
    12  O   -0.000833   0.000048   0.000558   0.029484   0.013183  -0.000308
    13  O   -0.001091  -0.000105   0.000204   0.014097   0.000399  -0.000051
    14  O   -0.021964   0.003315  -0.002510   0.055671  -0.000555   0.000306
    15  H    0.051204  -0.569954   0.092976  -0.020198   0.000062   0.000052
    16  H    0.202500  -0.251136   0.064651  -0.005852   0.000135  -0.000132
    17  H   -0.435538   0.193482  -0.059891   0.023156  -0.000108   0.000064
    18  H   -0.667825   0.061438  -0.344240   0.071029   0.000326  -0.001442
    19  H    2.311415  -0.059438   0.222100  -0.184293   0.001397  -0.000100
    20  H   -0.059438   2.496578  -0.095485   0.012799  -0.000050  -0.000101
    21  H    0.222100  -0.095485   3.670919  -0.036584   0.001811   0.000109
    22  H   -0.184293   0.012799  -0.036584   4.644733   0.003278  -0.008550
    23  H    0.001397  -0.000050   0.001811   0.003278   2.149135  -0.106357
    24  H   -0.000100  -0.000101   0.000109  -0.008550  -0.106357   2.064105
    25  H    0.002051   0.000280  -0.173218  -0.012144  -0.011128  -0.128493
    26  C   -0.032340  -0.023495  -0.038220   0.042074   0.002466  -0.005488
    27  H   -0.013426   0.000472  -0.002750  -0.032405  -0.225208   0.011442
    28  H    0.017987   0.017435   0.008017  -0.074307   0.001079   0.000152
    29  H    0.006635   0.000184   0.000912   0.001242  -0.000138  -0.000007
    30  H   -0.000094  -0.000164   0.000407   0.006006   0.003600  -0.000407
    31  H    0.001931   0.000032  -0.000004  -0.004575   0.003607   0.000159
    32  H   -0.000163   0.000016  -0.000188   0.003516  -0.000122  -0.000001
    33  H    0.000896   0.000114   0.001326  -0.036676  -0.000802   0.000380
    34  O    0.000247   0.000000  -0.000018   0.000176   0.001019  -0.000006
    35  H   -0.000108  -0.000000  -0.000008   0.002281  -0.000137   0.000024
    36  H    0.000103  -0.000001   0.000004  -0.001892  -0.000037  -0.000004
    37  H   -0.007490   0.012414   0.013647   0.007701   0.000174  -0.000589
    38  H    0.008034   0.003356   0.020443  -0.001283  -0.001250   0.000728
    39  H    0.005097   0.036549   0.098617   0.000207   0.000415  -0.000398
    40  O    0.000003   0.000000  -0.000000  -0.000230  -0.000152   0.000008
    41  H    0.000001   0.000000   0.000000  -0.000042  -0.000005  -0.000002
    42  H   -0.000003   0.000000  -0.000001   0.000137  -0.000129   0.000006
              25         26         27         28         29         30
     1  C   -2.734844  -0.273505  -0.083096   0.043961  -0.001960  -0.020977
     2  C    1.338049   0.785691  -0.531074  -0.183647   0.011432   0.018202
     3  C    0.310199   0.056416   0.749770  -0.082514   0.012257  -0.029109
     4  N   -0.085825  -0.061934   0.035490   0.026571  -0.001866   0.019690
     5  C   -0.235785  -0.013743  -0.698369   0.000156   0.000144  -0.016699
     6  C    0.848080   0.043748   0.022082  -0.000143   0.000416   0.017306
     7  C   -0.330799  -1.376740  -0.027310   0.549779  -0.031732   0.009653
     8  N    0.034146   1.249056  -0.019249  -0.261510  -0.026099  -0.002383
     9  C   -0.013540  -0.252519  -0.010677  -0.103530   0.018608  -0.000108
    10  C   -0.007427  -0.023796  -0.002686   0.010343  -0.005630  -0.000475
    11  C   -0.009698  -0.156494  -0.052024  -0.014321   0.017502  -0.000222
    12  O    0.000199  -0.000040   0.015186  -0.001162   0.000710   0.317568
    13  O   -0.000163   0.002725  -0.001228   0.000934   0.006958   0.034941
    14  O   -0.001120  -0.007743  -0.002319   0.101531   0.371363  -0.003433
    15  H   -0.002661  -0.177032  -0.000630   0.067973   0.000403   0.000198
    16  H    0.003077  -0.020394  -0.000331  -0.000857   0.000792   0.000025
    17  H   -0.001449   0.014987   0.000983   0.009028   0.000523  -0.000002
    18  H    0.010979   0.078646   0.002508  -0.020672   0.000880  -0.000150
    19  H    0.002051  -0.032340  -0.013426   0.017987   0.006635  -0.000094
    20  H    0.000280  -0.023495   0.000472   0.017435   0.000184  -0.000164
    21  H   -0.173218  -0.038220  -0.002750   0.008017   0.000912   0.000407
    22  H   -0.012144   0.042074  -0.032405  -0.074307   0.001242   0.006006
    23  H   -0.011128   0.002466  -0.225208   0.001079  -0.000138   0.003600
    24  H   -0.128493  -0.005488   0.011442   0.000152  -0.000007  -0.000407
    25  H    3.060994   0.035049   0.010817  -0.005060   0.000186  -0.000152
    26  C    0.035049   4.854174  -0.001047  -0.128953   0.013872  -0.000288
    27  H    0.010817  -0.001047   1.757842  -0.004462   0.001313  -0.016794
    28  H   -0.005060  -0.128953  -0.004462   0.657275  -0.177568   0.005908
    29  H    0.000186   0.013872   0.001313  -0.177568   0.618230  -0.001577
    30  H   -0.000152  -0.000288  -0.016794   0.005908  -0.001577   0.620761
    31  H   -0.000087  -0.000350  -0.004762  -0.001530   0.000453  -0.173341
    32  H    0.000026   0.000281   0.000523   0.000422   0.000486  -0.005612
    33  H   -0.000253  -0.014825   0.003816  -0.005650  -0.002207  -0.003932
    34  O   -0.000001  -0.000005  -0.004121   0.000134   0.000049  -0.004225
    35  H   -0.000011   0.000010   0.001824   0.000072  -0.000019  -0.000265
    36  H    0.000000   0.000004   0.002936  -0.000028   0.000019  -0.001863
    37  H    0.000684   0.193674  -0.000854   0.041048   0.000902   0.000870
    38  H    0.003258   0.071896  -0.003940   0.002417  -0.001858  -0.000986
    39  H    0.006524   0.220313   0.001886  -0.034576   0.005270  -0.000261
    40  O   -0.000001  -0.000000   0.000723   0.000006  -0.000004   0.000452
    41  H    0.000000  -0.000000  -0.000198   0.000001  -0.000000   0.000034
    42  H   -0.000000  -0.000000   0.000583  -0.000012   0.000001   0.000224
              31         32         33         34         35         36
     1  C    0.022151   0.001563  -0.007207  -0.000544  -0.000783  -0.000103
     2  C   -0.010875   0.002748  -0.009593   0.002946   0.000489  -0.000063
     3  C    0.005265  -0.008635   0.034740  -0.001443   0.002999  -0.002133
     4  N   -0.019053   0.004845  -0.001944   0.001380  -0.000521   0.000745
     5  C    0.003949   0.001131   0.003099   0.002341  -0.002782   0.000602
     6  C   -0.010874  -0.000416  -0.000879   0.001567   0.000656   0.000060
     7  C    0.001068  -0.001393   0.020071   0.000025  -0.000251   0.000127
     8  N    0.002654   0.002972  -0.027668  -0.000019  -0.000035   0.000003
     9  C    0.000782  -0.000590   0.003512   0.000008  -0.000014  -0.000002
    10  C   -0.000096  -0.000395   0.008226   0.000024   0.000009   0.000005
    11  C    0.002147  -0.000027  -0.000890   0.000087   0.000024  -0.000043
    12  O    0.348521   0.000814  -0.000691  -0.060102   0.001356   0.003528
    13  O   -0.009197   0.358075   0.293307  -0.000098   0.000169  -0.000022
    14  O    0.001184  -0.000823   0.043436   0.000111  -0.000039   0.000021
    15  H    0.000077  -0.000334   0.002751   0.000001  -0.000005   0.000004
    16  H   -0.000031  -0.000018   0.000196   0.000003   0.000002  -0.000001
[...]
 5,-0.00073248,0.00005035,0.00040459,0.00017012,0.00016884,-0.00015244,
 -0.00002702,0.00001314,-0.00009461,-0.00010155,-0.00047342,0.00019307,
 0.00007274,-0.00004288,0.00028775,0.00010143,-0.00019218,0.00003280,-0
 .00052722,-0.00001888,-0.00000710,-0.00020618,-0.00002098,-0.00004932,
 0.00005742,-0.00006194,-0.00004639,-0.00002460,0.00002401,-0.00021182,
 0.00000272,-0.00003627,-0.00025568,-0.00018993,0.00004620,0.00011546,-
 0.00003593,-0.00000955,-0.00000222,0.00000288,0.00000351,0.00000602,0.
 00000009,0.00000604,0.00000841,-0.00000785,0.07780682,0.04294939,-0.08
 518714,-0.00029987,0.00021672,0.00003270,0.00077352,-0.00041051,-0.000
 15308,-0.00000686,0.00000693,-0.00001394,0.00000744,0.00005073,0.00004
 664,-0.00004989,0.00001965,-0.00005834,0.00003817,-0.00003697,0.000043
 25,-0.00000902,0.00011607,-0.00002548,0.00003584,-0.00002028,0.0000259
 7,-0.00002120,-0.00000027,0.00000263,0.00000199,0.00000662,-0.00000182
 ,-0.01345530,-0.00627780,0.00714405,-0.08955117,-0.05410529,0.10061943
 ,-0.00018826,0.00030912,-0.00002457,0.00005777,-0.00022148,-0.00001166
 ,-0.00023478,0.00012834,0.00004070,0.00027320,0.00006311,-0.00005481,0
 .00003168,-0.00010151,0.00002058,-0.00011139,-0.00007024,0.00009294,0.
 00064919,0.00093050,0.00123663,-0.00564186,0.00492262,-0.00891045,0.00
 241348,-0.00188022,0.00094930,0.00013155,-0.00012819,0.00018443,0.0003
 5665,-0.00019973,0.00001277,-0.00006712,-0.00007311,-0.00005475,-0.000
 27770,0.00002021,0.00003145,-0.00087871,0.00077472,0.00005810,-0.00008
 769,0.00012258,0.00001976,-0.00001652,0.00001408,-0.00007714,-0.000025
 38,-0.00000331,0.00010715,-0.00000043,-0.00000486,-0.00010422,-0.00002
 408,-0.00012107,0.00018054,0.00056799,0.00098239,-0.00099381,-0.000213
 22,-0.00099293,-0.00109759,0.00013050,0.00005335,0.00006915,0.00001017
 ,-0.00001146,-0.00000594,-0.00002167,-0.00000934,-0.00001180,0.0000152
 0,-0.00011731,-0.00011766,-0.20638088,0.11710368,-0.01070680,-0.000028
 39,0.00005971,0.00001643,0.00132670,-0.00141945,-0.00005279,-0.0000512
 1,-0.00006726,0.00002287,0.00010829,0.00007183,0.00006108,0.00004512,-
 0.00001204,0.00003313,0.00003631,-0.00003345,-0.00003504,0.00023045,-0
 .00002463,-0.00008570,-0.00004444,-0.00000584,-0.00002311,0.00003062,0
 .00000771,-0.00000085,0.00001275,0.00000284,0.00000796,0.00479456,-0.0
 0438191,0.00088231,-0.01768828,0.01599140,-0.00149709,0.22077235,0.000
 09509,0.00002408,0.00004899,-0.00000215,-0.00015697,0.00010556,-0.0000
 7605,-0.00008592,0.00002451,0.00013014,0.00008375,-0.00002669,0.000031
 24,-0.00001949,0.00001713,-0.00001750,0.00000751,-0.00001189,-0.002500
 43,0.00173319,-0.00095729,0.00717934,-0.00578321,0.00798925,0.00219662
 ,0.00035266,-0.00086766,-0.00034486,0.00023576,-0.00003587,-0.00016086
 ,0.00007005,-0.00021571,0.00006822,0.00000679,0.00000480,0.00011950,0.
 00010076,-0.00009781,0.00074144,-0.00059526,0.00000993,0.00000010,-0.0
 0009481,-0.00012406,-0.00001556,0.00002971,0.00011854,-0.00011041,-0.0
 0002058,-0.00016670,0.00000859,-0.00001735,0.00005997,-0.00000007,-0.0
 0002756,-0.00011132,-0.00093544,-0.00021130,0.00051558,0.00052736,0.00
 073439,0.00106189,-0.00006027,-0.00004729,0.00001727,-0.00000004,0.000
 00176,-0.00000404,0.00000693,0.00000275,-0.00000063,0.00000311,-0.0000
 1208,0.00000618,0.11627091,-0.13763809,0.00805358,-0.00004312,0.000030
 50,0.00002133,-0.00109993,0.00108551,0.00007277,0.00004714,0.00005087,
 -0.00010805,-0.00004305,-0.00003195,-0.00000824,-0.00003157,0.00000687
 ,-0.00002361,-0.00002209,-0.00000700,0.00002418,-0.00020780,-0.0000896
 1,0.00014506,0.00003506,0.00000177,0.00001349,-0.00002490,-0.00000485,
 0.00000182,-0.00001069,-0.00000098,-0.00000477,0.02188029,-0.01405016,
 0.00206505,-0.01196639,0.00918653,-0.00162269,-0.13167807,0.14514855,-
 0.00011470,-0.00006783,0.00003547,0.00027946,-0.00032824,-0.00015571,0
 .00004154,0.00015533,-0.00001694,-0.00000677,-0.00010423,0.00002639,-0
 .00005009,-0.00001475,-0.00002837,0.00002728,-0.00002365,0.00001303,-0
 .00178537,0.00504284,0.00265731,-0.02997062,0.02432835,-0.01778534,-0.
 00492147,-0.00071282,0.00187199,0.00030576,-0.00034994,0.00029354,0.00
 047274,-0.00020821,0.00017711,0.00003288,0.00001122,0.00005241,0.00010
 035,-0.00012320,0.00021246,-0.00134194,0.00112236,0.00062165,0.0004536
 3,-0.00001545,-0.00016278,0.00003711,-0.00007573,-0.00007062,0.0000489
 0,-0.00005531,0.00016297,0.00011338,-0.00004229,-0.00009175,0.00008767
 ,-0.00007415,0.00018037,0.00154629,-0.00078863,0.00043096,0.00135163,-
 0.00128038,0.00031439,0.00008829,0.00002822,-0.00004723,0.00000048,-0.
 00000721,0.00000452,-0.00000218,-0.00000428,-0.00000010,-0.00000960,-0
 .00001604,0.00001343,-0.00944533,0.00706969,-0.04953885,-0.00000099,0.
 00000141,-0.00001815,0.00165635,-0.00159408,-0.00125583,-0.00007456,-0
 .00000776,-0.00003520,-0.00004845,-0.00002810,-0.00004972,-0.00001887,
 0.00001194,-0.00002824,-0.00007660,0.00003537,-0.00001128,0.00007334,0
 .00015505,-0.00028983,0.00000824,-0.00000395,0.00001861,-0.00000471,-0
 .00000121,-0.00000176,0.00000460,0.00000032,-0.00000420,0.01299919,-0.
 00800644,0.00185843,0.00830338,-0.00803879,0.00139200,0.01983813,-0.01
 598931,0.05925482,-0.00001091,-0.00003375,0.00000767,-0.00002148,0.000
 10545,-0.00002011,0.00018694,0.00008124,-0.00004063,-0.00060502,0.0004
 0567,0.00005701,-0.00004729,-0.00020829,0.00004441,-0.00004935,0.00001
 873,-0.00000152,0.00007518,0.00002402,0.00001422,-0.00013907,0.0000287
 2,-0.00000461,0.00006416,0.00001614,-0.00003165,0.00000943,0.00000271,
 0.00001067,0.00002478,-0.00003271,-0.00001710,-0.00177610,0.00083714,-
 0.00149025,-0.00036253,-0.00015101,-0.00026424,-0.00022385,0.00000198,
 -0.00001084,0.00000379,-0.00001128,-0.00000190,-0.00001734,0.00000027,
 0.00000281,0.00000751,0.00000103,-0.00000781,-0.00000589,0.00000560,-0
 .00000313,-0.00001616,0.00000661,-0.00001511,-0.00002285,0.00001380,-0
 .00000128,-0.00002777,0.00000414,-0.00000565,0.00008846,0.00000468,0.0
 0001318,0.00002286,-0.00005038,0.00002175,-0.00001397,0.00000130,0.000
 00385,-0.00000753,0.00000024,0.00000232,0.00003850,-0.00001934,0.00004
 344,0.00118713,-0.00093200,-0.00011225,0.00012049,-0.00009109,0.000013
 38,0.00003475,0.00003100,0.00002087,0.00041403,0.00040800,0.00044305,0
 .00182389,-0.00099543,0.00234756,-0.00000896,-0.00000199,0.00007651,0.
 00017391,0.00002659,-0.00004392,-0.01510755,-0.00281129,0.00161179,-0.
 00323095,0.00193036,-0.00125488,-0.00131004,0.00091325,-0.00058489,0.0
 0000458,-0.00000999,-0.00000034,-0.00000001,-0.00000692,0.00001594,-0.
 00001968,0.00001644,0.00000460,0.43128253,-0.00002724,-0.00003702,0.00
 000536,-0.00004060,0.00003519,0.00000343,0.00003525,-0.00003769,0.0000
 0085,-0.00000759,0.00000399,0.00001934,-0.00010564,-0.00000120,0.00002
 126,0.00008328,0.00002444,-0.00001145,-0.00003811,-0.00003141,-0.00002
 326,0.00000449,0.00005368,-0.00000111,-0.00000570,-0.00001016,0.000010
 67,0.00000271,-0.00001144,-0.00000473,0.00001103,0.00000793,0.00001221
 ,0.00003214,0.00039544,-0.00010067,-0.00003311,0.00012652,0.00000827,-
 0.00006071,0.00009814,-0.00000411,0.00000541,0.00000591,0.00000316,0.0
 0000326,0.00000320,-0.00000067,0.00000038,0.00000839,-0.00000164,-0.00
 000347,0.00000206,0.00000179,0.00000208,-0.00000935,0.00000302,0.00000
 114,0.00000133,-0.00000194,0.00000216,0.00000961,0.00000058,0.00000116
 ,-0.00003079,-0.00000240,-0.00003995,0.00001044,-0.00002270,-0.0000119
 6,0.00000351,-0.00000401,0.00000196,-0.00000095,-0.00000176,-0.0000048
 1,-0.00000229,0.00000235,-0.00001795,-0.00009689,-0.00002793,0.0000469
 6,-0.00007169,-0.00000194,0.00003112,-0.00002360,0.00000679,-0.0000159
 6,-0.00013460,-0.00007910,0.00009855,-0.00042297,0.00034288,0.00004537
 ,-0.00003803,0.00002484,0.00003236,-0.00003175,0.00000503,-0.00280401,
 0.00345455,0.00112480,0.00004762,-0.00510886,-0.00307814,0.00079814,-0
 .00012104,-0.00020568,0.00000503,0.00000456,0.00000228,0.00000427,-0.0
 0000403,-0.00000707,-0.00000357,0.00000054,-0.00000055,0.13595863,0.20
 546185,0.00000351,0.00000883,-0.00000375,0.00000628,0.00000204,0.00000
 091,0.00001240,0.00002272,-0.00001130,-0.00012255,0.00009913,0.0000242
 5,0.00002478,-0.00002211,-0.00001076,-0.00003439,-0.00000041,0.0000135
 8,0.00001704,-0.00000099,-0.00000899,-0.00002935,0.00000168,0.00002843
 ,0.00001646,0.00000783,-0.00001534,-0.00000066,0.00000253,0.00000566,-
 0.00001156,-0.00000437,-0.00000959,-0.00025175,-0.00010769,0.00059401,
 -0.00016055,-0.00002282,0.00007503,-0.00005419,-0.00000359,0.00007924,
 -0.00000005,0.00000033,0.00000092,-0.00000426,0.00000024,0.00000148,0.
 00000086,-0.00000531,-0.00000375,-0.00000521,0.00000420,0.00000054,0.0
 0000401,-0.00000094,-0.00000925,-0.00000356,0.00000019,0.00000265,-0.0
 0000473,0.00000004,0.00000344,0.00000952,-0.00000321,-0.00002037,0.000
 01895,-0.00001603,-0.00002481,0.00000085,-0.00000128,-0.00000844,-0.00
 000336,0.00000003,-0.00000432,0.00000984,0.00000299,-0.00001306,0.0002
 5316,-0.00018849,-0.00007923,0.00002096,-0.00001749,-0.00000896,-0.000
 00486,0.00000306,-0.00002399,0.00016129,0.00000395,-0.00005042,-0.0000
 2765,0.00035700,-0.00087165,0.00007312,0.00001195,-0.00000866,0.000091
 49,0.00002378,-0.00008938,0.00256035,0.00116149,0.00500670,-0.00062525
 ,-0.00320905,-0.00896825,-0.00049177,-0.00018550,-0.00031301,0.0000049
 0,0.00000140,0.00000057,-0.00000265,-0.00000716,0.00000165,-0.00000263
 ,0.00000120,0.00000403,-0.06755363,0.27776554,0.57636270,-0.00000825,-
 0.00000443,0.00000158,-0.00000720,-0.00000415,0.00000242,-0.00000895,-
 0.00001643,0.00000317,0.00004070,-0.00002559,0.00000616,-0.00002794,0.
 00001887,-0.00000032,0.00002582,0.00000970,-0.00000296,-0.00001839,-0.
 00000807,-0.00000829,0.00002144,0.00000527,0.00000348,-0.00001066,-0.0
 0000288,0.00000544,-0.00000135,-0.00000236,-0.00000164,-0.00000240,0.0
 0000653,0.00000417,0.00009156,0.00006868,0.00002689,0.00003078,0.00002
 492,0.00002186,0.00001646,0.00001370,0.00000394,0.00000034,0.00000295,
 0.00000104,0.00000295,0.00000064,-0.00000064,-0.00000081,0.00000077,0.
 00000051,-0.00000129,0.00000022,0.00000067,0.00000404,-0.00000385,0.00
 000131,0.00000372,-0.00000238,0.00000036,0.00000436,0.00000073,0.00000
 156,-0.00000603,-0.00000695,-0.00000303,-0.00001224,0.00000906,-0.0000
 1487,-0.00000238,0.00000162,-0.00000266,0.00000179,0.00000053,-0.00000
 142,-0.00000697,0.00000349,-0.00000728,-0.00008539,0.00002734,-0.00001
 109,-0.00000842,-0.00000068,-0.00000289,-0.00000132,-0.00000602,-0.000
 00301,-0.00003602,-0.00003967,-0.00003982,-0.00003052,-0.00008931,0.00
 003377,-0.00000022,-0.00000320,-0.00000568,-0.00001195,-0.00000665,0.0
 0000476,-0.00194422,0.00056381,0.00118908,0.00271725,-0.00217652,-0.00
 289347,-0.00017209,-0.00000570,-0.00010970,0.00000027,0.00000256,0.000
 00062,0.00000064,-0.00000013,-0.00000360,0.00000257,-0.00000274,-0.000
 00075,-0.21444481,-0.18667174,-0.18576353,0.20202620,0.00001387,0.0000
 1780,-0.00000400,0.00002211,-0.00001950,-0.00000090,-0.00002406,0.0000
 1144,0.00000417,0.00003363,-0.00002437,-0.00001348,0.00005084,0.000008
 02,-0.00001176,-0.00003668,-0.00001112,0.00000536,0.00001639,0.0000135
 6,0.00001077,-0.00000041,-0.00002439,0.,0.00000182,0.00000409,-0.00000
 464,-0.00000128,0.00000549,0.00000169,-0.00000515,-0.00000320,-0.00000
 475,0.00009729,-0.00016708,0.00003350,0.00002399,-0.00003494,0.0000013
 1,0.00002875,-0.00004016,0.00000087,-0.00000235,-0.00000261,-0.0000014
 9,-0.00000135,-0.00000122,0.00000022,-0.00000016,-0.00000399,0.0000005
 9,0.00000212,-0.00000103,-0.00000107,-0.00000088,0.00000456,-0.0000011
 7,-0.00000024,-0.00000066,0.00000097,-0.00000030,-0.00000410,-0.000000
 03,-0.00000388,0.00001362,0.00000092,0.00001574,0.00000198,0.00001542,
 0.00000735,-0.00000194,0.00000322,-0.00000015,0.00000077,0.00000118,0.
 00000128,0.00000089,-0.00000101,-0.00005966,0.00009458,0.00002774,-0.0
 0002183,0.00003193,0.00000088,-0.00001209,0.00000890,-0.00000404,-0.00
 001010,0.00002512,0.00001188,-0.00013521,0.00014587,-0.00010670,-0.000
 01453,0.00001125,-0.00000710,-0.00001579,0.00001081,0.00000199,0.00123
 167,0.00008629,-0.00027697,-0.00172581,-0.00020495,0.00093072,-0.00000
 469,-0.00003078,-0.00019753,-0.00000229,-0.00000208,-0.00000102,-0.000
 00193,0.00000215,0.00000316,0.00000183,-0.00000022,0.00000009,-0.16255
 670,-0.17041798,-0.19093320,0.17229823,0.17561753,-0.00000154,-0.00000
 328,0.00000052,-0.00000257,-0.00000778,0.00000198,-0.00001925,-0.00001
 523,0.00000674,0.00009819,-0.00007116,-0.00001607,-0.00001425,0.000025
 29,0.00000315,0.00002364,-0.00000059,-0.00000751,-0.00001476,-0.000002
 12,0.00000297,0.00002420,-0.00000204,-0.00001390,-0.00001211,-0.000005
 08,0.00001028,-0.00000058,-0.00000118,-0.00000406,0.00000428,0.0000048
 6,0.00000706,0.00026890,-0.00005698,0.00004548,0.00008478,0.00002636,0
 .00000066,0.00004013,0.00000111,-0.00002982,-0.00000013,0.00000073,-0.
 00000048,0.00000366,-0.00000004,-0.00000072,-0.00000102,0.00000263,0.0
 0000241,0.00000385,-0.00000306,-0.00000007,-0.00000191,0.00000087,0.00
 000579,0.00000336,-0.00000098,-0.00000117,0.00000460,-0.00000032,-0.00
 000123,-0.00001147,0.00000091,0.00000721,-0.00001395,0.00000980,0.0000
 0752,-0.00000025,0.00000029,0.00000437,0.00000235,0.00000005,0.0000022
 3,-0.00000706,0.00000019,0.00000283,-0.00020235,0.00014374,0.00004354,
 -0.00001842,0.00001431,0.00000329,-0.00000182,-0.00000341,0.00000867,-
 0.00007764,-0.00004677,-0.00003468,-0.00016612,0.00002373,-0.00010311,
 -0.00001772,-0.00000390,-0.00000143,-0.00004885,-0.00001007,0.00003468
 ,0.00209296,-0.00017133,-0.00082736,-0.00340468,0.00038075,0.00113477,
 0.00000259,0.00007853,0.00031716,-0.00000226,0.00000026,-0.00000029,0.
 00000146,0.00000335,-0.00000232,0.00000239,-0.00000180,-0.00000193,-0.
 13868318,-0.17040014,-0.20926364,0.16644414,0.19236390,0.22941986,-0.0
 0000254,0.00000052,0.00000122,0.00000078,-0.00001438,0.00000286,-0.000
 02672,-0.00002192,0.00000940,0.00012291,-0.00009037,-0.00001170,-0.000
 00830,0.00003392,-0.00000278,0.00002182,0.00000068,-0.00000354,-0.0000
 1803,-0.00000280,-0.00000108,0.00003387,-0.00000591,-0.00000528,-0.000
 01644,-0.00000479,0.00000930,-0.00000171,-0.00000086,-0.00000322,0.000
 00020,0.00000639,0.00000614,0.00030166,-0.00001282,-0.00024052,0.00012
 464,0.00001695,0.00000047,0.00005545,-0.00000148,-0.00002610,-0.000000
 85,0.00000208,0.00000016,0.00000381,-0.00000013,-0.00000115,-0.0000012
 1,0.00000111,0.00000210,0.00000149,-0.00000174,-0.00000011,0.00000232,
 -0.00000097,0.00000416,0.00000526,-0.00000289,-0.00000032,0.00000601,-
 0.00000093,0.00000005,-0.00001209,0.00000078,0.00000692,-0.00001184,0.
 00001351,0.00000173,0.00000089,0.00000066,0.00000049,0.00000232,0.0000
 0054,0.00000011,-0.00001043,0.00000279,-0.00000463,-0.00024156,0.00017
 965,0.00004159,-0.00002741,0.00002136,-0.00000006,-0.00000528,-0.00000
 448,0.00000324,-0.00014610,-0.00002702,-0.00001925,-0.00013215,-0.0001
 2436,0.00040497,-0.00004118,-0.00000286,-0.00001437,-0.00006179,-0.000
 01251,0.00004377,-0.00222379,-0.00062079,-0.00110638,0.00321722,0.0011
 6657,0.00306482,-0.00013520,0.00008613,0.00005457,-0.00000247,0.000001
 52,-0.00000012,0.00000071,0.00000354,-0.00000325,0.00000460,-0.0000035
 4,-0.00000220,-0.19809381,0.05263764,0.25186836,0.01185892,-0.00920937
 ,-0.02638157,0.18545605,0.00001124,0.00001484,-0.00000282,0.00001743,-
 0.00000972,-0.00000288,-0.00000318,0.00002314,-0.00000282,-0.00005013,
 0.00003646,-0.00000021,0.00004242,-0.00001539,-0.00000428,-0.00004155,
 -0.00000713,0.00000590,0.00002226,0.00001757,0.00001224,-0.00000925,-0
 .00002593,0.00000007,0.00000620,0.00000664,-0.00000658,-0.00000093,0.0
 0000548,0.00000302,-0.00000415,-0.00000530,-0.00000691,-0.00021899,-0.
 00010402,-0.00009067,-0.00000269,-0.00008994,-0.00002662,0.00001857,-0
 .00005300,-0.00000280,-0.00000248,-0.00000369,-0.00000171,-0.00000248,
 -0.00000160,0.00000052,0.00000042,-0.00000383,0.00000063,0.00000103,-0
 .00000076,-0.00000121,-0.00000154,0.00000444,-0.00000221,-0.00000173,-
 0.00000007,0.00000084,-0.00000263,-0.00000472,-0.00000068,0.00000717,0
 .00001588,0.00000280,0.00001896,-0.00000687,0.00000309,0.00000442,-0.0
 0000123,0.00000073,-0.00000151,0.00000092,0.00000061,0.00000461,0.0000
 0105,0.00000097,0.00011265,-0.00004772,-0.00000964,-0.00001791,0.00003
 216,0.00000182,-0.00001468,0.00001568,0.00000023,0.00004601,0.00012041
 ,0.00007766,0.00015299,0.00008345,0.00007616,-0.00003343,0.00002704,-0
 .00001046,-0.00000881,0.00001917,-0.00000284,-0.00108432,-0.00028510,-
 0.00041724,0.00189086,-0.00002137,0.00045180,0.00007006,0.00025738,0.0
 0021902,-0.00000245,-0.00000298,-0.00000111,-0.00000225,0.00000177,0.0
 0000430,0.00000094,0.00000034,0.00000036,0.02706843,-0.03306754,-0.084
 75251,0.01601983,-0.00512034,-0.02227440,-0.04400942,0.03819443,-0.000
 00117,-0.00000284,0.00000243,-0.00000286,0.00000115,-0.00000118,0.0000
 0125,-0.00000590,0.00000389,0.00002694,-0.00002451,-0.00000860,-0.0000
 0740,0.00000212,0.00000433,0.00000848,0.00000018,-0.00000544,-0.000002
 93,0.00000382,0.00000602,0.00000889,-0.00000163,-0.00001465,-0.0000059
 2,-0.00000317,0.00000540,0.00000069,-0.00000106,-0.00000168,0.00000498
 ,0.00000076,0.00000298,0.00002168,0.00003103,-0.00035461,0.00007032,-0
 .00000018,-0.00007232,0.00001983,0.00000042,-0.00004350,-0.00000012,-0
 .00000089,-0.00000031,0.00000123,-0.00000028,-0.00000075,-0.00000029,0
 .00000221,0.00000138,0.00000215,-0.00000176,-0.00000064,-0.00000199,0.
 00000074,0.00000320,0.00000086,0.00000031,-0.00000115,0.00000077,-0.00
 000037,-0.00000178,-0.00000049,0.00000315,0.00001068,-0.00000342,0.000
 00432,0.00001648,-0.00000028,0.00000082,0.00000460,0.00000066,0.000000
 21,0.00000221,-0.00000372,-0.00000244,0.00000937,-0.00004979,0.0000440
 1,0.00003344,-0.00000679,0.00000705,0.00000525,0.00000417,-0.00000067,
 0.00001308,-0.00005735,0.00002746,0.00007791,0.00016779,-0.00013927,0.
 00046948,-0.00005110,-0.00000889,0.00001441,-0.00004244,-0.00001274,0.
 00004984,-0.00223847,-0.00052198,-0.00031947,0.00331591,0.00109164,0.0
 0044838,0.00000598,-0.00001998,-0.00000680,-0.00000291,-0.00000173,-0.
 00000016,0.00000143,0.00000413,0.00000055,0.00000061,0.00000007,-0.000
 00206,0.20539388,-0.10538346,-0.36238488,0.02111973,-0.00184970,-0.020
 76339,-0.22769878,0.10675786,0.38279807\\0.00000011,-0.00000029,-0.000
 00014,-0.00000014,0.00000048,-0.00000023,0.00000035,0.00000028,-0.0000
 0067,-0.00000144,-0.00000015,0.00000240,0.,0.00000037,-0.00000039,0.00
 000068,-0.00000003,-0.00000020,-0.00000050,0.00000002,-0.00000051,0.00
 000077,0.00000129,0.00000053,0.00000008,0.00000030,-0.00000039,-0.0000
 0020,0.00000023,-0.00000029,-0.00000021,0.00000034,-0.00000015,0.00000
 144,-0.00000403,-0.00000475,0.00000131,-0.00000359,-0.00000570,0.00000
 094,0.00000199,-0.00000239,-0.00000009,0.00000028,-0.00000030,-0.00000
 026,0.00000042,-0.00000033,-0.00000040,0.00000027,-0.00000014,-0.00000
 011,0.00000024,-0.00000025,-0.00000014,0.00000015,-0.00000009,-0.00000
 003,0.00000029,-0.00000046,0.00000008,0.00000029,-0.00000033,-0.000000
 17,-0.00000007,0.00000017,0.00000040,-0.00000006,0.00000041,0.00000040
 ,-0.00000003,-0.00000008,0.00000025,0.00000013,-0.00000033,0.00000010,
 0.00000019,-0.00000052,0.00000397,-0.00000150,0.00000103,-0.00000074,-
 0.00000142,0.00000018,0.00000043,-0.00000004,-0.00000033,0.00000198,0.
 00000398,0.00000673,-0.00000521,0.00000463,-0.00000331,-0.00000143,-0.
 00000031,0.00000016,-0.00000270,-0.00000034,0.00000426,0.00000315,0.00
 000015,0.00000492,-0.00000749,-0.00000125,-0.00000261,0.00000175,-0.00
 000239,0.00000147,0.00000046,0.00000018,-0.00000031,0.00000014,0.00000
 025,-0.00000013,0.00000012,0.00000004,-0.00000026,0.00000868,0.0000017
 6,0.00000229,-0.00000233,-0.00000063,0.00000203,-0.00000401,-0.0000024
 1,-0.00000100\\\@


 IF AT FIRST YOU DON'T SUCCEED, TRY LOOKING IN 
 THE WASTEBASKET FOR THE DIRECTIONS.
 Job cpu time:       1 days 12 hours 10 minutes 47.8 seconds.
 Elapsed time:       0 days  1 hours 17 minutes 36.1 seconds.
 File lengths (MBytes):  RWF=   1440 Int=      0 D2E=      0 Chk=     36 Scr=      8
 Normal termination of Gaussian 16 at Tue Dec  6 16:21:00 2022.
