 Entering Gaussian System, Link 0=g16
 Input=NicPyrNa5h24wB97XD130K.gjf
 Output=NicPyrNa5h24wB97XD130K.log
 Initial command:
 /sw/contrib/gaussian/g16/A03/g16/l1.exe "/gscratch/scrubbed/gds001/Gau-13226.inp" -scrdir="/gscratch/scrubbed/gds001/"
 Entering Link 1 = /sw/contrib/gaussian/g16/A03/g16/l1.exe PID=     13227.
  
 Copyright (c) 1988,1990,1992,1993,1995,1998,2003,2009,2016,
            Gaussian, Inc.  All Rights Reserved.
  
 This is part of the Gaussian(R) 16 program.  It is based on
 the Gaussian(R) 09 system (copyright 2009, Gaussian, Inc.),
 the Gaussian(R) 03 system (copyright 2003, Gaussian, Inc.),
 the Gaussian(R) 98 system (copyright 1998, Gaussian, Inc.),
 the Gaussian(R) 94 system (copyright 1995, Gaussian, Inc.),
 the Gaussian 92(TM) system (copyright 1992, Gaussian, Inc.),
 the Gaussian 90(TM) system (copyright 1990, Gaussian, Inc.),
 the Gaussian 88(TM) system (copyright 1988, Gaussian, Inc.),
 the Gaussian 86(TM) system (copyright 1986, Carnegie Mellon
 University), and the Gaussian 82(TM) system (copyright 1983,
 Carnegie Mellon University). Gaussian is a federally registered
 trademark of Gaussian, Inc.
  
 This software contains proprietary and confidential information,
 including trade secrets, belonging to Gaussian, Inc.
  
 This software is provided under written license and may be
 used, copied, transmitted, or stored only in accord with that
 written license.
  
 The following legend is applicable only to US Government
 contracts under FAR:
  
                    RESTRICTED RIGHTS LEGEND
  
 Use, reproduction and disclosure by the US Government is
 subject to restrictions as set forth in subparagraphs (a)
 and (c) of the Commercial Computer Software - Restricted
 Rights clause in FAR 52.227-19.
  
 Gaussian, Inc.
 340 Quinnipiac St., Bldg. 40, Wallingford CT 06492
  
  
 ---------------------------------------------------------------
 Warning -- This program may not be used in any manner that
 competes with the business of Gaussian, Inc. or will provide
 assistance to any competitor of Gaussian, Inc.  The licensee
 of this program is prohibited from giving any competitor of
 Gaussian, Inc. access to this program.  By using this program,
 the user acknowledges that Gaussian, Inc. is engaged in the
 business of creating and licensing software in the field of
 computational chemistry and represents and warrants to the
 licensee that it is not a competitor of Gaussian, Inc. and that
 it will not use this program in any manner prohibited above.
 ---------------------------------------------------------------
  

 Cite this work as:
 Gaussian 16, Revision A.03,
 M. J. Frisch, G. W. Trucks, H. B. Schlegel, G. E. Scuseria, 
 M. A. Robb, J. R. Cheeseman, G. Scalmani, V. Barone, 
 G. A. Petersson, H. Nakatsuji, X. Li, M. Caricato, A. V. Marenich, 
 J. Bloino, B. G. Janesko, R. Gomperts, B. Mennucci, H. P. Hratchian, 
 J. V. Ortiz, A. F. Izmaylov, J. L. Sonnenberg, D. Williams-Young, 
 F. Ding, F. Lipparini, F. Egidi, J. Goings, B. Peng, A. Petrone, 
 T. Henderson, D. Ranasinghe, V. G. Zakrzewski, J. Gao, N. Rega, 
 G. Zheng, W. Liang, M. Hada, M. Ehara, K. Toyota, R. Fukuda, 
 J. Hasegawa, M. Ishida, T. Nakajima, Y. Honda, O. Kitao, H. Nakai, 
 T. Vreven, K. Throssell, J. A. Montgomery, Jr., J. E. Peralta, 
 F. Ogliaro, M. J. Bearpark, J. J. Heyd, E. N. Brothers, K. N. Kudin, 
 V. N. Staroverov, T. A. Keith, R. Kobayashi, J. Normand, 
 K. Raghavachari, A. P. Rendell, J. C. Burant, S. S. Iyengar, 
 J. Tomasi, M. Cossi, J. M. Millam, M. Klene, C. Adamo, R. Cammi, 
 J. W. Ochterski, R. L. Martin, K. Morokuma, O. Farkas, 
 J. B. Foresman, and D. J. Fox, Gaussian, Inc., Wallingford CT, 2016.
 
 ******************************************
 Gaussian 16:  ES64L-G16RevA.03 25-Dec-2016
                15-Jul-2021 
 ******************************************
 %nprocshared=28
 Will use up to   28 processors via shared memory.
 %mem=41GB
 %chk=NicPyrNa5h24.chk
 ---------------------------------------------
 # wB97XD/aug-cc-pVDZ opt freq temperature=130
 ---------------------------------------------
 1/18=20,19=15,26=3,38=1,112=130000/1,3;
 2/9=110,12=2,17=6,18=5,40=1/2;
 3/5=16,7=10,11=2,25=1,30=1,71=1,74=-58/1,2,3;
 4//1;
 5/5=2,38=5/2;
 6/7=2,8=2,9=2,10=2,28=1/1;
 7//1,2,3,16;
 1/18=20,19=15,26=3/3(2);
 2/9=110/2;
 99//99;
 2/9=110/2;
 3/5=16,7=10,11=2,25=1,30=1,71=1,74=-58/1,2,3;
 4/5=5,16=3,69=1/1;
 5/5=2,38=5/2;
 7//1,2,3,16;
 1/18=20,19=15,26=3/3(-5);
 2/9=110/2;
 6/7=2,8=2,9=2,10=2,19=2,28=1/1;
 99/9=1/99;
 --------
 Nicotine
 --------
 Symbolic Z-matrix:
 Charge =  1 Multiplicity = 1
 C                    -3.1455   -0.12885  -0.38805 
 C                    -1.80505   0.25358  -0.45289 
 C                    -0.85522  -0.74915  -0.65057 
 N                    -1.16227  -2.04377  -0.75179 
 C                    -2.44915  -2.39833  -0.67995 
 C                    -3.47634  -1.47473  -0.50934 
 C                    -1.39561   1.69538  -0.28923 
 N                    -0.82687   1.96096   1.08267 
 C                    -0.12746   3.29113   1.02744 
 C                     0.1243    3.54786  -0.47337 
 C                    -0.2805    2.24427  -1.17731 
 O                     1.15577   0.38212   1.70882 
 O                     0.65746  -2.19677   2.38196 
 O                     1.30975  -3.07472  -0.18871 
 O                     2.43197  -0.48225  -0.50664 
 H                    -0.76958   4.05098   1.48235 
 H                    -0.4981    4.38037  -0.82093 
 H                     1.16863   3.8108   -0.66436 
 H                     0.56095   1.54023  -1.20929 
 H                    -0.63274   2.40044  -2.20126 
 H                     0.79009   3.20128   1.61557 
 H                    -2.28388   2.33546  -0.38293 
 H                     0.20445  -0.50796  -0.72807 
 H                    -2.66537  -3.46352  -0.76381 
 H                    -4.51162  -1.80719  -0.46811 
 H                    -3.92965   0.61751  -0.24998 
 C                    -1.84513   1.9107    2.14664 
 H                    -0.08249   1.21635   1.32755 
 H                     0.97251  -0.49407   2.11089 
 H                     1.74725   0.1626    0.9547 
 H                     0.39649  -2.92744  -0.53647 
 H                     1.5961   -3.9344   -0.50573 
 H                     2.2929   -1.44366  -0.49685 
 H                     3.36125  -0.32969  -0.75195 
 H                     0.96301  -2.68018   1.5925 
 H                     0.99255  -2.67699   3.14242 
 O                     5.07008   0.05845  -1.18872 
 H                     5.44079   0.01342  -2.07376 
 H                     5.81781   0.00577  -0.58792 
 H                    -2.65255   2.65311   1.96326 
 H                    -1.37825   2.12632   3.13243 
 H                    -2.29811   0.89791   2.20359 
 
 Add virtual bond connecting atoms H28        and O12        Dist= 2.91D+00.
 Add virtual bond connecting atoms H30        and O15        Dist= 3.28D+00.
 Add virtual bond connecting atoms H29        and O13        Dist= 3.31D+00.
 Add virtual bond connecting atoms O14        and H33        Dist= 3.65D+00.
 Add virtual bond connecting atoms O14        and H35        Dist= 3.51D+00.
 Add virtual bond connecting atoms H31        and N4         Dist= 3.41D+00.
 Add virtual bond connecting atoms O37        and H34        Dist= 3.41D+00.

 GradGradGradGradGradGradGradGradGradGradGradGradGradGradGradGradGradGrad
 Berny optimization.
 Initialization pass.
                           ----------------------------
                           !    Initial Parameters    !
                           ! (Angstroms and Degrees)  !
 --------------------------                            --------------------------
 ! Name  Definition              Value          Derivative Info.                !
 --------------------------------------------------------------------------------
 ! R1    R(1,2)                  1.3954         estimate D2E/DX2                !
 ! R2    R(1,6)                  1.3912         estimate D2E/DX2                !
 ! R3    R(1,26)                 1.0913         estimate D2E/DX2                !
 ! R4    R(2,3)                  1.3952         estimate D2E/DX2                !
 ! R5    R(2,7)                  1.5077         estimate D2E/DX2                !
 ! R6    R(3,4)                  1.3344         estimate D2E/DX2                !
 ! R7    R(3,23)                 1.0895         estimate D2E/DX2                !
 ! R8    R(4,5)                  1.3368         estimate D2E/DX2                !
 ! R9    R(4,31)                 1.8047         estimate D2E/DX2                !
 ! R10   R(5,6)                  1.3919         estimate D2E/DX2                !
 ! R11   R(5,24)                 1.0901         estimate D2E/DX2                !
 ! R12   R(6,25)                 1.0881         estimate D2E/DX2                !
 ! R13   R(7,8)                  1.5087         estimate D2E/DX2                !
 ! R14   R(7,11)                 1.5276         estimate D2E/DX2                !
 ! R15   R(7,22)                 1.0989         estimate D2E/DX2                !
 ! R16   R(8,9)                  1.5039         estimate D2E/DX2                !
 ! R17   R(8,27)                 1.4736         estimate D2E/DX2                !
 ! R18   R(8,28)                 1.081          estimate D2E/DX2                !
 ! R19   R(9,10)                 1.5433         estimate D2E/DX2                !
 ! R20   R(9,16)                 1.0939         estimate D2E/DX2                !
 ! R21   R(9,21)                 1.0936         estimate D2E/DX2                !
 ! R22   R(10,11)                1.5358         estimate D2E/DX2                !
 ! R23   R(10,17)                1.096          estimate D2E/DX2                !
 ! R24   R(10,18)                1.0937         estimate D2E/DX2                !
 ! R25   R(11,19)                1.0976         estimate D2E/DX2                !
 ! R26   R(11,20)                1.094          estimate D2E/DX2                !
 ! R27   R(12,28)                1.541          estimate D2E/DX2                !
 ! R28   R(12,29)                0.9813         estimate D2E/DX2                !
 ! R29   R(12,30)                0.9832         estimate D2E/DX2                !
 ! R30   R(13,29)                1.7527         estimate D2E/DX2                !
 ! R31   R(13,35)                0.9748         estimate D2E/DX2                !
 ! R32   R(13,36)                0.9598         estimate D2E/DX2                !
 ! R33   R(14,31)                0.9883         estimate D2E/DX2                !
 ! R34   R(14,32)                0.96           estimate D2E/DX2                !
 ! R35   R(14,33)                1.9292         estimate D2E/DX2                !
 ! R36   R(14,35)                1.857          estimate D2E/DX2                !
 ! R37   R(15,30)                1.7379         estimate D2E/DX2                !
 ! R38   R(15,33)                0.9715         estimate D2E/DX2                !
 ! R39   R(15,34)                0.9731         estimate D2E/DX2                !
 ! R40   R(27,40)                1.1121         estimate D2E/DX2                !
 ! R41   R(27,41)                1.1119         estimate D2E/DX2                !
 ! R42   R(27,42)                1.1109         estimate D2E/DX2                !
 ! R43   R(34,37)                1.806          estimate D2E/DX2                !
 ! R44   R(37,38)                0.9606         estimate D2E/DX2                !
 ! R45   R(37,39)                0.9606         estimate D2E/DX2                !
 ! A1    A(2,1,6)              119.3074         estimate D2E/DX2                !
 ! A2    A(2,1,26)             120.5752         estimate D2E/DX2                !
 ! A3    A(6,1,26)             120.1163         estimate D2E/DX2                !
 ! A4    A(1,2,3)              117.6173         estimate D2E/DX2                !
 ! A5    A(1,2,7)              121.1905         estimate D2E/DX2                !
 ! A6    A(3,2,7)              121.1824         estimate D2E/DX2                !
 ! A7    A(2,3,4)              123.4604         estimate D2E/DX2                !
 ! A8    A(2,3,23)             120.8697         estimate D2E/DX2                !
 ! A9    A(4,3,23)             115.6694         estimate D2E/DX2                !
 ! A10   A(3,4,5)              118.3447         estimate D2E/DX2                !
 ! A11   A(3,4,31)             105.5013         estimate D2E/DX2                !
 ! A12   A(5,4,31)             134.0436         estimate D2E/DX2                !
 ! A13   A(4,5,6)              122.7549         estimate D2E/DX2                !
 ! A14   A(4,5,24)             116.4854         estimate D2E/DX2                !
 ! A15   A(6,5,24)             120.7596         estimate D2E/DX2                !
 ! A16   A(1,6,5)              118.4978         estimate D2E/DX2                !
 ! A17   A(1,6,25)             121.233          estimate D2E/DX2                !
 ! A18   A(5,6,25)             120.2685         estimate D2E/DX2                !
 ! A19   A(2,7,8)              111.68           estimate D2E/DX2                !
 ! A20   A(2,7,11)             118.6032         estimate D2E/DX2                !
 ! A21   A(2,7,22)             109.1626         estimate D2E/DX2                !
 ! A22   A(8,7,11)             100.9657         estimate D2E/DX2                !
 ! A23   A(8,7,22)             106.2443         estimate D2E/DX2                !
 ! A24   A(11,7,22)            109.3426         estimate D2E/DX2                !
 ! A25   A(7,8,9)              107.3157         estimate D2E/DX2                !
 ! A26   A(7,8,27)             112.9593         estimate D2E/DX2                !
 ! A27   A(7,8,28)             110.1409         estimate D2E/DX2                !
 ! A28   A(9,8,27)             112.2138         estimate D2E/DX2                !
 ! A29   A(9,8,28)             107.2973         estimate D2E/DX2                !
 ! A30   A(27,8,28)            106.7851         estimate D2E/DX2                !
 ! A31   A(8,9,10)             104.9946         estimate D2E/DX2                !
 ! A32   A(8,9,16)             109.0338         estimate D2E/DX2                !
 ! A33   A(8,9,21)             107.3255         estimate D2E/DX2                !
 ! A34   A(10,9,16)            112.6197         estimate D2E/DX2                !
 ! A35   A(10,9,21)            113.5658         estimate D2E/DX2                !
 ! A36   A(16,9,21)            109.0226         estimate D2E/DX2                !
 ! A37   A(9,10,11)            105.1611         estimate D2E/DX2                !
 ! A38   A(9,10,17)            110.0053         estimate D2E/DX2                !
 ! A39   A(9,10,18)            111.4434         estimate D2E/DX2                !
 ! A40   A(11,10,17)           110.4685         estimate D2E/DX2                !
 ! A41   A(11,10,18)           112.0666         estimate D2E/DX2                !
 ! A42   A(17,10,18)           107.7128         estimate D2E/DX2                !
 ! A43   A(7,11,10)            103.3516         estimate D2E/DX2                !
 ! A44   A(7,11,19)            110.2483         estimate D2E/DX2                !
 ! A45   A(7,11,20)            111.1245         estimate D2E/DX2                !
 ! A46   A(10,11,19)           110.8383         estimate D2E/DX2                !
 ! A47   A(10,11,20)           113.1211         estimate D2E/DX2                !
 ! A48   A(19,11,20)           108.1265         estimate D2E/DX2                !
 ! A49   A(28,12,29)           115.7656         estimate D2E/DX2                !
 ! A50   A(28,12,30)           114.4874         estimate D2E/DX2                !
 ! A51   A(29,12,30)           103.1357         estimate D2E/DX2                !
 ! A52   A(29,13,35)           107.467          estimate D2E/DX2                !
 ! A53   A(29,13,36)           123.082          estimate D2E/DX2                !
 ! A54   A(35,13,36)           106.5056         estimate D2E/DX2                !
 ! A55   A(31,14,32)           107.0315         estimate D2E/DX2                !
 ! A56   A(31,14,33)           106.782          estimate D2E/DX2                !
 ! A57   A(31,14,35)            97.6607         estimate D2E/DX2                !
 ! A58   A(32,14,33)           123.5296         estimate D2E/DX2                !
 ! A59   A(32,14,35)           124.2439         estimate D2E/DX2                !
 ! A60   A(33,14,35)            93.9409         estimate D2E/DX2                !
 ! A61   A(30,15,33)           107.5975         estimate D2E/DX2                !
 ! A62   A(30,15,34)           122.0083         estimate D2E/DX2                !
 ! A63   A(33,15,34)           107.1207         estimate D2E/DX2                !
 ! A64   A(8,27,40)            111.0919         estimate D2E/DX2                !
 ! A65   A(8,27,41)            110.0834         estimate D2E/DX2                !
 ! A66   A(8,27,42)            110.4792         estimate D2E/DX2                !
 ! A67   A(40,27,41)           108.7604         estimate D2E/DX2                !
 ! A68   A(40,27,42)           108.7243         estimate D2E/DX2                !
 ! A69   A(41,27,42)           107.6119         estimate D2E/DX2                !
 ! A70   A(12,29,13)           164.6559         estimate D2E/DX2                !
 ! A71   A(12,30,15)           164.754          estimate D2E/DX2                !
 ! A72   A(4,31,14)            155.9404         estimate D2E/DX2                !
 ! A73   A(14,33,15)           155.6807         estimate D2E/DX2                !
 ! A74   A(13,35,14)           160.1617         estimate D2E/DX2                !
 ! A75   A(34,37,38)           125.3035         estimate D2E/DX2                !
 ! A76   A(34,37,39)           124.9916         estimate D2E/DX2                !
 ! A77   A(38,37,39)           105.8588         estimate D2E/DX2                !
 ! A78   L(8,28,12,3,-1)       188.3365         estimate D2E/DX2                !
 ! A79   L(15,34,37,18,-1)     176.6725         estimate D2E/DX2                !
 ! A80   L(8,28,12,3,-2)       173.1248         estimate D2E/DX2                !
 ! A81   L(15,34,37,18,-2)     179.1733         estimate D2E/DX2                !
 ! D1    D(6,1,2,3)              0.551          estimate D2E/DX2                !
 ! D2    D(6,1,2,7)           -178.3221         estimate D2E/DX2                !
 ! D3    D(26,1,2,3)          -179.0691         estimate D2E/DX2                !
 ! D4    D(26,1,2,7)             2.0578         estimate D2E/DX2                !
 ! D5    D(2,1,6,5)              0.5827         estimate D2E/DX2                !
 ! D6    D(2,1,6,25)          -179.7081         estimate D2E/DX2                !
 ! D7    D(26,1,6,5)          -179.7955         estimate D2E/DX2                !
 ! D8    D(26,1,6,25)           -0.0862         estimate D2E/DX2                !
 ! D9    D(1,2,3,4)             -1.4119         estimate D2E/DX2                !
 ! D10   D(1,2,3,23)           178.8505         estimate D2E/DX2                !
 ! D11   D(7,2,3,4)            177.4613         estimate D2E/DX2                !
 ! D12   D(7,2,3,23)            -2.2763         estimate D2E/DX2                !
 ! D13   D(1,2,7,8)            102.8498         estimate D2E/DX2                !
 ! D14   D(1,2,7,11)          -140.4108         estimate D2E/DX2                !
 ! D15   D(1,2,7,22)           -14.3332         estimate D2E/DX2                !
 ! D16   D(3,2,7,8)            -75.9831         estimate D2E/DX2                !
 ! D17   D(3,2,7,11)            40.7564         estimate D2E/DX2                !
 ! D18   D(3,2,7,22)           166.8339         estimate D2E/DX2                !
 ! D19   D(2,3,4,5)              1.0242         estimate D2E/DX2                !
 ! D20   D(2,3,4,31)          -164.7523         estimate D2E/DX2                !
 ! D21   D(23,3,4,5)          -179.2256         estimate D2E/DX2                !
 ! D22   D(23,3,4,31)           14.9979         estimate D2E/DX2                !
 ! D23   D(3,4,5,6)              0.2309         estimate D2E/DX2                !
 ! D24   D(3,4,5,24)          -179.8582         estimate D2E/DX2                !
 ! D25   D(31,4,5,6)           160.9993         estimate D2E/DX2                !
 ! D26   D(31,4,5,24)          -19.0898         estimate D2E/DX2                !
 ! D27   D(3,4,31,14)           30.4164         estimate D2E/DX2                !
 ! D28   D(5,4,31,14)         -132.0755         estimate D2E/DX2                !
 ! D29   D(4,5,6,1)             -1.0219         estimate D2E/DX2                !
 ! D30   D(4,5,6,25)           179.266          estimate D2E/DX2                !
 ! D31   D(24,5,6,1)           179.0709         estimate D2E/DX2                !
 ! D32   D(24,5,6,25)           -0.6413         estimate D2E/DX2                !
 ! D33   D(2,7,8,9)            165.3216         estimate D2E/DX2                !
 ! D34   D(2,7,8,27)           -70.4734         estimate D2E/DX2                !
 ! D35   D(2,7,8,28)            48.8295         estimate D2E/DX2                !
 ! D36   D(11,7,8,9)            38.3231         estimate D2E/DX2                !
 ! D37   D(11,7,8,27)          162.5281         estimate D2E/DX2                !
 ! D38   D(11,7,8,28)          -78.169          estimate D2E/DX2                !
 ! D39   D(22,7,8,9)           -75.7474         estimate D2E/DX2                !
 ! D40   D(22,7,8,27)           48.4576         estimate D2E/DX2                !
 ! D41   D(22,7,8,28)          167.7606         estimate D2E/DX2                !
 ! D42   D(2,7,11,10)         -164.3253         estimate D2E/DX2                !
 ! D43   D(2,7,11,19)          -45.8195         estimate D2E/DX2                !
 ! D44   D(2,7,11,20)           74.0497         estimate D2E/DX2                !
 ! D45   D(8,7,11,10)          -42.0318         estimate D2E/DX2                !
 ! D46   D(8,7,11,19)           76.474          estimate D2E/DX2                !
 ! D47   D(8,7,11,20)         -163.6568         estimate D2E/DX2                !
 ! D48   D(22,7,11,10)          69.6836         estimate D2E/DX2                !
 ! D49   D(22,7,11,19)        -171.8106         estimate D2E/DX2                !
 ! D50   D(22,7,11,20)         -51.9414         estimate D2E/DX2                !
 ! D51   D(7,8,9,10)           -19.2647         estimate D2E/DX2                !
 ! D52   D(7,8,9,16)           101.6395         estimate D2E/DX2                !
 ! D53   D(7,8,9,21)          -140.4041         estimate D2E/DX2                !
 ! D54   D(27,8,9,10)         -143.9221         estimate D2E/DX2                !
 ! D55   D(27,8,9,16)          -23.018          estimate D2E/DX2                !
 ! D56   D(27,8,9,21)           94.9384         estimate D2E/DX2                !
 ! D57   D(28,8,9,10)           99.0848         estimate D2E/DX2                !
 ! D58   D(28,8,9,16)         -140.011          estimate D2E/DX2                !
 ! D59   D(28,8,9,21)          -22.0546         estimate D2E/DX2                !
 ! D60   D(7,8,12,29)          -86.2177         estimate D2E/DX2                !
 ! D61   D(7,8,12,30)           36.6183         estimate D2E/DX2                !
 ! D62   D(9,8,12,29)          159.2841         estimate D2E/DX2                !
 ! D63   D(9,8,12,30)          -77.8798         estimate D2E/DX2                !
 ! D64   D(27,8,12,29)          40.8472         estimate D2E/DX2                !
 ! D65   D(27,8,12,30)         163.6832         estimate D2E/DX2                !
 ! D66   D(7,8,27,40)          -58.6847         estimate D2E/DX2                !
 ! D67   D(7,8,27,41)         -179.2183         estimate D2E/DX2                !
 ! D68   D(7,8,27,42)           62.0676         estimate D2E/DX2                !
 ! D69   D(9,8,27,40)           62.7925         estimate D2E/DX2                !
 ! D70   D(9,8,27,41)          -57.7411         estimate D2E/DX2                !
 ! D71   D(9,8,27,42)         -176.4552         estimate D2E/DX2                !
 ! D72   D(28,8,27,40)        -179.9083         estimate D2E/DX2                !
 ! D73   D(28,8,27,41)          59.5582         estimate D2E/DX2                !
 ! D74   D(28,8,27,42)         -59.156          estimate D2E/DX2                !
 ! D75   D(8,9,10,11)           -7.5824         estimate D2E/DX2                !
 ! D76   D(8,9,10,17)          111.3789         estimate D2E/DX2                !
 ! D77   D(8,9,10,18)         -129.2241         estimate D2E/DX2                !
 ! D78   D(16,9,10,11)        -126.0955         estimate D2E/DX2                !
 ! D79   D(16,9,10,17)          -7.1342         estimate D2E/DX2                !
 ! D80   D(16,9,10,18)         112.2629         estimate D2E/DX2                !
 ! D81   D(21,9,10,11)         109.3654         estimate D2E/DX2                !
 ! D82   D(21,9,10,17)        -131.6733         estimate D2E/DX2                !
 ! D83   D(21,9,10,18)         -12.2763         estimate D2E/DX2                !
 ! D84   D(9,10,11,7)           31.0401         estimate D2E/DX2                !
 ! D85   D(9,10,11,19)         -87.0551         estimate D2E/DX2                !
 ! D86   D(9,10,11,20)         151.3115         estimate D2E/DX2                !
 ! D87   D(17,10,11,7)         -87.6106         estimate D2E/DX2                !
 ! D88   D(17,10,11,19)        154.2942         estimate D2E/DX2                !
 ! D89   D(17,10,11,20)         32.6607         estimate D2E/DX2                !
 ! D90   D(18,10,11,7)         152.275          estimate D2E/DX2                !
 ! D91   D(18,10,11,19)         34.1797         estimate D2E/DX2                !
 ! D92   D(18,10,11,20)        -87.4537         estimate D2E/DX2                !
 ! D93   D(28,12,29,13)         90.1336         estimate D2E/DX2                !
 ! D94   D(30,12,29,13)        -35.6876         estimate D2E/DX2                !
 ! D95   D(28,12,30,15)        -67.7844         estimate D2E/DX2                !
 ! D96   D(29,12,30,15)         58.855          estimate D2E/DX2                !
 ! D97   D(35,13,29,12)         20.0982         estimate D2E/DX2                !
 ! D98   D(36,13,29,12)        144.1854         estimate D2E/DX2                !
 ! D99   D(29,13,35,14)        -37.2017         estimate D2E/DX2                !
 ! D100  D(36,13,35,14)       -170.8365         estimate D2E/DX2                !
 ! D101  D(32,14,31,4)         176.9966         estimate D2E/DX2                !
 ! D102  D(33,14,31,4)         -48.9137         estimate D2E/DX2                !
 ! D103  D(35,14,31,4)          47.5743         estimate D2E/DX2                !
 ! D104  D(31,14,33,15)         44.3687         estimate D2E/DX2                !
 ! D105  D(32,14,33,15)        168.8978         estimate D2E/DX2                !
 ! D106  D(35,14,33,15)        -54.8581         estimate D2E/DX2                !
 ! D107  D(31,14,35,13)        -52.6632         estimate D2E/DX2                !
 ! D108  D(32,14,35,13)       -169.3473         estimate D2E/DX2                !
 ! D109  D(33,14,35,13)         54.8717         estimate D2E/DX2                !
 ! D110  D(33,15,30,12)        -48.9565         estimate D2E/DX2                !
 ! D111  D(34,15,30,12)       -173.1827         estimate D2E/DX2                !
 ! D112  D(30,15,33,14)         40.8608         estimate D2E/DX2                !
 ! D113  D(34,15,33,14)        173.6691         estimate D2E/DX2                !
 ! D114  D(30,15,37,38)       -157.8112         estimate D2E/DX2                !
 ! D115  D(30,15,37,39)         45.8022         estimate D2E/DX2                !
 ! D116  D(33,15,37,38)         76.795          estimate D2E/DX2                !
 ! D117  D(33,15,37,39)        -79.5916         estimate D2E/DX2                !
 --------------------------------------------------------------------------------
 Trust Radius=3.00D-01 FncErr=1.00D-07 GrdErr=1.00D-06 EigMax=2.50D+02 EigMin=1.00D-04
 Number of steps in this run=    252 maximum allowed number of steps=    252.
 GradGradGradGradGradGradGradGradGradGradGradGradGradGradGradGradGradGrad

                          Input orientation:                          
 ---------------------------------------------------------------------
 Center     Atomic      Atomic             Coordinates (Angstroms)
 Number     Number       Type             X           Y           Z
 ---------------------------------------------------------------------
      1          6           0       -3.145497   -0.128846   -0.388045
      2          6           0       -1.805049    0.253577   -0.452891
      3          6           0       -0.855223   -0.749146   -0.650572
      4          7           0       -1.162273   -2.043774   -0.751791
      5          6           0       -2.449145   -2.398327   -0.679951
      6          6           0       -3.476338   -1.474725   -0.509337
      7          6           0       -1.395612    1.695379   -0.289226
      8          7           0       -0.826874    1.960960    1.082670
      9          6           0       -0.127461    3.291128    1.027442
     10          6           0        0.124304    3.547862   -0.473366
     11          6           0       -0.280503    2.244266   -1.177311
     12          8           0        1.155767    0.382115    1.708819
     13          8           0        0.657455   -2.196774    2.381955
     14          8           0        1.309754   -3.074724   -0.188708
     15          8           0        2.431970   -0.482245   -0.506644
     16          1           0       -0.769580    4.050980    1.482346
     17          1           0       -0.498096    4.380368   -0.820929
     18          1           0        1.168626    3.810797   -0.664359
     19          1           0        0.560946    1.540230   -1.209290
     20          1           0       -0.632736    2.400443   -2.201261
     21          1           0        0.790089    3.201277    1.615573
     22          1           0       -2.283881    2.335455   -0.382927
     23          1           0        0.204446   -0.507956   -0.728074
     24          1           0       -2.665368   -3.463522   -0.763812
     25          1           0       -4.511622   -1.807188   -0.468108
     26          1           0       -3.929647    0.617507   -0.249975
     27          6           0       -1.845126    1.910696    2.146644
     28          1           0       -0.082490    1.216348    1.327547
     29          1           0        0.972507   -0.494070    2.110892
     30          1           0        1.747250    0.162596    0.954696
     31          1           0        0.396486   -2.927443   -0.536465
     32          1           0        1.596097   -3.934397   -0.505732
     33          1           0        2.292899   -1.443662   -0.496846
     34          1           0        3.361251   -0.329691   -0.751954
     35          1           0        0.963014   -2.680178    1.592503
     36          1           0        0.992553   -2.676987    3.142419
     37          8           0        5.070080    0.058448   -1.188719
     38          1           0        5.440792    0.013417   -2.073761
     39          1           0        5.817808    0.005767   -0.587918
     40          1           0       -2.652547    2.653107    1.963258
     41          1           0       -1.378247    2.126318    3.132426
     42          1           0       -2.298109    0.897911    2.203588
 ---------------------------------------------------------------------
                    Distance matrix (angstroms):
                    1          2          3          4          5
     1  C    0.000000
     2  C    1.395440   0.000000
     3  C    2.387268   1.395242   0.000000
     4  N    2.780726   2.404230   1.334386   0.000000
     5  C    2.391790   2.738432   2.293741   1.336753   0.000000
     6  C    1.391243   2.404874   2.723354   2.395307   1.391860
     7  C    2.529755   1.507719   2.529485   3.774875   4.245118
     8  N    3.450551   2.495983   3.217080   4.417650   4.974131
     9  C    4.775811   3.772586   4.434995   5.718189   6.377719
    10  C    4.921083   3.817740   4.410800   5.744492   6.482475
    11  C    3.802998   2.609955   3.093262   4.398394   5.148208
    12  O    4.812358   3.668234   3.300085   4.160871   5.141252
    13  O    5.139229   4.483804   3.685111   3.627007   4.366561
    14  O    5.344829   4.566112   3.210725   2.736940   3.850734
    15  O    5.589910   4.300774   3.301150   3.926455   5.246588
    16  H    5.158904   4.386070   5.253369   6.503199   7.006428
    17  H    5.246821   4.344420   5.144752   6.458755   7.055294
    18  H    5.848828   4.641258   4.988911   6.302122   7.186218
    19  H    4.147044   2.797418   2.749353   4.002983   4.985286
    20  H    3.999878   3.006684   3.517676   4.704512   5.351815
    21  H    5.531098   4.438718   4.842345   6.076733   6.864228
    22  H    2.610591   2.137379   3.409906   4.535605   4.745970
    23  H    3.388431   2.166501   1.089531   2.056020   3.258430
    24  H    3.389954   3.828008   3.264550   2.067637   1.090149
    25  H    2.165534   3.401841   3.810774   3.369657   2.155953
    26  H    1.091328   2.165072   3.388259   3.872027   3.387037
    27  C    3.503619   3.083055   3.984857   4.950257   5.188657
    28  H    3.759630   2.657837   2.893655   4.014720   4.764135
    29  H    4.830738   3.853152   3.321347   3.892791   4.808607
    30  H    5.082014   3.822095   3.190772   4.030570   5.180746
    31  H    4.516616   3.869448   2.514910   1.804707   2.897959
    32  H    6.081018   5.395342   4.021912   3.353149   4.330571
    33  H    5.596135   4.435733   3.227485   3.516155   4.840650
    34  H    6.520011   5.207715   4.238499   4.837391   6.168074
    35  H    5.226062   4.522469   3.473652   3.227626   4.109296
    36  H    6.006718   5.416737   4.638710   4.495454   5.151063
    37  O    8.256625   6.917147   6.004251   6.591849   7.926748
    38  H    8.751356   7.428803   6.499752   7.041314   8.367217
    39  H    8.966544   7.628079   6.715889   7.276607   8.609916
    40  H    3.675716   3.509099   4.651646   5.626109   5.704815
    41  H    4.539015   4.067410   4.780473   5.702934   6.012775
    42  H    2.913565   2.777617   3.597353   4.321794   4.382099
                    6          7          8          9         10
     6  C    0.000000
     7  C    3.798346   0.000000
     8  N    4.621480   1.508673   0.000000
     9  C    6.024120   2.426569   1.503854   0.000000
    10  C    6.179992   2.403278   2.417487   1.543283   0.000000
    11  C    4.948782   1.527560   2.342285   2.445461   1.535829
    12  O    5.461178   3.496624   2.610686   3.251662   3.980930
    13  O    5.095995   5.147732   4.601970   5.706826   6.437232
    14  O    5.056627   5.484796   5.616021   6.638424   6.733867
    15  O    5.991087   4.409048   4.372097   4.810660   4.644157
    16  H    6.467361   3.013178   2.128663   1.093906   2.208385
    17  H    6.576407   2.880522   3.096017   2.177221   1.096015
    18  H    7.038215   3.345300   3.233578   2.193647   1.093719
    19  H    5.087195   2.167650   2.712220   2.922759   2.182390
    20  H    5.095646   2.175999   3.318891   3.387203   2.208008
    21  H    6.677023   3.266998   2.106405   1.093558   2.219697
    22  H    3.994422   1.098863   2.100260   2.748199   2.697678
    23  H    3.811910   2.758162   3.230783   4.198218   4.064598
    24  H    2.162809   5.334020   6.017854   7.434706   7.551565
    25  H    1.088138   4.691428   5.493744   6.888422   7.082965
    26  H    2.156430   2.754030   3.634282   4.820442   5.007135
    27  C    4.601756   2.486340   1.473568   2.471554   3.663798
    28  H    4.704702   2.137221   1.080981   2.096854   2.953305
    29  H    5.255426   4.020229   3.212816   4.087972   4.871863
    30  H    5.666576   3.711381   3.142707   3.647951   4.016633
    31  H    4.136410   4.964194   5.292891   6.433580   6.481330
    32  H    5.637339   6.378995   6.568793   7.584819   7.625708
    33  H    5.769334   4.847865   4.880503   5.531712   5.442304
    34  H    6.937045   5.190643   5.114032   5.333638   5.058740
    35  H    5.057538   5.315028   5.000379   6.096304   6.615114
    36  H    5.895061   6.049554   5.391051   6.430082   7.250966
    37  O    8.709388   6.730067   6.599457   6.509687   6.094952
    38  H    9.174813   7.262918   7.282830   7.167028   6.581687
    39  H    9.411651   7.414677   7.124987   6.982063   6.706381
    40  H    4.881737   2.751511   2.141865   2.767468   3.801134
    41  H    5.534613   3.448726   2.129050   2.711495   4.156944
    42  H    3.791779   2.768497   2.133322   3.438389   4.478438
                   11         12         13         14         15
    11  C    0.000000
    12  O    3.722932   0.000000
    13  O    5.768100   2.711475   0.000000
    14  O    5.638963   3.946398   2.793671   0.000000
    15  O    3.903994   2.698905   3.799015   2.842780   0.000000
    16  H    3.252259   4.149557   6.471488   7.608660   5.895433
    17  H    2.176531   5.012077   7.406251   7.697170   5.685866
    18  H    2.194792   4.169892   6.755164   6.903373   4.477848
    19  H    1.097600   3.195372   5.183778   4.785405   2.843387
    20  H    1.094044   4.749854   6.618524   6.148259   4.535862
    21  H    3.140420   2.844308   5.453796   6.550853   4.557183
    22  H    2.157055   4.474608   6.069360   6.497844   5.494906
    23  H    2.830497   2.763274   3.567857   2.846211   2.238650
    24  H    6.199791   5.958515   4.747805   4.035282   5.910753
    25  H    5.900815   6.453786   5.915572   5.964321   7.068977
    26  H    4.101530   5.454697   5.990721   6.409965   6.461076
    27  C    3.688901   3.396117   4.815557   6.345199   5.573119
    28  H    2.714800   1.540972   3.648109   4.759272   3.545699
    29  H    4.458789   0.981299   1.752693   3.472992   2.996943
    30  H    3.604246   0.983231   2.965021   3.461072   1.737865
    31  H    5.255052   4.070747   3.019794   0.988274   3.181678
    32  H    6.492189   4.871386   3.498445   0.959966   3.551906
    33  H    4.548213   3.080826   3.395490   1.929219   0.971473
    34  H    4.479794   3.380271   4.540693   3.472908   0.973146
    35  H    5.785184   3.070557   0.974823   1.857043   3.375672
    36  H    6.670792   3.382300   0.959792   3.369750   4.494939
    37  O    5.779850   4.880813   6.107946   4.995682   2.777985
    38  H    6.205927   5.727590   6.900628   5.491404   3.428490
    39  H    6.522857   5.210688   6.348273   5.474609   3.421792
    40  H    3.956882   4.441329   5.886660   7.289639   6.463990
    41  H    4.448909   3.389709   4.836984   6.730982   5.879216
    42  H    4.160995   3.527053   4.283019   5.875507   5.623507
                   16         17         18         19         20
    16  H    0.000000
    17  H    2.342493   0.000000
    18  H    2.902184   1.768301   0.000000
    19  H    3.913958   3.055941   2.412820   0.000000
    20  H    4.038807   2.417343   2.756097   1.774500   0.000000
    21  H    1.781099   2.997702   2.390166   3.285032   4.151384
    22  H    2.952182   2.750008   3.765055   3.067295   2.456999
    23  H    5.159320   4.939423   4.425532   2.133946   3.365997
    24  H    8.068890   8.137994   8.223449   5.970351   6.370552
    25  H    7.219784   7.383679   7.991589   6.122541   5.979443
    26  H    4.977519   5.124515   6.030025   4.683709   4.225636
    27  C    2.485741   4.089041   4.538152   4.145928   4.540266
    28  H    2.920821   3.847038   3.502020   2.637129   3.762624
    29  H    4.907893   5.875236   5.125657   3.915529   5.435961
    30  H    4.661800   5.097453   4.033053   2.826310   4.542285
    31  H    7.357560   7.367856   6.783542   4.521044   5.676021
    32  H    8.562425   8.580228   7.758603   5.615877   6.926234
    33  H    6.594473   6.466375   5.376001   3.522904   5.122647
    34  H    6.422316   6.089661   4.686034   3.398157   5.050352
    35  H    6.951439   7.603342   6.875206   5.081687   6.538484
    36  H    7.150279   8.230214   7.524221   6.075243   7.548296
    37  O    7.561516   7.058247   5.438421   4.746408   6.247583
    38  H    8.216844   7.477315   5.887097   5.185688   6.527012
    39  H    8.002713   7.686486   6.008243   5.511377   7.067310
    40  H    2.393928   3.921324   4.779747   4.650816   4.635374
    41  H    2.607214   4.635129   4.872331   4.791082   5.392509
    42  H    3.577490   4.951288   5.359876   4.498278   4.943052
                   21         22         23         24         25
    21  H    0.000000
    22  H    3.767352   0.000000
    23  H    4.426519   3.794191   0.000000
    24  H    7.875354   5.823980   4.119767   0.000000
    25  H    7.585156   4.704421   4.898661   2.497907   0.000000
    26  H    5.694914   2.382765   4.311145   4.303165   2.503083
    27  C    2.981945   2.602240   4.279559   6.166504   5.269705
    28  H    2.187303   3.004038   2.698358   5.739880   5.655383
    29  H    3.732855   4.982912   2.941061   5.505970   6.200902
    30  H    3.253690   4.770804   2.379411   5.964327   6.714008
    31  H    6.507488   5.908133   2.434648   3.116732   5.034796
    32  H    7.487819   7.374304   3.704946   4.295162   6.467663
    33  H    5.319418   5.936465   2.300141   5.360552   6.814285
    34  H    4.968279   6.253535   3.161924   6.792729   8.015341
    35  H    5.884042   6.292950   3.267882   4.396704   5.914378
    36  H    6.076696   6.948932   4.506276   5.409035   6.639909
    37  O    6.004977   7.740465   4.920102   8.510110   9.788202
    38  H    6.738151   8.241441   5.431576   8.917113  10.244182
    39  H    6.351741   8.432487   5.638563   9.166852  10.488007
    40  H    3.503301   2.396122   5.039643   6.697031   5.409430
    41  H    2.856232   3.636155   4.934347   6.934239   6.185011
    42  H    3.897207   2.959188   4.102912   5.287952   4.399450
                   26         27         28         29         30
    26  H    0.000000
    27  C    3.429482   0.000000
    28  H    4.200929   2.063958   0.000000
    29  H    5.553414   3.704488   2.156891   0.000000
    30  H    5.821111   4.169144   2.144145   1.538904   0.000000
    31  H    5.600373   5.969212   4.568913   3.641648   3.687339
    32  H    7.163734   7.283009   5.719156   4.367085   4.352132
    33  H    6.559683   5.946680   4.005813   3.073346   2.232660
    34  H    7.369285   6.366126   4.309746   3.732158   2.400000
    35  H    6.181228   5.410069   4.043043   2.246750   3.017149
    36  H    6.825693   5.485511   4.428040   2.414452   3.663186
    37  O    9.065808   7.897819   5.849898   5.289878   3.955537
    38  H    9.565367   8.631112   6.597165   6.142836   4.778709
    39  H    9.772477   8.356264   6.320445   5.568694   4.355881
    40  H    3.266964   1.112086   3.012242   4.802868   5.155391
    41  H    4.497421   1.111862   2.400962   3.665516   4.285726
    42  H    2.959817   1.110932   2.403709   3.555718   4.297133
                   31         32         33         34         35
    31  H    0.000000
    32  H    1.566514   0.000000
    33  H    2.408227   2.586382   0.000000
    34  H    3.947731   4.021231   1.564413   0.000000
    35  H    2.216889   2.525163   2.768203   4.095462   0.000000
    36  H    3.735266   3.905682   4.056629   5.127053   1.550201
    37  O    5.584215   5.336463   3.232299   1.805966   5.665974
    38  H    6.037960   5.729366   3.810377   2.487848   6.383372
    39  H    6.164179   5.775335   3.812364   2.484776   5.961339
    40  H    6.832844   8.218400   6.876996   7.241217   6.453966
    41  H    6.492376   7.669106   6.276439   6.601760   5.563746
    42  H    5.422367   6.771740   5.818304   6.501584   4.879659
                   36         37         38         39         40
    36  H    0.000000
    37  O    6.547334   0.000000
    38  H    7.364349   0.960601   0.000000
    39  H    6.663008   0.960643   1.532948   0.000000
    40  H    6.564075   8.735341   9.421657   9.233841   0.000000
    41  H    5.356541   8.033013   8.835611   8.373822   1.807845
    42  H    4.948713   8.154916   8.886430   8.628820   1.806682
                   41         42
    41  H    0.000000
    42  H    1.793843   0.000000
 Stoichiometry    C10H25N2O5(1+)
 Framework group  C1[X(C10H25N2O5)]
 Deg. of freedom   120
 Full point group                 C1      NOp   1
 Largest Abelian subgroup         C1      NOp   1
 Largest concise Abelian subgroup C1      NOp   1
                         Standard orientation:                         
 ---------------------------------------------------------------------
 Center     Atomic      Atomic             Coordinates (Angstroms)
 Number     Number       Type             X           Y           Z
 ---------------------------------------------------------------------
      1          6           0        2.783873    1.132573   -0.695935
      2          6           0        1.605918    0.384503   -0.704056
      3          6           0        0.397947    1.080718   -0.756899
      4          7           0        0.316412    2.412524   -0.772097
      5          6           0        1.451669    3.118098   -0.755793
      6          6           0        2.708846    2.521411   -0.728472
      7          6           0        1.636632   -1.121183   -0.632063
      8          7           0        1.286285   -1.620442    0.747826
      9          6           0        0.989602   -3.090037    0.630160
     10          6           0        0.692766   -3.318842   -0.866924
     11          6           0        0.650303   -1.914485   -1.487205
     12          8           0       -1.000520   -0.720309    1.628714
     13          8           0       -1.196051    1.848013    2.475820
     14          8           0       -2.288363    2.651694    0.033372
     15          8           0       -2.654497   -0.130578   -0.420839
     16          1           0        1.857021   -3.658127    0.978710
     17          1           0        1.492957   -3.914392   -1.321086
     18          1           0       -0.246929   -3.859855   -1.010102
     19          1           0       -0.355418   -1.482322   -1.406674
     20          1           0        0.943001   -1.901383   -2.541287
     21          1           0        0.138168   -3.303619    1.282319
     22          1           0        2.658194   -1.471258   -0.835430
     23          1           0       -0.552809    0.549322   -0.784433
     24          1           0        1.349749    4.203420   -0.766496
     25          1           0        3.607376    3.135160   -0.727981
     26          1           0        3.755939    0.637148   -0.670661
     27          6           0        2.336224   -1.342043    1.743580
     28          1           0        0.385599   -1.137960    1.100667
     29          1           0       -1.038724    0.146012    2.088034
     30          1           0       -1.692446   -0.636245    0.935234
     31          1           0       -1.404126    2.794880   -0.384129
     32          1           0       -2.832293    3.409561   -0.193150
     33          1           0       -2.792723    0.827758   -0.341816
     34          1           0       -3.520178   -0.529708   -0.616554
     35          1           0       -1.692501    2.268799    1.750040
     36          1           0       -1.586664    2.165180    3.293149
     37          8           0       -5.080387   -1.367353   -0.970969
     38          1           0       -5.523304   -1.378625   -1.823291
     39          1           0       -5.757987   -1.568253   -0.320329
     40          1           0        3.301790   -1.807900    1.447957
     41          1           0        2.035883   -1.741258    2.736887
     42          1           0        2.487404   -0.246916    1.853178
 ---------------------------------------------------------------------
 Rotational constants (GHZ):           0.3740119           0.3272439           0.2286001
 Standard basis: Aug-CC-pVDZ (5D, 7F)
 There are   650 symmetry adapted cartesian basis functions of A   symmetry.
 There are   616 symmetry adapted basis functions of A   symmetry.
   616 basis functions,  1006 primitive gaussians,   650 cartesian basis functions
    69 alpha electrons       69 beta electrons
       nuclear repulsion energy      1397.9517554857 Hartrees.
 NAtoms=   42 NActive=   42 NUniq=   42 SFac= 1.00D+00 NAtFMM=   60 NAOKFM=F Big=F
 Integral buffers will be    131072 words long.
 Raffenetti 2 integral format.
 Two-electron integral symmetry is turned on.
 Nuclear repulsion after empirical dispersion term =     1397.9175400116 Hartrees.
 One-electron integrals computed using PRISM.
 NBasis=   616 RedAO= T EigKep=  1.86D-06  NBF=   616
 NBsUse=   616 1.00D-06 EigRej= -1.00D+00 NBFU=   616
 ExpMin= 2.97D-02 ExpMax= 1.17D+04 ExpMxC= 4.01D+02 IAcc=3 IRadAn=         5 AccDes= 0.00D+00
 Harris functional with IExCor= 4639 and IRadAn=       5 diagonalized for initial guess.
 HarFok:  IExCor= 4639 AccDes= 0.00D+00 IRadAn=         5 IDoV= 1 UseB2=F ITyADJ=14
 ICtDFT=  3500011 ScaDFX=  1.000000  1.000000  1.000000  1.000000
 FoFCou: FMM=F IPFlag=           0 FMFlag=      100000 FMFlg1=           0
         NFxFlg=           0 DoJE=T BraDBF=F KetDBF=T FulRan=T
         wScrn=  0.000000 ICntrl=       500 IOpCl=  0 I1Cent=   200000004 NGrid=           0
         NMat0=    1 NMatS0=      1 NMatT0=    0 NMatD0=    1 NMtDS0=    0 NMtDT0=    0
 Petite list used in FoFCou.
 Requested convergence on RMS density matrix=1.00D-08 within 128 cycles.
 Requested convergence on MAX density matrix=1.00D-06.
 Requested convergence on             energy=1.00D-06.
 No special actions if energy rises.
 SCF Done:  E(RwB97XD) =  -881.477547443     A.U. after   15 cycles
            NFock= 15  Conv=0.27D-08     -V/T= 2.0063

 **********************************************************************

            Population analysis using the SCF density.

 **********************************************************************

 Orbital symmetries:
       Occupied  (A) (A) (A) (A) (A) (A) (A) (A) (A) (A) (A) (A)
                 (A) (A) (A) (A) (A) (A) (A) (A) (A) (A) (A) (A)
                 (A) (A) (A) (A) (A) (A) (A) (A) (A) (A) (A) (A)
                 (A) (A) (A) (A) (A) (A) (A) (A) (A) (A) (A) (A)
                 (A) (A) (A) (A) (A) (A) (A) (A) (A) (A) (A) (A)
                 (A) (A) (A) (A) (A) (A) (A) (A) (A)
       Virtual   (A) (A) (A) (A) (A) (A) (A) (A) (A) (A) (A) (A)
                 (A) (A) (A) (A) (A) (A) (A) (A) (A) (A) (A) (A)
                 (A) (A) (A) (A) (A) (A) (A) (A) (A) (A) (A) (A)
                 (A) (A) (A) (A) (A) (A) (A) (A) (A) (A) (A) (A)
                 (A) (A) (A) (A) (A) (A) (A) (A) (A) (A) (A) (A)
                 (A) (A) (A) (A) (A) (A) (A) (A) (A) (A) (A) (A)
                 (A) (A) (A) (A) (A) (A) (A) (A) (A) (A) (A) (A)
                 (A) (A) (A) (A) (A) (A) (A) (A) (A) (A) (A) (A)
                 (A) (A) (A) (A) (A) (A) (A) (A) (A) (A) (A) (A)
                 (A) (A) (A) (A) (A) (A) (A) (A) (A) (A) (A) (A)
                 (A) (A) (A) (A) (A) (A) (A) (A) (A) (A) (A) (A)
                 (A) (A) (A) (A) (A) (A) (A) (A) (A) (A) (A) (A)
                 (A) (A) (A) (A) (A) (A) (A) (A) (A) (A) (A) (A)
                 (A) (A) (A) (A) (A) (A) (A) (A) (A) (A) (A) (A)
                 (A) (A) (A) (A) (A) (A) (A) (A) (A) (A) (A) (A)
                 (A) (A) (A) (A) (A) (A) (A) (A) (A) (A) (A) (A)
                 (A) (A) (A) (A) (A) (A) (A) (A) (A) (A) (A) (A)
                 (A) (A) (A) (A) (A) (A) (A) (A) (A) (A) (A) (A)
                 (A) (A) (A) (A) (A) (A) (A) (A) (A) (A) (A) (A)
                 (A) (A) (A) (A) (A) (A) (A) (A) (A) (A) (A) (A)
                 (A) (A) (A) (A) (A) (A) (A) (A) (A) (A) (A) (A)
                 (A) (A) (A) (A) (A) (A) (A) (A) (A) (A) (A) (A)
                 (A) (A) (A) (A) (A) (A) (A) (A) (A) (A) (A) (A)
                 (A) (A) (A) (A) (A) (A) (A) (A) (A) (A) (A) (A)
                 (A) (A) (A) (A) (A) (A) (A) (A) (A) (A) (A) (A)
                 (A) (A) (A) (A) (A) (A) (A) (A) (A) (A) (A) (A)
                 (A) (A) (A) (A) (A) (A) (A) (A) (A) (A) (A) (A)
                 (A) (A) (A) (A) (A) (A) (A) (A) (A) (A) (A) (A)
                 (A) (A) (A) (A) (A) (A) (A) (A) (A) (A) (A) (A)
                 (A) (A) (A) (A) (A) (A) (A) (A) (A) (A) (A) (A)
                 (A) (A) (A) (A) (A) (A) (A) (A) (A) (A) (A) (A)
                 (A) (A) (A) (A) (A) (A) (A) (A) (A) (A) (A) (A)
                 (A) (A) (A) (A) (A) (A) (A) (A) (A) (A) (A) (A)
                 (A) (A) (A) (A) (A) (A) (A) (A) (A) (A) (A) (A)
                 (A) (A) (A) (A) (A) (A) (A) (A) (A) (A) (A) (A)
                 (A) (A) (A) (A) (A) (A) (A) (A) (A) (A) (A) (A)
                 (A) (A) (A) (A) (A) (A) (A) (A) (A) (A) (A) (A)
                 (A) (A) (A) (A) (A) (A) (A) (A) (A) (A) (A) (A)
                 (A) (A) (A) (A) (A) (A) (A) (A) (A) (A) (A) (A)
                 (A) (A) (A) (A) (A) (A) (A) (A) (A) (A) (A) (A)
                 (A) (A) (A) (A) (A) (A) (A) (A) (A) (A) (A) (A)
                 (A) (A) (A) (A) (A) (A) (A) (A) (A) (A) (A) (A)
                 (A) (A) (A) (A) (A) (A) (A) (A) (A) (A) (A) (A)
                 (A) (A) (A) (A) (A) (A) (A) (A) (A) (A) (A) (A)
                 (A) (A) (A) (A) (A) (A) (A) (A) (A) (A) (A) (A)
                 (A) (A) (A) (A) (A) (A) (A)
 The electronic state is 1-A.
 Alpha  occ. eigenvalues --  -19.39321 -19.38474 -19.37396 -19.36611 -19.36387
 Alpha  occ. eigenvalues --  -14.66449 -14.57894 -10.48382 -10.46968 -10.46713
 Alpha  occ. eigenvalues --  -10.45658 -10.45539 -10.44398 -10.44273 -10.42813
 Alpha  occ. eigenvalues --  -10.42586 -10.42498  -1.23720  -1.23580  -1.22979
 Alpha  occ. eigenvalues --   -1.21774  -1.21045  -1.19760  -1.17536  -1.05351
 Alpha  occ. eigenvalues --   -1.03236  -1.00384  -0.95822  -0.92519  -0.87360
 Alpha  occ. eigenvalues --   -0.85090  -0.83482  -0.82067  -0.76912  -0.74581
 Alpha  occ. eigenvalues --   -0.74069  -0.73575  -0.72930  -0.72303  -0.71995
 Alpha  occ. eigenvalues --   -0.71644  -0.70550  -0.69290  -0.67082  -0.65494
 Alpha  occ. eigenvalues --   -0.64428  -0.63965  -0.62601  -0.61767  -0.61519
 Alpha  occ. eigenvalues --   -0.61062  -0.60879  -0.59722  -0.58989  -0.58828
 Alpha  occ. eigenvalues --   -0.57705  -0.57299  -0.56350  -0.55516  -0.55082
 Alpha  occ. eigenvalues --   -0.54110  -0.52221  -0.52013  -0.50722  -0.50194
 Alpha  occ. eigenvalues --   -0.50006  -0.49161  -0.47375  -0.45960
 Alpha virt. eigenvalues --   -0.09011  -0.07796  -0.05906  -0.05372  -0.04615
 Alpha virt. eigenvalues --   -0.04138  -0.03695  -0.02994  -0.02744  -0.02403
 Alpha virt. eigenvalues --   -0.01815  -0.01682  -0.00967  -0.00763  -0.00350
 Alpha virt. eigenvalues --   -0.00172  -0.00031   0.00596   0.01294   0.01691
 Alpha virt. eigenvalues --    0.01780   0.02132   0.02267   0.02845   0.03235
 Alpha virt. eigenvalues --    0.03292   0.03967   0.04179   0.04382   0.04614
 Alpha virt. eigenvalues --    0.04953   0.05058   0.05578   0.05899   0.06016
 Alpha virt. eigenvalues --    0.06229   0.06520   0.06945   0.07081   0.07242
 Alpha virt. eigenvalues --    0.07543   0.07709   0.07885   0.08101   0.08220
 Alpha virt. eigenvalues --    0.08641   0.08826   0.09021   0.09481   0.09911
 Alpha virt. eigenvalues --    0.10325   0.10480   0.10561   0.11059   0.11338
 Alpha virt. eigenvalues --    0.11772   0.12025   0.12119   0.12471   0.12565
 Alpha virt. eigenvalues --    0.13395   0.13529   0.13743   0.14015   0.14530
 Alpha virt. eigenvalues --    0.14764   0.14957   0.15163   0.15525   0.15893
 Alpha virt. eigenvalues --    0.16001   0.16319   0.16480   0.16967   0.17276
 Alpha virt. eigenvalues --    0.17743   0.17806   0.17974   0.18227   0.18858
 Alpha virt. eigenvalues --    0.18979   0.19335   0.19682   0.19752   0.20024
 Alpha virt. eigenvalues --    0.20194   0.20404   0.20594   0.20861   0.21018
 Alpha virt. eigenvalues --    0.21576   0.21586   0.22051   0.22289   0.22941
 Alpha virt. eigenvalues --    0.23132   0.23309   0.23610   0.23874   0.24196
 Alpha virt. eigenvalues --    0.24634   0.24994   0.25114   0.25343   0.25654
 Alpha virt. eigenvalues --    0.26079   0.26503   0.26626   0.27019   0.27389
 Alpha virt. eigenvalues --    0.27849   0.28032   0.28449   0.28686   0.28832
 Alpha virt. eigenvalues --    0.29566   0.29924   0.30142   0.30351   0.30455
 Alpha virt. eigenvalues --    0.30995   0.31267   0.31819   0.31925   0.32206
 Alpha virt. eigenvalues --    0.33101   0.33223   0.33522   0.33763   0.34522
 Alpha virt. eigenvalues --    0.35167   0.35248   0.35678   0.35751   0.36236
 Alpha virt. eigenvalues --    0.37146   0.37521   0.37946   0.38662   0.38802
 Alpha virt. eigenvalues --    0.39246   0.39522   0.39656   0.40478   0.40621
 Alpha virt. eigenvalues --    0.41298   0.41863   0.42017   0.42316   0.42576
 Alpha virt. eigenvalues --    0.42948   0.43374   0.43783   0.44079   0.44331
 Alpha virt. eigenvalues --    0.44778   0.45181   0.45465   0.45802   0.46005
 Alpha virt. eigenvalues --    0.46210   0.46685   0.47342   0.47571   0.47976
 Alpha virt. eigenvalues --    0.48300   0.48835   0.48917   0.49357   0.50069
 Alpha virt. eigenvalues --    0.50145   0.50326   0.50804   0.51217   0.51287
 Alpha virt. eigenvalues --    0.52028   0.52432   0.52591   0.53047   0.53183
 Alpha virt. eigenvalues --    0.53492   0.53998   0.54109   0.54504   0.54821
 Alpha virt. eigenvalues --    0.55058   0.55642   0.56106   0.56510   0.56839
 Alpha virt. eigenvalues --    0.57133   0.57518   0.57947   0.58206   0.58565
 Alpha virt. eigenvalues --    0.58780   0.59433   0.59513   0.60238   0.60409
 Alpha virt. eigenvalues --    0.60631   0.61057   0.61364   0.61890   0.62416
 Alpha virt. eigenvalues --    0.62564   0.63087   0.63653   0.64285   0.64600
 Alpha virt. eigenvalues --    0.65399   0.66200   0.66422   0.66769   0.66972
 Alpha virt. eigenvalues --    0.67505   0.67888   0.68275   0.68439   0.69108
 Alpha virt. eigenvalues --    0.69357   0.69911   0.70619   0.70768   0.71077
 Alpha virt. eigenvalues --    0.71440   0.71646   0.72250   0.72688   0.73065
 Alpha virt. eigenvalues --    0.73665   0.73780   0.74272   0.75024   0.75417
 Alpha virt. eigenvalues --    0.75797   0.76029   0.76740   0.77480   0.78062
 Alpha virt. eigenvalues --    0.78696   0.79077   0.79689   0.80050   0.80783
 Alpha virt. eigenvalues --    0.81428   0.81762   0.82399   0.82682   0.83079
 Alpha virt. eigenvalues --    0.83649   0.84166   0.85145   0.85294   0.86503
 Alpha virt. eigenvalues --    0.87136   0.87378   0.88026   0.88421   0.89054
 Alpha virt. eigenvalues --    0.90247   0.91078   0.91139   0.92175   0.92261
 Alpha virt. eigenvalues --    0.92479   0.93397   0.93706   0.94406   0.94749
 Alpha virt. eigenvalues --    0.95304   0.95944   0.96425   0.97318   0.97552
 Alpha virt. eigenvalues --    0.98672   0.99253   0.99767   1.00797   1.01598
 Alpha virt. eigenvalues --    1.01977   1.03110   1.03628   1.04771   1.04829
 Alpha virt. eigenvalues --    1.05655   1.06262   1.07129   1.07503   1.08197
 Alpha virt. eigenvalues --    1.08485   1.10145   1.11001   1.11583   1.12375
 Alpha virt. eigenvalues --    1.13243   1.14061   1.14318   1.14525   1.15716
 Alpha virt. eigenvalues --    1.15745   1.16738   1.17832   1.17920   1.18638
 Alpha virt. eigenvalues --    1.19434   1.20494   1.20844   1.21250   1.21939
 Alpha virt. eigenvalues --    1.23068   1.23529   1.24630   1.25537   1.26033
 Alpha virt. eigenvalues --    1.26728   1.27677   1.29493   1.30629   1.30757
 Alpha virt. eigenvalues --    1.31896   1.32377   1.33399   1.34292   1.35375
 Alpha virt. eigenvalues --    1.36623   1.37235   1.37565   1.38459   1.38926
 Alpha virt. eigenvalues --    1.40069   1.41546   1.41815   1.42120   1.43580
 Alpha virt. eigenvalues --    1.44047   1.44127   1.46164   1.46250   1.46482
 Alpha virt. eigenvalues --    1.47723   1.48820   1.49484   1.50003   1.50608
 Alpha virt. eigenvalues --    1.51478   1.52924   1.53755   1.54687   1.55278
 Alpha virt. eigenvalues --    1.56279   1.56904   1.57250   1.57701   1.58395
 Alpha virt. eigenvalues --    1.60307   1.60686   1.61274   1.61469   1.63349
 Alpha virt. eigenvalues --    1.64642   1.65261   1.65794   1.66856   1.67425
 Alpha virt. eigenvalues --    1.68161   1.68576   1.69364   1.70544   1.70978
 Alpha virt. eigenvalues --    1.72245   1.72957   1.73711   1.74813   1.75556
 Alpha virt. eigenvalues --    1.76263   1.76353   1.76591   1.78201   1.78817
 Alpha virt. eigenvalues --    1.79431   1.80285   1.80447   1.81174   1.81853
 Alpha virt. eigenvalues --    1.82323   1.82687   1.83248   1.84621   1.84754
 Alpha virt. eigenvalues --    1.85616   1.86466   1.86809   1.87289   1.88102
 Alpha virt. eigenvalues --    1.88544   1.89461   1.89967   1.90909   1.91508
 Alpha virt. eigenvalues --    1.92656   1.93062   1.93427   1.94977   1.95710
 Alpha virt. eigenvalues --    1.95830   1.96665   1.96850   1.97980   1.98717
 Alpha virt. eigenvalues --    1.99365   2.00374   2.00569   2.01542   2.02801
 Alpha virt. eigenvalues --    2.03695   2.04928   2.05433   2.06223   2.06649
 Alpha virt. eigenvalues --    2.08064   2.09222   2.09752   2.10457   2.11485
 Alpha virt. eigenvalues --    2.12605   2.13887   2.14312   2.15636   2.16073
 Alpha virt. eigenvalues --    2.16491   2.18195   2.18489   2.19611   2.20007
 Alpha virt. eigenvalues --    2.20947   2.21371   2.22731   2.23508   2.24056
 Alpha virt. eigenvalues --    2.24932   2.25457   2.27268   2.28668   2.29442
 Alpha virt. eigenvalues --    2.29900   2.30571   2.31536   2.33091   2.33665
 Alpha virt. eigenvalues --    2.34948   2.35818   2.37257   2.37915   2.38544
 Alpha virt. eigenvalues --    2.40782   2.42213   2.43243   2.44724   2.45683
 Alpha virt. eigenvalues --    2.46080   2.47289   2.47375   2.50389   2.52206
 Alpha virt. eigenvalues --    2.52357   2.53747   2.54382   2.54587   2.55049
 Alpha virt. eigenvalues --    2.55405   2.56863   2.57416   2.58580   2.59996
 Alpha virt. eigenvalues --    2.60627   2.61257   2.61754   2.62468   2.63856
 Alpha virt. eigenvalues --    2.65219   2.65946   2.68644   2.68921   2.69671
 Alpha virt. eigenvalues --    2.70716   2.71959   2.73640   2.74927   2.75481
 Alpha virt. eigenvalues --    2.76008   2.77356   2.79163   2.79900   2.80695
 Alpha virt. eigenvalues --    2.82436   2.83174   2.85387   2.85608   2.86367
 Alpha virt. eigenvalues --    2.87196   2.88229   2.91859   2.92989   2.93874
 Alpha virt. eigenvalues --    2.96097   2.97606   3.00998   3.05240   3.10334
 Alpha virt. eigenvalues --    3.13446   3.17688   3.21648   3.26409   3.29269
 Alpha virt. eigenvalues --    3.29777   3.35507   3.37062   3.38318   3.39569
 Alpha virt. eigenvalues --    3.40929   3.43198   3.44238   3.45814   3.47173
 Alpha virt. eigenvalues --    3.47560   3.52019   3.53336   3.55658   3.59634
 Alpha virt. eigenvalues --    3.60694   3.65183   3.68181   3.71955   3.73552
 Alpha virt. eigenvalues --    3.79757   3.85250   3.90044   3.91401   3.93726
 Alpha virt. eigenvalues --    3.96449   4.00982   4.04839   4.13157   4.15679
 Alpha virt. eigenvalues --    4.25733   4.38566
          Condensed to atoms (all electrons):
               1          2          3          4          5          6
     1  C   26.053910 -12.633165  -0.944383  -0.575797   1.463879  -4.186417
     2  C  -12.633165  26.742866  -5.439940   0.264696  -1.453197   1.077216
     3  C   -0.944383  -5.439940  18.845363  -0.899062  -1.572100  -0.251125
     4  N   -0.575797   0.264696  -0.899062   7.855487   0.326552   0.249002
     5  C    1.463879  -1.453197  -1.572100   0.326552  11.111226  -2.997456
     6  C   -4.186417   1.077216  -0.251125   0.249002  -2.997456  12.037528
     7  C   -1.006519  -8.427907  -2.325293   0.565981  -0.662520  -0.002293
     8  N   -0.574615   0.959189  -0.855129   0.012068   0.080664   0.073748
     9  C   -0.074474  -0.020321  -0.085887   0.008516  -0.043221   0.055799
    10  C   -0.063530   0.114255  -0.038462   0.002861  -0.017588  -0.025060
    11  C   -0.420019   0.652808  -0.167518  -0.123379  -0.098443  -0.151798
    12  O    0.070994  -0.139837  -0.124597   0.007819   0.008280  -0.014117
    13  O   -0.035330   0.104759  -0.130575   0.025555   0.005585   0.002858
    14  O    0.028424  -0.038125  -0.140291  -0.031505   0.051285  -0.008331
    15  O   -0.006226   0.022458  -0.006530   0.009131  -0.008668   0.008466
    16  H    0.008810  -0.033970  -0.021323   0.000795  -0.004091   0.004787
    17  H   -0.007177   0.050020   0.025862  -0.000377   0.003105  -0.007622
    18  H    0.012314  -0.093915  -0.024039   0.001367  -0.003024   0.002885
    19  H    0.063193   0.290950  -0.029311  -0.030072   0.027608  -0.090407
    20  H   -0.048532   0.085871   0.170925  -0.010618   0.009107  -0.000497
    21  H    0.004370   0.019785   0.048119  -0.001041  -0.000202   0.000193
    22  H   -0.078876   1.850330   0.205388  -0.024733   0.002278   0.004789
    23  H   -0.205664  -0.392167  -1.504254  -0.008138  -0.179305   0.200845
    24  H    0.326627  -0.311610   0.434962  -0.269717  -0.609098   0.115914
    25  H    0.595297   0.022850  -0.016314  -0.067501   0.437832  -1.290145
    26  H   -2.812250   1.520689  -0.014278  -0.010726  -0.259983   0.732272
    27  C   -0.268823   0.327578  -0.029792   0.002694  -0.024739   0.107344
    28  H    0.052719  -0.225788  -0.230029   0.006866   0.026578  -0.072750
    29  H   -0.036524   0.025973   0.038986  -0.004674  -0.021252   0.021043
    30  H    0.017294   0.003435  -0.013861   0.008238   0.014609  -0.006461
    31  H    0.004086   0.084486  -0.184750   0.152126   0.147692  -0.112370
    32  H   -0.006490  -0.005246   0.034706  -0.016698  -0.016951   0.014679
    33  H    0.015573  -0.031017   0.025134  -0.032382   0.012598  -0.020160
    34  H   -0.009622   0.020272   0.004986   0.006206  -0.005917   0.005697
    35  H   -0.019537   0.042063  -0.040644   0.014434  -0.010535   0.008545
    36  H    0.003633  -0.016542   0.027747  -0.004580   0.000989  -0.001707
    37  O   -0.000173  -0.002030   0.001720   0.000203   0.000052   0.000036
    38  H    0.000034   0.000274   0.000324   0.000068   0.000075  -0.000024
    39  H    0.000033  -0.000371   0.000787  -0.000044   0.000038  -0.000033
    40  H    0.095348   0.019603   0.053852  -0.003462   0.011691  -0.009827
    41  H   -0.038510   0.061716   0.056209  -0.001724   0.000073   0.012573
    42  H   -0.030416   0.090901  -0.101312   0.008635  -0.013604  -0.027921
               7          8          9         10         11         12
     1  C   -1.006519  -0.574615  -0.074474  -0.063530  -0.420019   0.070994
     2  C   -8.427907   0.959189  -0.020321   0.114255   0.652808  -0.139837
     3  C   -2.325293  -0.855129  -0.085887  -0.038462  -0.167518  -0.124597
     4  N    0.565981   0.012068   0.008516   0.002861  -0.123379   0.007819
     5  C   -0.662520   0.080664  -0.043221  -0.017588  -0.098443   0.008280
     6  C   -0.002293   0.073748   0.055799  -0.025060  -0.151798  -0.014117
     7  C   26.371618  -1.492720  -0.319347  -0.067977  -2.386202   0.253633
     8  N   -1.492720  11.067553  -0.225898   0.157476  -1.169177  -0.437695
     9  C   -0.319347  -0.225898   5.984899  -0.352675   0.425006  -0.043269
    10  C   -0.067977   0.157476  -0.352675   6.481589  -0.688192   0.005025
    11  C   -2.386202  -1.169177   0.425006  -0.688192   9.135508  -0.054125
    12  O    0.253633  -0.437695  -0.043269   0.005025  -0.054125   8.739970
    13  O   -0.042678   0.046996   0.002754   0.000763   0.007260  -0.138581
    14  O    0.002862  -0.000958   0.000367   0.000408  -0.007530   0.002745
    15  O   -0.067376  -0.001723   0.005176   0.016823  -0.044821  -0.131064
    16  H    0.070109   0.037787  -0.050941   0.021240   0.133449  -0.019857
    17  H   -0.085393  -0.011380   0.153011  -0.177315   0.034725  -0.002905
    18  H    0.238590  -0.150972   0.270106  -0.455350   0.147126   0.013217
    19  H   -0.846743  -0.238330   0.067864  -0.011006   0.141404   0.033890
    20  H    0.251089   0.362121  -0.123789   0.194787  -0.978796  -0.003401
    21  H   -0.035464  -0.551987  -0.358567   0.093187   0.125831   0.064534
    22  H   -4.453760  -0.231120   0.054181  -0.177060   0.715060   0.014240
    23  H   -0.564633   0.158489   0.006214   0.053196   0.150475  -0.041210
    24  H   -0.016040   0.001277  -0.001062   0.000038   0.004140  -0.000441
    25  H    0.015058  -0.005799  -0.000365  -0.000059   0.009918  -0.000058
    26  H    0.015843  -0.019410   0.007274   0.006004  -0.061801   0.000539
    27  C   -0.270932   0.905600  -0.054639  -0.017710  -0.249467  -0.093733
    28  H    0.252309   0.027693  -0.411296   0.115602  -0.100906   0.198050
    29  H   -0.039461   0.022116   0.053695  -0.009799   0.023748   0.240808
    30  H   -0.009447   0.060794  -0.024991   0.004431  -0.005249   0.188244
    31  H    0.009814   0.012505  -0.001775  -0.000630  -0.000465  -0.003250
    32  H    0.001085  -0.001549   0.000295  -0.000137   0.000271   0.002090
    33  H   -0.010817  -0.015374  -0.009937  -0.001374   0.019764   0.023295
    34  H    0.015194   0.026719   0.010195   0.005006  -0.012085  -0.018175
    35  H   -0.014756   0.006862   0.003353  -0.000518   0.004972  -0.004429
    36  H    0.004540  -0.001596  -0.001513   0.000399  -0.001202   0.009947
    37  O    0.002048   0.000287   0.000076  -0.001617   0.000117   0.001609
    38  H   -0.000445   0.000238  -0.000240   0.000102   0.000141   0.000176
    39  H    0.000163  -0.000365  -0.000019  -0.000289   0.000101   0.000158
    40  H   -0.095501  -0.328712   0.237104  -0.103334   0.065782  -0.022127
    41  H   -0.006025  -0.163590  -0.005236   0.042369  -0.094408   0.021049
    42  H    0.051903   0.048740  -0.131954   0.006668   0.118832   0.007807
              13         14         15         16         17         18
     1  C   -0.035330   0.028424  -0.006226   0.008810  -0.007177   0.012314
     2  C    0.104759  -0.038125   0.022458  -0.033970   0.050020  -0.093915
     3  C   -0.130575  -0.140291  -0.006530  -0.021323   0.025862  -0.024039
     4  N    0.025555  -0.031505   0.009131   0.000795  -0.000377   0.001367
     5  C    0.005585   0.051285  -0.008668  -0.004091   0.003105  -0.003024
     6  C    0.002858  -0.008331   0.008466   0.004787  -0.007622   0.002885
     7  C   -0.042678   0.002862  -0.067376   0.070109  -0.085393   0.238590
     8  N    0.046996  -0.000958  -0.001723   0.037787  -0.011380  -0.150972
     9  C    0.002754   0.000367   0.005176  -0.050941   0.153011   0.270106
    10  C    0.000763   0.000408   0.016823   0.021240  -0.177315  -0.455350
    11  C    0.007260  -0.007530  -0.044821   0.133449   0.034725   0.147126
    12  O   -0.138581   0.002745  -0.131064  -0.019857  -0.002905   0.013217
    13  O    7.804678  -0.036730  -0.002840  -0.000623   0.000221  -0.000221
    14  O   -0.036730   8.217063  -0.066626  -0.000001  -0.000046   0.000360
    15  O   -0.002840  -0.066626   8.177839  -0.000604   0.001022   0.000273
    16  H   -0.000623  -0.000001  -0.000604   2.094807  -0.348229   0.142278
    17  H    0.000221  -0.000046   0.001022  -0.348229   2.128426  -0.563703
    18  H   -0.000221   0.000360   0.000273   0.142278  -0.563703   2.096675
    19  H   -0.000565  -0.013063   0.025734  -0.031714   0.170361  -0.183799
    20  H    0.000151   0.000016   0.003825   0.015637  -0.220652   0.058686
    21  H    0.001689   0.000115   0.004929  -0.618948   0.167150  -0.229558
    22  H   -0.001646   0.000022  -0.000983  -0.021540   0.032812   0.002055
    23  H    0.009260   0.142387  -0.047062  -0.012215   0.013336  -0.012367
    24  H   -0.001891   0.009137  -0.000187  -0.000102   0.000056  -0.000026
    25  H    0.000141  -0.000223   0.000217  -0.000190   0.000132  -0.000028
    26  H   -0.000840   0.000259  -0.000216  -0.000822   0.000855  -0.000237
    27  C    0.002305   0.000142   0.001775   0.084552  -0.002584  -0.004052
    28  H   -0.011714  -0.004795  -0.021395  -0.102529  -0.039687   0.038389
    29  H    0.024376  -0.002527   0.017908   0.002686   0.000247  -0.001531
    30  H   -0.003830   0.003425   0.016916  -0.003909   0.001213  -0.000142
    31  H    0.004289   0.297441  -0.001940   0.000071   0.000068  -0.000350
    32  H    0.001090   0.273306   0.006708   0.000023  -0.000024   0.000037
    33  H   -0.005243  -0.029091   0.392830  -0.000230  -0.000377   0.000990
    34  H    0.006528   0.012991   0.228367   0.000611  -0.000116  -0.001304
    35  H    0.328728   0.020769   0.004371  -0.000050   0.000073  -0.000193
    36  H    0.328454  -0.002141   0.000134  -0.000060   0.000007   0.000018
    37  O   -0.000200  -0.001170  -0.071906   0.000011  -0.000042  -0.000662
    38  H   -0.000050  -0.000257   0.007706  -0.000011   0.000043   0.000058
    39  H   -0.000060  -0.000234   0.009785   0.000000  -0.000009  -0.000124
    40  H    0.000411  -0.000002   0.000104   0.033409   0.016111  -0.011221
    41  H    0.001063   0.000213   0.000700  -0.032248   0.004175  -0.000226
    42  H   -0.002606  -0.000250  -0.000207   0.018099  -0.007177   0.004633
              19         20         21         22         23         24
     1  C    0.063193  -0.048532   0.004370  -0.078876  -0.205664   0.326627
     2  C    0.290950   0.085871   0.019785   1.850330  -0.392167  -0.311610
     3  C   -0.029311   0.170925   0.048119   0.205388  -1.504254   0.434962
     4  N   -0.030072  -0.010618  -0.001041  -0.024733  -0.008138  -0.269717
     5  C    0.027608   0.009107  -0.000202   0.002278  -0.179305  -0.609098
     6  C   -0.090407  -0.000497   0.000193   0.004789   0.200845   0.115914
     7  C   -0.846743   0.251089  -0.035464  -4.453760  -0.564633  -0.016040
     8  N   -0.238330   0.362121  -0.551987  -0.231120   0.158489   0.001277
     9  C    0.067864  -0.123789  -0.358567   0.054181   0.006214  -0.001062
    10  C   -0.011006   0.194787   0.093187  -0.177060   0.053196   0.000038
    11  C    0.141404  -0.978796   0.125831   0.715060   0.150475   0.004140
    12  O    0.033890  -0.003401   0.064534   0.014240  -0.041210  -0.000441
    13  O   -0.000565   0.000151   0.001689  -0.001646   0.009260  -0.001891
    14  O   -0.013063   0.000016   0.000115   0.000022   0.142387   0.009137
    15  O    0.025734   0.003825   0.004929  -0.000983  -0.047062  -0.000187
    16  H   -0.031714   0.015637  -0.618948  -0.021540  -0.012215  -0.000102
    17  H    0.170361  -0.220652   0.167150   0.032812   0.013336   0.000056
    18  H   -0.183799   0.058686  -0.229558   0.002055  -0.012367  -0.000026
    19  H    2.650082  -0.575146   0.080435   0.235902  -0.252981  -0.001309
    20  H   -0.575146   2.376976  -0.029164  -0.205191   0.010908   0.000719
    21  H    0.080435  -0.029164   2.559402   0.035198   0.022228   0.000080
    22  H    0.235902  -0.205191   0.035198   4.130598  -0.000521   0.001164
    23  H   -0.252981   0.010908   0.022228  -0.000521   4.971756   0.045857
    24  H   -0.001309   0.000719   0.000080   0.001164   0.045857   2.077803
    25  H    0.004815  -0.001724   0.000011  -0.002426  -0.033309  -0.120263
    26  H   -0.009864   0.005340   0.000221  -0.117556  -0.011816  -0.003438
    27  C   -0.078895   0.059331  -0.149719  -0.070609   0.021674   0.001125
    28  H    0.065942   0.031296   0.174684   0.012436  -0.106022  -0.002193
    29  H    0.006550  -0.002962  -0.004341  -0.001086  -0.004261  -0.000462
    30  H    0.007937   0.002979   0.010572   0.006070  -0.026954   0.000078
    31  H    0.010274   0.000500  -0.000713  -0.003014  -0.153415  -0.068446
    32  H   -0.000283  -0.000050  -0.000000   0.000261   0.009378   0.005245
    33  H    0.014796   0.000091   0.000017   0.001939  -0.029194   0.001867
    34  H   -0.012431   0.001969  -0.002418  -0.002103  -0.000548  -0.000668
    35  H   -0.000737   0.000170   0.000242  -0.000492  -0.003436  -0.001906
    36  H    0.000000  -0.000004  -0.000182   0.000089   0.006301   0.000143
    37  O    0.003538  -0.000115  -0.000086   0.000088   0.000739  -0.000007
    38  H   -0.001195  -0.000042  -0.000117  -0.000006  -0.001073   0.000005
    39  H    0.001713  -0.000053   0.000247   0.000028  -0.000827   0.000003
    40  H    0.007110   0.003459   0.023274   0.015184   0.007047   0.000160
    41  H   -0.019082   0.000605  -0.013581   0.005557   0.018514   0.000486
    42  H    0.008155   0.002368  -0.016192   0.023106  -0.016843  -0.002581
              25         26         27         28         29         30
     1  C    0.595297  -2.812250  -0.268823   0.052719  -0.036524   0.017294
     2  C    0.022850   1.520689   0.327578  -0.225788   0.025973   0.003435
     3  C   -0.016314  -0.014278  -0.029792  -0.230029   0.038986  -0.013861
     4  N   -0.067501  -0.010726   0.002694   0.006866  -0.004674   0.008238
     5  C    0.437832  -0.259983  -0.024739   0.026578  -0.021252   0.014609
     6  C   -1.290145   0.732272   0.107344  -0.072750   0.021043  -0.006461
     7  C    0.015058   0.015843  -0.270932   0.252309  -0.039461  -0.009447
     8  N   -0.005799  -0.019410   0.905600   0.027693   0.022116   0.060794
     9  C   -0.000365   0.007274  -0.054639  -0.411296   0.053695  -0.024991
    10  C   -0.000059   0.006004  -0.017710   0.115602  -0.009799   0.004431
    11  C    0.009918  -0.061801  -0.249467  -0.100906   0.023748  -0.005249
    12  O   -0.000058   0.000539  -0.093733   0.198050   0.240808   0.188244
    13  O    0.000141  -0.000840   0.002305  -0.011714   0.024376  -0.003830
    14  O   -0.000223   0.000259   0.000142  -0.004795  -0.002527   0.003425
    15  O    0.000217  -0.000216   0.001775  -0.021395   0.017908   0.016916
    16  H   -0.000190  -0.000822   0.084552  -0.102529   0.002686  -0.003909
    17  H    0.000132   0.000855  -0.002584  -0.039687   0.000247   0.001213
    18  H   -0.000028  -0.000237  -0.004052   0.038389  -0.001531  -0.000142
    19  H    0.004815  -0.009864  -0.078895   0.065942   0.006550   0.007937
    20  H   -0.001724   0.005340   0.059331   0.031296  -0.002962   0.002979
    21  H    0.000011   0.000221  -0.149719   0.174684  -0.004341   0.010572
    22  H   -0.002426  -0.117556  -0.070609   0.012436  -0.001086   0.006070
    23  H   -0.033309  -0.011816   0.021674  -0.106022  -0.004261  -0.026954
    24  H   -0.120263  -0.003438   0.001125  -0.002193  -0.000462   0.000078
    25  H    2.194890  -0.134090  -0.009266   0.006279  -0.000542   0.000309
    26  H   -0.134090   3.082675   0.045986  -0.001760   0.000294  -0.000568
    27  C   -0.009266   0.045986   4.538082  -0.406423   0.006173   0.007522
    28  H    0.006279  -0.001760  -0.406423   1.786470  -0.067652  -0.008093
    29  H   -0.000542   0.000294   0.006173  -0.067652   0.475555  -0.085267
    30  H    0.000309  -0.000568   0.007522  -0.008093  -0.085267   0.556730
    31  H    0.012415  -0.003470  -0.001290  -0.000981  -0.000903   0.000510
    32  H   -0.000630   0.000114   0.000014   0.001003   0.000252   0.000408
    33  H    0.000417  -0.000245  -0.005887   0.028897  -0.004978  -0.006642
    34  H    0.000018  -0.000181   0.004669  -0.021338   0.006172  -0.000873
    35  H   -0.000484   0.000059   0.001996  -0.005433  -0.007136   0.001757
    36  H    0.000106  -0.000050  -0.001266   0.008499  -0.010000   0.002638
    37  O    0.000001  -0.000009  -0.000004   0.001451  -0.001325   0.007133
    38  H   -0.000001   0.000002   0.000005   0.000412  -0.000453   0.002490
    39  H   -0.000001   0.000002  -0.000043  -0.000409   0.000649  -0.003371
    40  H    0.000645   0.007631   0.206241  -0.180517   0.004065   0.002238
    41  H   -0.001255   0.003936   0.250453   0.027163  -0.002183  -0.002187
    42  H   -0.000427  -0.027906   0.139718   0.020261  -0.004992  -0.001954
              31         32         33         34         35         36
     1  C    0.004086  -0.006490   0.015573  -0.009622  -0.019537   0.003633
     2  C    0.084486  -0.005246  -0.031017   0.020272   0.042063  -0.016542
[...]
 00000087,0.00000831,0.00000260,0.00000044,-0.00022820,0.00006458,0.000
 09076,-0.00007168,-0.00003770,0.00002440,-0.00016241,-0.00007079,-0.00
 003975,-0.00171978,-0.00019348,0.00035213,-0.00000661,0.00000263,-0.00
 000052,-0.00001368,0.00000710,0.00000226,-0.00000028,-0.00001560,0.000
 00771,0.00002041,-0.00001139,0.00003694,-0.00002656,0.00001445,-0.0000
 0032,0.00000905,-0.00000800,-0.00000936,-0.00000492,0.00000197,-0.0000
 0273,0.00005929,-0.00000099,0.00001201,-0.00000200,-0.00000498,0.00000
 385,-0.00000304,0.00000014,0.00000326,-0.00000256,0.00000129,0.0000039
 2,0.00000792,0.00000140,-0.00001262,0.00015378,-0.00009852,0.00004044,
 0.00003820,0.00003697,-0.00002183,0.00015472,-0.00005982,-0.00016846,0
 .00010025,-0.00003457,0.00004871,0.00002941,0.00001455,0.00002854,0.00
 020397,0.00011052,-0.00001463,0.00250036,0.00028742,-0.00073869,0.0000
 4284,0.00001977,-0.00000505,0.00002409,0.00000986,-0.00001549,0.125852
 99,-0.03137112,-0.48523963,-0.14350150,0.03359550,0.50922330,-0.000012
 06,-0.00000312,0.00000284,0.00001625,-0.00001075,-0.00000236,-0.000009
 04,0.00002683,-0.00000989,0.00004369,-0.00000623,0.00000859,-0.0000082
 6,-0.00001934,0.00000118,0.00000282,0.00000910,-0.00000196,-0.00000879
 ,-0.00000743,-0.00001239,0.00006484,-0.00004420,0.00000759,-0.00000134
 ,0.00000683,0.00000591,-0.00003249,0.00000341,-0.00000446,-0.00000305,
 0.00000273,0.00000042,0.00020924,0.00003358,0.00003018,0.00007670,0.00
 004635,-0.00004256,0.00012373,-0.00000590,-0.00001082,-0.00039969,-0.0
 0047411,0.00117097,0.00001140,-0.00000113,-0.00000093,0.00001233,-0.00
 000303,0.00000257,0.00000058,0.00001641,-0.00000133,-0.00001100,-0.000
 00839,-0.00000836,0.00000386,0.00000008,0.00000206,-0.00001040,0.00001
 094,0.00000526,0.00000691,-0.00000103,0.00000047,-0.00000584,-0.000009
 14,0.00000021,-0.00000016,0.00000304,-0.00000005,0.00000212,-0.0000001
 9,0.00000021,-0.00000043,-0.00000282,-0.00000140,-0.00001835,-0.000001
 49,0.00002049,-0.00013014,0.00007951,-0.00002932,-0.00004914,-0.000049
 71,0.00002647,-0.00023199,-0.00007744,-0.00005193,-0.00007093,0.000027
 76,-0.00001633,-0.00004117,-0.00003710,0.00001115,-0.00037801,0.000027
 79,0.00006395,0.00038896,0.00097101,-0.00291552,-0.00004503,-0.0000142
 1,0.00001580,-0.00002163,-0.00001427,0.00002814,-0.38629921,0.00716358
 ,-0.25763671,0.00936599,0.00053373,0.01661674,0.37746058,0.00001405,-0
 .00000234,-0.00000143,0.00000015,0.00001061,0.00000732,0.00000044,0.00
 002636,0.00000171,0.00007808,-0.00005677,0.00001564,-0.00003509,-0.000
 01161,-0.00000118,0.00001529,-0.00002300,-0.00000491,0.00001995,0.0000
 2535,0.00001557,-0.00001564,-0.00004133,0.00000517,0.00002532,0.000045
 65,-0.00001461,0.00005234,-0.00000803,0.00001166,-0.00001542,0.0000167
 5,0.00000467,-0.00003815,-0.00019340,0.00002786,0.00007440,-0.00010985
 ,-0.00003467,0.00026992,-0.00011117,0.00001270,-0.00039715,-0.00017447
 ,0.00066306,-0.00001140,-0.00000463,0.00000475,-0.00000045,-0.00000790
 ,0.00000080,0.00000187,0.00001282,0.00000098,0.00000247,0.00000880,-0.
 00000024,-0.00000065,-0.00000370,-0.00000411,0.00001484,-0.00000188,-0
 .00001342,0.00000131,-0.00000319,-0.00000131,-0.00001649,0.00001846,0.
 00000770,-0.00000505,0.00000127,-0.00000016,0.00000147,-0.00000268,-0.
 00000017,0.00000577,-0.00000021,0.00000076,0.00001139,-0.00000145,-0.0
 0001379,-0.00001084,0.00003774,-0.00000462,-0.00000756,0.00015187,-0.0
 0004452,0.00001811,0.00015766,0.00005377,-0.00017584,0.00008730,-0.000
 04879,-0.00013154,-0.00002225,-0.00000108,-0.00021058,0.00013240,-0.00
 021242,0.00030677,-0.00017610,-0.00101730,-0.00007560,0.00003942,0.000
 06304,-0.00003871,0.00000713,0.00002728,0.01089598,-0.00095597,0.00573
 990,-0.00244447,0.00003676,-0.00231939,-0.00817409,0.00109135,0.000001
 82,-0.00000849,-0.00000255,0.00002332,0.00000913,-0.00000281,-0.000014
 86,-0.00001129,-0.00001631,0.00001680,0.00001028,-0.00002412,-0.000002
 91,-0.00000506,0.00000463,0.00000466,0.00000122,-0.00000052,0.00001000
 ,0.00000029,0.00005401,-0.00005031,0.00004205,-0.00004366,0.00000968,-
 0.00000395,0.00002429,0.00000444,0.00000319,-0.00000200,-0.00001519,0.
 00002655,-0.00000034,-0.00015625,-0.00007854,-0.00035855,-0.00010307,-
 0.00004917,-0.00010009,0.00002868,0.00011733,-0.00016726,0.00225799,0.
 00058619,-0.00203278,-0.00000103,0.00000242,-0.00000671,-0.00000690,0.
 00000066,-0.00000127,0.00000346,0.00000331,0.00003523,-0.00002054,-0.0
 0000819,0.00001309,-0.00000725,-0.00000126,-0.00000525,0.00001461,-0.0
 0000549,-0.00000984,0.00000418,-0.00000049,-0.00001188,-0.00006260,-0.
 00000099,0.00002228,0.00000067,0.00000146,0.00000409,0.00000035,-0.000
 00075,0.00000292,0.00000371,-0.00000041,0.00000303,-0.00000579,0.00000
 282,0.00000564,0.00011765,-0.00007302,0.00005032,0.00007680,0.00000038
 ,0.00005802,0.00006323,0.00020052,0.00048131,-0.00001437,-0.00002039,0
 .00003068,0.00002076,-0.00000396,0.00005186,0.00008290,-0.00017240,0.0
 0011063,-0.00331963,-0.00107609,0.00338808,0.00003132,0.00003760,0.000
 13482,0.00006549,0.00003085,0.00000098,-0.20097596,0.00216892,-0.20596
 132,-0.04081604,0.00120840,-0.02358503,0.24272221,-0.00293036,0.227856
 67,-0.00002608,0.00005998,0.00004739,-0.00002323,0.00002788,0.00008640
 ,-0.00006463,-0.00009527,-0.00000438,0.00006197,0.00004553,0.00000903,
 -0.00001894,0.00001352,0.00000521,0.00001556,-0.00000772,0.00001605,0.
 00048890,-0.00028269,-0.00180338,-0.02386549,0.01387228,0.00126807,0.0
 0029338,0.00231093,-0.00068846,0.00041427,-0.00028354,-0.00002471,0.00
 036094,-0.00023708,-0.00006789,-0.00092207,0.00088366,-0.00058969,0.00
 009373,0.00013180,-0.00003595,0.00001923,0.00002245,0.00001081,-0.0000
 5775,0.00004808,0.00013353,-0.00005887,-0.00116802,0.00023601,-0.00002
 297,-0.00001273,0.00008986,0.00009329,-0.00002448,-0.00017086,0.000108
 82,0.00003661,-0.00013036,-0.00004388,-0.00004694,0.00003951,0.0000307
 0,-0.00009495,0.00000040,0.00058054,-0.00004252,0.00081290,0.00000761,
 -0.00002414,-0.00001796,0.00000178,0.00000270,-0.00000357,0.00000340,-
 0.00000499,-0.00000480,0.00001918,0.00000290,-0.00005040,-0.21468999,0
 .12782257,-0.02749713,0.00098302,-0.00294875,0.00374828,-0.00025037,-0
 .00026052,0.00006140,0.00017497,-0.00004896,-0.00019521,-0.00002064,0.
 00000168,-0.00000529,0.00000213,-0.00000409,-0.00000048,-0.00001173,-0
 .00003056,-0.00001159,0.00003963,0.00002140,-0.00001458,-0.00001274,-0
 .00002524,-0.00000873,-0.00000619,-0.00000310,0.00000869,-0.00002090,-
 0.00000912,0.00001503,-0.00000111,0.00000283,-0.00000445,0.00000420,0.
 00000152,-0.00000267,0.23575097,0.00035475,-0.00008317,0.00008557,-0.0
 0007004,-0.00008551,-0.00007429,0.00004960,-0.00010436,-0.00003495,-0.
 00005125,0.00020793,0.00000037,-0.00003247,0.00001385,0.00000960,-0.00
 008819,-0.00005417,0.00004751,0.00010402,-0.00003695,0.00012420,-0.006
 33903,0.00308177,-0.00050179,-0.00149317,0.00195183,0.00003533,0.00000
 026,-0.00001499,0.00004860,-0.00013422,0.00016110,-0.00013996,0.000100
 44,0.00007960,-0.00020297,0.00009992,-0.00009149,-0.00006982,-0.000041
 31,-0.00000716,-0.00007967,0.00000606,-0.00001610,-0.00006446,0.000295
 19,-0.00000477,0.00010944,0.00003580,-0.00000559,-0.00001062,0.0000182
 4,-0.00002890,-0.00001913,-0.00008036,-0.00008822,0.00001869,0.0000319
 9,-0.00000631,-0.00003472,-0.00000991,-0.00011773,0.00003089,0.0000621
 0,0.00005714,-0.00050327,-0.00002250,0.00000933,0.00000482,-0.00001213
 ,0.00001385,-0.00000211,0.00000176,-0.00001153,-0.00000901,-0.00015931
 ,0.00006756,-0.00017520,0.13385212,-0.15259302,0.02214379,-0.00127053,
 0.00027564,0.00090904,-0.00021073,0.00001855,0.00002603,-0.00002171,0.
 00002155,0.00010526,0.00007998,-0.00002970,0.00004148,-0.00000143,0.00
 000347,0.00000136,0.00000593,0.00000464,0.00001796,-0.00001172,-0.0000
 0428,0.00000625,0.00000138,0.00003048,0.00010642,-0.00000382,0.0000101
 1,-0.00001247,0.00000525,-0.00000010,-0.00000950,0.00000128,0.00000056
 ,0.00000362,-0.00000245,0.00000116,0.00000360,-0.14169919,0.15620741,0
 .00010184,-0.00005017,0.00007596,-0.00029689,0.00016093,-0.00014248,0.
 00014804,-0.00003612,0.00000529,-0.00004648,0.00010496,0.00002619,-0.0
 0003549,-0.00001650,-0.00001753,-0.00005347,-0.00001865,0.00001680,0.0
 0226293,-0.00125107,0.00236333,0.02914489,-0.01798665,-0.00209355,-0.0
 0064420,-0.00196529,0.00042880,-0.00019947,-0.00002820,0.00012835,-0.0
 0018443,0.00023105,-0.00002964,0.00069740,-0.00092232,0.00093949,-0.00
 008527,-0.00001664,0.00010726,-0.00005157,0.00000924,0.00002138,-0.000
 02182,-0.00003157,-0.00000828,-0.00036292,0.00045710,0.00028605,-0.000
 00862,-0.00000950,-0.00000937,-0.00005713,-0.00004349,0.00001933,-0.00
 012964,-0.00000224,0.00007297,-0.00002277,0.00004828,-0.00002400,-0.00
 003158,0.00025069,-0.00003472,-0.00056884,0.00046713,-0.00041878,-0.00
 000929,0.00003585,0.00001213,-0.00000804,0.00001095,-0.00000235,-0.000
 00007,-0.00000106,0.00000356,-0.00008102,-0.00002502,-0.00008055,-0.03
 516165,0.02689590,-0.05441670,0.00070268,0.00265096,-0.00445068,0.0003
 6377,0.00002025,-0.00017897,-0.00003143,0.00003768,0.00001555,0.000050
 93,-0.00001835,0.00000509,0.00000551,-0.00000681,-0.00000134,0.0000222
 3,0.00002127,-0.00000383,0.00000850,0.00000303,-0.00000554,0.00000985,
 0.00000768,-0.00004573,0.00001572,-0.00003309,-0.00001325,-0.00000654,
 -0.00000570,0.00000224,0.00000216,0.00000185,-0.00000057,0.00000151,0.
 00000249,-0.00000090,0.02436516,-0.02527890,0.05822168,-0.00012480,0.0
 0007591,-0.00009002,0.00001484,-0.00034843,-0.00011286,-0.00004239,0.0
 0018776,-0.00004177,-0.00001653,-0.00009147,-0.00000951,0.00006534,0.0
 0003284,0.00000761,0.00007745,0.00011371,-0.00000422,-0.00395995,-0.00
 114750,0.00122197,0.01049839,0.00564132,0.02800337,0.00132709,0.000734
 37,0.00053194,0.00011530,0.00032591,-0.00006801,0.00070598,-0.00016460
 ,0.00149042,0.00002483,-0.00007000,-0.00047719,-0.00002294,-0.00010146
 ,0.00001383,0.00002075,-0.00002206,-0.00001412,0.00005053,-0.00002090,
 -0.00011853,-0.00024971,-0.00011574,-0.00024361,-0.00000016,-0.0000131
 1,-0.00004596,-0.00002512,-0.00003670,-0.00000751,0.00001664,0.0000324
 7,0.00000788,-0.00038939,-0.00009669,0.00029828,-0.00012439,-0.0000789
 3,-0.00011030,0.00024625,-0.00025552,0.00024973,0.00001942,-0.00001702
 ,0.00002467,0.00000800,-0.00000857,0.00000233,0.00000243,0.00001483,-0
 .00000140,0.00009380,-0.00001633,0.00010883,-0.11620423,-0.03011668,-0
 .12204864,0.00123912,0.00007752,0.00025082,0.00001523,0.00015660,0.000
 01396,-0.00006220,-0.00003421,0.00019783,-0.00002267,0.00001283,0.0000
 0188,-0.00000453,0.00000605,0.00000173,-0.00000340,0.00001098,0.000010
 99,-0.00002754,-0.00001523,0.00001422,-0.00000255,0.00001548,0.0000256
 9,0.00001286,0.00001287,-0.00001522,0.00001420,0.00000573,-0.00001595,
 0.00000147,-0.00000283,0.00000510,-0.00000385,0.00000012,0.00000507,-0
 .00901655,-0.00732455,-0.01978512,0.11931793,0.00022608,-0.00006933,-0
 .00003644,0.00007545,0.00009684,-0.00016801,-0.00018340,0.00030976,0.0
 0000213,0.00001815,-0.00015743,0.00003867,0.00005697,0.00001648,-0.000
 00885,0.00002180,0.00012506,-0.00001688,-0.00102641,-0.00055002,0.0005
 0370,0.00253806,-0.00030859,0.00691285,0.00052052,0.00071032,0.0008813
 4,0.00007730,-0.00003793,-0.00000510,-0.00010556,0.00032430,0.00036781
 ,-0.00022120,-0.00005752,0.00060186,-0.00005703,0.00017569,0.00025835,
 0.00007426,0.00000405,0.00012517,-0.00002757,0.00003958,0.00015188,0.0
 0024010,-0.00004486,0.00002806,0.00001588,0.00000200,-0.00000849,0.000
 01495,-0.00000093,-0.00005090,-0.00008702,-0.00005271,0.00006167,-0.00
 003370,-0.00000160,0.00007273,-0.00034668,0.00015199,0.00007909,-0.000
 21975,0.00007924,-0.00027463,-0.00001665,-0.00001305,-0.00002115,-0.00
 000045,-0.00000401,0.00000093,0.00000043,-0.00000764,0.00000171,-0.000
 00578,-0.00004107,0.00003120,-0.02876655,-0.06174342,-0.05405085,-0.00
 010257,0.00011636,-0.00087548,0.00021856,-0.00018578,-0.00025764,0.000
 07261,-0.00003086,-0.00025297,-0.00013768,0.00005612,-0.00005160,0.000
 00319,-0.00000088,-0.00000469,-0.00002002,-0.00001074,-0.00002648,0.00
 003188,0.00002060,-0.00001165,-0.00002331,-0.00003308,-0.00018485,0.00
 004633,-0.00007302,-0.00003410,-0.00001396,-0.00001399,0.00001637,-0.0
 0000201,0.00000456,-0.00000549,0.00000335,0.00000568,-0.00000565,0.008
 50963,0.00475019,0.01757937,0.03226207,0.05997331,0.00006366,-0.000057
 53,0.00010511,0.00008096,0.00049966,0.00022112,-0.00004298,-0.00012378
 ,0.00004525,0.00006116,-0.00002215,0.00002410,-0.00006159,-0.00001369,
 -0.00003673,-0.00002020,-0.00008537,0.00003393,0.00458174,0.00134860,-
 0.00012415,-0.01013721,-0.00562624,-0.02731044,-0.00121587,-0.00097062
 ,0.00071513,0.00010161,-0.00022815,-0.00009823,-0.00080357,-0.00023390
 ,-0.00114264,0.00012769,-0.00006617,0.00051825,-0.00001172,0.00009986,
 0.00003050,0.00003216,0.00000416,0.00004844,-0.00000944,0.00003050,0.0
 0011942,-0.00002799,0.00022611,-0.00007770,-0.00000612,0.00002458,0.00
 009278,0.00001108,0.00005404,0.00003011,0.00006939,0.00005892,-0.00004
 375,0.00038735,0.00015894,-0.00020395,0.00054584,0.00044944,0.00000827
 ,0.00004811,0.00001801,0.00020179,-0.00002888,0.00001689,-0.00003144,-
 0.00000350,0.00000070,-0.00000392,-0.00000282,-0.00001331,-0.00000765,
 0.00000369,0.00003900,-0.00003115,-0.11022312,-0.05000330,-0.25029549,
 -0.00105068,0.00025627,-0.00055807,0.00012236,-0.00018965,-0.00004604,
 0.00009656,-0.00002386,-0.00017055,-0.00005605,0.00002224,-0.00002492,
 0.00000214,0.00000004,0.00000024,-0.00001021,-0.00000978,-0.00001080,0
 .00000710,0.00000624,-0.00000645,-0.00000904,-0.00001493,-0.00006360,-
 0.00000211,-0.00000293,0.00001537,-0.00000283,0.00000069,0.00001296,-0
 .00000371,0.00000084,-0.00000439,0.00000252,-0.00000279,-0.00000503,-0
 .00047027,-0.00100994,-0.00049855,0.11716914,0.05467971,0.27601229,0.0
 0021843,0.00011680,-0.00011002,0.00016059,0.00010734,-0.00013370,0.000
 04118,-0.00015118,-0.00004174,-0.00002252,0.00026663,-0.00004454,-0.00
 006508,-0.00000711,0.00003424,-0.00006323,-0.00019063,0.00004602,0.000
 34968,-0.00011355,-0.00095861,-0.01108452,-0.02489516,0.00164720,-0.00
 149952,0.00209811,0.00367306,0.00000911,-0.00140170,0.00001675,-0.0001
 4011,-0.00010060,-0.00022889,0.00022170,0.00037552,-0.00048198,0.00021
 233,-0.00018128,-0.00013926,-0.00002853,-0.00001794,-0.00015146,0.0000
 5731,0.00000836,-0.00014930,0.00015545,-0.00030385,0.00004032,-0.00024
 006,0.00001712,0.00037639,-0.00003962,-0.00003892,0.00003480,0.0000211
 8,0.00001348,0.00003460,0.00003646,0.00003873,0.00001381,0.00018726,0.
 00014243,-0.00008134,-0.00000847,0.00012192,0.00021600,-0.00005255,0.0
 0002657,0.00005754,-0.00000893,0.00000383,-0.00000350,-0.00001419,-0.0
 0000826,-0.00001976,-0.00008751,0.00009415,-0.00011131,-0.07076801,-0.
 06945791,0.00078180,0.00059898,-0.00136664,0.00000403,-0.00049466,0.00
 002146,0.00011840,-0.00005354,0.00005568,0.00021931,0.00010056,-0.0000
 3431,0.00006429,-0.00000592,0.00000515,0.00000477,-0.00001157,-0.00000
 883,0.00003622,-0.00003462,-0.00002868,0.00001671,-0.00001307,0.000049
 28,0.00020377,0.00000242,0.00001605,-0.00002105,0.00001487,0.00002101,
 -0.00001806,0.00000423,-0.00000728,0.00000540,-0.00000221,-0.00000685,
 0.00000555,0.00958589,0.02397393,-0.00001938,-0.00358494,-0.01363025,0
 .00068568,0.07634570,-0.00009591,-0.00012684,-0.00054827,0.00044892,0.
 00007801,-0.00081767,-0.00009865,0.00048824,-0.00008023,-0.00012059,-0
 .00029794,0.00005382,0.00018048,-0.00011615,0.00004098,0.00000497,0.00
 023695,-0.00003287,-0.00030480,-0.00036640,-0.00049691,-0.00088719,-0.
 00158953,0.00076854,0.00015563,0.00103589,0.00035969,-0.00011713,0.000
 03702,-0.00027617,-0.00007588,-0.00012731,0.00001881,-0.00020102,0.000
 06042,-0.00007696,-0.00009794,-0.00001414,-0.00000959,0.00002889,-0.00
 000729,0.00004004,0.00002101,0.00001619,0.00000721,-0.00008281,0.00037
 999,-0.00006756,-0.00001132,0.00000772,0.00001987,-0.00002727,0.000006
 24,0.00011237,0.00000388,0.00001470,0.00000625,0.00002425,0.00001655,0
 .00001975,-0.00001122,-0.00005192,-0.00007134,0.00000983,-0.00009012,0
 .00001653,-0.00002108,-0.00000520,0.00001549,0.00000930,-0.00000812,0.
 00000021,-0.00000355,0.00000678,0.00000630,0.00009911,-0.00007533,0.00
 018347,-0.07712762,-0.30886636,0.00035198,0.00014448,0.00006371,0.0003
 4854,-0.00008528,0.00010558,0.00004209,-0.00002441,-0.00001264,-0.0000
 2736,-0.00004587,0.00002224,-0.00003261,0.00000073,-0.00000063,-0.0000
 0233,-0.00001195,-0.00000026,-0.00000592,-0.00000087,-0.00000653,0.000
 00120,0.00001693,-0.00001432,-0.00004766,0.00000815,0.00000730,0.00001
 857,0.00000040,0.00000605,0.00000225,0.00000068,-0.00000240,-0.0000012
 7,0.00000152,-0.00000260,-0.00000123,-0.00646335,-0.01358366,-0.001249
 34,0.00037915,-0.00352364,0.00070262,0.08437739,0.32629977,-0.00043934
 ,-0.00041559,-0.00048112,0.00031740,0.00010003,-0.00095330,0.00028770,
 -0.00030865,-0.00006067,-0.00015899,0.00018241,0.00000652,0.00008380,-
 0.00006056,0.00000363,-0.00016691,0.00004307,-0.00001311,0.00004239,0.
 00104844,0.00117637,0.01112198,0.03023059,-0.00315141,0.00193458,-0.00
 196971,-0.00369733,0.00064662,0.00129392,0.00002612,0.00018218,0.00008
 876,0.00024583,0.00023191,-0.00020452,-0.00016145,0.00007496,-0.000094
 89,-0.00028405,-0.00019464,0.00004140,-0.00015402,-0.00008978,-0.00008
 459,-0.00007167,-0.00012054,-0.00012762,-0.00015830,0.00020546,-0.0000
 1594,-0.00030075,0.00004933,0.00002697,-0.00018762,0.00000214,-0.00003
 574,-0.00003247,-0.00004327,-0.00002384,0.00000668,0.00038545,0.000219
 83,0.00000811,-0.00010136,0.00001653,-0.00017538,0.00002396,0.00003926
 ,-0.00000072,-0.00000081,0.00001823,0.00000445,0.00000331,0.00000589,0
 .00002519,-0.00004071,0.00003709,-0.00002253,-0.00236855,-0.00949221,-
 0.04867297,-0.00090467,0.00036880,0.00060263,-0.00006799,0.00002568,0.
 00015455,-0.00001328,0.00006956,0.00014504,0.00028447,-0.00013657,0.00
 008606,0.00000860,-0.00001305,0.00000544,0.00006631,0.00002580,0.00002
 028,0.00001924,0.00001849,-0.00001173,0.00004748,0.00002502,0.00019527
 ,-0.00007648,0.00004405,0.00003362,-0.00001282,-0.00001517,-0.00000559
 ,0.00000298,0.00000536,0.00000323,-0.00000113,0.00000447,0.00000565,0.
 00084912,0.00435298,-0.00027413,-0.00644735,-0.02604271,0.00256055,-0.
 00562276,0.00070873,0.05355510\\0.00000087,0.00000196,0.00000127,0.000
 00290,-0.00000346,-0.00000157,0.00000107,0.00000101,-0.00000045,-0.000
 00718,0.00000160,-0.00000663,0.00000054,0.00000206,0.00000042,-0.00000
 145,-0.00000092,0.00000059,-0.00000051,0.00000203,0.00002123,0.0000053
 0,-0.00000404,-0.00002853,-0.00000651,-0.00000280,0.00001451,0.0000031
 9,0.00000489,-0.00000868,0.00000077,0.00000317,-0.00000270,0.00001604,
 -0.00002547,0.00000288,0.00000742,-0.00000003,-0.00000025,-0.00000005,
 0.00000483,-0.00000795,0.00000871,-0.00000840,-0.00000111,0.00000046,-
 0.00000118,-0.00000308,0.00000105,-0.00000040,0.00000229,-0.00000017,-
 0.00000137,-0.00000163,0.00000018,0.00000078,0.00000089,0.00000186,0.0
 0000022,0.00000003,-0.00000124,0.00000033,-0.00000048,0.00000033,-0.00
 000074,-0.00000203,0.00000221,-0.00000089,-0.00000017,-0.00000006,0.00
 000003,-0.00000006,-0.00000013,0.00000048,-0.00000122,-0.00000027,0.00
 000019,-0.00000087,-0.00000150,0.00000316,0.00000640,-0.00000490,0.000
 00502,0.00000334,-0.00001245,0.00000454,0.00000201,-0.00000902,0.00002
 319,-0.00000495,0.00000814,-0.00000672,0.00001485,0.00000016,-0.000000
 23,-0.00000093,-0.00000309,0.00000742,0.00000273,-0.00000323,-0.000003
 40,-0.00000032,-0.00001193,-0.00000631,-0.00000284,0.00000173,0.000001
 28,0.00000010,0.00000316,0.00000125,-0.00000026,-0.00000071,-0.0000005
 7,-0.00000008,-0.00000032,-0.00000016,0.00000053,0.00000105,0.00000137
 ,0.00000099,0.00000078,-0.00000409,0.00000114,-0.00000320,0.00000036,0
 .00000064\\\@


 A MAN THINKING OR WORKING IS ALWAYS ALONE, 
 LET HIM BE WHERE HE WILL.

                                    -- THOREAU
 Job cpu time:       1 days 19 hours 24 minutes 43.9 seconds.
 Elapsed time:       0 days  1 hours 33 minutes 11.1 seconds.
 File lengths (MBytes):  RWF=   1444 Int=      0 D2E=      0 Chk=     36 Scr=      8
 Normal termination of Gaussian 16 at Thu Jul 15 16:55:02 2021.
