 Entering Gaussian System, Link 0=g16
 Input=NicPy5hdPyr.gjf
 Output=NicPy5hdPyr.log
 Initial command:
 /sw/contrib/gaussian/g16/A03/g16/l1.exe "/gscratch/scrubbed/gds001/Gau-29011.inp" -scrdir="/gscratch/scrubbed/gds001/"
 Entering Link 1 = /sw/contrib/gaussian/g16/A03/g16/l1.exe PID=     29012.
  
 Copyright (c) 1988,1990,1992,1993,1995,1998,2003,2009,2016,
            Gaussian, Inc.  All Rights Reserved.
  
 This is part of the Gaussian(R) 16 program.  It is based on
 the Gaussian(R) 09 system (copyright 2009, Gaussian, Inc.),
 the Gaussian(R) 03 system (copyright 2003, Gaussian, Inc.),
 the Gaussian(R) 98 system (copyright 1998, Gaussian, Inc.),
 the Gaussian(R) 94 system (copyright 1995, Gaussian, Inc.),
 the Gaussian 92(TM) system (copyright 1992, Gaussian, Inc.),
 the Gaussian 90(TM) system (copyright 1990, Gaussian, Inc.),
 the Gaussian 88(TM) system (copyright 1988, Gaussian, Inc.),
 the Gaussian 86(TM) system (copyright 1986, Carnegie Mellon
 University), and the Gaussian 82(TM) system (copyright 1983,
 Carnegie Mellon University). Gaussian is a federally registered
 trademark of Gaussian, Inc.
  
 This software contains proprietary and confidential information,
 including trade secrets, belonging to Gaussian, Inc.
  
 This software is provided under written license and may be
 used, copied, transmitted, or stored only in accord with that
 written license.
  
 The following legend is applicable only to US Government
 contracts under FAR:
  
                    RESTRICTED RIGHTS LEGEND
  
 Use, reproduction and disclosure by the US Government is
 subject to restrictions as set forth in subparagraphs (a)
 and (c) of the Commercial Computer Software - Restricted
 Rights clause in FAR 52.227-19.
  
 Gaussian, Inc.
 340 Quinnipiac St., Bldg. 40, Wallingford CT 06492
  
  
 ---------------------------------------------------------------
 Warning -- This program may not be used in any manner that
 competes with the business of Gaussian, Inc. or will provide
 assistance to any competitor of Gaussian, Inc.  The licensee
 of this program is prohibited from giving any competitor of
 Gaussian, Inc. access to this program.  By using this program,
 the user acknowledges that Gaussian, Inc. is engaged in the
 business of creating and licensing software in the field of
 computational chemistry and represents and warrants to the
 licensee that it is not a competitor of Gaussian, Inc. and that
 it will not use this program in any manner prohibited above.
 ---------------------------------------------------------------
  

 Cite this work as:
 Gaussian 16, Revision A.03,
 M. J. Frisch, G. W. Trucks, H. B. Schlegel, G. E. Scuseria, 
 M. A. Robb, J. R. Cheeseman, G. Scalmani, V. Barone, 
 G. A. Petersson, H. Nakatsuji, X. Li, M. Caricato, A. V. Marenich, 
 J. Bloino, B. G. Janesko, R. Gomperts, B. Mennucci, H. P. Hratchian, 
 J. V. Ortiz, A. F. Izmaylov, J. L. Sonnenberg, D. Williams-Young, 
 F. Ding, F. Lipparini, F. Egidi, J. Goings, B. Peng, A. Petrone, 
 T. Henderson, D. Ranasinghe, V. G. Zakrzewski, J. Gao, N. Rega, 
 G. Zheng, W. Liang, M. Hada, M. Ehara, K. Toyota, R. Fukuda, 
 J. Hasegawa, M. Ishida, T. Nakajima, Y. Honda, O. Kitao, H. Nakai, 
 T. Vreven, K. Throssell, J. A. Montgomery, Jr., J. E. Peralta, 
 F. Ogliaro, M. J. Bearpark, J. J. Heyd, E. N. Brothers, K. N. Kudin, 
 V. N. Staroverov, T. A. Keith, R. Kobayashi, J. Normand, 
 K. Raghavachari, A. P. Rendell, J. C. Burant, S. S. Iyengar, 
 J. Tomasi, M. Cossi, J. M. Millam, M. Klene, C. Adamo, R. Cammi, 
 J. W. Ochterski, R. L. Martin, K. Morokuma, O. Farkas, 
 J. B. Foresman, and D. J. Fox, Gaussian, Inc., Wallingford CT, 2016.
 
 ******************************************
 Gaussian 16:  ES64L-G16RevA.03 25-Dec-2016
                 8-Dec-2022 
 ******************************************
 %nprocshared=28
 Will use up to   28 processors via shared memory.
 %mem=41GB
 -----------------------------
 # wB97XD/aug-cc-pVDZ opt freq
 -----------------------------
 1/18=20,19=15,26=3,38=1/1,3;
 2/9=110,12=2,17=6,18=5,40=1/2;
 3/5=16,7=10,11=2,25=1,30=1,71=1,74=-58/1,2,3;
 4//1;
 5/5=2,38=5/2;
 6/7=2,8=2,9=2,10=2,28=1/1;
 7//1,2,3,16;
 1/18=20,19=15,26=3/3(2);
 2/9=110/2;
 99//99;
 2/9=110/2;
 3/5=16,7=10,11=2,25=1,30=1,71=1,74=-58/1,2,3;
 4/5=5,16=3,69=1/1;
 5/5=2,38=5/2;
 7//1,2,3,16;
 1/18=20,19=15,26=3/3(-5);
 2/9=110/2;
 6/7=2,8=2,9=2,10=2,19=2,28=1/1;
 99/9=1/99;
 ----
 blah
 ----
 Symbolic Z-matrix:
 Charge =  1 Multiplicity = 1
 C                    -0.23351   2.76855   0.02606 
 C                     0.15868   1.45409  -0.2329 
 C                    -0.84837   0.52302  -0.44392 
 N                    -2.13677   0.8743   -0.38706 
 C                    -2.53471   2.1304   -0.13954 
 C                    -1.58568   3.11508   0.0658 
 C                     1.60551   1.02789  -0.28174 
 N                     1.91511  -0.02675   0.69951 
 C                     3.25454  -0.48459   0.29627 
 C                     3.16264  -0.59482  -1.22901 
 C                     2.06081   0.41884  -1.6222 
 O                    -3.40418  -1.41238  -0.48954 
 O                    -2.00885  -1.62261   1.88132 
 O                     0.43943  -2.36109   0.72583 
 H                     3.49919  -1.43027   0.79555 
 H                     4.12321  -0.37286  -1.70387 
 H                     2.87372  -1.60887  -1.52678 
 H                     2.41986   1.20017  -2.29982 
 H                     1.22419  -0.0858   -2.11992 
 H                     4.01526   0.25931   0.59443 
 H                     2.22577   1.91683  -0.05798 
 H                    -0.66354  -0.5227   -0.67613 
 H                    -3.60673   2.30851  -0.11031 
 H                    -1.90089   4.13661   0.2644 
 H                     0.52387   3.53323   0.20102 
 C                     1.85486   0.43215   2.08431 
 H                    -2.81824   0.05712  -0.49631 
 H                     0.97911  -1.52067   0.68443 
 H                     1.00909  -3.03886   1.09841 
 H                    -3.15787  -1.67255   0.41816 
 H                    -2.81925  -1.95986  -1.04209 
 H                    -2.23912  -2.00536   2.73123 
 H                    -1.14374  -1.9957    1.63545 
 O                    -1.07912  -2.54335  -1.60925 
 H                    -0.48747  -2.75681  -0.86739 
 H                    -0.9603   -3.23129  -2.2684 
 H                     2.15105  -0.38479   2.75267 
 H                     0.82877   0.72459   2.33881 
 H                     2.5288    1.28891   2.26158 
 O                     2.15085  -4.21187   1.83222 
 H                     2.62104  -4.15288   2.68171 
 H                     2.33808  -5.12308   1.54768 
 
 Add virtual bond connecting atoms H27        and O12        Dist= 2.99D+00.
 Add virtual bond connecting atoms H28        and N8         Dist= 3.33D+00.
 Add virtual bond connecting atoms O40        and H29        Dist= 3.39D+00.
 Add virtual bond connecting atoms O14        and H33        Dist= 3.52D+00.
 Add virtual bond connecting atoms H30        and O13        Dist= 3.52D+00.
 Add virtual bond connecting atoms O34        and H31        Dist= 3.63D+00.
 Add virtual bond connecting atoms H35        and O14        Dist= 3.56D+00.

 GradGradGradGradGradGradGradGradGradGradGradGradGradGradGradGradGradGrad
 Berny optimization.
 Initialization pass.
                           ----------------------------
                           !    Initial Parameters    !
                           ! (Angstroms and Degrees)  !
 --------------------------                            --------------------------
 ! Name  Definition              Value          Derivative Info.                !
 --------------------------------------------------------------------------------
 ! R1    R(1,2)                  1.396          estimate D2E/DX2                !
 ! R2    R(1,6)                  1.3964         estimate D2E/DX2                !
 ! R3    R(1,25)                 1.0904         estimate D2E/DX2                !
 ! R4    R(2,3)                  1.3877         estimate D2E/DX2                !
 ! R5    R(2,7)                  1.5091         estimate D2E/DX2                !
 ! R6    R(3,4)                  1.3366         estimate D2E/DX2                !
 ! R7    R(3,22)                 1.087          estimate D2E/DX2                !
 ! R8    R(4,5)                  1.3407         estimate D2E/DX2                !
 ! R9    R(4,27)                 1.0696         estimate D2E/DX2                !
 ! R10   R(5,6)                  1.3829         estimate D2E/DX2                !
 ! R11   R(5,23)                 1.0871         estimate D2E/DX2                !
 ! R12   R(6,24)                 1.0873         estimate D2E/DX2                !
 ! R13   R(7,8)                  1.4734         estimate D2E/DX2                !
 ! R14   R(7,11)                 1.5411         estimate D2E/DX2                !
 ! R15   R(7,21)                 1.1068         estimate D2E/DX2                !
 ! R16   R(8,9)                  1.4718         estimate D2E/DX2                !
 ! R17   R(8,26)                 1.4601         estimate D2E/DX2                !
 ! R18   R(8,28)                 1.763          estimate D2E/DX2                !
 ! R19   R(9,10)                 1.532          estimate D2E/DX2                !
 ! R20   R(9,15)                 1.097          estimate D2E/DX2                !
 ! R21   R(9,20)                 1.105          estimate D2E/DX2                !
 ! R22   R(10,11)                1.5479         estimate D2E/DX2                !
 ! R23   R(10,16)                1.0943         estimate D2E/DX2                !
 ! R24   R(10,17)                1.0956         estimate D2E/DX2                !
 ! R25   R(11,18)                1.0948         estimate D2E/DX2                !
 ! R26   R(11,19)                1.0965         estimate D2E/DX2                !
 ! R27   R(12,27)                1.582          estimate D2E/DX2                !
 ! R28   R(12,30)                0.9758         estimate D2E/DX2                !
 ! R29   R(12,31)                0.9732         estimate D2E/DX2                !
 ! R30   R(13,30)                1.8611         estimate D2E/DX2                !
 ! R31   R(13,32)                0.9601         estimate D2E/DX2                !
 ! R32   R(13,33)                0.9737         estimate D2E/DX2                !
 ! R33   R(14,28)                0.9996         estimate D2E/DX2                !
 ! R34   R(14,29)                0.9606         estimate D2E/DX2                !
 ! R35   R(14,33)                1.8621         estimate D2E/DX2                !
 ! R36   R(14,35)                1.8852         estimate D2E/DX2                !
 ! R37   R(26,37)                1.0963         estimate D2E/DX2                !
 ! R38   R(26,38)                1.0969         estimate D2E/DX2                !
 ! R39   R(26,39)                1.1044         estimate D2E/DX2                !
 ! R40   R(29,40)                1.7939         estimate D2E/DX2                !
 ! R41   R(31,34)                1.921          estimate D2E/DX2                !
 ! R42   R(34,35)                0.9726         estimate D2E/DX2                !
 ! R43   R(34,36)                0.9601         estimate D2E/DX2                !
 ! R44   R(40,41)                0.9727         estimate D2E/DX2                !
 ! R45   R(40,42)                0.9728         estimate D2E/DX2                !
 ! A1    A(2,1,6)              120.7296         estimate D2E/DX2                !
 ! A2    A(2,1,25)             119.6677         estimate D2E/DX2                !
 ! A3    A(6,1,25)             119.6027         estimate D2E/DX2                !
 ! A4    A(1,2,3)              117.137          estimate D2E/DX2                !
 ! A5    A(1,2,7)              122.7716         estimate D2E/DX2                !
 ! A6    A(3,2,7)              120.0907         estimate D2E/DX2                !
 ! A7    A(2,3,4)              121.1127         estimate D2E/DX2                !
 ! A8    A(2,3,22)             123.6802         estimate D2E/DX2                !
 ! A9    A(4,3,22)             115.2026         estimate D2E/DX2                !
 ! A10   A(3,4,5)              122.6974         estimate D2E/DX2                !
 ! A11   A(3,4,27)             114.141          estimate D2E/DX2                !
 ! A12   A(5,4,27)             123.0608         estimate D2E/DX2                !
 ! A13   A(4,5,6)              119.3954         estimate D2E/DX2                !
 ! A14   A(4,5,23)             116.8194         estimate D2E/DX2                !
 ! A15   A(6,5,23)             123.785          estimate D2E/DX2                !
 ! A16   A(1,6,5)              118.92           estimate D2E/DX2                !
 ! A17   A(1,6,24)             121.2675         estimate D2E/DX2                !
 ! A18   A(5,6,24)             119.8095         estimate D2E/DX2                !
 ! A19   A(2,7,8)              112.461          estimate D2E/DX2                !
 ! A20   A(2,7,11)             115.0244         estimate D2E/DX2                !
 ! A21   A(2,7,21)             107.6932         estimate D2E/DX2                !
 ! A22   A(8,7,11)             103.5503         estimate D2E/DX2                !
 ! A23   A(8,7,21)             108.8139         estimate D2E/DX2                !
 ! A24   A(11,7,21)            109.1283         estimate D2E/DX2                !
 ! A25   A(7,8,9)              103.3811         estimate D2E/DX2                !
 ! A26   A(7,8,26)             113.4524         estimate D2E/DX2                !
 ! A27   A(7,8,28)             119.2933         estimate D2E/DX2                !
 ! A28   A(9,8,26)             113.2763         estimate D2E/DX2                !
 ! A29   A(9,8,28)             102.5458         estimate D2E/DX2                !
 ! A30   A(26,8,28)            104.6268         estimate D2E/DX2                !
 ! A31   A(8,9,10)             103.9194         estimate D2E/DX2                !
 ! A32   A(8,9,15)             110.2685         estimate D2E/DX2                !
 ! A33   A(8,9,20)             110.0702         estimate D2E/DX2                !
 ! A34   A(10,9,15)            113.8584         estimate D2E/DX2                !
 ! A35   A(10,9,20)            111.0007         estimate D2E/DX2                !
 ! A36   A(15,9,20)            107.6986         estimate D2E/DX2                !
 ! A37   A(9,10,11)            104.387          estimate D2E/DX2                !
 ! A38   A(9,10,16)            111.3946         estimate D2E/DX2                !
 ! A39   A(9,10,17)            110.6702         estimate D2E/DX2                !
 ! A40   A(11,10,16)           112.4438         estimate D2E/DX2                !
 ! A41   A(11,10,17)           110.447          estimate D2E/DX2                !
 ! A42   A(16,10,17)           107.5339         estimate D2E/DX2                !
 ! A43   A(7,11,10)            104.3681         estimate D2E/DX2                !
 ! A44   A(7,11,18)            110.6836         estimate D2E/DX2                !
 ! A45   A(7,11,19)            110.5659         estimate D2E/DX2                !
 ! A46   A(10,11,18)           113.0242         estimate D2E/DX2                !
 ! A47   A(10,11,19)           110.917          estimate D2E/DX2                !
 ! A48   A(18,11,19)           107.3216         estimate D2E/DX2                !
 ! A49   A(27,12,30)            99.0988         estimate D2E/DX2                !
 ! A50   A(27,12,31)           107.3074         estimate D2E/DX2                !
 ! A51   A(30,12,31)           103.0867         estimate D2E/DX2                !
 ! A52   A(30,13,32)           122.4906         estimate D2E/DX2                !
 ! A53   A(30,13,33)           109.8609         estimate D2E/DX2                !
 ! A54   A(32,13,33)           106.4909         estimate D2E/DX2                !
 ! A55   A(28,14,29)           106.8046         estimate D2E/DX2                !
 ! A56   A(28,14,33)           108.3164         estimate D2E/DX2                !
 ! A57   A(28,14,35)           114.0107         estimate D2E/DX2                !
 ! A58   A(29,14,33)           116.9489         estimate D2E/DX2                !
 ! A59   A(29,14,35)           118.1164         estimate D2E/DX2                !
 ! A60   A(33,14,35)            92.063          estimate D2E/DX2                !
 ! A61   A(8,26,37)            109.4429         estimate D2E/DX2                !
 ! A62   A(8,26,38)            110.0268         estimate D2E/DX2                !
 ! A63   A(8,26,39)            111.7693         estimate D2E/DX2                !
 ! A64   A(37,26,38)           108.0568         estimate D2E/DX2                !
 ! A65   A(37,26,39)           108.3835         estimate D2E/DX2                !
 ! A66   A(38,26,39)           109.0735         estimate D2E/DX2                !
 ! A67   A(4,27,12)            160.9387         estimate D2E/DX2                !
 ! A68   A(12,30,13)           151.6389         estimate D2E/DX2                !
 ! A69   A(12,31,34)           151.997          estimate D2E/DX2                !
 ! A70   A(13,33,14)           162.5445         estimate D2E/DX2                !
 ! A71   A(31,34,35)           113.1109         estimate D2E/DX2                !
 ! A72   A(31,34,36)           122.1699         estimate D2E/DX2                !
 ! A73   A(35,34,36)           106.9244         estimate D2E/DX2                !
 ! A74   A(14,35,34)           153.8473         estimate D2E/DX2                !
 ! A75   A(29,40,41)           128.6999         estimate D2E/DX2                !
 ! A76   A(29,40,42)           127.9773         estimate D2E/DX2                !
 ! A77   A(41,40,42)           102.6626         estimate D2E/DX2                !
 ! A78   L(8,28,14,3,-1)       180.5287         estimate D2E/DX2                !
 ! A79   L(14,29,40,9,-1)      176.4467         estimate D2E/DX2                !
 ! A80   L(8,28,14,3,-2)       182.9869         estimate D2E/DX2                !
 ! A81   L(14,29,40,9,-2)      178.0073         estimate D2E/DX2                !
 ! D1    D(6,1,2,3)             -0.0799         estimate D2E/DX2                !
 ! D2    D(6,1,2,7)           -179.7796         estimate D2E/DX2                !
 ! D3    D(25,1,2,3)           179.8133         estimate D2E/DX2                !
 ! D4    D(25,1,2,7)             0.1135         estimate D2E/DX2                !
 ! D5    D(2,1,6,5)              0.7902         estimate D2E/DX2                !
 ! D6    D(2,1,6,24)          -179.8546         estimate D2E/DX2                !
 ! D7    D(25,1,6,5)          -179.103          estimate D2E/DX2                !
 ! D8    D(25,1,6,24)            0.2522         estimate D2E/DX2                !
 ! D9    D(1,2,3,4)             -0.6414         estimate D2E/DX2                !
 ! D10   D(1,2,3,22)           178.5439         estimate D2E/DX2                !
 ! D11   D(7,2,3,4)            179.0668         estimate D2E/DX2                !
 ! D12   D(7,2,3,22)            -1.7479         estimate D2E/DX2                !
 ! D13   D(1,2,7,8)            121.213          estimate D2E/DX2                !
 ! D14   D(1,2,7,11)          -120.5714         estimate D2E/DX2                !
 ! D15   D(1,2,7,21)             1.3335         estimate D2E/DX2                !
 ! D16   D(3,2,7,8)            -58.4782         estimate D2E/DX2                !
 ! D17   D(3,2,7,11)            59.7374         estimate D2E/DX2                !
 ! D18   D(3,2,7,21)          -178.3577         estimate D2E/DX2                !
 ! D19   D(2,3,4,5)              0.6562         estimate D2E/DX2                !
 ! D20   D(2,3,4,27)          -175.7929         estimate D2E/DX2                !
 ! D21   D(22,3,4,5)          -178.5945         estimate D2E/DX2                !
 ! D22   D(22,3,4,27)            4.9563         estimate D2E/DX2                !
 ! D23   D(3,4,5,6)              0.0903         estimate D2E/DX2                !
 ! D24   D(3,4,5,23)          -179.7222         estimate D2E/DX2                !
 ! D25   D(27,4,5,6)           176.2236         estimate D2E/DX2                !
 ! D26   D(27,4,5,23)           -3.5889         estimate D2E/DX2                !
 ! D27   D(3,4,27,12)           23.4067         estimate D2E/DX2                !
 ! D28   D(5,4,27,12)         -153.0278         estimate D2E/DX2                !
 ! D29   D(4,5,6,1)             -0.8001         estimate D2E/DX2                !
 ! D30   D(4,5,6,24)           179.8351         estimate D2E/DX2                !
 ! D31   D(23,5,6,1)           178.9986         estimate D2E/DX2                !
 ! D32   D(23,5,6,24)           -0.3663         estimate D2E/DX2                !
 ! D33   D(2,7,8,9)            168.435          estimate D2E/DX2                !
 ! D34   D(2,7,8,26)           -68.4741         estimate D2E/DX2                !
 ! D35   D(2,7,8,28)            55.5129         estimate D2E/DX2                !
 ! D36   D(11,7,8,9)            43.652          estimate D2E/DX2                !
 ! D37   D(11,7,8,26)          166.7429         estimate D2E/DX2                !
 ! D38   D(11,7,8,28)          -69.2701         estimate D2E/DX2                !
 ! D39   D(21,7,8,9)           -72.3374         estimate D2E/DX2                !
 ! D40   D(21,7,8,26)           50.7535         estimate D2E/DX2                !
 ! D41   D(21,7,8,28)          174.7406         estimate D2E/DX2                !
 ! D42   D(2,7,11,10)         -149.2262         estimate D2E/DX2                !
 ! D43   D(2,7,11,18)           88.8847         estimate D2E/DX2                !
 ! D44   D(2,7,11,19)          -29.9027         estimate D2E/DX2                !
 ! D45   D(8,7,11,10)          -26.1184         estimate D2E/DX2                !
 ! D46   D(8,7,11,18)         -148.0075         estimate D2E/DX2                !
 ! D47   D(8,7,11,19)           93.2051         estimate D2E/DX2                !
 ! D48   D(21,7,11,10)          89.6481         estimate D2E/DX2                !
 ! D49   D(21,7,11,18)         -32.241          estimate D2E/DX2                !
 ! D50   D(21,7,11,19)        -151.0285         estimate D2E/DX2                !
 ! D51   D(7,8,9,10)           -43.9519         estimate D2E/DX2                !
 ! D52   D(7,8,9,15)          -166.3462         estimate D2E/DX2                !
 ! D53   D(7,8,9,20)            74.9716         estimate D2E/DX2                !
 ! D54   D(26,8,9,10)         -167.1593         estimate D2E/DX2                !
 ! D55   D(26,8,9,15)           70.4464         estimate D2E/DX2                !
 ! D56   D(26,8,9,20)          -48.2358         estimate D2E/DX2                !
 ! D57   D(28,8,9,10)           80.6711         estimate D2E/DX2                !
 ! D58   D(28,8,9,15)          -41.7232         estimate D2E/DX2                !
 ! D59   D(28,8,9,20)         -160.4054         estimate D2E/DX2                !
 ! D60   D(7,8,14,29)          153.9458         estimate D2E/DX2                !
 ! D61   D(7,8,14,33)          -80.2675         estimate D2E/DX2                !
 ! D62   D(7,8,14,35)           20.6045         estimate D2E/DX2                !
 ! D63   D(9,8,14,29)           39.8835         estimate D2E/DX2                !
 ! D64   D(9,8,14,33)          165.6703         estimate D2E/DX2                !
 ! D65   D(9,8,14,35)          -93.4577         estimate D2E/DX2                !
 ! D66   D(26,8,14,29)         -78.3625         estimate D2E/DX2                !
 ! D67   D(26,8,14,33)          47.4242         estimate D2E/DX2                !
 ! D68   D(26,8,14,35)         148.2963         estimate D2E/DX2                !
 ! D69   D(7,8,26,37)         -176.7714         estimate D2E/DX2                !
 ! D70   D(7,8,26,38)           64.6394         estimate D2E/DX2                !
 ! D71   D(7,8,26,39)          -56.6985         estimate D2E/DX2                !
 ! D72   D(9,8,26,37)          -59.3043         estimate D2E/DX2                !
 ! D73   D(9,8,26,38)         -177.8935         estimate D2E/DX2                !
 ! D74   D(9,8,26,39)           60.7686         estimate D2E/DX2                !
 ! D75   D(28,8,26,37)          51.5906         estimate D2E/DX2                !
 ! D76   D(28,8,26,38)         -66.9987         estimate D2E/DX2                !
 ! D77   D(28,8,26,39)         171.6635         estimate D2E/DX2                !
 ! D78   D(8,9,10,11)           26.4673         estimate D2E/DX2                !
 ! D79   D(8,9,10,16)          148.0552         estimate D2E/DX2                !
 ! D80   D(8,9,10,17)          -92.3646         estimate D2E/DX2                !
 ! D81   D(15,9,10,11)         146.4578         estimate D2E/DX2                !
 ! D82   D(15,9,10,16)         -91.9542         estimate D2E/DX2                !
 ! D83   D(15,9,10,17)          27.6259         estimate D2E/DX2                !
 ! D84   D(20,9,10,11)         -91.8171         estimate D2E/DX2                !
 ! D85   D(20,9,10,16)          29.7709         estimate D2E/DX2                !
 ! D86   D(20,9,10,17)         149.351          estimate D2E/DX2                !
 ! D87   D(9,10,11,7)           -0.1636         estimate D2E/DX2                !
 ! D88   D(9,10,11,18)         120.17           estimate D2E/DX2                !
 ! D89   D(9,10,11,19)        -119.2492         estimate D2E/DX2                !
 ! D90   D(16,10,11,7)        -121.0555         estimate D2E/DX2                !
 ! D91   D(16,10,11,18)         -0.722          estimate D2E/DX2                !
 ! D92   D(16,10,11,19)        119.8589         estimate D2E/DX2                !
 ! D93   D(17,10,11,7)         118.8199         estimate D2E/DX2                !
 ! D94   D(17,10,11,18)       -120.8465         estimate D2E/DX2                !
 ! D95   D(17,10,11,19)         -0.2657         estimate D2E/DX2                !
 ! D96   D(30,12,27,4)          51.3065         estimate D2E/DX2                !
 ! D97   D(31,12,27,4)         -55.5568         estimate D2E/DX2                !
 ! D98   D(27,12,30,13)        -33.8846         estimate D2E/DX2                !
 ! D99   D(31,12,30,13)         76.3921         estimate D2E/DX2                !
 ! D100  D(27,12,31,34)         44.9414         estimate D2E/DX2                !
 ! D101  D(30,12,31,34)        -59.0921         estimate D2E/DX2                !
 ! D102  D(32,13,30,12)        171.6587         estimate D2E/DX2                !
 ! D103  D(33,13,30,12)        -62.3359         estimate D2E/DX2                !
 ! D104  D(30,13,33,14)         48.0788         estimate D2E/DX2                !
 ! D105  D(32,13,33,14)       -177.2877         estimate D2E/DX2                !
 ! D106  D(28,14,40,41)         56.2694         estimate D2E/DX2                !
 ! D107  D(28,14,40,42)       -133.3718         estimate D2E/DX2                !
 ! D108  D(33,14,40,41)        -63.6783         estimate D2E/DX2                !
 ! D109  D(33,14,40,42)        106.6805         estimate D2E/DX2                !
 ! D110  D(35,14,40,41)       -174.3494         estimate D2E/DX2                !
 ! D111  D(35,14,40,42)         -3.9905         estimate D2E/DX2                !
 ! D112  D(28,14,33,13)         62.4265         estimate D2E/DX2                !
 ! D113  D(29,14,33,13)       -176.9139         estimate D2E/DX2                !
 ! D114  D(35,14,33,13)        -53.73           estimate D2E/DX2                !
 ! D115  D(28,14,35,34)        -51.08           estimate D2E/DX2                !
 ! D116  D(29,14,35,34)       -177.725          estimate D2E/DX2                !
 ! D117  D(33,14,35,34)         60.0387         estimate D2E/DX2                !
 ! D118  D(12,31,34,35)         47.7176         estimate D2E/DX2                !
 ! D119  D(12,31,34,36)        177.6848         estimate D2E/DX2                !
 ! D120  D(31,34,35,14)        -57.096          estimate D2E/DX2                !
 ! D121  D(36,34,35,14)        165.6006         estimate D2E/DX2                !
 --------------------------------------------------------------------------------
 Trust Radius=3.00D-01 FncErr=1.00D-07 GrdErr=1.00D-06 EigMax=2.50D+02 EigMin=1.00D-04
 Number of steps in this run=    252 maximum allowed number of steps=    252.
 GradGradGradGradGradGradGradGradGradGradGradGradGradGradGradGradGradGrad

                          Input orientation:                          
 ---------------------------------------------------------------------
 Center     Atomic      Atomic             Coordinates (Angstroms)
 Number     Number       Type             X           Y           Z
 ---------------------------------------------------------------------
      1          6           0       -0.233508    2.768554    0.026057
      2          6           0        0.158680    1.454089   -0.232902
      3          6           0       -0.848374    0.523019   -0.443923
      4          7           0       -2.136765    0.874304   -0.387060
      5          6           0       -2.534712    2.130397   -0.139541
      6          6           0       -1.585678    3.115082    0.065799
      7          6           0        1.605510    1.027894   -0.281738
      8          7           0        1.915114   -0.026747    0.699508
      9          6           0        3.254539   -0.484589    0.296272
     10          6           0        3.162639   -0.594818   -1.229009
     11          6           0        2.060809    0.418844   -1.622196
     12          8           0       -3.404179   -1.412384   -0.489541
     13          8           0       -2.008851   -1.622605    1.881324
     14          8           0        0.439434   -2.361094    0.725832
     15          1           0        3.499192   -1.430273    0.795554
     16          1           0        4.123209   -0.372862   -1.703870
     17          1           0        2.873717   -1.608867   -1.526776
     18          1           0        2.419862    1.200173   -2.299821
     19          1           0        1.224191   -0.085799   -2.119918
     20          1           0        4.015264    0.259313    0.594430
     21          1           0        2.225772    1.916834   -0.057983
     22          1           0       -0.663536   -0.522699   -0.676130
     23          1           0       -3.606734    2.308514   -0.110308
     24          1           0       -1.900893    4.136613    0.264402
     25          1           0        0.523868    3.533227    0.201020
     26          6           0        1.854855    0.432147    2.084308
     27          1           0       -2.818244    0.057116   -0.496306
     28          1           0        0.979110   -1.520668    0.684431
     29          1           0        1.009093   -3.038865    1.098412
     30          1           0       -3.157873   -1.672549    0.418160
     31          1           0       -2.819249   -1.959864   -1.042089
     32          1           0       -2.239123   -2.005359    2.731227
     33          1           0       -1.143742   -1.995701    1.635450
     34          8           0       -1.079120   -2.543354   -1.609247
     35          1           0       -0.487468   -2.756814   -0.867394
     36          1           0       -0.960296   -3.231286   -2.268401
     37          1           0        2.151046   -0.384792    2.752671
     38          1           0        0.828774    0.724585    2.338810
     39          1           0        2.528798    1.288914    2.261576
     40          8           0        2.150845   -4.211868    1.832221
     41          1           0        2.621043   -4.152879    2.681710
     42          1           0        2.338084   -5.123076    1.547676
 ---------------------------------------------------------------------
                    Distance matrix (angstroms):
                    1          2          3          4          5
     1  C    0.000000
     2  C    1.395955   0.000000
     3  C    2.375157   1.387652   0.000000
     4  N    2.716843   2.372548   1.336632   0.000000
     5  C    2.393785   2.778573   2.349478   1.340670   0.000000
     6  C    1.396433   2.427119   2.742667   2.351566   1.382908
     7  C    2.550808   1.509087   2.510528   3.746906   4.286860
     8  N    3.589404   2.479380   3.040813   4.290716   5.015798
     9  C    4.777282   3.690913   4.289179   5.601758   6.367379
    10  C    4.941789   3.770148   4.237233   5.563352   6.408865
    11  C    3.674475   2.572929   3.140466   4.399163   5.123133
    12  O    5.272498   4.580010   3.206245   2.616445   3.664665
    13  O    5.086859   4.316734   3.370042   3.375868   4.294817
    14  O    5.220711   3.943807   3.368217   4.282888   5.455997
    15  H    5.670566   4.531698   4.924732   6.202714   7.068293
    16  H    5.642883   4.606407   5.206410   6.517414   7.282949
    17  H    5.588198   4.292696   4.423965   5.707015   6.719942
    18  H    3.861334   3.074016   3.818935   4.952544   5.484517
    19  H    3.857127   2.658458   2.734071   3.901361   4.791948
    20  H    4.967031   4.121311   4.980230   6.260112   6.851413
    21  H    2.603949   2.125464   3.397358   4.497431   4.765970
    22  H    3.392689   2.186363   1.087019   2.050752   3.290615
    23  H    3.407182   3.863083   3.302702   2.072283   1.087111
    24  H    2.169923   3.418346   3.829828   3.335071   2.142382
    25  H    1.090392   2.155102   3.370512   3.807188   3.382133
    26  C    3.749194   3.048087   3.702385   4.715527   5.205560
    27  H    3.782277   3.298938   2.024894   1.069647   2.122773
    28  H    4.505699   3.219283   2.964715   4.073409   5.133824
    29  H    6.034908   4.762587   4.303022   5.236023   6.388455
    30  H    5.331890   4.604267   3.301135   2.859633   3.893810
    31  H    5.494081   4.601947   3.225966   2.987868   4.198308
    32  H    5.842147   5.148136   4.290508   4.245780   5.043130
    33  H    5.110460   4.133775   3.279479   3.648777   4.702135
    34  O    5.621890   4.405227   3.288444   3.780574   5.111040
    35  H    5.602896   4.307179   3.326693   4.016954   5.348440
    36  H    6.464583   5.229541   4.175650   4.666840   5.979839
    37  H    4.802511   4.032946   4.476478   5.461553   6.053709
    38  H    3.264212   2.755885   3.255312   4.030782   4.408125
    39  H    3.849313   3.444875   4.394498   5.380953   5.666797
    40  O    7.594317   6.351104   6.049405   7.012699   8.128137
    41  H    7.944003   6.782056   6.608363   7.571437   8.603536
    42  H    8.438379   7.153975   6.782210   7.728910   8.899647
                    6          7          8          9         10
     6  C    0.000000
     7  C    3.828945   0.000000
     8  N    4.746390   1.473420   0.000000
     9  C    6.036427   2.311060   1.471828   0.000000
    10  C    6.163311   2.440321   2.366052   1.532018   0.000000
    11  C    4.838997   1.541125   2.368562   2.433455   1.547946
    12  O    4.910529   5.576300   5.623940   6.768813   6.658703
    13  O    5.091256   4.976704   4.397835   5.613443   6.121669
    14  O    5.875817   3.722925   2.761793   3.410368   3.789061
    15  H    6.859205   3.284688   2.118588   1.097021   2.215876
    16  H    6.920179   3.213002   3.282028   2.183492   1.094282
    17  H    6.688662   3.179776   2.894540   2.175438   1.095644
    18  H    5.030645   2.183004   3.279646   3.205434   2.218186
    19  H    4.787313   2.182801   2.903450   3.181088   2.193262
    20  H    6.309154   2.676808   2.122146   1.104985   2.186650
    21  H    3.997283   1.106800   2.108983   2.636416   2.925306
    22  H    3.825474   2.776410   2.964420   4.037119   3.866587
    23  H    2.183170   5.369997   6.049798   7.419151   7.450184
    24  H    1.087350   4.717761   5.664344   6.923511   7.089152
    25  H    2.154835   2.771227   3.854539   4.858856   5.103807
    26  C    4.807264   2.452603   1.460098   2.448794   3.707159
    27  H    3.344598   4.534098   4.882794   6.148196   6.060762
    28  H    5.333950   2.796610   1.762989   2.530159   3.047335
    29  H    6.757972   4.335788   3.170623   3.494250   4.003500
    30  H    5.051472   5.520151   5.340695   6.522663   6.619935
    31  H    5.338932   5.392896   5.402249   6.392069   6.138507
    32  H    5.809511   5.749764   5.029958   6.198554   6.844861
    33  H    5.364626   4.513992   3.756244   4.839600   5.358406
    34  O    5.922861   4.660829   4.541927   5.162375   4.683363
    35  H    6.046162   4.364352   3.959905   4.529872   4.257731
    36  H    6.790875   5.354513   5.229296   5.646833   5.002988
    37  H    5.781998   3.391302   2.097460   2.694727   4.113539
    38  H    4.087864   2.750016   2.105219   3.393877   4.462856
    39  H    5.008517   2.718279   2.132517   2.744892   4.016763
    40  O    8.412256   5.676382   4.342101   4.179699   4.845400
    41  H    8.795610   6.054233   4.631676   4.421310   5.314776
    42  H    9.244410   6.458936   5.183712   4.890958   5.375407
                   11         12         13         14         15
    11  C    0.000000
    12  O    5.873874   0.000000
    13  O    5.744937   2.759010   0.000000
    14  O    3.983735   4.141321   2.806177   0.000000
    15  H    3.366555   7.021988   5.617333   3.198970   0.000000
    16  H    2.210648   7.695243   7.212325   4.840115   2.784715
    17  H    2.186672   6.366038   5.954394   3.400856   2.411707
    18  H    1.094792   6.634909   6.712939   5.075361   4.203040
    19  H    1.096504   5.083283   5.368824   3.727077   3.934872
    20  H    2.959523   7.682298   6.441093   4.435128   1.778056
    21  H    2.172084   6.554867   5.849835   4.701706   3.681474
    22  H    3.033744   2.887469   3.091963   2.561589   4.507532
    23  H    6.162605   3.745655   4.687593   6.235050   8.080427
    24  H    5.751186   5.798247   5.982866   6.921723   7.773883
    25  H    3.922459   6.353385   5.985039   5.918241   5.817418
    26  C    3.712245   6.138765   4.380803   3.413366   2.798810
    27  H    5.020322   1.582023   3.021540   4.237196   6.617494
    28  H    3.201922   4.539070   3.220381   0.999640   2.524150
    29  H    4.523667   4.964273   3.424431   0.960573   2.979913
    30  H    5.980938   0.975845   1.861074   3.675510   6.672154
    31  H    5.459830   0.973235   3.052349   3.729014   6.601522
    32  H    6.581677   3.475963   0.960136   3.364940   6.083240
    33  H    5.168310   3.156805   0.973688   1.862086   4.752049
    34  O    4.316705   2.817576   3.727769   2.791383   5.289892
    35  H    4.141044   3.233801   3.340133   1.885235   4.518691
    36  H    4.782061   3.527791   4.572476   3.417881   5.702500
    37  H    4.448981   6.513709   4.426756   3.308090   2.596312
    38  H    4.159442   5.521241   3.710891   3.503527   3.762471
    39  H    4.007458   7.075724   5.404794   4.477333   3.238034
    40  O    5.777940   6.639728   4.899976   2.752887   3.260366
    41  H    6.303818   7.339649   5.336555   3.434439   3.426560
    42  H    6.390450   7.133938   5.591106   3.450920   3.943432
                   16         17         18         19         20
    16  H    0.000000
    17  H    1.766437   0.000000
    18  H    2.393948   2.948608   0.000000
    19  H    2.942755   2.322173   1.765140   0.000000
    20  H    2.386101   3.048400   3.436163   3.908564   0.000000
    21  H    3.398811   3.873984   2.361591   3.043892   2.524936
    22  H    4.898125   3.796777   3.887416   2.416385   4.910910
    23  H    8.335541   7.703798   6.507092   5.754051   7.924060
    24  H    7.778127   7.682172   5.819523   5.768873   7.081193
    25  H    5.642818   5.911700   3.910517   4.355979   4.802409
    26  C    4.488180   4.271270   4.486612   4.282700   2.630014
    27  H    7.058814   6.019617   5.656589   4.358649   6.922963
    28  H    4.111788   2.913203   4.287715   3.159634   3.520606
    29  H    4.965690   3.523255   5.613172   4.373158   4.490995
    30  H    7.694566   6.337737   6.837476   5.306798   7.430818
    31  H    7.152220   5.724332   6.246280   4.585111   7.369770
    32  H    7.925554   6.665503   7.569215   6.262017   6.986558
    33  H    6.444023   5.127308   6.196712   4.832972   5.725745
    34  O    5.637749   4.062633   5.170470   3.406700   6.218029
    35  H    5.257496   3.612497   5.114896   3.410706   5.613247
    36  H    5.859292   4.228700   5.573534   3.832508   6.718354
    37  H    4.873431   4.509355   5.302080   4.968962   2.923728
    38  H    5.329254   4.956768   4.926930   4.548992   3.662384
    39  H    4.585674   4.782020   4.563561   4.773817   2.459479
    40  O    5.579617   4.310570   6.814420   5.788137   4.999964
    41  H    5.981500   4.924144   7.315141   6.445771   5.076222
    42  H    6.026920   4.699875   7.402257   6.329784   5.717668
                   21         22         23         24         25
    21  H    0.000000
    22  H    3.831648   0.000000
    23  H    5.845877   4.122904   0.000000
    24  H    4.696884   4.911705   2.528289   0.000000
    25  H    2.361416   4.316232   4.319574   2.499512   0.000000
    26  C    2.632733   3.856688   6.177868   5.580391   3.864582
    27  H    5.393772   2.238591   2.416507   4.250001   4.872302
    28  H    3.731188   2.354858   6.026957   6.362049   5.097331
    29  H    5.232257   3.503966   7.166682   7.787880   6.650801
    30  H    6.487990   2.956576   4.040992   5.945587   6.379849
    31  H    6.438128   2.616576   4.439302   6.302169   6.549489
    32  H    6.564951   4.036191   5.343611   6.627477   6.686703
    33  H    5.434084   2.782757   5.257401   6.329165   5.950425
    34  O    5.763854   2.264170   5.672413   6.986260   6.539990
    35  H    5.464412   2.249189   5.996711   7.127276   6.459793
    36  H    6.445162   3.155921   6.507717   7.847659   7.352511
    37  H    3.633572   4.438194   6.971555   6.561463   4.950707
    38  H    3.019549   3.587836   5.308554   4.836960   3.542821
    39  H    2.422078   4.701389   6.656589   5.632074   3.647270
    40  O    6.414006   5.274707   8.912829   9.411258   8.080493
    41  H    6.671100   5.936477   9.398413   9.747151   8.344351
    42  H    7.221571   5.926087   9.660140  10.264383   8.946309
                   26         27         28         29         30
    26  C    0.000000
    27  H    5.351455   0.000000
    28  H    2.557356   4.278252   0.000000
    29  H    3.706107   5.174624   1.573913   0.000000
    30  H    5.686232   1.985784   4.148325   4.437698   0.000000
    31  H    6.110918   2.089519   4.195390   4.516878   1.526284
    32  H    4.808388   3.873778   3.844649   3.779567   2.511004
    33  H    3.884264   3.400353   2.374151   2.451795   2.375489
    34  O    5.577111   3.320487   3.247023   3.455081   3.031484
    35  H    4.936445   3.672659   2.467199   2.486693   3.155843
    36  H    6.347589   4.172035   3.925140   3.905246   3.804815
    37  H    1.096279   5.953568   2.634628   3.329374   5.940781
    38  H    1.096874   4.667348   2.792979   3.966694   5.032743
    39  H    1.104388   6.141180   3.575286   4.732032   6.671332
    40  O    4.660261   6.952561   3.151657   1.793881   6.052289
    41  H    4.686832   7.576918   3.689662   2.519175   6.683679
    42  H    5.601963   7.589465   3.945801   2.512368   6.586918
                   31         32         33         34         35
    31  H    0.000000
    32  H    3.817922   0.000000
    33  H    3.158769   1.549413   0.000000
    34  O    1.920984   4.524904   3.291224   0.000000
    35  H    2.470395   4.072229   2.697076   0.972606   0.000000
    36  H    2.564383   5.304204   4.098826   0.960132   1.552904
    37  H    6.448635   4.679774   3.833906   5.841206   5.068838
    38  H    5.651975   4.125358   3.433000   5.468696   4.912471
    39  H    7.076042   5.814282   4.966717   6.533500   5.937696
    40  O    6.167253   4.994869   3.975477   5.006028   4.045466
    41  H    6.947861   5.313709   4.463371   5.890169   4.920160
    42  H    6.581100   5.663195   4.680950   5.319626   4.406303
                   36         37         38         39         40
    36  H    0.000000
    37  H    6.556992   0.000000
    38  H    6.330567   1.774937   0.000000
    39  H    7.288805   1.784702   1.792907   0.000000
    40  O    5.239832   3.936208   5.135472   5.530442   0.000000
    41  H    6.178909   3.797948   5.207635   5.458767   0.972727
    42  H    5.387080   4.892682   6.090899   6.454428   0.972792
                   41         42
    41  H    0.000000
    42  H    1.519007   0.000000
 Stoichiometry    C10H25N2O5(1+)
 Framework group  C1[X(C10H25N2O5)]
 Deg. of freedom   120
 Full point group                 C1      NOp   1
 Largest Abelian subgroup         C1      NOp   1
 Largest concise Abelian subgroup C1      NOp   1
                         Standard orientation:                         
 ---------------------------------------------------------------------
 Center     Atomic      Atomic             Coordinates (Angstroms)
 Number     Number       Type             X           Y           Z
 ---------------------------------------------------------------------
      1          6           0       -2.208977   -2.128489   -0.478190
      2          6           0       -1.139430   -1.394722    0.037897
      3          6           0       -1.381059   -0.067750    0.363995
      4          7           0       -2.585314    0.481200    0.176887
      5          6           0       -3.625301   -0.205360   -0.317542
      6          6           0       -3.462367   -1.537556   -0.650922
      7          6           0        0.234704   -1.985159    0.239099
      8          7           0        1.274034   -1.261795   -0.514229
      9          6           0        2.529233   -1.799368    0.035106
     10          6           0        2.288207   -1.825357    1.547822
     11          6           0        0.752106   -1.952625    1.690410
     12          8           0       -2.180241    3.025700    0.632100
     13          8           0       -0.601727    2.569334   -1.584239
     14          8           0        1.567121    1.464894   -0.187478
     15          1           0        3.376409   -1.172021   -0.268514
     16          1           0        2.821964   -2.654122    2.022905
     17          1           0        2.640048   -0.897114    2.011514
     18          1           0        0.445443   -2.854156    2.230567
     19          1           0        0.336286   -1.092396    2.228390
     20          1           0        2.708476   -2.817587   -0.354884
     21          1           0        0.204643   -3.034435   -0.111788
     22          1           0       -0.632734    0.593296    0.793691
     23          1           0       -4.560107    0.337106   -0.434496
     24          1           0       -4.302046   -2.101516   -1.049940
     25          1           0       -2.064246   -3.174171   -0.751244
     26          6           0        1.161526   -1.423211   -1.961009
     27          1           0       -2.628835    1.526624    0.399014
     28          1           0        1.463130    0.474393   -0.273346
     29          1           0        2.481924    1.667472   -0.399133
     30          1           0       -1.688635    3.170565   -0.198328
     31          1           0       -1.477553    3.016291    1.305396
     32          1           0       -0.412971    3.102526   -2.360086
     33          1           0        0.258711    2.283181   -1.229512
     34          8           0        0.139470    2.304417    2.059483
     35          1           0        0.844029    2.177282    1.401154
     36          1           0        0.550774    2.685057    2.839096
     37          1           0        1.995973   -0.908571   -2.451592
     38          1           0        0.227251   -0.972631   -2.317718
     39          1           0        1.185527   -2.486765   -2.257572
     40          8           0        4.199695    1.929619   -0.844724
     41          1           0        4.659868    1.681692   -1.665072
     42          1           0        4.859235    2.480040   -0.388250
 ---------------------------------------------------------------------
 Rotational constants (GHZ):           0.4247240           0.3274619           0.2393555
 Standard basis: Aug-CC-pVDZ (5D, 7F)
 There are   650 symmetry adapted cartesian basis functions of A   symmetry.
 There are   616 symmetry adapted basis functions of A   symmetry.
   616 basis functions,  1006 primitive gaussians,   650 cartesian basis functions
    69 alpha electrons       69 beta electrons
       nuclear repulsion energy      1412.1376642614 Hartrees.
 NAtoms=   42 NActive=   42 NUniq=   42 SFac= 1.00D+00 NAtFMM=   60 NAOKFM=F Big=F
 Integral buffers will be    131072 words long.
 Raffenetti 2 integral format.
 Two-electron integral symmetry is turned on.
 Nuclear repulsion after empirical dispersion term =     1412.1030324609 Hartrees.
 One-electron integrals computed using PRISM.
 NBasis=   616 RedAO= T EigKep=  1.45D-06  NBF=   616
 NBsUse=   616 1.00D-06 EigRej= -1.00D+00 NBFU=   616
 ExpMin= 2.97D-02 ExpMax= 1.17D+04 ExpMxC= 4.01D+02 IAcc=3 IRadAn=         5 AccDes= 0.00D+00
 Harris functional with IExCor= 4639 and IRadAn=       5 diagonalized for initial guess.
 HarFok:  IExCor= 4639 AccDes= 0.00D+00 IRadAn=         5 IDoV= 1 UseB2=F ITyADJ=14
 ICtDFT=  3500011 ScaDFX=  1.000000  1.000000  1.000000  1.000000
 FoFCou: FMM=F IPFlag=           0 FMFlag=      100000 FMFlg1=           0
         NFxFlg=           0 DoJE=T BraDBF=F KetDBF=T FulRan=T
         wScrn=  0.000000 ICntrl=       500 IOpCl=  0 I1Cent=   200000004 NGrid=           0
         NMat0=    1 NMatS0=      1 NMatT0=    0 NMatD0=    1 NMtDS0=    0 NMtDT0=    0
 Petite list used in FoFCou.
 Requested convergence on RMS density matrix=1.00D-08 within 128 cycles.
 Requested convergence on MAX density matrix=1.00D-06.
 Requested convergence on             energy=1.00D-06.
 No special actions if energy rises.
 SCF Done:  E(RwB97XD) =  -881.471627734     A.U. after   16 cycles
            NFock= 16  Conv=0.13D-08     -V/T= 2.0062

 **********************************************************************

            Population analysis using the SCF density.

 **********************************************************************

 Orbital symmetries:
       Occupied  (A) (A) (A) (A) (A) (A) (A) (A) (A) (A) (A) (A)
                 (A) (A) (A) (A) (A) (A) (A) (A) (A) (A) (A) (A)
                 (A) (A) (A) (A) (A) (A) (A) (A) (A) (A) (A) (A)
                 (A) (A) (A) (A) (A) (A) (A) (A) (A) (A) (A) (A)
                 (A) (A) (A) (A) (A) (A) (A) (A) (A) (A) (A) (A)
                 (A) (A) (A) (A) (A) (A) (A) (A) (A)
       Virtual   (A) (A) (A) (A) (A) (A) (A) (A) (A) (A) (A) (A)
                 (A) (A) (A) (A) (A) (A) (A) (A) (A) (A) (A) (A)
                 (A) (A) (A) (A) (A) (A) (A) (A) (A) (A) (A) (A)
                 (A) (A) (A) (A) (A) (A) (A) (A) (A) (A) (A) (A)
                 (A) (A) (A) (A) (A) (A) (A) (A) (A) (A) (A) (A)
                 (A) (A) (A) (A) (A) (A) (A) (A) (A) (A) (A) (A)
                 (A) (A) (A) (A) (A) (A) (A) (A) (A) (A) (A) (A)
                 (A) (A) (A) (A) (A) (A) (A) (A) (A) (A) (A) (A)
                 (A) (A) (A) (A) (A) (A) (A) (A) (A) (A) (A) (A)
                 (A) (A) (A) (A) (A) (A) (A) (A) (A) (A) (A) (A)
                 (A) (A) (A) (A) (A) (A) (A) (A) (A) (A) (A) (A)
                 (A) (A) (A) (A) (A) (A) (A) (A) (A) (A) (A) (A)
                 (A) (A) (A) (A) (A) (A) (A) (A) (A) (A) (A) (A)
                 (A) (A) (A) (A) (A) (A) (A) (A) (A) (A) (A) (A)
                 (A) (A) (A) (A) (A) (A) (A) (A) (A) (A) (A) (A)
                 (A) (A) (A) (A) (A) (A) (A) (A) (A) (A) (A) (A)
                 (A) (A) (A) (A) (A) (A) (A) (A) (A) (A) (A) (A)
                 (A) (A) (A) (A) (A) (A) (A) (A) (A) (A) (A) (A)
                 (A) (A) (A) (A) (A) (A) (A) (A) (A) (A) (A) (A)
                 (A) (A) (A) (A) (A) (A) (A) (A) (A) (A) (A) (A)
                 (A) (A) (A) (A) (A) (A) (A) (A) (A) (A) (A) (A)
                 (A) (A) (A) (A) (A) (A) (A) (A) (A) (A) (A) (A)
                 (A) (A) (A) (A) (A) (A) (A) (A) (A) (A) (A) (A)
                 (A) (A) (A) (A) (A) (A) (A) (A) (A) (A) (A) (A)
                 (A) (A) (A) (A) (A) (A) (A) (A) (A) (A) (A) (A)
                 (A) (A) (A) (A) (A) (A) (A) (A) (A) (A) (A) (A)
                 (A) (A) (A) (A) (A) (A) (A) (A) (A) (A) (A) (A)
                 (A) (A) (A) (A) (A) (A) (A) (A) (A) (A) (A) (A)
                 (A) (A) (A) (A) (A) (A) (A) (A) (A) (A) (A) (A)
                 (A) (A) (A) (A) (A) (A) (A) (A) (A) (A) (A) (A)
                 (A) (A) (A) (A) (A) (A) (A) (A) (A) (A) (A) (A)
                 (A) (A) (A) (A) (A) (A) (A) (A) (A) (A) (A) (A)
                 (A) (A) (A) (A) (A) (A) (A) (A) (A) (A) (A) (A)
                 (A) (A) (A) (A) (A) (A) (A) (A) (A) (A) (A) (A)
                 (A) (A) (A) (A) (A) (A) (A) (A) (A) (A) (A) (A)
                 (A) (A) (A) (A) (A) (A) (A) (A) (A) (A) (A) (A)
                 (A) (A) (A) (A) (A) (A) (A) (A) (A) (A) (A) (A)
                 (A) (A) (A) (A) (A) (A) (A) (A) (A) (A) (A) (A)
                 (A) (A) (A) (A) (A) (A) (A) (A) (A) (A) (A) (A)
                 (A) (A) (A) (A) (A) (A) (A) (A) (A) (A) (A) (A)
                 (A) (A) (A) (A) (A) (A) (A) (A) (A) (A) (A) (A)
                 (A) (A) (A) (A) (A) (A) (A) (A) (A) (A) (A) (A)
                 (A) (A) (A) (A) (A) (A) (A) (A) (A) (A) (A) (A)
                 (A) (A) (A) (A) (A) (A) (A) (A) (A) (A) (A) (A)
                 (A) (A) (A) (A) (A) (A) (A) (A) (A) (A) (A) (A)
                 (A) (A) (A) (A) (A) (A) (A)
 The electronic state is 1-A.
 Alpha  occ. eigenvalues --  -19.40949 -19.38346 -19.37753 -19.37239 -19.37217
 Alpha  occ. eigenvalues --  -14.66375 -14.58159 -10.50293 -10.49670 -10.47251
 Alpha  occ. eigenvalues --  -10.46613 -10.46233 -10.46232 -10.43400 -10.43291
 Alpha  occ. eigenvalues --  -10.41313 -10.40491  -1.25013  -1.24760  -1.23047
 Alpha  occ. eigenvalues --   -1.22202  -1.21609  -1.20775  -1.17388  -1.07654
 Alpha  occ. eigenvalues --   -1.04052  -1.00453  -0.95639  -0.89781  -0.89561
 Alpha  occ. eigenvalues --   -0.88452  -0.81857  -0.79687  -0.79176  -0.74549
 Alpha  occ. eigenvalues --   -0.74427  -0.74225  -0.73443  -0.72956  -0.72619
 Alpha  occ. eigenvalues --   -0.71829  -0.70677  -0.69454  -0.68228  -0.67252
 Alpha  occ. eigenvalues --   -0.65541  -0.64647  -0.63638  -0.62964  -0.62184
 Alpha  occ. eigenvalues --   -0.61412  -0.60050  -0.59066  -0.58710  -0.58054
 Alpha  occ. eigenvalues --   -0.57188  -0.56634  -0.56160  -0.55547  -0.53930
 Alpha  occ. eigenvalues --   -0.53660  -0.52766  -0.51976  -0.51872  -0.51306
 Alpha  occ. eigenvalues --   -0.50883  -0.50649  -0.48780  -0.44576
 Alpha virt. eigenvalues --   -0.13091  -0.10374  -0.06606  -0.05497  -0.04696
 Alpha virt. eigenvalues --   -0.04426  -0.03751  -0.03031  -0.02741  -0.02632
 Alpha virt. eigenvalues --   -0.02088  -0.01533  -0.00989  -0.00589  -0.00180
 Alpha virt. eigenvalues --   -0.00033   0.00220   0.00469   0.00874   0.01633
 Alpha virt. eigenvalues --    0.01846   0.01948   0.02321   0.02843   0.03004
 Alpha virt. eigenvalues --    0.03044   0.03457   0.03777   0.04001   0.04150
 Alpha virt. eigenvalues --    0.04516   0.04659   0.05417   0.05587   0.05657
 Alpha virt. eigenvalues --    0.06014   0.06291   0.06602   0.06736   0.06997
 Alpha virt. eigenvalues --    0.07109   0.07374   0.08002   0.08315   0.08511
 Alpha virt. eigenvalues --    0.08713   0.08869   0.09120   0.09628   0.09995
 Alpha virt. eigenvalues --    0.10308   0.10447   0.10726   0.11062   0.11617
 Alpha virt. eigenvalues --    0.11850   0.11948   0.12333   0.12504   0.12541
 Alpha virt. eigenvalues --    0.12785   0.13306   0.13597   0.13850   0.14122
 Alpha virt. eigenvalues --    0.14695   0.15036   0.15181   0.15404   0.16288
 Alpha virt. eigenvalues --    0.16528   0.16600   0.16787   0.17004   0.17112
 Alpha virt. eigenvalues --    0.17326   0.17732   0.17937   0.18008   0.18204
 Alpha virt. eigenvalues --    0.18619   0.18879   0.19151   0.19487   0.19714
 Alpha virt. eigenvalues --    0.19932   0.20379   0.20604   0.20809   0.20961
 Alpha virt. eigenvalues --    0.21356   0.21469   0.21970   0.22193   0.22833
 Alpha virt. eigenvalues --    0.23002   0.23380   0.23457   0.23900   0.24216
 Alpha virt. eigenvalues --    0.24374   0.24775   0.25034   0.25353   0.25783
 Alpha virt. eigenvalues --    0.26288   0.26369   0.26583   0.26772   0.27094
 Alpha virt. eigenvalues --    0.27479   0.27787   0.28218   0.28623   0.28965
 Alpha virt. eigenvalues --    0.29200   0.29512   0.29928   0.30455   0.30921
 Alpha virt. eigenvalues --    0.31104   0.31579   0.32025   0.32401   0.32640
 Alpha virt. eigenvalues --    0.32911   0.33386   0.34049   0.34366   0.34534
 Alpha virt. eigenvalues --    0.34901   0.35481   0.36121   0.36158   0.36630
 Alpha virt. eigenvalues --    0.36711   0.37346   0.37821   0.37904   0.38496
 Alpha virt. eigenvalues --    0.38908   0.39479   0.39753   0.40223   0.40503
 Alpha virt. eigenvalues --    0.40975   0.41151   0.41656   0.41968   0.42036
 Alpha virt. eigenvalues --    0.42458   0.43277   0.43368   0.44312   0.44665
 Alpha virt. eigenvalues --    0.44860   0.45480   0.45558   0.46158   0.46768
 Alpha virt. eigenvalues --    0.46812   0.46923   0.47530   0.47946   0.48231
 Alpha virt. eigenvalues --    0.48575   0.48893   0.49298   0.49487   0.49859
 Alpha virt. eigenvalues --    0.50427   0.50900   0.51063   0.51205   0.51289
 Alpha virt. eigenvalues --    0.51890   0.52197   0.52638   0.53065   0.53523
 Alpha virt. eigenvalues --    0.54167   0.54492   0.54538   0.54950   0.55411
 Alpha virt. eigenvalues --    0.55464   0.55797   0.56034   0.56430   0.56981
 Alpha virt. eigenvalues --    0.57042   0.57616   0.58334   0.58719   0.59059
 Alpha virt. eigenvalues --    0.59566   0.59707   0.60142   0.60666   0.60835
 Alpha virt. eigenvalues --    0.61172   0.61437   0.61988   0.62361   0.62656
 Alpha virt. eigenvalues --    0.63225   0.63374   0.64200   0.64346   0.64767
 Alpha virt. eigenvalues --    0.65299   0.65850   0.66031   0.66544   0.67049
 Alpha virt. eigenvalues --    0.67435   0.67788   0.68514   0.69105   0.69207
 Alpha virt. eigenvalues --    0.69810   0.70032   0.70368   0.70511   0.71355
 Alpha virt. eigenvalues --    0.71813   0.72058   0.72535   0.73268   0.74073
 Alpha virt. eigenvalues --    0.74242   0.74734   0.75180   0.75545   0.75678
 Alpha virt. eigenvalues --    0.76154   0.76536   0.76691   0.77646   0.77971
 Alpha virt. eigenvalues --    0.78368   0.78840   0.79076   0.79885   0.80703
 Alpha virt. eigenvalues --    0.80906   0.82129   0.82358   0.83654   0.83720
 Alpha virt. eigenvalues --    0.84087   0.84800   0.85352   0.85871   0.86730
 Alpha virt. eigenvalues --    0.87293   0.87677   0.88091   0.88898   0.89619
 Alpha virt. eigenvalues --    0.89758   0.90384   0.91209   0.91485   0.92064
 Alpha virt. eigenvalues --    0.92772   0.93449   0.94178   0.94444   0.94923
 Alpha virt. eigenvalues --    0.95648   0.95849   0.97418   0.98157   0.98555
 Alpha virt. eigenvalues --    0.98957   0.99643   1.00943   1.01705   1.03168
 Alpha virt. eigenvalues --    1.03526   1.04009   1.04289   1.05052   1.05520
 Alpha virt. eigenvalues --    1.05982   1.06921   1.07760   1.08094   1.08485
 Alpha virt. eigenvalues --    1.09631   1.09718   1.11030   1.11548   1.12310
 Alpha virt. eigenvalues --    1.12655   1.13125   1.14209   1.14592   1.15046
 Alpha virt. eigenvalues --    1.15878   1.16788   1.17097   1.18144   1.18861
 Alpha virt. eigenvalues --    1.19115   1.19459   1.21090   1.21909   1.22411
 Alpha virt. eigenvalues --    1.23369   1.24042   1.24470   1.25403   1.27127
 Alpha virt. eigenvalues --    1.28208   1.28774   1.29392   1.30192   1.30622
 Alpha virt. eigenvalues --    1.32258   1.32858   1.33627   1.34326   1.34818
 Alpha virt. eigenvalues --    1.35105   1.36284   1.37780   1.38325   1.38872
 Alpha virt. eigenvalues --    1.39776   1.40231   1.40671   1.41729   1.42199
 Alpha virt. eigenvalues --    1.42919   1.44271   1.45254   1.45603   1.46209
 Alpha virt. eigenvalues --    1.46840   1.47535   1.48903   1.49775   1.50877
 Alpha virt. eigenvalues --    1.52186   1.53784   1.54490   1.54604   1.56318
 Alpha virt. eigenvalues --    1.56855   1.58311   1.58610   1.59262   1.59974
 Alpha virt. eigenvalues --    1.61199   1.62022   1.63096   1.63733   1.64228
 Alpha virt. eigenvalues --    1.64788   1.65190   1.66166   1.66807   1.67781
 Alpha virt. eigenvalues --    1.68605   1.69741   1.70042   1.70703   1.71648
 Alpha virt. eigenvalues --    1.71733   1.72430   1.73088   1.73694   1.75214
 Alpha virt. eigenvalues --    1.75823   1.76399   1.77104   1.77960   1.78821
 Alpha virt. eigenvalues --    1.79704   1.80053   1.81405   1.81541   1.82662
 Alpha virt. eigenvalues --    1.83570   1.84125   1.84420   1.85610   1.86211
 Alpha virt. eigenvalues --    1.87004   1.87422   1.88073   1.88365   1.89042
 Alpha virt. eigenvalues --    1.89529   1.90729   1.90877   1.91460   1.92807
 Alpha virt. eigenvalues --    1.93308   1.94104   1.94800   1.95350   1.96181
 Alpha virt. eigenvalues --    1.96322   1.97161   1.98426   1.99213   1.99449
 Alpha virt. eigenvalues --    2.00463   2.01054   2.01117   2.01997   2.02882
 Alpha virt. eigenvalues --    2.03657   2.03855   2.05178   2.05652   2.07408
 Alpha virt. eigenvalues --    2.08235   2.10273   2.11059   2.12403   2.12533
 Alpha virt. eigenvalues --    2.13230   2.13503   2.14336   2.15370   2.15876
 Alpha virt. eigenvalues --    2.16890   2.17540   2.18063   2.19571   2.20303
 Alpha virt. eigenvalues --    2.20609   2.21884   2.22470   2.24432   2.25059
 Alpha virt. eigenvalues --    2.25624   2.26137   2.26704   2.27636   2.28840
 Alpha virt. eigenvalues --    2.29440   2.30331   2.31221   2.32114   2.33093
 Alpha virt. eigenvalues --    2.34040   2.34924   2.36226   2.38011   2.39102
 Alpha virt. eigenvalues --    2.39579   2.40258   2.42117   2.42920   2.43625
 Alpha virt. eigenvalues --    2.45208   2.45471   2.46051   2.47595   2.48897
 Alpha virt. eigenvalues --    2.50521   2.51765   2.52796   2.54773   2.55745
 Alpha virt. eigenvalues --    2.56112   2.57826   2.58621   2.58928   2.59636
 Alpha virt. eigenvalues --    2.61201   2.62747   2.63387   2.63967   2.64067
 Alpha virt. eigenvalues --    2.64497   2.65961   2.68742   2.68948   2.70079
 Alpha virt. eigenvalues --    2.71136   2.72296   2.72740   2.73993   2.76108
 Alpha virt. eigenvalues --    2.76814   2.79302   2.80975   2.82060   2.82873
 Alpha virt. eigenvalues --    2.84175   2.85336   2.86046   2.87978   2.89839
 Alpha virt. eigenvalues --    2.91180   2.91875   2.92447   2.94687   2.96067
 Alpha virt. eigenvalues --    2.98258   3.03054   3.06133   3.06864   3.10973
 Alpha virt. eigenvalues --    3.13933   3.14457   3.21063   3.25606   3.26825
 Alpha virt. eigenvalues --    3.29407   3.32681   3.37837   3.38365   3.42524
 Alpha virt. eigenvalues --    3.43166   3.43982   3.44558   3.46707   3.47835
 Alpha virt. eigenvalues --    3.48461   3.49494   3.53955   3.54665   3.57149
 Alpha virt. eigenvalues --    3.58738   3.62481   3.67210   3.68389   3.70272
 Alpha virt. eigenvalues --    3.72656   3.84034   3.86857   3.90958   3.91957
 Alpha virt. eigenvalues --    4.00345   4.02566   4.06197   4.07957   4.19174
 Alpha virt. eigenvalues --    4.39621   5.07241
          Condensed to atoms (all electrons):
               1          2          3          4          5          6
     1  C   24.402034 -10.936677  -1.677649  -0.665243   1.485101  -3.715743
     2  C  -10.936677  29.154818  -5.539849   0.296301  -0.655437  -0.526795
     3  C   -1.677649  -5.539849  20.568364  -1.537242  -1.779459   1.037874
     4  N   -0.665243   0.296301  -1.537242   7.957726   0.169824   0.052924
     5  C    1.485101  -0.655437  -1.779459   0.169824  10.335375  -2.531535
     6  C   -3.715743  -0.526795   1.037874   0.052924  -2.531535  11.675879
     7  C   -1.175222 -10.702172  -3.777829   0.996746  -0.621774  -0.112769
     8  N   -0.411438   1.810885   0.807778  -0.127793   0.074429  -0.082251
     9  C    0.024121  -0.282585  -0.422130   0.027844  -0.037334  -0.017854
    10  C   -0.129848   0.075506  -0.034248   0.029590   0.019671  -0.039183
    11  C    0.153484  -0.028599  -1.370741  -0.029300  -0.059857  -0.122878
    12  O    0.026933  -0.010587   0.129338  -0.257066  -0.021789  -0.029111
    13  O   -0.024275   0.061947  -0.102417   0.015061   0.011397   0.011369
    14  O   -0.019452   0.110234  -0.132282  -0.064085  -0.013655  -0.011881
    15  H    0.022986  -0.330061  -0.040636   0.001939  -0.001949  -0.001482
    16  H    0.009231  -0.073079   0.014667  -0.000575   0.002653  -0.002408
    17  H   -0.005742  -0.023436  -0.023308   0.005793  -0.001503   0.000574
    18  H   -0.079075   0.502866   0.414317  -0.016243   0.002487  -0.002964
    19  H    0.083191  -0.170074  -0.439127   0.002155   0.006025  -0.054273
    20  H    0.029429   0.351469   0.049207  -0.002368  -0.000700  -0.000138
    21  H    0.089401   1.152735  -0.228881   0.007306   0.025192   0.010338
    22  H   -0.447098  -0.785781  -1.144935   0.178009  -0.170956   0.306453
    23  H    0.262532  -0.243861   0.313088  -0.171519  -0.510178   0.110198
    24  H    0.438351   0.343861  -0.399814   0.024599   0.367499  -1.160501
    25  H   -2.528142   1.306353   0.257741  -0.064530  -0.239588   0.670611
    26  C   -0.425579   0.897624   0.040975  -0.013927  -0.032698   0.106282
    27  H    0.014127  -0.340336   0.475692   0.054702  -0.486826  -0.090325
    28  H    0.012841  -0.164938  -0.185299   0.017022   0.006701  -0.022508
    29  H    0.000667  -0.017829   0.030549  -0.001204  -0.001660   0.001331
    30  H   -0.008936   0.023541  -0.005367  -0.009108  -0.005287   0.008412
    31  H    0.005734   0.010153  -0.014633   0.000065  -0.006949  -0.001696
    32  H    0.000994  -0.014788   0.015360   0.002665  -0.001347   0.001647
    33  H   -0.004921  -0.007558   0.026195   0.010438   0.006594  -0.000402
    34  O    0.002616  -0.064145  -0.000425   0.023887  -0.007658   0.016527
    35  H    0.003037  -0.007335  -0.058498   0.015088   0.006246  -0.003709
    36  H   -0.001171   0.004154   0.034603  -0.000370   0.000772  -0.000175
    37  H   -0.049265   0.081797  -0.077678   0.006664  -0.007628   0.021816
    38  H    0.062629  -0.175560   0.016504  -0.000955  -0.023087   0.025367
    39  H   -0.014441   0.312657   0.049274  -0.005528   0.014569  -0.021077
    40  O    0.000508  -0.006064  -0.000746   0.000026  -0.000039  -0.000112
    41  H    0.000169   0.001304   0.000321  -0.000084   0.000078  -0.000135
    42  H   -0.000023  -0.000145  -0.000590   0.000093  -0.000007   0.000044
               7          8          9         10         11         12
     1  C   -1.175222  -0.411438   0.024121  -0.129848   0.153484   0.026933
     2  C  -10.702172   1.810885  -0.282585   0.075506  -0.028599  -0.010587
     3  C   -3.777829   0.807778  -0.422130  -0.034248  -1.370741   0.129338
     4  N    0.996746  -0.127793   0.027844   0.029590  -0.029300  -0.257066
     5  C   -0.621774   0.074429  -0.037334   0.019671  -0.059857  -0.021789
     6  C   -0.112769  -0.082251  -0.017854  -0.039183  -0.122878  -0.029111
     7  C   32.465003  -5.700263  -1.180360   0.648799  -2.041025   0.029839
     8  N   -5.700263  15.272733  -0.187208  -0.600137  -1.140774   0.000155
     9  C   -1.180360  -0.187208   6.528461  -0.029983   1.142382   0.001494
    10  C    0.648799  -0.600137  -0.029983   6.457019  -1.110383   0.000527
    11  C   -2.041025  -1.140774   1.142382  -1.110383   9.781140   0.003651
    12  O    0.029839   0.000155   0.001494   0.000527   0.003651   8.296301
    13  O   -0.008841  -0.000518   0.002467   0.001404  -0.004724  -0.093698
    14  O   -0.050319  -0.323127   0.034311   0.071994   0.191489   0.033798
    15  H    0.692824  -1.196299  -0.369656   0.227048   0.180267   0.000368
    16  H    0.064729  -0.158581   0.146823  -0.286024   0.290747   0.000059
    17  H    0.227005   0.146537  -0.137164  -0.441028   0.129909  -0.000679
    18  H   -0.009527   0.483253  -0.256561   0.142566  -1.356422  -0.000072
    19  H    0.117153  -0.229825   0.160719   0.384121   0.140612   0.008885
    20  H   -0.095009  -0.168028  -0.281462  -0.026754  -0.078202  -0.000019
    21  H   -3.027603  -0.194320   0.049150  -0.081630   0.774799   0.000545
    22  H   -0.926860   0.047992  -0.133962  -0.036640  -0.298980  -0.112861
    23  H   -0.050953   0.007007  -0.001216   0.000079   0.001751  -0.000343
    24  H    0.128951  -0.000636   0.000342   0.000868   0.003779  -0.000134
    25  H   -0.202758   0.018301  -0.005953  -0.010695  -0.074882  -0.000122
    26  C   -1.112699   0.939040  -0.272045   0.084230  -0.418062  -0.001860
    27  H    0.088515  -0.005460   0.002471   0.001001  -0.010278   0.111601
    28  H    0.394048  -0.066063  -0.000180  -0.200645   0.166951   0.003468
    29  H    0.029641  -0.083862  -0.009736   0.023073  -0.006595   0.004145
    30  H   -0.002724  -0.000809  -0.001385   0.000552  -0.002742   0.294149
    31  H   -0.002463   0.001333   0.002146  -0.001331   0.009539   0.302857
    32  H    0.001717   0.005543  -0.001071  -0.001518   0.000403   0.002568
    33  H    0.018329  -0.015340   0.005947   0.013320  -0.016139  -0.011341
    34  O   -0.076805   0.021179  -0.006336  -0.010850  -0.000624  -0.103646
    35  H    0.000368  -0.010558   0.014814  -0.027084   0.014765  -0.006417
    36  H    0.006034   0.006013  -0.000983   0.005712  -0.008908   0.002120
    37  H    0.040242  -0.427171  -0.046558   0.101396  -0.129752  -0.000585
    38  H    0.115357   0.231356   0.009630  -0.057831   0.120161  -0.000032
    39  H   -0.279422  -0.664922   0.065751   0.019910   0.037556  -0.000134
    40  O    0.016883  -0.017527  -0.017161   0.012881  -0.000889   0.000102
    41  H   -0.003618   0.000121   0.002332  -0.001653   0.000781  -0.000012
    42  H    0.001298   0.001215  -0.000920  -0.000831  -0.000743  -0.000074
              13         14         15         16         17         18
     1  C   -0.024275  -0.019452   0.022986   0.009231  -0.005742  -0.079075
     2  C    0.061947   0.110234  -0.330061  -0.073079  -0.023436   0.502866
     3  C   -0.102417  -0.132282  -0.040636   0.014667  -0.023308   0.414317
     4  N    0.015061  -0.064085   0.001939  -0.000575   0.005793  -0.016243
     5  C    0.011397  -0.013655  -0.001949   0.002653  -0.001503   0.002487
     6  C    0.011369  -0.011881  -0.001482  -0.002408   0.000574  -0.002964
     7  C   -0.008841  -0.050319   0.692824   0.064729   0.227005  -0.009527
     8  N   -0.000518  -0.323127  -1.196299  -0.158581   0.146537   0.483253
     9  C    0.002467   0.034311  -0.369656   0.146823  -0.137164  -0.256561
    10  C    0.001404   0.071994   0.227048  -0.286024  -0.441028   0.142566
    11  C   -0.004724   0.191489   0.180267   0.290747   0.129909  -1.356422
    12  O   -0.093698   0.033798   0.000368   0.000059  -0.000679  -0.000072
    13  O    7.856334  -0.010666   0.000331  -0.000091   0.000963   0.000226
    14  O   -0.010666   9.420461   0.131263   0.005233  -0.056218  -0.003553
    15  H    0.000331   0.131263   3.308044   0.143024  -0.370413  -0.053364
    16  H   -0.000091   0.005233   0.143024   2.150533  -0.655426  -0.352989
    17  H    0.000963  -0.056218  -0.370413  -0.655426   2.454445   0.229035
    18  H    0.000226  -0.003553  -0.053364  -0.352989   0.229035   2.811553
    19  H   -0.002435   0.062763   0.088959   0.232781  -0.512822  -0.860614
    20  H   -0.000236  -0.023097  -0.750939  -0.257532   0.222380   0.078366
    21  H    0.000036   0.004825   0.112382   0.069856  -0.076640  -0.396418
    22  H    0.035436  -0.141647  -0.079188  -0.030817   0.106885   0.181978
    23  H    0.001928  -0.001138  -0.000177   0.000009   0.000054   0.000920
    24  H    0.000401  -0.000236   0.000162   0.000027   0.000039  -0.001977
    25  H   -0.000832  -0.003054  -0.005251   0.000836   0.000196   0.011473
    26  C    0.012907  -0.051110  -0.153978  -0.016398   0.017117   0.085214
    27  H   -0.017612   0.008080   0.001665   0.000696  -0.001829  -0.001610
    28  H   -0.006191  -0.218859   0.000254  -0.007745   0.089769  -0.006288
    29  H   -0.000582   0.273422   0.018805   0.000503  -0.003349   0.000484
    30  H    0.037352  -0.003538  -0.000241  -0.000011   0.000240   0.000126
    31  H    0.003647   0.004052   0.000254  -0.000092  -0.000470  -0.000778
    32  H    0.341063  -0.010720  -0.000676  -0.000076   0.000137   0.000104
    33  H    0.240650  -0.055874   0.000803   0.000532  -0.001805  -0.001519
    34  O   -0.006671  -0.025992  -0.001302  -0.000618  -0.001606   0.000753
    35  H    0.005122  -0.047202  -0.005172   0.001422   0.004738  -0.003548
    36  H    0.000945  -0.008502   0.000269   0.000171   0.000486   0.000472
    37  H    0.008100  -0.035317   0.016069  -0.000471   0.011293  -0.000899
    38  H   -0.016831   0.007502   0.008657   0.000376  -0.009342  -0.002446
    39  H    0.000671   0.015715   0.018183   0.000881   0.000365   0.012860
    40  O    0.000990  -0.018960   0.012897   0.001322  -0.000893  -0.000319
    41  H    0.000203   0.008806  -0.004139  -0.000217   0.001040   0.000133
    42  H   -0.000153   0.004448  -0.001778  -0.000218   0.001169  -0.000072
              19         20         21         22         23         24
     1  C    0.083191   0.029429   0.089401  -0.447098   0.262532   0.438351
     2  C   -0.170074   0.351469   1.152735  -0.785781  -0.243861   0.343861
     3  C   -0.439127   0.049207  -0.228881  -1.144935   0.313088  -0.399814
     4  N    0.002155  -0.002368   0.007306   0.178009  -0.171519   0.024599
     5  C    0.006025  -0.000700   0.025192  -0.170956  -0.510178   0.367499
     6  C   -0.054273  -0.000138   0.010338   0.306453   0.110198  -1.160501
     7  C    0.117153  -0.095009  -3.027603  -0.926860  -0.050953   0.128951
     8  N   -0.229825  -0.168028  -0.194320   0.047992   0.007007  -0.000636
     9  C    0.160719  -0.281462   0.049150  -0.133962  -0.001216   0.000342
    10  C    0.384121  -0.026754  -0.081630  -0.036640   0.000079   0.000868
    11  C    0.140612  -0.078202   0.774799  -0.298980   0.001751   0.003779
    12  O    0.008885  -0.000019   0.000545  -0.112861  -0.000343  -0.000134
    13  O   -0.002435  -0.000236   0.000036   0.035436   0.001928   0.000401
    14  O    0.062763  -0.023097   0.004825  -0.141647  -0.001138  -0.000236
    15  H    0.088959  -0.750939   0.112382  -0.079188  -0.000177   0.000162
    16  H    0.232781  -0.257532   0.069856  -0.030817   0.000009   0.000027
    17  H   -0.512822   0.222380  -0.076640   0.106885   0.000054   0.000039
    18  H   -0.860614   0.078366  -0.396418   0.181978   0.000920  -0.001977
    19  H    2.647085  -0.081345   0.270825  -0.463967  -0.001979   0.001610
    20  H   -0.081345   2.603611  -0.131987   0.053434   0.000188  -0.000540
    21  H    0.270825  -0.131987   3.645688  -0.066217  -0.000351   0.003963
    22  H   -0.463967   0.053434  -0.066217   6.320418   0.047612  -0.029855
    23  H   -0.001979   0.000188  -0.000351   0.047612   2.258008  -0.123029
    24  H    0.001610  -0.000540   0.003963  -0.029855  -0.123029   2.129260
    25  H   -0.015699   0.007564  -0.160572   0.009289  -0.004081  -0.143464
    26  C   -0.080883  -0.046963  -0.073305   0.162579   0.003351  -0.007981
    27  H    0.004462  -0.000684  -0.000202  -0.181986  -0.232696   0.015720
    28  H    0.009585   0.053821  -0.020054  -0.203340   0.000990   0.000538
    29  H   -0.000747  -0.008554   0.003269   0.024871  -0.000180   0.000006
    30  H   -0.000563  -0.000072  -0.000051  -0.011784   0.003106  -0.000210
    31  H    0.005591   0.000069   0.000268  -0.008932   0.003677  -0.000181
    32  H   -0.000622   0.000182  -0.000217   0.014650   0.000087  -0.000036
    33  H    0.000332  -0.000624   0.001801  -0.046825  -0.001007   0.000677
    34  O   -0.009597   0.000146   0.000652   0.028788   0.001654   0.000192
    35  H   -0.000307   0.001065   0.000975   0.047104  -0.001044   0.000086
    36  H   -0.001677  -0.000246  -0.000225  -0.024335   0.000026  -0.000013
    37  H   -0.012376  -0.017209   0.016020   0.032596   0.000427  -0.000565
    38  H    0.016846   0.009976   0.009176  -0.016673  -0.002093  -0.001823
    39  H   -0.004516   0.056381   0.072510   0.014828   0.000408  -0.000431
    40  O    0.001982  -0.003917   0.001538  -0.012530  -0.000009  -0.000002
    41  H   -0.000434   0.001713  -0.000647   0.001923   0.000001  -0.000004
    42  H   -0.000156   0.000100   0.000107   0.000394   0.000002   0.000001
              25         26         27         28         29         30
     1  C   -2.528142  -0.425579   0.014127   0.012841   0.000667  -0.008936
     2  C    1.306353   0.897624  -0.340336  -0.164938  -0.017829   0.023541
     3  C    0.257741   0.040975   0.475692  -0.185299   0.030549  -0.005367
     4  N   -0.064530  -0.013927   0.054702   0.017022  -0.001204  -0.009108
     5  C   -0.239588  -0.032698  -0.486826   0.006701  -0.001660  -0.005287
     6  C    0.670611   0.106282  -0.090325  -0.022508   0.001331   0.008412
     7  C   -0.202758  -1.112699   0.088515   0.394048   0.029641  -0.002724
     8  N    0.018301   0.939040  -0.005460  -0.066063  -0.083862  -0.000809
     9  C   -0.005953  -0.272045   0.002471  -0.000180  -0.009736  -0.001385
    10  C   -0.010695   0.084230   0.001001  -0.200645   0.023073   0.000552
    11  C   -0.074882  -0.418062  -0.010278   0.166951  -0.006595  -0.002742
    12  O   -0.000122  -0.001860   0.111601   0.003468   0.004145   0.294149
    13  O   -0.000832   0.012907  -0.017612  -0.006191  -0.000582   0.037352
    14  O   -0.003054  -0.051110   0.008080  -0.218859   0.273422  -0.003538
    15  H   -0.005251  -0.153978   0.001665   0.000254   0.018805  -0.000241
    16  H    0.000836  -0.016398   0.000696  -0.007745   0.000503  -0.000011
    17  H    0.000196   0.017117  -0.001829   0.089769  -0.003349   0.000240
    18  H    0.011473   0.085214  -0.001610  -0.006288   0.000484   0.000126
    19  H   -0.015699  -0.080883   0.004462   0.009585  -0.000747  -0.000563
    20  H    0.007564  -0.046963  -0.000684   0.053821  -0.008554  -0.000072
    21  H   -0.160572  -0.073305  -0.000202  -0.020054   0.003269  -0.000051
    22  H    0.009289   0.162579  -0.181986  -0.203340   0.024871  -0.011784
    23  H   -0.004081   0.003351  -0.232696   0.000990  -0.000180   0.003106
    24  H   -0.143464  -0.007981   0.015720   0.000538   0.000006  -0.000210
    25  H    3.017481   0.060150   0.001954   0.003793  -0.000556  -0.000402
    26  C    0.060150   4.827397  -0.010361  -0.128406   0.013657   0.002179
    27  H    0.001954  -0.010361   1.491063  -0.007475   0.000682  -0.000385
    28  H    0.003793  -0.128406  -0.007475   1.070500  -0.303455   0.006265
    29  H   -0.000556   0.013657   0.000682  -0.303455   0.700113  -0.000199
    30  H   -0.000402   0.002179  -0.000385   0.006265  -0.000199   0.472197
    31  H   -0.000038  -0.001355  -0.009282   0.005750  -0.000531  -0.061258
    32  H    0.000092  -0.001057  -0.001203  -0.006415   0.007103   0.003603
    33  H   -0.000147  -0.010274   0.004030   0.035543  -0.001589  -0.010080
    34  O    0.000351   0.001035  -0.008672  -0.028485   0.011553   0.004267
    35  H   -0.000425  -0.000086  -0.000176   0.038284  -0.001316  -0.003260
    36  H    0.000083   0.001017   0.001561   0.006003   0.000574   0.000513
    37  H    0.001316   0.322819  -0.002863   0.050373   0.006731   0.001142
    38  H   -0.003492  -0.032222   0.000887   0.026351  -0.000145  -0.001006
    39  H    0.007235   0.203312   0.000229  -0.071435   0.006709   0.000005
    40  O   -0.000056  -0.006356   0.000473   0.005391  -0.044777  -0.000260
    41  H    0.000033   0.001214   0.000037  -0.009382   0.007393  -0.000020
    42  H   -0.000004  -0.000922  -0.000071   0.006047  -0.010788   0.000004
              31         32         33         34         35         36
[...]
 180289,-0.00066671,-0.00042292,0.00007123,-0.00037266,0.00023892,0.000
 06099,0.00020442,-0.00002231,0.00000065,0.00005021,-0.00021641,-0.0003
 2796,-0.00029537,0.00001705,-0.00000890,-0.00028022,0.00010034,-0.0000
 9116,-0.00010561,-0.00055964,0.00002579,-0.00001431,-0.00016571,-0.000
 03922,0.00003652,0.00005558,-0.00005571,0.00003395,-0.00003131,0.00006
 680,0.00022206,-0.00006196,-0.00009118,0.00022905,-0.00021518,0.000067
 60,-0.00008763,-0.00002069,-0.00001028,0.00000068,-0.00000171,0.000005
 32,-0.00000719,0.00000697,0.00000568,-0.00001256,0.00001542,0.04125254
 ,-0.01276214,-0.05672421,-0.00016879,-0.00028406,-0.00001796,0.0005510
 2,0.00055227,-0.00009756,-0.00001194,-0.00001538,-0.00000946,0.0000072
 8,-0.00004485,0.00006776,0.00002364,-0.00004459,-0.00002619,0.00006420
 ,0.00011252,0.00005558,0.00001221,-0.00010968,0.00005233,-0.00005794,0
 .00005864,0.00002239,0.00004868,-0.00002489,0.00003503,0.00001269,0.00
 000969,-0.00001082,-0.01809262,0.00425288,0.00467607,-0.05385944,0.020
 80257,0.06788918,-0.00008451,-0.00033894,-0.00003360,-0.00006429,0.000
 16557,0.00004150,-0.00016820,-0.00014624,-0.00000488,0.00028850,0.0000
 1617,0.00002429,0.00001769,0.00006853,0.00002631,-0.00010238,0.0000346
 1,0.00005793,0.00040623,-0.00012367,0.00062287,0.00219795,0.00117546,-
 0.00330543,0.00312792,0.00221012,0.00076362,-0.00002616,0.00001931,0.0
 0013375,0.00019602,0.00017928,-0.00002141,-0.00004662,0.00005813,-0.00
 008708,-0.00027868,-0.00018884,-0.00009261,-0.00020048,-0.00059707,0.0
 0000467,-0.00014881,-0.00011561,-0.00000188,-0.00000979,-0.00003657,-0
 .00003385,-0.00006769,-0.00001058,0.00003151,-0.00000179,-0.00000592,-
 0.00007193,-0.00008090,0.00010295,0.00008583,0.00045772,-0.00107422,-0
 .00080390,-0.00027915,0.00045171,-0.00100300,0.00006935,0.00000923,0.0
 0007521,0.00000818,0.00001151,-0.00000518,-0.00001678,0.00000112,-0.00
 001416,0.00000007,0.00011575,-0.00011577,-0.15239654,-0.11910846,-0.02
 226483,-0.00002057,-0.00008752,0.00002111,0.00040994,0.00105234,0.0000
 6314,-0.00012813,0.00011244,-0.00005248,0.00008831,-0.00001381,0.00011
 933,0.00002309,-0.00000095,0.00001682,0.00005459,0.00004414,-0.0000345
 0,0.00011786,0.00016986,0.00004392,-0.00006217,-0.00000618,-0.00009956
 ,0.00008307,0.00003360,0.00013142,0.00000203,0.00000964,0.00001945,0.0
 0492904,0.00673994,0.00145260,-0.01617639,-0.02274280,-0.00393036,0.15
 783797,-0.00008738,-0.00008739,-0.00005784,0.00006500,-0.00007268,-0.0
 0007974,0.00004934,-0.00013962,0.00000575,-0.00005890,0.00004898,-0.00
 001607,-0.00001657,0.00001636,-0.00001773,-0.00003889,0.00001887,0.000
 02760,0.00188924,0.00188095,0.00165739,-0.00599914,-0.01052242,-0.0112
 3022,-0.00218118,0.00041799,0.00068797,0.00031292,0.00032462,0.0000895
 4,0.00018503,0.00015462,0.00026905,-0.00006356,0.00001082,-0.00000832,
 -0.00017870,0.00010249,0.00006944,-0.00053872,-0.00108071,0.00009533,-
 0.00000397,-0.00010928,0.00012529,0.00003444,0.00002660,-0.00013256,0.
 00008277,0.00001953,0.00022418,0.00001337,-0.00001937,-0.00007842,-0.0
 0003176,0.00001577,0.00012669,0.00123732,-0.00018406,-0.00043304,-0.00
 043704,0.00077325,-0.00138616,0.00008565,0.00001231,0.00003149,0.00000
 093,0.00000387,0.00000519,-0.00000908,-0.00000009,-0.00000665,0.000000
 46,0.00001285,-0.00002867,-0.11807790,-0.18804643,-0.02553479,0.000013
 85,0.00000623,-0.00000955,0.00094982,0.00173004,-0.00030767,-0.0002196
 0,0.00021360,0.00005233,0.00004420,-0.00000816,0.00001892,0.00005653,-
 0.00001215,-0.00000414,0.00003304,-0.00000612,-0.00002493,0.00027757,-
 0.00008047,-0.00010359,-0.00013001,-0.00001889,-0.00013906,0.00016590,
 0.00006265,0.00020550,0.00000134,0.00001598,0.00002352,-0.01618890,-0.
 01640514,-0.00397295,0.00682551,0.00788170,0.00223926,0.13185728,0.203
 11621,-0.00011617,-0.00005119,0.00000327,0.00021375,0.00047220,-0.0000
 9393,0.00000451,-0.00020586,-0.00002415,0.00003891,0.00009406,0.000011
 94,-0.00004603,0.00004640,-0.00003530,-0.00003136,0.00002914,0.0000316
 3,-0.00126264,-0.00553566,0.00281386,-0.02063148,-0.03054435,-0.020863
 67,-0.00450643,0.00028998,0.00104921,0.00018624,0.00038842,0.00029844,
 0.00043071,0.00033570,0.00027687,-0.00000643,0.00000797,0.00007694,0.0
 0009615,0.00017555,0.00021169,-0.00089306,-0.00135489,0.00086018,0.000
 43719,0.00006813,-0.00009831,0.00004112,0.00008157,-0.00008120,0.00000
 371,0.00008614,0.00016611,0.00011023,0.00005117,-0.00008465,0.00000286
 ,0.00011557,0.00019099,0.00127824,0.00088717,0.00048213,0.00093727,0.0
 0166197,0.00030930,0.00011990,0.00003130,0.00000997,0.00000057,0.00001
 018,0.00000677,-0.00000579,0.00000406,-0.00000332,-0.00001331,0.000033
 05,-0.00000795,-0.02139334,-0.02447842,-0.05343664,0.00000900,-0.00000
 347,-0.00001547,0.00134265,0.00193080,-0.00138793,-0.00015236,-0.00004
 730,-0.00020522,-0.00004130,0.00000382,-0.00009062,0.00004249,-0.00002
 046,-0.00002636,-0.00007512,-0.00004925,-0.00000857,0.00008098,-0.0001
 9139,-0.00023872,-0.00007757,-0.00001643,-0.00001079,0.00007040,0.0000
 3758,0.00003292,0.00000647,0.00000894,0.00000166,0.01272362,0.01309664
 ,0.00389727,0.00281280,0.00497433,0.00120440,0.02820063,0.03761648,0.0
 6469788,0.00013192,-0.00011244,0.00000643,-0.00012515,0.00022171,0.000
 03901,-0.00013157,-0.00031640,-0.00008900,0.00021847,0.00026200,-0.000
 00063,0.00007580,-0.00000771,0.00002238,-0.00008817,0.00000673,0.00000
 255,0.00018122,-0.00023122,0.00015803,0.00133032,0.00105791,0.00009342
 ,-0.00098386,0.00103681,-0.00025220,0.00009500,-0.00013892,-0.00017285
 ,-0.00007354,-0.00005203,0.00004171,-0.00021766,0.00035701,-0.00019007
 ,-0.00094171,0.00052621,0.00035351,-0.00438236,0.01004743,-0.00472014,
 -0.00032868,0.00000664,0.00023028,0.00006999,0.00008765,-0.00004920,-0
 .00015508,0.00004433,-0.00001634,0.00005935,-0.00001817,0.00000986,0.0
 0007259,-0.00005625,0.00008879,0.00022832,-0.00007789,0.00007149,0.000
 01426,0.00016359,-0.00006310,0.00010285,-0.00028324,0.00018927,0.00000
 138,0.00000103,0.00001000,0.00000609,-0.00000162,-0.00000061,-0.000004
 06,0.00002067,0.00000423,0.00001630,-0.00010601,-0.00026498,-0.0001337
 1,-0.00042429,0.00003326,-0.00296790,-0.00262934,-0.00022520,-0.005107
 14,-0.00243705,0.00173951,0.00028073,-0.00010815,0.00027613,0.00024935
 ,-0.00012741,0.00002257,0.00012043,-0.00009126,-0.00017311,0.00134004,
 -0.00060289,-0.00068286,-0.00051188,0.00012636,-0.00104279,0.00080223,
 0.00009066,0.00151965,-0.00007465,0.00003992,0.00018321,-0.00019627,-0
 .00008394,-0.00000166,0.00005672,-0.00012384,-0.00000749,0.00006378,0.
 00015465,0.00002342,0.11361721,-0.00003194,0.00009586,0.00000594,-0.00
 014836,-0.00014825,0.00002581,0.00005690,0.00016881,0.00006715,0.00005
 803,0.00005733,0.00001066,-0.00001352,-0.00010608,-0.00003215,0.000122
 97,0.00004213,0.00000827,-0.00008431,0.00021709,-0.00031580,-0.0001991
 8,-0.00068971,0.00017424,-0.00030039,0.00069850,-0.00033962,0.00008578
 ,-0.00017913,-0.00019400,0.00001198,0.00001759,0.00008435,0.00023494,0
 .00014276,0.00009532,0.00085346,0.00005739,-0.00032654,0.00839862,-0.0
 0519819,0.00473995,0.00017429,-0.00054795,0.00010746,-0.00002883,-0.00
 004451,0.00004601,0.00004869,0.00002547,-0.00005875,-0.00000150,-0.000
 04913,0.00002822,0.00003960,-0.00000386,0.00000204,0.00000340,-0.00031
 061,0.00013714,-0.00001618,-0.00011243,0.00003851,-0.00014602,0.000096
 40,-0.00017070,-0.00001144,-0.00000366,-0.00000449,0.00000820,0.000003
 31,-0.00000085,-0.00001225,0.00002242,-0.00000449,-0.00005854,0.000317
 34,0.00005081,-0.00014174,-0.00016923,-0.00002501,0.00061808,0.0013158
 3,-0.00017086,0.00053946,-0.00256847,-0.00187445,-0.00018662,-0.000045
 39,-0.00011590,-0.00013516,-0.00005214,-0.00003460,-0.00004316,-0.0001
 6277,0.00003856,-0.00115027,0.00001070,0.00066363,0.00053174,0.0004033
 5,0.00073703,-0.00069627,-0.00059682,-0.00115506,0.00005610,-0.0001942
 6,0.00005900,-0.00000124,0.00004330,0.00022923,0.00005630,-0.00002914,
 0.00000589,-0.00004136,-0.00010490,0.00002538,-0.19650187,0.40776403,0
 .00002163,-0.00005712,-0.00000697,0.00006270,0.00012082,0.00004540,-0.
 00005474,-0.00015106,-0.00005881,0.00003138,0.00004283,0.00000834,0.00
 001268,0.00004357,0.00000364,-0.00006747,-0.00000444,-0.00000033,-0.00
 008289,-0.00000182,0.00007076,0.00024190,0.00052416,0.00021942,0.00009
 200,-0.00002249,0.00016404,-0.00008195,-0.00040004,-0.00001994,0.00004
 932,-0.00000416,0.00006742,-0.00015332,0.00008616,0.00015565,-0.000408
 03,0.00006947,0.00061982,-0.00443316,0.00515215,0.00338737,-0.00004884
 ,-0.00026243,-0.00077227,0.00001267,0.00007305,0.00004368,0.00008376,0
 .00002142,0.00031579,-0.00002003,0.00005737,0.00001404,0.00000512,-0.0
 0002535,0.00002925,0.00001287,0.00025717,-0.00002740,0.00002664,0.0000
 6371,-0.00000994,0.00006264,-0.00010971,0.00003401,0.00000240,0.000003
 39,-0.00000476,-0.00000368,0.00000123,-0.00000703,0.00000704,0.0000009
 2,-0.00000870,-0.00009242,0.00016376,-0.00068910,0.00001068,-0.0000516
 1,-0.00002149,-0.00086145,-0.00094104,-0.00046607,0.00101847,-0.002606
 78,-0.00925379,0.00002546,0.00000517,-0.00012590,0.00023687,-0.0001056
 9,-0.00009982,-0.00018558,0.00008317,-0.00010106,0.00077142,-0.0000545
 5,-0.00084896,-0.00044178,0.00018352,-0.00008914,0.00042472,-0.0001718
 4,0.00021253,0.00017941,-0.00000582,0.00010637,0.00003525,0.00003777,0
 .00012710,-0.00001337,-0.00002044,0.00006421,0.00005128,0.00000079,0.0
 0013054,-0.07917806,0.03765310,0.68540757,-0.00000705,0.00000984,0.000
 00003,0.00003343,-0.00001944,-0.00000117,0.00002730,0.00001158,-0.0000
 1269,-0.00006263,-0.00007045,0.00000323,-0.00001772,0.00003357,-0.0000
 0029,-0.00001059,-0.00000880,-0.00000121,0.00000274,0.00001117,0.00001
 717,-0.00014066,-0.00004203,-0.00002034,0.00010310,-0.00019656,-0.0000
 0195,-0.00001650,0.00004241,0.00000695,0.00000539,-0.00000046,-0.00001
 390,-0.00000717,-0.00011621,0.00011622,0.00002088,-0.00020979,0.000243
 14,-0.00209336,0.00127080,0.00053934,0.00006937,0.00012676,0.00011128,
 -0.00000792,-0.00000311,0.00001071,-0.00001083,0.00000724,-0.00001499,
 -0.00000400,0.00000422,-0.00000129,-0.00001365,0.00000556,-0.00001194,
 -0.00002112,-0.00004533,0.00000835,0.00000068,-0.00000715,0.00000145,0
 .00001506,0.00001318,0.00000439,0.00000058,0.00000394,-0.00000376,-0.0
 0000178,0.00000112,-0.00000146,0.00000186,-0.00000406,-0.00000178,-0.0
 0000987,0.00000648,-0.00000971,0.00006697,0.00014596,-0.00001708,0.000
 05810,0.00020318,0.00000497,0.00307642,-0.00149177,-0.00237719,-0.0000
 6548,0.00005125,-0.00013942,0.00002076,0.00001604,-0.00003467,-0.00016
 177,0.00013596,0.00001292,0.00012676,0.00020201,-0.00033251,-0.0000631
 1,-0.00006788,0.00006495,0.00005248,0.00006274,-0.00003626,0.00002606,
 0.00001607,-0.00003607,0.00011783,0.00002931,-0.00000761,-0.00002659,0
 .00004751,-0.00002077,-0.00001574,-0.00004455,0.00002690,-0.01519961,0
 .03180166,-0.03716649,0.01297633,-0.00000417,-0.00000774,-0.00000417,0
 .00004587,-0.00001331,-0.00001540,0.00000733,0.00002004,0.00001244,-0.
 00003740,-0.00004940,-0.00000574,0.00000138,0.00001871,0.00000676,-0.0
 0001394,-0.00001592,-0.00000497,0.00006872,-0.00007317,0.00002709,-0.0
 0012421,-0.00002819,-0.00014241,-0.00002986,-0.00019469,-0.00003687,-0
 .00002430,0.00011124,-0.00000085,-0.00000987,0.00001557,-0.00003980,-0
 .00003327,-0.00006861,-0.00004157,-0.00007388,-0.00008748,-0.00016369,
 0.00119478,-0.00093856,-0.00050524,0.00012191,0.00019203,0.00025696,0.
 00000012,-0.00001165,-0.00001542,0.00000016,-0.00000482,-0.00006538,0.
 00000201,0.00000172,-0.00001514,-0.00001141,0.00000338,-0.00001648,-0.
 00000790,-0.00006425,0.00002416,-0.00000856,0.00000145,0.00000570,0.00
 000970,0.00003230,0.00000515,0.00000343,-0.00000095,0.00000206,-0.0000
 0131,-0.00000165,0.00000296,0.00000309,-0.00001127,0.00000564,0.000074
 46,-0.00017834,0.00037400,0.00004560,0.00008145,0.00001012,0.00005498,
 0.00040438,0.00021104,-0.00218457,0.00061742,0.00122283,0.00003356,0.0
 0001900,0.00004709,-0.00001045,0.00003072,0.00001584,0.00010123,0.0000
 4591,0.00002708,-0.00001199,0.00004997,0.00021225,-0.00002674,-0.00005
 722,-0.00001253,0.00002959,0.00001774,-0.00000523,0.00000969,0.0000262
 6,-0.00000541,-0.00001171,-0.00002116,-0.00011410,-0.00002280,0.000026
 73,-0.00003623,-0.00001559,0.00003859,-0.00008288,0.02755438,-0.095951
 51,0.18466012,-0.02640126,0.08759980,-0.00000533,0.00002214,0.00000274
 ,-0.00003150,-0.00004560,-0.00001067,0.00002082,0.00004620,0.00001645,
 -0.00000923,-0.00001599,-0.00000302,-0.00000440,-0.00001714,-0.0000017
 5,0.00002581,0.00000375,-0.00000110,0.00001632,0.00000338,-0.00005830,
 -0.00004315,-0.00018727,-0.00006893,-0.00005834,0.00004939,-0.00000233
 ,0.00003328,0.00003108,-0.00000962,-0.00000442,0.00000697,-0.00000275,
 0.00005146,-0.00003969,-0.00005641,0.00011417,-0.00007830,-0.00020426,
 0.00098434,-0.00142967,0.00032912,0.00002818,0.00011124,0.00007604,-0.
 00000215,-0.00001138,-0.00000260,-0.00001801,-0.00001205,-0.00004906,0
 .00000478,-0.00001641,-0.00000221,0.00000363,0.00000328,-0.00000450,-0
 .00001290,-0.00008977,0.00000817,-0.00001032,-0.00003063,0.00000850,-0
 .00002209,0.00004218,-0.00000811,-0.00000120,-0.00000044,0.00000334,0.
 00000209,-0.00000091,0.00000316,-0.00000324,0.00000149,0.00000455,0.00
 002943,-0.00001890,0.00020373,-0.00000127,0.00002315,0.00000841,0.0001
 3216,0.00036916,0.00005691,-0.00157081,0.00207520,-0.00101348,-0.00001
 006,0.00000744,0.00004603,-0.00008101,0.00004312,0.00003258,0.00004678
 ,0.00000450,0.00007646,-0.00025005,0.00009647,0.00022625,0.00013613,-0
 .00007509,0.00008279,-0.00010764,0.00003548,-0.00013633,-0.00003054,0.
 00001496,-0.00003265,-0.00001527,0.00001952,0.00003991,0.00001331,-0.0
 0001328,-0.00000769,-0.00001816,-0.00002014,-0.00002933,-0.01491081,0.
 13233579,-0.47924802,0.02013297,-0.14915491,0.50376801,-0.00001894,0.0
 0001366,-0.00000019,0.00003484,-0.00003029,-0.00000199,0.00002368,0.00
 003085,-0.00000100,-0.00006560,-0.00007809,-0.00000468,-0.00001985,0.0
 0002279,0.00000080,0.00000035,-0.00000617,-0.00000108,-0.00003115,0.00
 003149,0.00000537,-0.00020532,-0.00006099,-0.00000557,0.00010114,-0.00
 019858,0.00011096,-0.00001446,0.00002710,0.00003678,0.00002128,0.00001
 027,0.00001952,0.00002478,-0.00015120,-0.00000805,0.00002788,-0.000128
 79,-0.00003621,-0.00104151,-0.00001965,-0.00126657,0.00016601,-0.00005
 784,-0.00022491,-0.00003017,-0.00006438,0.00002991,0.00008899,-0.00000
 386,0.00000809,-0.00001010,0.00000430,-0.00000152,-0.00002152,0.000016
 80,-0.00001363,-0.00002668,-0.00001922,-0.00001548,-0.00000165,-0.0000
 1993,0.00000187,0.00001551,0.00004796,0.00001334,0.00000069,0.00000267
 ,-0.00000055,-0.00000177,0.00000015,-0.00000084,0.00000220,-0.00000474
 ,-0.00000083,-0.00000696,0.00004110,-0.00003964,0.00006768,0.00015772,
 -0.00000089,0.00020225,0.00032125,-0.00012206,0.00073453,0.00100120,0.
 00291377,-0.00002060,0.00004210,-0.00001591,-0.00007964,0.00007749,0.0
 0002609,-0.00000702,0.00004865,0.00003199,-0.00003006,0.00011217,0.000
 03302,0.00005912,-0.00027568,0.00003224,-0.00005667,0.00031524,0.00003
 065,-0.00006486,0.00008212,-0.00013928,0.00000592,0.00002046,0.0000239
 6,-0.00000887,0.00001283,0.00001246,-0.00000355,-0.00003033,0.00001167
 ,-0.08751134,0.15624995,0.11981493,0.00115507,-0.00029679,-0.00455373,
 0.08654635,-0.00001270,-0.00001461,-0.00000584,0.00007424,0.00001922,0
 .00000364,-0.00000877,-0.00000685,-0.00000531,-0.00003746,-0.00004438,
 -0.00000388,-0.00000348,0.00003004,0.00000329,-0.00002678,-0.00001426,
 -0.00000285,-0.00003222,-0.00001398,0.00004503,-0.00015760,0.00015039,
 -0.00001074,0.00011635,-0.00027219,0.00009857,-0.00007095,-0.00012119,
 -0.00001429,0.00004311,0.00002585,0.00000868,-0.00005399,-0.00006126,-
 0.00000930,-0.00010954,-0.00001101,0.00000738,0.00010229,0.00026188,0.
 00055783,0.00015116,-0.00015575,-0.00030536,0.00000044,0.00002399,0.00
 002952,0.00007943,0.00001409,0.00016391,-0.00002094,0.00003950,-0.0000
 0458,-0.00002324,0.00000043,-0.00000556,-0.00002418,0.00008715,-0.0000
 0745,0.00000425,0.00000939,0.00000406,0.00002868,0.00001213,0.00001147
 ,0.00000403,-0.00000055,0.00000067,-0.00000343,-0.00000070,0.00000041,
 0.00000526,-0.00001035,-0.00000039,-0.00001501,0.00000247,-0.00010165,
 0.00004998,0.00008110,0.00000465,0.00003822,0.00016056,-0.00019873,-0.
 00030846,-0.00122199,-0.00110143,0.00002584,0.00001629,0.00001339,0.00
 002948,0.00001697,0.00000122,0.00002901,0.00001601,-0.00000329,0.00010
 530,-0.00000721,-0.00001451,-0.00012807,-0.00005664,-0.00000854,0.0001
 3041,0.00001113,0.00000868,0.00004992,0.00005417,0.00000750,0.00002393
 ,0.00001555,0.00001118,-0.00002191,0.00000695,0.00002151,0.00001563,-0
 .00000698,0.00001783,0.16272625,-0.30423147,-0.22430844,-0.00553068,0.
 00842546,0.01591170,-0.15724380,0.29677066,0.00000972,-0.00000329,0.00
 000440,-0.00002218,0.00000793,-0.00002691,-0.00000053,-0.00000929,-0.0
 0000714,0.00000097,0.00000349,-0.00000523,0.00000220,0.00000186,0.0000
 0652,-0.00000325,-0.00000230,0.00000243,0.00004963,-0.00005164,0.00009
 525,0.00010958,0.00011510,-0.00014599,-0.00003556,0.00003804,0.0000646
 1,0.00006642,0.00021733,0.00010212,-0.00004262,-0.00002607,-0.00004542
 ,0.00001408,-0.00002948,-0.00011144,-0.00012975,0.00004513,-0.00004981
 ,-0.00168240,0.00147229,-0.00196746,-0.00006568,0.00005572,0.00018024,
 0.00001092,-0.00000834,-0.00003069,-0.00011137,-0.00002756,-0.00010665
 ,0.00001895,-0.00002280,-0.00000835,-0.00000829,0.00001289,0.00000044,
 0.00002031,-0.00000340,-0.00003984,0.00000051,0.00002271,-0.00002422,0
 .00001214,-0.00000652,0.00005566,0.00000002,0.00000008,0.00000420,0.00
 000064,-0.00000051,0.00000271,-0.00000089,0.00000020,0.00000341,0.0000
 1122,-0.00006517,0.00008175,0.00000396,0.00000727,0.00001757,-0.000126
 16,-0.00034941,0.00017124,0.00259772,-0.00146418,0.00315732,0.00005262
 ,-0.00000903,0.00010181,-0.00006928,0.00004856,0.00006681,0.00003354,-
 0.00001676,0.00000620,0.00013465,-0.00004297,-0.00002935,0.00009363,-0
 .00015596,-0.00028691,0.00003795,0.00020997,0.00042761,-0.00015497,0.0
 0004679,-0.00003209,-0.00001394,-0.00001801,-0.00004454,-0.00000105,-0
 .00000216,-0.00002012,0.00000736,0.00002051,-0.00002187,0.09692241,-0.
 17254624,-0.19936748,0.01895960,-0.03664487,-0.02404002,-0.11670280,0.
 20918006,0.22185920\\-0.00000016,-0.00000156,-0.00000100,-0.00000127,0
 .00000077,0.00000025,-0.00000006,-0.00000029,-0.00000063,0.00000437,0.
 00000241,0.00000177,-0.00000031,0.00000025,-0.00000084,-0.00000012,0.0
 0000114,-0.00000149,0.00000233,-0.00000257,0.00000492,0.00000103,0.000
 00485,-0.00000794,-0.00000276,0.00000164,0.00000427,0.00000174,-0.0000
 0195,-0.00000165,-0.00000080,-0.00000122,-0.00000068,0.00000739,0.0000
 0002,0.00000715,0.00000036,0.00000251,-0.00000113,-0.00000287,0.000000
 59,0.00001472,-0.00000050,-0.00000140,-0.00000056,-0.00000038,0.000000
 42,0.00000092,-0.00000004,-0.00000021,0.00000145,0.00000108,-0.0000004
 7,0.00000080,0.00000023,0.00000008,-0.00000020,-0.00000007,-0.00000141
 ,0.00000060,-0.00000091,0.00000088,0.00000018,-0.00000012,0.00000195,-
 0.00000038,0.00000018,-0.00000005,-0.00000125,0.00000017,-0.00000012,-
 0.00000078,0.00000064,-0.00000026,-0.00000053,-0.00000102,-0.00000387,
 -0.00000277,-0.00000391,-0.00000664,-0.00000221,0.00000977,0.00000525,
 0.00000559,0.00000016,0.00000485,-0.00000797,0.00000604,0.00000734,-0.
 00000987,-0.00002171,-0.00000202,-0.00000676,-0.00000114,-0.00000045,0
 .00000031,0.00000120,-0.00000495,0.00000672,0.00001186,-0.00000045,0.0
 0000521,-0.00000978,-0.00000432,-0.00000925,0.00000328,-0.00000109,0.0
 0000024,-0.00000186,-0.00000026,0.00000063,-0.00000058,0.00000102,0.00
 000014,-0.00000044,-0.00000017,0.00000063,0.00000739,-0.00001172,0.000
 00138,-0.00000751,0.00000736,0.00000337,-0.00000090,0.00000413,-0.0000
 0334\\\@


 TIMES HAVE CHANGED. IN THE BIBLE WHEN AN ASS
 SPOKE IT WAS CONSIDERED A MIRACLE.
 Job cpu time:       1 days 20 hours  4 minutes 49.8 seconds.
 Elapsed time:       0 days  1 hours 34 minutes 33.2 seconds.
 File lengths (MBytes):  RWF=   1444 Int=      0 D2E=      0 Chk=     36 Scr=      8
 Normal termination of Gaussian 16 at Thu Dec  8 16:57:28 2022.
