 Entering Gaussian System, Link 0=g16
 Input=NicPy5hdCWPy.gjf
 Output=NicPy5hdCWPy.log
 Initial command:
 /sw/contrib/gaussian/g16/A03/g16/l1.exe "/gscratch/scrubbed/gds001/Gau-6723.inp" -scrdir="/gscratch/scrubbed/gds001/"
 Entering Link 1 = /sw/contrib/gaussian/g16/A03/g16/l1.exe PID=      6725.
  
 Copyright (c) 1988,1990,1992,1993,1995,1998,2003,2009,2016,
            Gaussian, Inc.  All Rights Reserved.
  
 This is part of the Gaussian(R) 16 program.  It is based on
 the Gaussian(R) 09 system (copyright 2009, Gaussian, Inc.),
 the Gaussian(R) 03 system (copyright 2003, Gaussian, Inc.),
 the Gaussian(R) 98 system (copyright 1998, Gaussian, Inc.),
 the Gaussian(R) 94 system (copyright 1995, Gaussian, Inc.),
 the Gaussian 92(TM) system (copyright 1992, Gaussian, Inc.),
 the Gaussian 90(TM) system (copyright 1990, Gaussian, Inc.),
 the Gaussian 88(TM) system (copyright 1988, Gaussian, Inc.),
 the Gaussian 86(TM) system (copyright 1986, Carnegie Mellon
 University), and the Gaussian 82(TM) system (copyright 1983,
 Carnegie Mellon University). Gaussian is a federally registered
 trademark of Gaussian, Inc.
  
 This software contains proprietary and confidential information,
 including trade secrets, belonging to Gaussian, Inc.
  
 This software is provided under written license and may be
 used, copied, transmitted, or stored only in accord with that
 written license.
  
 The following legend is applicable only to US Government
 contracts under FAR:
  
                    RESTRICTED RIGHTS LEGEND
  
 Use, reproduction and disclosure by the US Government is
 subject to restrictions as set forth in subparagraphs (a)
 and (c) of the Commercial Computer Software - Restricted
 Rights clause in FAR 52.227-19.
  
 Gaussian, Inc.
 340 Quinnipiac St., Bldg. 40, Wallingford CT 06492
  
  
 ---------------------------------------------------------------
 Warning -- This program may not be used in any manner that
 competes with the business of Gaussian, Inc. or will provide
 assistance to any competitor of Gaussian, Inc.  The licensee
 of this program is prohibited from giving any competitor of
 Gaussian, Inc. access to this program.  By using this program,
 the user acknowledges that Gaussian, Inc. is engaged in the
 business of creating and licensing software in the field of
 computational chemistry and represents and warrants to the
 licensee that it is not a competitor of Gaussian, Inc. and that
 it will not use this program in any manner prohibited above.
 ---------------------------------------------------------------
  

 Cite this work as:
 Gaussian 16, Revision A.03,
 M. J. Frisch, G. W. Trucks, H. B. Schlegel, G. E. Scuseria, 
 M. A. Robb, J. R. Cheeseman, G. Scalmani, V. Barone, 
 G. A. Petersson, H. Nakatsuji, X. Li, M. Caricato, A. V. Marenich, 
 J. Bloino, B. G. Janesko, R. Gomperts, B. Mennucci, H. P. Hratchian, 
 J. V. Ortiz, A. F. Izmaylov, J. L. Sonnenberg, D. Williams-Young, 
 F. Ding, F. Lipparini, F. Egidi, J. Goings, B. Peng, A. Petrone, 
 T. Henderson, D. Ranasinghe, V. G. Zakrzewski, J. Gao, N. Rega, 
 G. Zheng, W. Liang, M. Hada, M. Ehara, K. Toyota, R. Fukuda, 
 J. Hasegawa, M. Ishida, T. Nakajima, Y. Honda, O. Kitao, H. Nakai, 
 T. Vreven, K. Throssell, J. A. Montgomery, Jr., J. E. Peralta, 
 F. Ogliaro, M. J. Bearpark, J. J. Heyd, E. N. Brothers, K. N. Kudin, 
 V. N. Staroverov, T. A. Keith, R. Kobayashi, J. Normand, 
 K. Raghavachari, A. P. Rendell, J. C. Burant, S. S. Iyengar, 
 J. Tomasi, M. Cossi, J. M. Millam, M. Klene, C. Adamo, R. Cammi, 
 J. W. Ochterski, R. L. Martin, K. Morokuma, O. Farkas, 
 J. B. Foresman, and D. J. Fox, Gaussian, Inc., Wallingford CT, 2016.
 
 ******************************************
 Gaussian 16:  ES64L-G16RevA.03 25-Dec-2016
                 8-Dec-2022 
 ******************************************
 %nprocshared=28
 Will use up to   28 processors via shared memory.
 %mem=41GB
 -----------------------------
 # wB97XD/aug-cc-pVDZ opt freq
 -----------------------------
 1/18=20,19=15,26=3,38=1/1,3;
 2/9=110,12=2,17=6,18=5,40=1/2;
 3/5=16,7=10,11=2,25=1,30=1,71=1,74=-58/1,2,3;
 4//1;
 5/5=2,38=5/2;
 6/7=2,8=2,9=2,10=2,28=1/1;
 7//1,2,3,16;
 1/18=20,19=15,26=3/3(2);
 2/9=110/2;
 99//99;
 2/9=110/2;
 3/5=16,7=10,11=2,25=1,30=1,71=1,74=-58/1,2,3;
 4/5=5,16=3,69=1/1;
 5/5=2,38=5/2;
 7//1,2,3,16;
 1/18=20,19=15,26=3/3(-5);
 2/9=110/2;
 6/7=2,8=2,9=2,10=2,19=2,28=1/1;
 99/9=1/99;
 ----
 blah
 ----
 Symbolic Z-matrix:
 Charge =  1 Multiplicity = 1
 C                     0.0825    2.72988  -0.05087 
 C                     0.39576   1.40694  -0.36013 
 C                    -0.66102   0.54724  -0.635 
 N                    -1.92507   0.98412  -0.57886 
 C                    -2.25097   2.25155  -0.27018 
 C                    -1.2468    3.16131  -0.01066 
 C                     1.80988   0.87267  -0.35535 
 N                     1.98252  -0.10129   0.73421 
 C                     3.12719  -0.92933   0.3368 
 C                     2.84429  -1.21026  -1.13372 
 C                     2.23076   0.11158  -1.64025 
 O                    -3.42106  -1.30335  -0.55723 
 O                    -2.48567  -1.13801   1.87303 
 O                    -0.05526  -2.02199   1.24145 
 H                     3.17196  -1.83024   0.95983 
 H                     3.74417  -1.49523  -1.68746 
 H                     2.11902  -2.02871  -1.22174 
 H                     2.961     0.70894  -2.19633 
 H                     1.38385  -0.06338  -2.31329 
 H                     4.07633  -0.37422   0.45995 
 H                     2.49181   1.72929  -0.19946 
 H                    -0.53167  -0.50037  -0.90356 
 H                    -3.31016   2.49221  -0.23865 
 H                    -1.50042   4.19002   0.23343 
 H                     0.88477   3.43467   0.16968 
 C                     2.12521   0.51342   2.04739 
 H                    -2.66664   0.27061  -0.72071 
 H                     0.64078  -1.35734   1.04211 
 H                    -0.2276   -2.47158   0.40019 
 H                    -3.26093  -1.37546   0.42105 
 H                    -4.33666  -1.54037  -0.72417 
 H                    -2.80734  -1.46953   2.71441 
 H                    -1.55969  -1.47232   1.77108 
 O                    -1.03043  -2.54949  -1.37857 
 H                    -1.97779  -2.37087  -1.25697 
 H                    -0.96552  -3.28725  -1.98959 
 H                     2.25731  -0.26932   2.80301 
 H                     1.21739   1.07627   2.30076 
 H                     2.99253   1.19716   2.09129 
 O                    -6.0949   -1.86825  -0.94529 
 H                    -6.53914  -2.0444   -1.79195 
 H                    -6.81063  -1.50553  -0.39611 
 
 Add virtual bond connecting atoms H30        and O13        Dist= 3.14D+00.
 Add virtual bond connecting atoms H33        and O14        Dist= 3.19D+00.
 Add virtual bond connecting atoms N8         and H28        Dist= 3.52D+00.
 Add virtual bond connecting atoms H27        and O12        Dist= 3.31D+00.
 Add virtual bond connecting atoms O40        and H31        Dist= 3.41D+00.
 Add virtual bond connecting atoms O34        and H29        Dist= 3.69D+00.
 Add virtual bond connecting atoms H35        and O12        Dist= 3.64D+00.

 GradGradGradGradGradGradGradGradGradGradGradGradGradGradGradGradGradGrad
 Berny optimization.
 Initialization pass.
                           ----------------------------
                           !    Initial Parameters    !
                           ! (Angstroms and Degrees)  !
 --------------------------                            --------------------------
 ! Name  Definition              Value          Derivative Info.                !
 --------------------------------------------------------------------------------
 ! R1    R(1,2)                  1.3943         estimate D2E/DX2                !
 ! R2    R(1,6)                  1.3981         estimate D2E/DX2                !
 ! R3    R(1,25)                 1.0904         estimate D2E/DX2                !
 ! R4    R(2,3)                  1.3898         estimate D2E/DX2                !
 ! R5    R(2,7)                  1.5117         estimate D2E/DX2                !
 ! R6    R(3,4)                  1.3386         estimate D2E/DX2                !
 ! R7    R(3,22)                 1.0892         estimate D2E/DX2                !
 ! R8    R(4,5)                  1.3446         estimate D2E/DX2                !
 ! R9    R(4,27)                 1.0388         estimate D2E/DX2                !
 ! R10   R(5,6)                  1.3796         estimate D2E/DX2                !
 ! R11   R(5,23)                 1.0866         estimate D2E/DX2                !
 ! R12   R(6,24)                 1.0873         estimate D2E/DX2                !
 ! R13   R(7,8)                  1.4716         estimate D2E/DX2                !
 ! R14   R(7,11)                 1.5516         estimate D2E/DX2                !
 ! R15   R(7,21)                 1.106          estimate D2E/DX2                !
 ! R16   R(8,9)                  1.4676         estimate D2E/DX2                !
 ! R17   R(8,26)                 1.4569         estimate D2E/DX2                !
 ! R18   R(8,28)                 1.8635         estimate D2E/DX2                !
 ! R19   R(9,10)                 1.5236         estimate D2E/DX2                !
 ! R20   R(9,15)                 1.0963         estimate D2E/DX2                !
 ! R21   R(9,20)                 1.1064         estimate D2E/DX2                !
 ! R22   R(10,11)                1.5428         estimate D2E/DX2                !
 ! R23   R(10,16)                1.0944         estimate D2E/DX2                !
 ! R24   R(10,17)                1.0971         estimate D2E/DX2                !
 ! R25   R(11,18)                1.0951         estimate D2E/DX2                !
 ! R26   R(11,19)                1.0958         estimate D2E/DX2                !
 ! R27   R(12,27)                1.7531         estimate D2E/DX2                !
 ! R28   R(12,30)                0.9939         estimate D2E/DX2                !
 ! R29   R(12,31)                0.9604         estimate D2E/DX2                !
 ! R30   R(12,35)                1.9267         estimate D2E/DX2                !
 ! R31   R(13,30)                1.663          estimate D2E/DX2                !
 ! R32   R(13,32)                0.9598         estimate D2E/DX2                !
 ! R33   R(13,33)                0.9897         estimate D2E/DX2                !
 ! R34   R(14,28)                0.9828         estimate D2E/DX2                !
 ! R35   R(14,29)                0.9693         estimate D2E/DX2                !
 ! R36   R(14,33)                1.687          estimate D2E/DX2                !
 ! R37   R(26,37)                1.0959         estimate D2E/DX2                !
 ! R38   R(26,38)                1.0978         estimate D2E/DX2                !
 ! R39   R(26,39)                1.1053         estimate D2E/DX2                !
 ! R40   R(29,34)                1.9531         estimate D2E/DX2                !
 ! R41   R(31,40)                1.8022         estimate D2E/DX2                !
 ! R42   R(34,35)                0.9717         estimate D2E/DX2                !
 ! R43   R(34,36)                0.9601         estimate D2E/DX2                !
 ! R44   R(40,41)                0.9722         estimate D2E/DX2                !
 ! R45   R(40,42)                0.9723         estimate D2E/DX2                !
 ! A1    A(2,1,6)              120.8493         estimate D2E/DX2                !
 ! A2    A(2,1,25)             119.5279         estimate D2E/DX2                !
 ! A3    A(6,1,25)             119.6211         estimate D2E/DX2                !
 ! A4    A(1,2,3)              117.386          estimate D2E/DX2                !
 ! A5    A(1,2,7)              123.0123         estimate D2E/DX2                !
 ! A6    A(3,2,7)              119.5596         estimate D2E/DX2                !
 ! A7    A(2,3,4)              120.5221         estimate D2E/DX2                !
 ! A8    A(2,3,22)             123.6034         estimate D2E/DX2                !
 ! A9    A(4,3,22)             115.8745         estimate D2E/DX2                !
 ! A10   A(3,4,5)              123.1042         estimate D2E/DX2                !
 ! A11   A(3,4,27)             116.3726         estimate D2E/DX2                !
 ! A12   A(5,4,27)             120.3819         estimate D2E/DX2                !
 ! A13   A(4,5,6)              119.2324         estimate D2E/DX2                !
 ! A14   A(4,5,23)             116.8519         estimate D2E/DX2                !
 ! A15   A(6,5,23)             123.9153         estimate D2E/DX2                !
 ! A16   A(1,6,5)              118.8902         estimate D2E/DX2                !
 ! A17   A(1,6,24)             121.3452         estimate D2E/DX2                !
 ! A18   A(5,6,24)             119.759          estimate D2E/DX2                !
 ! A19   A(2,7,8)              110.2429         estimate D2E/DX2                !
 ! A20   A(2,7,11)             115.1188         estimate D2E/DX2                !
 ! A21   A(2,7,21)             107.6682         estimate D2E/DX2                !
 ! A22   A(8,7,11)             104.8728         estimate D2E/DX2                !
 ! A23   A(8,7,21)             109.6294         estimate D2E/DX2                !
 ! A24   A(11,7,21)            109.233          estimate D2E/DX2                !
 ! A25   A(7,8,9)              105.3333         estimate D2E/DX2                !
 ! A26   A(7,8,26)             113.5524         estimate D2E/DX2                !
 ! A27   A(7,8,28)             118.9442         estimate D2E/DX2                !
 ! A28   A(9,8,26)             113.9375         estimate D2E/DX2                !
 ! A29   A(9,8,28)             103.0628         estimate D2E/DX2                !
 ! A30   A(26,8,28)            101.8867         estimate D2E/DX2                !
 ! A31   A(8,9,10)             102.7419         estimate D2E/DX2                !
 ! A32   A(8,9,15)             109.9759         estimate D2E/DX2                !
 ! A33   A(8,9,20)             110.8461         estimate D2E/DX2                !
 ! A34   A(10,9,15)            113.8645         estimate D2E/DX2                !
 ! A35   A(10,9,20)            111.0524         estimate D2E/DX2                !
 ! A36   A(15,9,20)            108.3018         estimate D2E/DX2                !
 ! A37   A(9,10,11)            103.4588         estimate D2E/DX2                !
 ! A38   A(9,10,16)            112.5624         estimate D2E/DX2                !
 ! A39   A(9,10,17)            109.7394         estimate D2E/DX2                !
 ! A40   A(11,10,16)           112.5803         estimate D2E/DX2                !
 ! A41   A(11,10,17)           110.4837         estimate D2E/DX2                !
 ! A42   A(16,10,17)           107.9828         estimate D2E/DX2                !
 ! A43   A(7,11,10)            104.8477         estimate D2E/DX2                !
 ! A44   A(7,11,18)            109.5006         estimate D2E/DX2                !
 ! A45   A(7,11,19)            112.1666         estimate D2E/DX2                !
 ! A46   A(10,11,18)           111.6471         estimate D2E/DX2                !
 ! A47   A(10,11,19)           111.851          estimate D2E/DX2                !
 ! A48   A(18,11,19)           106.8913         estimate D2E/DX2                !
 ! A49   A(27,12,30)            95.0253         estimate D2E/DX2                !
 ! A50   A(27,12,31)           127.9984         estimate D2E/DX2                !
 ! A51   A(27,12,35)            98.1185         estimate D2E/DX2                !
 ! A52   A(30,12,31)           107.8648         estimate D2E/DX2                !
 ! A53   A(30,12,35)           101.3368         estimate D2E/DX2                !
 ! A54   A(31,12,35)           120.949          estimate D2E/DX2                !
 ! A55   A(30,13,32)           124.0415         estimate D2E/DX2                !
 ! A56   A(30,13,33)           107.336          estimate D2E/DX2                !
 ! A57   A(32,13,33)           106.6887         estimate D2E/DX2                !
 ! A58   A(28,14,29)           105.2807         estimate D2E/DX2                !
 ! A59   A(28,14,33)           118.3519         estimate D2E/DX2                !
 ! A60   A(29,14,33)           105.37           estimate D2E/DX2                !
 ! A61   A(8,26,37)            109.384          estimate D2E/DX2                !
 ! A62   A(8,26,38)            110.0821         estimate D2E/DX2                !
 ! A63   A(8,26,39)            111.9406         estimate D2E/DX2                !
 ! A64   A(37,26,38)           107.8626         estimate D2E/DX2                !
 ! A65   A(37,26,39)           108.6536         estimate D2E/DX2                !
 ! A66   A(38,26,39)           108.8192         estimate D2E/DX2                !
 ! A67   A(4,27,12)            155.6644         estimate D2E/DX2                !
 ! A68   A(14,29,34)           151.8867         estimate D2E/DX2                !
 ! A69   A(12,30,13)           157.5337         estimate D2E/DX2                !
 ! A70   A(29,34,35)           106.2279         estimate D2E/DX2                !
 ! A71   A(29,34,36)           125.6229         estimate D2E/DX2                !
 ! A72   A(35,34,36)           106.6666         estimate D2E/DX2                !
 ! A73   A(12,35,34)           151.3568         estimate D2E/DX2                !
 ! A74   A(31,40,41)           125.8462         estimate D2E/DX2                !
 ! A75   A(31,40,42)           125.52           estimate D2E/DX2                !
 ! A76   A(41,40,42)           102.8913         estimate D2E/DX2                !
 ! A77   L(8,28,14,3,-1)       181.7084         estimate D2E/DX2                !
 ! A78   L(12,31,40,23,-1)     175.9404         estimate D2E/DX2                !
 ! A79   L(13,33,14,1,-1)      175.7076         estimate D2E/DX2                !
 ! A80   L(8,28,14,3,-2)       181.5245         estimate D2E/DX2                !
 ! A81   L(12,31,40,23,-2)     183.096          estimate D2E/DX2                !
 ! A82   L(13,33,14,1,-2)      191.6809         estimate D2E/DX2                !
 ! D1    D(6,1,2,3)              0.5237         estimate D2E/DX2                !
 ! D2    D(6,1,2,7)           -177.1028         estimate D2E/DX2                !
 ! D3    D(25,1,2,3)          -179.9391         estimate D2E/DX2                !
 ! D4    D(25,1,2,7)             2.4344         estimate D2E/DX2                !
 ! D5    D(2,1,6,5)              0.6172         estimate D2E/DX2                !
 ! D6    D(2,1,6,24)           179.7544         estimate D2E/DX2                !
 ! D7    D(25,1,6,5)          -178.9196         estimate D2E/DX2                !
 ! D8    D(25,1,6,24)            0.2176         estimate D2E/DX2                !
 ! D9    D(1,2,3,4)             -1.0629         estimate D2E/DX2                !
 ! D10   D(1,2,3,22)           178.978          estimate D2E/DX2                !
 ! D11   D(7,2,3,4)            176.6491         estimate D2E/DX2                !
 ! D12   D(7,2,3,22)            -3.3101         estimate D2E/DX2                !
 ! D13   D(1,2,7,8)            112.5424         estimate D2E/DX2                !
 ! D14   D(1,2,7,11)          -129.0957         estimate D2E/DX2                !
 ! D15   D(1,2,7,21)            -7.0115         estimate D2E/DX2                !
 ! D16   D(3,2,7,8)            -65.0348         estimate D2E/DX2                !
 ! D17   D(3,2,7,11)            53.3272         estimate D2E/DX2                !
 ! D18   D(3,2,7,21)           175.4113         estimate D2E/DX2                !
 ! D19   D(2,3,4,5)              0.4508         estimate D2E/DX2                !
 ! D20   D(2,3,4,27)          -175.236          estimate D2E/DX2                !
 ! D21   D(22,3,4,5)          -179.587          estimate D2E/DX2                !
 ! D22   D(22,3,4,27)            4.7262         estimate D2E/DX2                !
 ! D23   D(3,4,5,6)              0.741          estimate D2E/DX2                !
 ! D24   D(3,4,5,23)          -179.0594         estimate D2E/DX2                !
 ! D25   D(27,4,5,6)           176.2612         estimate D2E/DX2                !
 ! D26   D(27,4,5,23)           -3.5391         estimate D2E/DX2                !
 ! D27   D(3,4,27,12)           38.8613         estimate D2E/DX2                !
 ! D28   D(5,4,27,12)         -136.9507         estimate D2E/DX2                !
 ! D29   D(4,5,6,1)             -1.2485         estimate D2E/DX2                !
 ! D30   D(4,5,6,24)           179.6003         estimate D2E/DX2                !
 ! D31   D(23,5,6,1)           178.5369         estimate D2E/DX2                !
 ! D32   D(23,5,6,24)           -0.6143         estimate D2E/DX2                !
 ! D33   D(2,7,8,9)            157.6184         estimate D2E/DX2                !
 ! D34   D(2,7,8,26)           -77.0386         estimate D2E/DX2                !
 ! D35   D(2,7,8,28)            42.8183         estimate D2E/DX2                !
 ! D36   D(11,7,8,9)            33.1424         estimate D2E/DX2                !
 ! D37   D(11,7,8,26)          158.4854         estimate D2E/DX2                !
 ! D38   D(11,7,8,28)          -81.6577         estimate D2E/DX2                !
 ! D39   D(21,7,8,9)           -84.024          estimate D2E/DX2                !
 ! D40   D(21,7,8,26)           41.3189         estimate D2E/DX2                !
 ! D41   D(21,7,8,28)          161.1759         estimate D2E/DX2                !
 ! D42   D(2,7,11,10)         -130.3859         estimate D2E/DX2                !
 ! D43   D(2,7,11,18)          109.6978         estimate D2E/DX2                !
 ! D44   D(2,7,11,19)           -8.7993         estimate D2E/DX2                !
 ! D45   D(8,7,11,10)           -9.0607         estimate D2E/DX2                !
 ! D46   D(8,7,11,18)         -128.977          estimate D2E/DX2                !
 ! D47   D(8,7,11,19)          112.5259         estimate D2E/DX2                !
 ! D48   D(21,7,11,10)         108.3767         estimate D2E/DX2                !
 ! D49   D(21,7,11,18)         -11.5397         estimate D2E/DX2                !
 ! D50   D(21,7,11,19)        -130.0368         estimate D2E/DX2                !
 ! D51   D(7,8,9,10)           -44.3472         estimate D2E/DX2                !
 ! D52   D(7,8,9,15)          -165.9172         estimate D2E/DX2                !
 ! D53   D(7,8,9,20)            74.351          estimate D2E/DX2                !
 ! D54   D(26,8,9,10)         -169.4502         estimate D2E/DX2                !
 ! D55   D(26,8,9,15)           68.9799         estimate D2E/DX2                !
 ! D56   D(26,8,9,20)          -50.752          estimate D2E/DX2                !
 ! D57   D(28,8,9,10)           81.017          estimate D2E/DX2                !
 ! D58   D(28,8,9,15)          -40.553          estimate D2E/DX2                !
 ! D59   D(28,8,9,20)         -160.2849         estimate D2E/DX2                !
 ! D60   D(7,8,14,29)           53.2978         estimate D2E/DX2                !
 ! D61   D(7,8,14,33)          -65.0583         estimate D2E/DX2                !
 ! D62   D(9,8,14,29)          -63.0848         estimate D2E/DX2                !
 ! D63   D(9,8,14,33)          178.5592         estimate D2E/DX2                !
 ! D64   D(26,8,14,29)         178.8466         estimate D2E/DX2                !
 ! D65   D(26,8,14,33)          60.4906         estimate D2E/DX2                !
 ! D66   D(7,8,26,37)         -179.5354         estimate D2E/DX2                !
 ! D67   D(7,8,26,38)           62.1151         estimate D2E/DX2                !
 ! D68   D(7,8,26,39)          -59.0532         estimate D2E/DX2                !
 ! D69   D(9,8,26,37)          -58.9305         estimate D2E/DX2                !
 ! D70   D(9,8,26,38)         -177.28           estimate D2E/DX2                !
 ! D71   D(9,8,26,39)           61.5518         estimate D2E/DX2                !
 ! D72   D(28,8,26,37)          51.3215         estimate D2E/DX2                !
 ! D73   D(28,8,26,38)         -67.028          estimate D2E/DX2                !
 ! D74   D(28,8,26,39)         171.8037         estimate D2E/DX2                !
 ! D75   D(8,9,10,11)           37.1579         estimate D2E/DX2                !
 ! D76   D(8,9,10,16)          158.9594         estimate D2E/DX2                !
 ! D77   D(8,9,10,17)          -80.757          estimate D2E/DX2                !
 ! D78   D(15,9,10,11)         156.0416         estimate D2E/DX2                !
 ! D79   D(15,9,10,16)         -82.1569         estimate D2E/DX2                !
 ! D80   D(15,9,10,17)          38.1267         estimate D2E/DX2                !
 ! D81   D(20,9,10,11)         -81.3956         estimate D2E/DX2                !
 ! D82   D(20,9,10,16)          40.4059         estimate D2E/DX2                !
 ! D83   D(20,9,10,17)         160.6895         estimate D2E/DX2                !
 ! D84   D(9,10,11,7)          -16.9991         estimate D2E/DX2                !
 ! D85   D(9,10,11,18)         101.4753         estimate D2E/DX2                !
 ! D86   D(9,10,11,19)        -138.7923         estimate D2E/DX2                !
 ! D87   D(16,10,11,7)        -138.7886         estimate D2E/DX2                !
 ! D88   D(16,10,11,18)        -20.3142         estimate D2E/DX2                !
 ! D89   D(16,10,11,19)         99.4182         estimate D2E/DX2                !
 ! D90   D(17,10,11,7)         100.3957         estimate D2E/DX2                !
 ! D91   D(17,10,11,18)       -141.1299         estimate D2E/DX2                !
 ! D92   D(17,10,11,19)        -21.3975         estimate D2E/DX2                !
 ! D93   D(30,12,27,4)          47.1083         estimate D2E/DX2                !
 ! D94   D(31,12,27,4)         164.4625         estimate D2E/DX2                !
 ! D95   D(35,12,27,4)         -55.1241         estimate D2E/DX2                !
 ! D96   D(27,12,30,13)        -30.3991         estimate D2E/DX2                !
 ! D97   D(31,12,30,13)       -163.0606         estimate D2E/DX2                !
 ! D98   D(35,12,30,13)         68.9366         estimate D2E/DX2                !
 ! D99   D(27,12,40,41)         83.2754         estimate D2E/DX2                !
 ! D100  D(27,12,40,42)        -64.1564         estimate D2E/DX2                !
 ! D101  D(30,12,40,41)       -167.8098         estimate D2E/DX2                !
 ! D102  D(30,12,40,42)         44.7583         estimate D2E/DX2                !
 ! D103  D(35,12,40,41)        -51.3993         estimate D2E/DX2                !
 ! D104  D(35,12,40,42)        161.1688         estimate D2E/DX2                !
 ! D105  D(27,12,35,34)         34.7022         estimate D2E/DX2                !
 ! D106  D(30,12,35,34)        -62.1231         estimate D2E/DX2                !
 ! D107  D(31,12,35,34)        178.8617         estimate D2E/DX2                !
 ! D108  D(30,13,14,28)        101.2202         estimate D2E/DX2                !
 ! D109  D(30,13,14,29)        -13.1085         estimate D2E/DX2                !
 ! D110  D(32,13,14,28)       -124.73           estimate D2E/DX2                !
 ! D111  D(32,13,14,29)        120.9412         estimate D2E/DX2                !
 ! D112  D(32,13,30,12)        178.5077         estimate D2E/DX2                !
 ! D113  D(33,13,30,12)        -56.4674         estimate D2E/DX2                !
 ! D114  D(28,14,29,34)        -77.4091         estimate D2E/DX2                !
 ! D115  D(33,14,29,34)         48.4398         estimate D2E/DX2                !
 ! D116  D(14,29,34,35)        -53.8312         estimate D2E/DX2                !
 ! D117  D(14,29,34,36)       -179.0022         estimate D2E/DX2                !
 ! D118  D(29,34,35,12)         50.911          estimate D2E/DX2                !
 ! D119  D(36,34,35,12)       -173.0053         estimate D2E/DX2                !
 --------------------------------------------------------------------------------
 Trust Radius=3.00D-01 FncErr=1.00D-07 GrdErr=1.00D-06 EigMax=2.50D+02 EigMin=1.00D-04
 Number of steps in this run=    252 maximum allowed number of steps=    252.
 GradGradGradGradGradGradGradGradGradGradGradGradGradGradGradGradGradGrad

                          Input orientation:                          
 ---------------------------------------------------------------------
 Center     Atomic      Atomic             Coordinates (Angstroms)
 Number     Number       Type             X           Y           Z
 ---------------------------------------------------------------------
      1          6           0        0.082502    2.729880   -0.050868
      2          6           0        0.395757    1.406935   -0.360128
      3          6           0       -0.661022    0.547239   -0.635004
      4          7           0       -1.925069    0.984122   -0.578863
      5          6           0       -2.250972    2.251550   -0.270179
      6          6           0       -1.246801    3.161306   -0.010655
      7          6           0        1.809881    0.872667   -0.355345
      8          7           0        1.982522   -0.101289    0.734211
      9          6           0        3.127192   -0.929334    0.336799
     10          6           0        2.844285   -1.210259   -1.133715
     11          6           0        2.230760    0.111581   -1.640249
     12          8           0       -3.421061   -1.303350   -0.557232
     13          8           0       -2.485670   -1.138012    1.873034
     14          8           0       -0.055263   -2.021993    1.241447
     15          1           0        3.171960   -1.830241    0.959830
     16          1           0        3.744172   -1.495234   -1.687456
     17          1           0        2.119023   -2.028714   -1.221741
     18          1           0        2.961001    0.708939   -2.196330
     19          1           0        1.383853   -0.063377   -2.313293
     20          1           0        4.076332   -0.374215    0.459951
     21          1           0        2.491812    1.729288   -0.199455
     22          1           0       -0.531670   -0.500374   -0.903559
     23          1           0       -3.310163    2.492211   -0.238652
     24          1           0       -1.500424    4.190016    0.233430
     25          1           0        0.884773    3.434668    0.169679
     26          6           0        2.125205    0.513424    2.047389
     27          1           0       -2.666638    0.270612   -0.720713
     28          1           0        0.640779   -1.357341    1.042105
     29          1           0       -0.227599   -2.471575    0.400193
     30          1           0       -3.260930   -1.375463    0.421047
     31          1           0       -4.336657   -1.540368   -0.724166
     32          1           0       -2.807344   -1.469534    2.714412
     33          1           0       -1.559694   -1.472321    1.771082
     34          8           0       -1.030432   -2.549486   -1.378570
     35          1           0       -1.977785   -2.370870   -1.256971
     36          1           0       -0.965520   -3.287246   -1.989588
     37          1           0        2.257311   -0.269320    2.803010
     38          1           0        1.217385    1.076270    2.300762
     39          1           0        2.992525    1.197158    2.091285
     40          8           0       -6.094895   -1.868249   -0.945286
     41          1           0       -6.539137   -2.044402   -1.791949
     42          1           0       -6.810632   -1.505534   -0.396105
 ---------------------------------------------------------------------
                    Distance matrix (angstroms):
                    1          2          3          4          5
     1  C    0.000000
     2  C    1.394257   0.000000
     3  C    2.378648   1.389754   0.000000
     4  N    2.712341   2.369145   1.338594   0.000000
     5  C    2.392070   2.779683   2.359177   1.344571   0.000000
     6  C    1.398139   2.428569   2.750690   2.350114   1.379626
     7  C    2.554562   1.511692   2.507882   3.743292   4.289417
     8  N    3.498849   2.447476   3.046910   4.262810   4.946425
     9  C    4.776010   3.661229   4.180339   5.479516   6.277826
    10  C    4.932008   3.666528   3.952808   5.279196   6.220246
    11  C    3.741208   2.585322   3.092365   4.377075   5.151940
    12  O    5.366405   4.685360   3.323935   2.733311   3.753508
    13  O    5.025684   4.445941   3.529825   3.290824   4.017160
    14  O    4.926394   3.811300   3.238667   3.980758   5.036797
    15  H    5.600086   4.464180   4.784105   6.022285   6.897980
    16  H    5.825619   4.625610   4.968409   6.286213   7.210327
    17  H    5.306843   3.938998   3.835159   5.083813   6.190556
    18  H    4.119826   3.230993   3.947523   5.154183   5.766660
    19  H    3.822874   2.636855   2.714962   3.880009   4.769188
    20  H    5.083996   4.170331   4.948790   6.240275   6.889304
    21  H    2.613051   2.126775   3.395189   4.495338   4.771976
    22  H    3.396885   2.189353   1.089195   2.061727   3.306094
    23  H    3.406160   3.863473   3.310281   2.075707   1.086645
    24  H    2.172206   3.419555   3.837786   3.334351   2.138830
    25  H    1.090415   2.152100   3.372572   3.802723   3.380257
    26  C    3.672601   3.096044   3.867743   4.850101   5.248155
    27  H    3.748928   3.286261   2.026417   1.038818   2.073614
    28  H    4.267510   3.109263   2.852158   3.833218   4.807120
    29  H    5.230177   4.001187   3.220672   3.972631   5.181829
    30  H    5.315551   4.660830   3.401698   2.889980   3.827928
    31  H    6.182015   5.587026   4.228043   3.494270   4.351417
    32  H    5.799402   5.290248   4.460119   4.200535   4.802478
    33  H    4.865676   4.081171   3.267336   3.419043   4.302537
    34  O    5.556359   4.327182   3.206097   3.731795   5.076238
    35  H    5.631795   4.550806   3.261298   3.423241   4.734465
    36  H    6.408025   5.152043   4.078099   4.599507   5.940287
    37  H    4.676496   4.034930   4.582944   5.522724   6.010315
    38  H    3.090720   2.804416   3.525196   4.263303   4.474430
    39  H    3.925085   3.577239   4.604721   5.599804   5.846582
    40  O    7.752613   7.293683   5.954648   5.065347   5.674880
    41  H    8.346930   7.877474   6.527431   5.650943   6.257743
    42  H    8.097729   7.772760   6.487576   5.486393   5.909487
                    6          7          8          9         10
     6  C    0.000000
     7  C    3.834056   0.000000
     8  N    4.650578   1.471573   0.000000
     9  C    5.998823   2.337002   1.467605   0.000000
    10  C    6.091702   2.452434   2.337006   1.523603   0.000000
    11  C    4.904063   1.551570   2.396872   2.407450   1.542806
    12  O    4.995929   5.669088   5.684319   6.619577   6.292500
    13  O    4.854608   5.240254   4.726146   5.823039   6.119982
    14  O    5.463892   3.795730   2.845867   3.484295   3.835060
    15  H    6.736678   3.300099   2.110673   1.096269   2.207868
    16  H    7.028858   3.335110   3.303175   2.190551   1.094366
    17  H    6.303317   3.043719   2.749427   2.157334   1.097097
    18  H    5.338247   2.177409   3.194051   3.021308   2.196837
    19  H    4.756160   2.211614   3.105982   3.288176   2.199910
    20  H    6.407583   2.712236   2.129260   1.106431   2.180982
    21  H    4.007936   1.105953   2.117102   2.785596   3.104515
    22  H    3.836221   2.769231   3.026999   3.887128   3.457453
    23  H    2.181085   5.371349   5.973711   7.312842   7.237862
    24  H    1.087266   4.723302   5.549504   6.901685   7.064598
    25  H    2.156584   2.774045   3.745229   4.909265   5.207098
    26  C    4.755760   2.449819   1.456938   2.451866   3.688846
    27  H    3.297913   4.531577   4.885673   6.010546   5.721348
    28  H    5.008935   2.879688   1.863529   2.619713   3.100204
    29  H    5.739069   3.988247   3.257984   3.692851   3.657904
    30  H    4.982505   5.600893   5.405125   6.404235   6.302240
    31  H    5.671159   6.613524   6.643029   7.563600   7.200183
    32  H    5.595173   6.018977   5.360607   6.415885   6.842238
    33  H    4.974232   4.623278   3.937274   4.931420   5.282192
    34  O    5.876321   4.563496   4.419887   4.780504   4.106935
    35  H    5.717745   5.067531   4.979943   5.538855   4.961307
    36  H    6.751231   5.261034   5.124486   5.265180   4.422783
    37  H    5.653734   3.388146   2.093722   2.697130   4.089952
    38  H    3.970168   2.728994   2.103845   3.395138   4.435161
    39  H    5.123272   2.736775   2.132539   2.760131   4.027190
    40  O    7.047977   8.387260   8.437270   9.358002   8.965344
    41  H    7.634214   8.959867   9.098123   9.960565   9.443393
    42  H    7.272151   8.942636   8.976027   9.981457   9.687552
                   11         12         13         14         15
    11  C    0.000000
    12  O    5.926047   0.000000
    13  O    6.012433   2.609308   0.000000
    14  O    4.252318   3.883335   2.662180   0.000000
    15  H    3.378896   6.785795   5.772512   3.245157   0.000000
    16  H    2.207827   7.256362   7.184402   4.826143   2.729062
    17  H    2.183689   5.626745   5.619091   3.285553   2.430498
    18  H    1.095132   6.889606   7.045366   5.326739   4.056265
    19  H    1.095833   5.263885   5.801154   4.306206   4.127041
    20  H    2.837776   7.622916   6.755743   4.516191   1.785435
    21  H    2.181974   6.654845   6.106713   4.757720   3.804838
    22  H    2.923734   3.018823   3.454586   2.672703   4.354037
    23  H    6.191422   3.810522   4.279898   5.758742   7.882758
    24  H    5.836612   5.872909   5.660998   6.457062   7.655215
    25  H    4.016270   6.443401   5.930490   5.639814   5.794379
    26  C    3.710969   6.391071   4.900797   3.439814   2.787696
    27  H    4.985513   1.753065   2.957109   3.990663   6.428611
    28  H    3.446853   4.365700   3.242411   0.982840   2.576292
    29  H    4.108482   3.532649   3.007746   0.969295   3.504498
    30  H    6.051355   0.993918   1.663033   3.371551   6.471413
    31  H    6.833675   0.960396   3.214575   4.735603   7.700597
    32  H    6.844376   3.332855   0.959843   3.169982   6.241854
    33  H    5.339800   2.985680   0.989742   1.686999   4.814020
    34  O    4.217242   2.818254   3.831828   2.844942   4.862667
    35  H    4.901155   1.926728   3.402178   3.171734   5.632616
    36  H    4.678704   3.466579   4.674389   3.587342   5.285894
    37  H    4.459635   6.678649   4.910738   3.295200   2.582706
    38  H    4.182000   5.945242   4.335737   3.512978   3.750502
    39  H    3.960191   7.375722   5.959134   4.513776   3.236902
    40  O    8.585991   2.760269   4.637098   6.425153   9.460736
    41  H    9.032296   3.434542   5.539335   7.158395  10.095720
    42  H    9.268749   3.399416   4.897893   6.970173  10.079491
                   16         17         18         19         20
    16  H    0.000000
    17  H    1.772738   0.000000
    18  H    2.393886   3.025474   0.000000
    19  H    2.830723   2.365272   1.759985   0.000000
    20  H    2.445071   3.065373   3.077826   3.877750   0.000000
    21  H    3.765647   3.912367   2.291017   2.984884   2.714819
    22  H    4.459492   3.076237   3.915667   2.418170   4.807157
    23  H    8.231792   7.133112   6.807353   5.733145   7.953914
    24  H    7.969797   7.341016   6.158404   5.735521   7.209974
    25  H    5.994084   5.771305   4.163931   4.318628   4.977740
    26  C    4.539254   4.141221   4.329657   4.460701   2.667351
    27  H    6.719471   5.332962   5.834372   4.365127   6.875857
    28  H    4.135283   2.785847   4.487806   3.672220   3.620561
    29  H    4.592002   2.886768   5.198535   3.969786   4.788143
    30  H    7.316528   5.662984   7.064547   5.547269   7.405365
    31  H    8.138167   6.493217   7.777047   6.118093   8.575572
    32  H    7.893001   6.330488   7.882572   6.694866   7.325798
    33  H    6.331904   4.774884   6.398042   5.227974   5.889795
    34  O    4.899357   3.196070   5.217049   3.589320   5.847307
    35  H    5.804554   4.111222   5.895696   4.212001   6.602029
    36  H    5.048147   3.418757   5.606229   4.002208   6.317140
    37  H    4.886502   4.394680   5.142526   5.194410   2.968125
    38  H    5.376167   4.781412   4.837248   4.755629   3.696765
    39  H    4.700301   4.705890   4.315437   4.855624   2.510996
    40  O    9.874067   8.220135   9.498224   7.814133  10.375967
    41  H   10.298492   8.676930   9.899345   8.183522  10.979470
    42  H   10.633512   8.982991  10.179858   8.538443  10.979011
                   21         22         23         24         25
    21  H    0.000000
    22  H    3.822120   0.000000
    23  H    5.852051   4.137353   0.000000
    24  H    4.709620   4.922498   2.525977   0.000000
    25  H    2.372163   4.317720   4.318848   2.502754   0.000000
    26  C    2.580898   4.098154   6.219711   5.472930   3.687565
    27  H    5.386005   2.277266   2.362628   4.199068   4.839067
    28  H    3.807240   2.427887   5.662979   6.000990   4.876885
    29  H    5.040042   2.382826   5.877882   6.784150   6.014500
    30  H    6.566471   3.157407   3.923841   5.840303   6.355108
    31  H    7.589069   3.948632   4.189404   6.465177   7.267274
    32  H    6.841355   4.382656   4.966773   6.316155   6.645193
    33  H    5.527026   3.025759   4.777100   5.867704   5.711257
    34  O    5.666076   2.161772   5.649362   6.945525   6.471104
    35  H    6.156861   2.390587   5.144100   6.744953   6.628261
    36  H    6.350066   3.022307   6.478059   7.819039   7.298640
    37  H    3.614446   4.644400   6.919142   6.372518   4.747401
    38  H    2.881264   3.976515   5.380725   4.621229   3.195964
    39  H    2.404447   4.926526   6.843219   5.709239   3.625140
    40  O    9.339704   5.729075   5.221846   7.694226   8.836280
    41  H    9.916391   6.266013   5.780991   8.267935   9.433061
    42  H    9.850797   6.379123   5.316017   7.812420   9.162148
                   26         27         28         29         30
    26  C    0.000000
    27  H    5.539233   0.000000
    28  H    2.591115   4.086168   0.000000
    29  H    4.142362   3.837308   1.551660   0.000000
    30  H    5.934925   2.089584   3.950870   3.225367   0.000000
    31  H    7.324974   2.463458   5.284703   4.360698   1.579840
    32  H    5.357899   3.853309   3.833895   3.607600   2.339682
    33  H    4.194998   3.236075   2.320929   2.156924   2.173978
    34  O    5.574644   3.326094   3.173929   1.953102   3.097107
    35  H    6.006036   2.781999   3.629031   2.412361   2.335175
    36  H    6.347823   4.142729   3.936482   2.630760   3.838617
    37  H    1.095949   6.078933   2.626357   4.098565   6.111324
    38  H    1.097784   4.986385   2.799849   4.276371   5.440554
    39  H    1.105289   6.386857   3.627251   5.166100   6.965183
    40  O    9.066340   4.046987   7.041311   6.049750   3.184504
    41  H    9.815998   4.637142   7.749523   6.695033   4.011417
    42  H    9.481352   4.520260   7.590384   6.701018   3.644865
                   31         32         33         34         35
    31  H    0.000000
    32  H    3.763992   0.000000
    33  H    3.733955   1.564132   0.000000
    34  O    3.518194   4.590884   3.370565   0.000000
    35  H    2.556930   4.156015   3.186110   0.971683   0.000000
    36  H    4.002179   5.368800   4.217776   0.960128   1.549565
    37  H    7.585311   5.205679   4.132991   5.787402   6.231853
    38  H    6.844294   4.780237   3.806316   5.633496   5.894858
    39  H    8.314910   6.413892   5.286903   6.500878   6.974641
    40  O    1.802166   4.935621   5.301270   5.128412   4.159371
    41  H    2.499025   5.879119   6.149579   5.547235   4.604206
    42  H    2.495874   5.069805   5.680682   5.955315   4.984607
                   36         37         38         39         40
    36  H    0.000000
    37  H    6.516403   0.000000
    38  H    6.497111   1.773221   0.000000
    39  H    7.240823   1.788197   1.791540   0.000000
    40  O    5.423523   9.293312   8.525049  10.059756   0.000000
    41  H    5.713924  10.081769   9.308733  10.790727   0.972223
    42  H    6.314983   9.694852   8.853692  10.468693   0.972338
                   41         42
    41  H    0.000000
    42  H    1.520680   0.000000
 Stoichiometry    C10H25N2O5(1+)
 Framework group  C1[X(C10H25N2O5)]
 Deg. of freedom   120
 Full point group                 C1      NOp   1
 Largest Abelian subgroup         C1      NOp   1
 Largest concise Abelian subgroup C1      NOp   1
                         Standard orientation:                         
 ---------------------------------------------------------------------
 Center     Atomic      Atomic             Coordinates (Angstroms)
 Number     Number       Type             X           Y           Z
 ---------------------------------------------------------------------
      1          6           0        1.060668    2.707749   -0.141726
      2          6           0        1.094311    1.340620   -0.413349
      3          6           0       -0.123402    0.691472   -0.578268
      4          7           0       -1.274338    1.363935   -0.455896
      5          6           0       -1.330897    2.679008   -0.181566
      6          6           0       -0.156383    3.386884   -0.030578
      7          6           0        2.378345    0.545695   -0.480890
      8          7           0        2.444790   -0.410145    0.636018
      9          6           0        3.379425   -1.453714    0.198656
     10          6           0        2.939438   -1.719239   -1.235665
     11          6           0        2.550611   -0.320148   -1.756826
     12          8           0       -3.169713   -0.592828   -0.233154
     13          8           0       -2.040965   -0.536904    2.118714
     14          8           0        0.124515   -1.888722    1.363407
     15          1           0        3.299600   -2.327394    0.856012
     16          1           0        3.725323   -2.187841   -1.836026
     17          1           0        2.068083   -2.385838   -1.238570
     18          1           0        3.336927    0.109265   -2.386608
     19          1           0        1.638012   -0.349719   -2.362745
     20          1           0        4.422857   -1.087292    0.232938
     21          1           0        3.219556    1.260074   -0.409079
     22          1           0       -0.214762   -0.369095   -0.808911
     23          1           0       -2.320164    3.118986   -0.089009
     24          1           0       -0.192103    4.451983    0.184908
     25          1           0        1.995853    3.252062   -0.006972
     26          6           0        2.798787    0.204975    1.908410
     27          1           0       -2.145853    0.801798   -0.515934
     28          1           0        0.916722   -1.376032    1.088576
     29          1           0       -0.192045   -2.321999    0.556194
     30          1           0       -2.953435   -0.664890    0.734266
     31          1           0       -4.123469   -0.654930   -0.327249
     32          1           0       -2.355686   -0.775246    2.993609
     33          1           0       -1.205091   -1.045342    1.969066
     34          8           0       -1.125791   -2.297999   -1.159076
     35          1           0       -2.010545   -1.937613   -0.981594
     36          1           0       -1.247295   -3.052529   -1.740254
     37          1           0        2.836714   -0.565540    2.686852
     38          1           0        2.035188    0.938677    2.197770
     39          1           0        3.780484    0.710868    1.863607
     40          8           0       -5.923507   -0.646347   -0.414381
     41          1           0       -6.455042   -0.759453   -1.220542
     42          1           0       -6.514735   -0.136901    0.165580
 ---------------------------------------------------------------------
 Rotational constants (GHZ):           0.5177140           0.2548711           0.2139753
 Standard basis: Aug-CC-pVDZ (5D, 7F)
 There are   650 symmetry adapted cartesian basis functions of A   symmetry.
 There are   616 symmetry adapted basis functions of A   symmetry.
   616 basis functions,  1006 primitive gaussians,   650 cartesian basis functions
    69 alpha electrons       69 beta electrons
       nuclear repulsion energy      1397.0490841888 Hartrees.
 NAtoms=   42 NActive=   42 NUniq=   42 SFac= 1.00D+00 NAtFMM=   60 NAOKFM=F Big=F
 Integral buffers will be    131072 words long.
 Raffenetti 2 integral format.
 Two-electron integral symmetry is turned on.
 Nuclear repulsion after empirical dispersion term =     1397.0148093747 Hartrees.
 One-electron integrals computed using PRISM.
 NBasis=   616 RedAO= T EigKep=  1.60D-06  NBF=   616
 NBsUse=   616 1.00D-06 EigRej= -1.00D+00 NBFU=   616
 ExpMin= 2.97D-02 ExpMax= 1.17D+04 ExpMxC= 4.01D+02 IAcc=3 IRadAn=         5 AccDes= 0.00D+00
 Harris functional with IExCor= 4639 and IRadAn=       5 diagonalized for initial guess.
 HarFok:  IExCor= 4639 AccDes= 0.00D+00 IRadAn=         5 IDoV= 1 UseB2=F ITyADJ=14
 ICtDFT=  3500011 ScaDFX=  1.000000  1.000000  1.000000  1.000000
 FoFCou: FMM=F IPFlag=           0 FMFlag=      100000 FMFlg1=           0
         NFxFlg=           0 DoJE=T BraDBF=F KetDBF=T FulRan=T
         wScrn=  0.000000 ICntrl=       500 IOpCl=  0 I1Cent=   200000004 NGrid=           0
         NMat0=    1 NMatS0=      1 NMatT0=    0 NMatD0=    1 NMtDS0=    0 NMtDT0=    0
 Petite list used in FoFCou.
 Requested convergence on RMS density matrix=1.00D-08 within 128 cycles.
 Requested convergence on MAX density matrix=1.00D-06.
 Requested convergence on             energy=1.00D-06.
 No special actions if energy rises.
 SCF Done:  E(RwB97XD) =  -881.470623595     A.U. after   16 cycles
            NFock= 16  Conv=0.11D-08     -V/T= 2.0062

 **********************************************************************

            Population analysis using the SCF density.

 **********************************************************************

 Orbital symmetries:
       Occupied  (A) (A) (A) (A) (A) (A) (A) (A) (A) (A) (A) (A)
                 (A) (A) (A) (A) (A) (A) (A) (A) (A) (A) (A) (A)
                 (A) (A) (A) (A) (A) (A) (A) (A) (A) (A) (A) (A)
                 (A) (A) (A) (A) (A) (A) (A) (A) (A) (A) (A) (A)
                 (A) (A) (A) (A) (A) (A) (A) (A) (A) (A) (A) (A)
                 (A) (A) (A) (A) (A) (A) (A) (A) (A)
       Virtual   (A) (A) (A) (A) (A) (A) (A) (A) (A) (A) (A) (A)
                 (A) (A) (A) (A) (A) (A) (A) (A) (A) (A) (A) (A)
                 (A) (A) (A) (A) (A) (A) (A) (A) (A) (A) (A) (A)
                 (A) (A) (A) (A) (A) (A) (A) (A) (A) (A) (A) (A)
                 (A) (A) (A) (A) (A) (A) (A) (A) (A) (A) (A) (A)
                 (A) (A) (A) (A) (A) (A) (A) (A) (A) (A) (A) (A)
                 (A) (A) (A) (A) (A) (A) (A) (A) (A) (A) (A) (A)
                 (A) (A) (A) (A) (A) (A) (A) (A) (A) (A) (A) (A)
                 (A) (A) (A) (A) (A) (A) (A) (A) (A) (A) (A) (A)
                 (A) (A) (A) (A) (A) (A) (A) (A) (A) (A) (A) (A)
                 (A) (A) (A) (A) (A) (A) (A) (A) (A) (A) (A) (A)
                 (A) (A) (A) (A) (A) (A) (A) (A) (A) (A) (A) (A)
                 (A) (A) (A) (A) (A) (A) (A) (A) (A) (A) (A) (A)
                 (A) (A) (A) (A) (A) (A) (A) (A) (A) (A) (A) (A)
                 (A) (A) (A) (A) (A) (A) (A) (A) (A) (A) (A) (A)
                 (A) (A) (A) (A) (A) (A) (A) (A) (A) (A) (A) (A)
                 (A) (A) (A) (A) (A) (A) (A) (A) (A) (A) (A) (A)
                 (A) (A) (A) (A) (A) (A) (A) (A) (A) (A) (A) (A)
                 (A) (A) (A) (A) (A) (A) (A) (A) (A) (A) (A) (A)
                 (A) (A) (A) (A) (A) (A) (A) (A) (A) (A) (A) (A)
                 (A) (A) (A) (A) (A) (A) (A) (A) (A) (A) (A) (A)
                 (A) (A) (A) (A) (A) (A) (A) (A) (A) (A) (A) (A)
                 (A) (A) (A) (A) (A) (A) (A) (A) (A) (A) (A) (A)
                 (A) (A) (A) (A) (A) (A) (A) (A) (A) (A) (A) (A)
                 (A) (A) (A) (A) (A) (A) (A) (A) (A) (A) (A) (A)
                 (A) (A) (A) (A) (A) (A) (A) (A) (A) (A) (A) (A)
                 (A) (A) (A) (A) (A) (A) (A) (A) (A) (A) (A) (A)
                 (A) (A) (A) (A) (A) (A) (A) (A) (A) (A) (A) (A)
                 (A) (A) (A) (A) (A) (A) (A) (A) (A) (A) (A) (A)
                 (A) (A) (A) (A) (A) (A) (A) (A) (A) (A) (A) (A)
                 (A) (A) (A) (A) (A) (A) (A) (A) (A) (A) (A) (A)
                 (A) (A) (A) (A) (A) (A) (A) (A) (A) (A) (A) (A)
                 (A) (A) (A) (A) (A) (A) (A) (A) (A) (A) (A) (A)
                 (A) (A) (A) (A) (A) (A) (A) (A) (A) (A) (A) (A)
                 (A) (A) (A) (A) (A) (A) (A) (A) (A) (A) (A) (A)
                 (A) (A) (A) (A) (A) (A) (A) (A) (A) (A) (A) (A)
                 (A) (A) (A) (A) (A) (A) (A) (A) (A) (A) (A) (A)
                 (A) (A) (A) (A) (A) (A) (A) (A) (A) (A) (A) (A)
                 (A) (A) (A) (A) (A) (A) (A) (A) (A) (A) (A) (A)
                 (A) (A) (A) (A) (A) (A) (A) (A) (A) (A) (A) (A)
                 (A) (A) (A) (A) (A) (A) (A) (A) (A) (A) (A) (A)
                 (A) (A) (A) (A) (A) (A) (A) (A) (A) (A) (A) (A)
                 (A) (A) (A) (A) (A) (A) (A) (A) (A) (A) (A) (A)
                 (A) (A) (A) (A) (A) (A) (A) (A) (A) (A) (A) (A)
                 (A) (A) (A) (A) (A) (A) (A) (A) (A) (A) (A) (A)
                 (A) (A) (A) (A) (A) (A) (A)
 The electronic state is 1-A.
 Alpha  occ. eigenvalues --  -19.40331 -19.38687 -19.37695 -19.37168 -19.35802
 Alpha  occ. eigenvalues --  -14.67684 -14.57067 -10.50878 -10.50170 -10.47519
 Alpha  occ. eigenvalues --  -10.46720 -10.46646 -10.45822 -10.42422 -10.42360
 Alpha  occ. eigenvalues --  -10.40969 -10.39891  -1.25794  -1.24212  -1.23238
 Alpha  occ. eigenvalues --   -1.22312  -1.21150  -1.19653  -1.16572  -1.07992
 Alpha  occ. eigenvalues --   -1.04464  -0.99919  -0.95504  -0.90448  -0.89283
 Alpha  occ. eigenvalues --   -0.88148  -0.82260  -0.79218  -0.78753  -0.75077
 Alpha  occ. eigenvalues --   -0.74530  -0.74087  -0.73839  -0.72954  -0.72298
 Alpha  occ. eigenvalues --   -0.71668  -0.69860  -0.68975  -0.68741  -0.67731
 Alpha  occ. eigenvalues --   -0.64961  -0.64230  -0.63805  -0.63024  -0.61873
 Alpha  occ. eigenvalues --   -0.60571  -0.60060  -0.59132  -0.58212  -0.57967
 Alpha  occ. eigenvalues --   -0.56337  -0.55694  -0.55536  -0.55105  -0.53239
 Alpha  occ. eigenvalues --   -0.53169  -0.53015  -0.52084  -0.51866  -0.51609
 Alpha  occ. eigenvalues --   -0.50729  -0.49851  -0.48639  -0.43217
 Alpha virt. eigenvalues --   -0.13596  -0.10678  -0.06554  -0.05298  -0.04645
 Alpha virt. eigenvalues --   -0.03978  -0.03948  -0.03120  -0.02863  -0.02441
 Alpha virt. eigenvalues --   -0.01804  -0.01311  -0.01223  -0.00488  -0.00353
 Alpha virt. eigenvalues --    0.00186   0.00523   0.01098   0.01183   0.01331
 Alpha virt. eigenvalues --    0.02015   0.02257   0.02414   0.02863   0.03272
 Alpha virt. eigenvalues --    0.03550   0.03686   0.04033   0.04252   0.04392
 Alpha virt. eigenvalues --    0.04810   0.05099   0.05289   0.05599   0.05796
 Alpha virt. eigenvalues --    0.05815   0.06216   0.06711   0.07205   0.07272
 Alpha virt. eigenvalues --    0.07616   0.07754   0.07881   0.08505   0.08843
 Alpha virt. eigenvalues --    0.08898   0.09354   0.09506   0.09801   0.10006
 Alpha virt. eigenvalues --    0.10526   0.10571   0.10817   0.11425   0.11657
 Alpha virt. eigenvalues --    0.11782   0.12093   0.12337   0.12517   0.12873
 Alpha virt. eigenvalues --    0.13004   0.13210   0.13279   0.13748   0.14116
 Alpha virt. eigenvalues --    0.14827   0.14961   0.15127   0.15290   0.15775
 Alpha virt. eigenvalues --    0.16088   0.16335   0.16626   0.16931   0.17006
 Alpha virt. eigenvalues --    0.17252   0.17529   0.18084   0.18209   0.18408
 Alpha virt. eigenvalues --    0.18729   0.19300   0.19455   0.19525   0.19783
 Alpha virt. eigenvalues --    0.20169   0.20270   0.20507   0.20656   0.21047
 Alpha virt. eigenvalues --    0.21515   0.21791   0.21838   0.22242   0.22670
 Alpha virt. eigenvalues --    0.23039   0.23320   0.23552   0.23793   0.24184
 Alpha virt. eigenvalues --    0.24513   0.24797   0.25198   0.25372   0.25428
 Alpha virt. eigenvalues --    0.26366   0.26427   0.26790   0.27095   0.27301
 Alpha virt. eigenvalues --    0.27888   0.27980   0.28142   0.28361   0.29141
 Alpha virt. eigenvalues --    0.29277   0.29789   0.29812   0.30463   0.30884
 Alpha virt. eigenvalues --    0.31154   0.31235   0.32108   0.32362   0.32797
 Alpha virt. eigenvalues --    0.33154   0.33324   0.33516   0.33954   0.34332
 Alpha virt. eigenvalues --    0.34824   0.35509   0.35636   0.36057   0.36428
 Alpha virt. eigenvalues --    0.36832   0.37103   0.37300   0.38250   0.38400
 Alpha virt. eigenvalues --    0.38894   0.39118   0.39478   0.39869   0.40245
 Alpha virt. eigenvalues --    0.40891   0.41483   0.41827   0.42502   0.42829
 Alpha virt. eigenvalues --    0.43076   0.43448   0.43511   0.43840   0.44477
 Alpha virt. eigenvalues --    0.44668   0.44908   0.44991   0.45608   0.46031
 Alpha virt. eigenvalues --    0.46529   0.46719   0.47099   0.47645   0.47949
 Alpha virt. eigenvalues --    0.48052   0.48676   0.49124   0.49293   0.49571
 Alpha virt. eigenvalues --    0.50286   0.50353   0.50487   0.51102   0.51728
 Alpha virt. eigenvalues --    0.51891   0.52276   0.52384   0.52544   0.52791
 Alpha virt. eigenvalues --    0.53135   0.53741   0.54137   0.54302   0.55216
 Alpha virt. eigenvalues --    0.55367   0.55839   0.56179   0.56408   0.56558
 Alpha virt. eigenvalues --    0.57262   0.58073   0.58354   0.58606   0.58743
 Alpha virt. eigenvalues --    0.58926   0.59410   0.59632   0.60067   0.60589
 Alpha virt. eigenvalues --    0.60910   0.61227   0.61730   0.61821   0.62281
 Alpha virt. eigenvalues --    0.63143   0.63419   0.63787   0.63862   0.64632
 Alpha virt. eigenvalues --    0.65130   0.65571   0.65971   0.66374   0.66634
 Alpha virt. eigenvalues --    0.67164   0.67270   0.67923   0.68167   0.68474
 Alpha virt. eigenvalues --    0.69723   0.69933   0.70217   0.70729   0.71187
 Alpha virt. eigenvalues --    0.71657   0.72019   0.72452   0.72646   0.73361
 Alpha virt. eigenvalues --    0.73700   0.74008   0.74243   0.74949   0.75364
 Alpha virt. eigenvalues --    0.75736   0.76211   0.76525   0.77354   0.77530
 Alpha virt. eigenvalues --    0.78258   0.78423   0.78968   0.80307   0.80804
 Alpha virt. eigenvalues --    0.81510   0.81846   0.82177   0.82301   0.83444
 Alpha virt. eigenvalues --    0.83783   0.85180   0.85350   0.85756   0.86346
 Alpha virt. eigenvalues --    0.86555   0.87030   0.87613   0.88473   0.89047
 Alpha virt. eigenvalues --    0.89209   0.89621   0.90108   0.90989   0.92127
 Alpha virt. eigenvalues --    0.92536   0.93285   0.93771   0.94496   0.94602
 Alpha virt. eigenvalues --    0.95666   0.96474   0.97083   0.97511   0.97930
 Alpha virt. eigenvalues --    0.99217   0.99581   1.00172   1.00734   1.01421
 Alpha virt. eigenvalues --    1.02413   1.02569   1.02807   1.04152   1.04276
 Alpha virt. eigenvalues --    1.04817   1.05556   1.05909   1.07490   1.08466
 Alpha virt. eigenvalues --    1.09155   1.10251   1.10874   1.10995   1.11733
 Alpha virt. eigenvalues --    1.12818   1.13411   1.14189   1.14359   1.15613
 Alpha virt. eigenvalues --    1.16088   1.16526   1.17046   1.17886   1.18463
 Alpha virt. eigenvalues --    1.19526   1.20075   1.20246   1.21239   1.21343
 Alpha virt. eigenvalues --    1.22341   1.22957   1.23995   1.24355   1.25704
 Alpha virt. eigenvalues --    1.27044   1.27990   1.28935   1.29650   1.30404
 Alpha virt. eigenvalues --    1.31262   1.32024   1.33558   1.35159   1.35211
 Alpha virt. eigenvalues --    1.35585   1.36308   1.36882   1.36929   1.37343
 Alpha virt. eigenvalues --    1.38008   1.39316   1.40010   1.40595   1.41307
 Alpha virt. eigenvalues --    1.42255   1.43423   1.44143   1.45463   1.46126
 Alpha virt. eigenvalues --    1.47072   1.48270   1.49166   1.50804   1.51124
 Alpha virt. eigenvalues --    1.51880   1.53107   1.53913   1.55371   1.55666
 Alpha virt. eigenvalues --    1.56493   1.57320   1.58481   1.58984   1.59348
 Alpha virt. eigenvalues --    1.60701   1.61084   1.62458   1.62936   1.64054
 Alpha virt. eigenvalues --    1.64376   1.64888   1.66110   1.66707   1.67314
 Alpha virt. eigenvalues --    1.68739   1.69638   1.70619   1.71333   1.71524
 Alpha virt. eigenvalues --    1.72691   1.73118   1.73514   1.74330   1.74956
 Alpha virt. eigenvalues --    1.76433   1.76954   1.77497   1.78623   1.78972
 Alpha virt. eigenvalues --    1.80525   1.81496   1.81530   1.81829   1.82329
 Alpha virt. eigenvalues --    1.82994   1.83305   1.84217   1.84615   1.85576
 Alpha virt. eigenvalues --    1.86117   1.86973   1.87423   1.87521   1.88924
 Alpha virt. eigenvalues --    1.90201   1.90479   1.90737   1.92036   1.92856
 Alpha virt. eigenvalues --    1.93112   1.93859   1.94575   1.95295   1.95702
 Alpha virt. eigenvalues --    1.96338   1.96550   1.97684   1.97868   1.99617
 Alpha virt. eigenvalues --    1.99979   2.00900   2.01268   2.01539   2.03256
 Alpha virt. eigenvalues --    2.04137   2.05797   2.06139   2.06517   2.08316
 Alpha virt. eigenvalues --    2.09460   2.09528   2.11233   2.11839   2.12349
 Alpha virt. eigenvalues --    2.12739   2.12941   2.13682   2.13897   2.14632
 Alpha virt. eigenvalues --    2.16126   2.18350   2.18629   2.19321   2.20722
 Alpha virt. eigenvalues --    2.20989   2.22168   2.22945   2.24070   2.24675
 Alpha virt. eigenvalues --    2.25408   2.26444   2.27299   2.28173   2.28997
 Alpha virt. eigenvalues --    2.29436   2.30448   2.31230   2.31774   2.32784
 Alpha virt. eigenvalues --    2.33832   2.35067   2.36287   2.37074   2.39210
 Alpha virt. eigenvalues --    2.40094   2.40725   2.41741   2.43016   2.43536
 Alpha virt. eigenvalues --    2.44900   2.47294   2.47624   2.48018   2.48424
 Alpha virt. eigenvalues --    2.49931   2.52304   2.52877   2.53858   2.54636
 Alpha virt. eigenvalues --    2.55891   2.58030   2.58177   2.59286   2.61225
 Alpha virt. eigenvalues --    2.61335   2.63039   2.64064   2.64560   2.64979
 Alpha virt. eigenvalues --    2.65996   2.67493   2.68998   2.69697   2.70040
 Alpha virt. eigenvalues --    2.70252   2.70934   2.73804   2.75763   2.76591
 Alpha virt. eigenvalues --    2.76925   2.77971   2.80218   2.80816   2.82070
 Alpha virt. eigenvalues --    2.82928   2.84301   2.85676   2.88560   2.88883
 Alpha virt. eigenvalues --    2.89752   2.92189   2.93661   2.96496   2.97820
 Alpha virt. eigenvalues --    3.00573   3.01225   3.02828   3.04471   3.09633
 Alpha virt. eigenvalues --    3.13706   3.14987   3.21373   3.25567   3.26785
 Alpha virt. eigenvalues --    3.29635   3.34220   3.36544   3.38866   3.40219
 Alpha virt. eigenvalues --    3.43426   3.44034   3.44300   3.45951   3.48277
 Alpha virt. eigenvalues --    3.50406   3.51862   3.52900   3.55977   3.56755
 Alpha virt. eigenvalues --    3.58664   3.63852   3.64027   3.67621   3.70575
 Alpha virt. eigenvalues --    3.72369   3.83162   3.85227   3.89429   3.94067
 Alpha virt. eigenvalues --    3.96391   4.01928   4.06815   4.12735   4.16122
 Alpha virt. eigenvalues --    4.37533   4.85267
          Condensed to atoms (all electrons):
               1          2          3          4          5          6
     1  C   26.139368 -12.876001  -0.648691  -0.711059   1.732653  -4.693547
     2  C  -12.876001  27.841428  -6.533061   0.754698  -1.193709   0.912676
     3  C   -0.648691  -6.533061  18.030435  -1.645496  -1.875530   0.640146
     4  N   -0.711059   0.754698  -1.645496   8.083511   0.473055  -0.099097
     5  C    1.732653  -1.193709  -1.875530   0.473055  10.579010  -3.010649
     6  C   -4.693547   0.912676   0.640146  -0.099097  -3.010649  12.326157
     7  C   -0.790603  -7.935933  -1.251688   0.526557  -0.176955  -0.235630
     8  N   -1.030957   2.820442  -0.259454  -0.024133   0.022983   0.126698
     9  C   -0.099398  -0.211976  -0.256389   0.040439  -0.057043  -0.004349
    10  C   -0.143879   0.202919  -0.167003   0.034488   0.034876   0.005047
    11  C   -0.157517   0.870330  -0.697410   0.011894  -0.123161  -0.170608
    12  O    0.082736  -0.249622   0.314902  -0.332707   0.039987  -0.059407
    13  O   -0.040908   0.051680  -0.033620  -0.001818  -0.025943   0.034257
    14  O    0.020455  -0.076999  -0.037287  -0.025104   0.028659  -0.033997
    15  H    0.015701  -0.217295  -0.003199   0.002535  -0.004109   0.000370
    16  H    0.019872  -0.053180   0.031875   0.000657   0.000896   0.002653
    17  H   -0.035009   0.125450  -0.040646   0.001538   0.002022   0.000306
    18  H   -0.031439   0.403753   0.161445  -0.014729  -0.000598   0.003312
    19  H    0.065120  -0.438089  -0.182981   0.042745   0.011695  -0.045462
    20  H    0.013599   0.089062  -0.010434  -0.000163  -0.000393  -0.006799
    21  H    0.032884   0.846783  -0.056953  -0.003999   0.025506  -0.004163
    22  H   -0.090964  -1.495630  -0.256744  -0.232973  -0.233209   0.138218
    23  H    0.246287  -0.157767   0.290540  -0.218631  -0.640298   0.205291
    24  H    0.552595   0.162266  -0.267095   0.024862   0.418662  -1.252268
    25  H   -2.632754   1.199564   0.091050  -0.047748  -0.307214   0.809630
    26  C   -0.182299   0.492786   0.065873  -0.019864  -0.032468   0.119458
    27  H   -0.064623  -0.234042   0.240261   0.062821  -0.491914  -0.068522
    28  H    0.022600  -0.176779  -0.100045  -0.000042   0.041226  -0.048400
    29  H    0.011028   0.004929   0.033612   0.002703   0.001027   0.001275
    30  H   -0.043512   0.063735  -0.081346   0.048022  -0.005509   0.016487
    31  H    0.015756  -0.021097   0.025392  -0.009027  -0.003187  -0.000143
    32  H    0.005146  -0.016294   0.023996  -0.001490   0.000423  -0.000889
    33  H   -0.020306   0.033986  -0.022829   0.009483  -0.003355   0.003755
    34  O   -0.011822   0.030800  -0.108244   0.021397  -0.016490   0.017152
    35  H   -0.009409   0.008187  -0.044814   0.007536  -0.002904   0.003565
    36  H   -0.002459   0.013493   0.017996   0.006157   0.000842  -0.000979
    37  H   -0.048783   0.026038   0.001317  -0.003948  -0.008562   0.022663
    38  H    0.100855  -0.058613  -0.058534   0.013097   0.009922  -0.038065
    39  H    0.081678   0.035608   0.067339  -0.000555   0.003896  -0.009405
    40  O   -0.000010  -0.001779   0.008330  -0.005399  -0.002706   0.001504
    41  H   -0.000399   0.000325   0.000442   0.000266  -0.001038   0.000429
    42  H   -0.000011  -0.000187   0.000953  -0.000327  -0.000074   0.000047
               7          8          9         10         11         12
     1  C   -0.790603  -1.030957  -0.099398  -0.143879  -0.157517   0.082736
     2  C   -7.935933   2.820442  -0.211976   0.202919   0.870330  -0.249622
     3  C   -1.251688  -0.259454  -0.256389  -0.167003  -0.697410   0.314902
     4  N    0.526557  -0.024133   0.040439   0.034488   0.011894  -0.332707
     5  C   -0.176955   0.022983  -0.057043   0.034876  -0.123161   0.039987
     6  C   -0.235630   0.126698  -0.004349   0.005047  -0.170608  -0.059407
     7  C   26.294627  -6.559306  -0.690320   0.568334  -3.094573   0.001144
     8  N   -6.559306  15.377205  -0.153091  -0.711758  -0.423536  -0.014392
     9  C   -0.690320  -0.153091   6.335105  -0.093154   0.872365   0.001288
    10  C    0.568334  -0.711758  -0.093154   6.670925  -1.097466  -0.007315
    11  C   -3.094573  -0.423536   0.872365  -1.097466   9.650413   0.002368
    12  O    0.001144  -0.014392   0.001288  -0.007315   0.002368   8.504037
    13  O   -0.010306   0.010444  -0.002039   0.002668  -0.003522  -0.085367
    14  O    0.123172  -0.200434  -0.002889  -0.021941   0.075780   0.028740
    15  H    0.636098  -0.898026  -0.372156   0.196633   0.041056  -0.000091
    16  H    0.250024  -0.031323   0.082957  -0.359930   0.105119  -0.000299
    17  H   -0.251297   0.235782  -0.114431  -0.346257   0.317768  -0.004550
    18  H    0.056260   0.387134  -0.284616   0.166673  -1.031059  -0.000119
    19  H    0.311023  -0.027284   0.161908   0.277414  -0.294801   0.004674
    20  H    0.084426  -0.305621  -0.139893  -0.031570   0.008581   0.000244
    21  H   -2.495872   0.072900  -0.079612   0.080772   0.458959   0.000131
    22  H   -0.112036  -0.292030  -0.041235  -0.031012  -0.359639   0.040899
    23  H   -0.036989   0.009761  -0.001268   0.000150   0.002731  -0.013120
    24  H    0.080805  -0.002045   0.000175   0.001634   0.004464  -0.001256
    25  H    0.083621   0.013646   0.014293  -0.021359  -0.028647   0.001690
    26  C   -1.078232   1.233176  -0.255685  -0.083185  -0.204641  -0.002318
    27  H    0.123534  -0.018502  -0.009487   0.009076  -0.039206   0.006663
    28  H    0.543319  -0.301659  -0.115685   0.031424   0.054899   0.000751
    29  H   -0.080531  -0.015850   0.018797  -0.016345   0.019570   0.007917
    30  H    0.014555   0.006877  -0.005645   0.006229  -0.010608   0.312580
    31  H   -0.009334   0.001853   0.001884  -0.002224   0.003598   0.257112
    32  H    0.000269  -0.001097  -0.001106  -0.000534   0.000066   0.008815
    33  H   -0.001288  -0.016270   0.026486   0.008588   0.000810   0.006595
    34  O   -0.069731   0.029074   0.008205  -0.030191   0.027920  -0.076024
    35  H    0.014027   0.002980  -0.012608   0.009191  -0.005531  -0.002774
    36  H    0.003520  -0.009677   0.009327   0.000269   0.001717   0.006569
    37  H    0.143496  -0.375642  -0.043251   0.067696  -0.078234  -0.000474
    38  H    0.079288   0.328657  -0.038839  -0.052272   0.086873   0.000004
    39  H   -0.014963  -0.712721   0.109737   0.004158  -0.020903  -0.000127
    40  O   -0.000015  -0.000046  -0.000007  -0.000006   0.000018  -0.043488
    41  H    0.000020   0.000009  -0.000013   0.000018  -0.000023   0.007144
    42  H    0.000066  -0.000052   0.000003  -0.000001   0.000010   0.008298
              13         14         15         16         17         18
     1  C   -0.040908   0.020455   0.015701   0.019872  -0.035009  -0.031439
     2  C    0.051680  -0.076999  -0.217295  -0.053180   0.125450   0.403753
     3  C   -0.033620  -0.037287  -0.003199   0.031875  -0.040646   0.161445
     4  N   -0.001818  -0.025104   0.002535   0.000657   0.001538  -0.014729
     5  C   -0.025943   0.028659  -0.004109   0.000896   0.002022  -0.000598
     6  C    0.034257  -0.033997   0.000370   0.002653   0.000306   0.003312
     7  C   -0.010306   0.123172   0.636098   0.250024  -0.251297   0.056260
     8  N    0.010444  -0.200434  -0.898026  -0.031323   0.235782   0.387134
     9  C   -0.002039  -0.002889  -0.372156   0.082957  -0.114431  -0.284616
    10  C    0.002668  -0.021941   0.196633  -0.359930  -0.346257   0.166673
    11  C   -0.003522   0.075780   0.041056   0.105119   0.317768  -1.031059
    12  O   -0.085367   0.028740  -0.000091  -0.000299  -0.004550  -0.000119
    13  O    7.882995  -0.066242  -0.000131  -0.000053   0.001551  -0.000015
    14  O   -0.066242   8.474802   0.031963  -0.002135  -0.004247   0.000391
    15  H   -0.000131   0.031963   2.759605   0.048051  -0.241266  -0.025560
    16  H   -0.000053  -0.002135   0.048051   2.090371  -0.573842  -0.294458
    17  H    0.001551  -0.004247  -0.241266  -0.573842   2.205404   0.221222
    18  H   -0.000015   0.000391  -0.025560  -0.294458   0.221222   2.647920
    19  H   -0.000536   0.007396   0.023500   0.111743  -0.353443  -0.699229
    20  H   -0.000123  -0.005613  -0.496757  -0.180327   0.180491   0.032295
    21  H   -0.000259   0.003980   0.049638   0.054031  -0.081829  -0.370227
    22  H    0.031107   0.054059  -0.023919   0.045571  -0.039218   0.086372
    23  H    0.003059   0.000275  -0.000204   0.000006   0.000351   0.001024
    24  H    0.000520  -0.000733   0.000200   0.000106  -0.000108  -0.001145
    25  H   -0.000839   0.000437  -0.003390  -0.000129   0.001427   0.006937
    26  C    0.001800  -0.092025  -0.144741   0.001233   0.033022   0.039204
    27  H   -0.021802  -0.014255   0.001071  -0.000300   0.004662   0.001109
    28  H   -0.000098   0.118595   0.114189   0.002628  -0.005203   0.000007
    29  H   -0.000042   0.277576  -0.008148   0.001390   0.000309  -0.001958
    30  H   -0.004982  -0.023341   0.000423   0.000166   0.002265  -0.000029
    31  H    0.000688   0.003915   0.000004  -0.000003  -0.001484   0.000002
    32  H    0.347978  -0.008147   0.000081  -0.000002  -0.000228   0.000013
    33  H    0.281066   0.050411  -0.003537  -0.000508   0.002451  -0.000226
    34  O   -0.001178  -0.093139   0.001433  -0.000726   0.011888   0.000034
    35  H    0.003335  -0.010871   0.000700  -0.000765   0.005932   0.000123
    36  H    0.000035   0.008398   0.000513  -0.000170  -0.000466  -0.000741
    37  H    0.002657   0.004851  -0.015364  -0.001294   0.014378  -0.001465
    38  H   -0.005977   0.016868  -0.003445   0.002702  -0.010958  -0.009335
    39  H   -0.000299  -0.008652   0.035497  -0.001750  -0.000624   0.019097
    40  O    0.000824   0.000000  -0.000007  -0.000001   0.000067  -0.000000
    41  H   -0.000056  -0.000092  -0.000001   0.000001   0.000021   0.000001
    42  H    0.000136   0.000045  -0.000001  -0.000000   0.000004  -0.000000
              19         20         21         22         23         24
     1  C    0.065120   0.013599   0.032884  -0.090964   0.246287   0.552595
     2  C   -0.438089   0.089062   0.846783  -1.495630  -0.157767   0.162266
     3  C   -0.182981  -0.010434  -0.056953  -0.256744   0.290540  -0.267095
     4  N    0.042745  -0.000163  -0.003999  -0.232973  -0.218631   0.024862
     5  C    0.011695  -0.000393   0.025506  -0.233209  -0.640298   0.418662
     6  C   -0.045462  -0.006799  -0.004163   0.138218   0.205291  -1.252268
     7  C    0.311023   0.084426  -2.495872  -0.112036  -0.036989   0.080805
     8  N   -0.027284  -0.305621   0.072900  -0.292030   0.009761  -0.002045
     9  C    0.161908  -0.139893  -0.079612  -0.041235  -0.001268   0.000175
    10  C    0.277414  -0.031570   0.080772  -0.031012   0.000150   0.001634
    11  C   -0.294801   0.008581   0.458959  -0.359639   0.002731   0.004464
    12  O    0.004674   0.000244   0.000131   0.040899  -0.013120  -0.001256
    13  O   -0.000536  -0.000123  -0.000259   0.031107   0.003059   0.000520
    14  O    0.007396  -0.005613   0.003980   0.054059   0.000275  -0.000733
    15  H    0.023500  -0.496757   0.049638  -0.023919  -0.000204   0.000200
    16  H    0.111743  -0.180327   0.054031   0.045571   0.000006   0.000106
    17  H   -0.353443   0.180491  -0.081829  -0.039218   0.000351  -0.000108
    18  H   -0.699229   0.032295  -0.370227   0.086372   0.001024  -0.001145
    19  H    2.502593  -0.024515   0.205928  -0.172003  -0.002494   0.001817
    20  H   -0.024515   2.239282  -0.062450  -0.001631   0.000038  -0.000334
    21  H    0.205928  -0.062450   3.201584  -0.017890  -0.001666   0.004231
    22  H   -0.172003  -0.001631  -0.017890   5.550244   0.076423  -0.026211
    23  H   -0.002494   0.000038  -0.001666   0.076423   2.324768  -0.119025
    24  H    0.001817  -0.000334   0.004231  -0.026211  -0.119025   2.138551
    25  H   -0.010078   0.003935  -0.155796  -0.008272  -0.008120  -0.138605
    26  C   -0.019117  -0.017958   0.048933  -0.005505   0.003997  -0.008457
    27  H   -0.006260  -0.000317  -0.000206  -0.261966  -0.268122   0.014918
    28  H   -0.006775   0.010134  -0.006051   0.031386  -0.003904   0.001054
    29  H    0.002411   0.000814   0.002412  -0.003886   0.000073  -0.000033
    30  H   -0.001881  -0.000328   0.000399  -0.016096  -0.006204   0.000515
    31  H    0.000097   0.000035  -0.000203   0.028875   0.008299  -0.000020
    32  H    0.000052  -0.000026   0.000108   0.002509   0.000523  -0.000122
    33  H    0.001004   0.001071  -0.001150  -0.013478   0.000637   0.000174
    34  O   -0.006323   0.000386  -0.000356  -0.008258   0.001218   0.000259
    35  H   -0.006273   0.000325   0.000147   0.005763   0.000178   0.000023
    36  H    0.007660  -0.000187   0.000041  -0.037716  -0.000381   0.000023
    37  H   -0.003360   0.010376   0.024373  -0.000992   0.000256  -0.000970
    38  H    0.012993  -0.004553   0.011801  -0.007477  -0.002461  -0.000259
    39  H   -0.009152   0.070418   0.012487   0.025719   0.000359  -0.000166
    40  O    0.000059   0.000001   0.000002  -0.001535  -0.000974   0.000072
    41  H   -0.000047  -0.000000   0.000001   0.000539  -0.000135   0.000016
    42  H    0.000021   0.000001   0.000003  -0.000164   0.000167  -0.000008
              25         26         27         28         29         30
     1  C   -2.632754  -0.182299  -0.064623   0.022600   0.011028  -0.043512
     2  C    1.199564   0.492786  -0.234042  -0.176779   0.004929   0.063735
     3  C    0.091050   0.065873   0.240261  -0.100045   0.033612  -0.081346
     4  N   -0.047748  -0.019864   0.062821  -0.000042   0.002703   0.048022
     5  C   -0.307214  -0.032468  -0.491914   0.041226   0.001027  -0.005509
     6  C    0.809630   0.119458  -0.068522  -0.048400   0.001275   0.016487
     7  C    0.083621  -1.078232   0.123534   0.543319  -0.080531   0.014555
     8  N    0.013646   1.233176  -0.018502  -0.301659  -0.015850   0.006877
     9  C    0.014293  -0.255685  -0.009487  -0.115685   0.018797  -0.005645
    10  C   -0.021359  -0.083185   0.009076   0.031424  -0.016345   0.006229
    11  C   -0.028647  -0.204641  -0.039206   0.054899   0.019570  -0.010608
    12  O    0.001690  -0.002318   0.006663   0.000751   0.007917   0.312580
    13  O   -0.000839   0.001800  -0.021802  -0.000098  -0.000042  -0.004982
    14  O    0.000437  -0.092025  -0.014255   0.118595   0.277576  -0.023341
    15  H   -0.003390  -0.144741   0.001071   0.114189  -0.008148   0.000423
    16  H   -0.000129   0.001233  -0.000300   0.002628   0.001390   0.000166
    17  H    0.001427   0.033022   0.004662  -0.005203   0.000309   0.002265
    18  H    0.006937   0.039204   0.001109   0.000007  -0.001958  -0.000029
    19  H   -0.010078  -0.019117  -0.006260  -0.006775   0.002411  -0.001881
    20  H    0.003935  -0.017958  -0.000317   0.010134   0.000814  -0.000328
    21  H   -0.155796   0.048933  -0.000206  -0.006051   0.002412   0.000399
    22  H   -0.008272  -0.005505  -0.261966   0.031386  -0.003886  -0.016096
    23  H   -0.008120   0.003997  -0.268122  -0.003904   0.000073  -0.006204
    24  H   -0.138605  -0.008457   0.014918   0.001054  -0.000033   0.000515
    25  H    3.003542   0.048776   0.004029  -0.003175   0.000699  -0.001404
    26  C    0.048776   4.751419  -0.005443  -0.175045   0.019460   0.000542
    27  H    0.004029  -0.005443   1.987125   0.003396  -0.004015  -0.012972
    28  H   -0.003175  -0.175045   0.003396   0.819500  -0.149649   0.009383
    29  H    0.000699   0.019460  -0.004015  -0.149649   0.546244  -0.005413
    30  H   -0.001404   0.000542  -0.012972   0.009383  -0.005413   0.498291
    31  H    0.000417   0.000305  -0.012333  -0.004792   0.002517  -0.168882
    32  H    0.000089   0.002107   0.003334  -0.003146   0.004713  -0.006657
    33  H    0.000244  -0.007276  -0.008922  -0.021111  -0.002522  -0.009990
    34  O   -0.000420   0.007962  -0.008997  -0.038370   0.051842  -0.002914
    35  H   -0.000341   0.000611   0.017727   0.007935  -0.008476   0.000148
    36  H   -0.000091  -0.002026   0.003339   0.006438  -0.003339   0.002414
    37  H    0.001897   0.289748   0.000337   0.023334  -0.007162   0.001916
    38  H   -0.036202  -0.015494   0.002899   0.016746  -0.004078  -0.000031
    39  H    0.020410   0.194769  -0.001099  -0.033607   0.008669  -0.000953
    40  O   -0.000007  -0.000003   0.001108   0.000326  -0.000567   0.010241
    41  H   -0.000010   0.000005  -0.001063  -0.000002  -0.000076   0.001637
    42  H    0.000001  -0.000012  -0.002347  -0.000001   0.000048  -0.004521
              31         32         33         34         35         36
     1  C    0.015756   0.005146  -0.020306  -0.011822  -0.009409  -0.002459
[...]
 0046606,0.00007609,-0.00027121,0.00025805,0.00006436,0.00016139,-0.000
 02608,-0.00003730,0.00003756,-0.00012186,-0.00034142,-0.00010940,0.000
 08404,-0.00002417,-0.00028573,0.00015495,-0.00021986,-0.00011409,-0.00
 055255,-0.00002985,-0.00002928,-0.00009191,-0.00003251,0.00004849,0.00
 004906,-0.00006100,0.00006263,-0.00001507,-0.00000032,0.00019725,-0.00
 005335,-0.00000015,0.00027373,-0.00017464,0.00006532,-0.00003975,-0.00
 002957,-0.00000273,0.00001051,0.00000795,-0.00000275,-0.00000042,0.000
 02112,0.00003953,0.00009088,-0.00004250,0.04457051,-0.02834335,-0.0604
 7416,-0.00016535,-0.00021803,-0.00001507,0.00054184,0.00020787,-0.0001
 8630,0.00004259,-0.00000061,0.00000908,0.00001739,-0.00003473,0.000074
 52,-0.00003952,-0.00000663,-0.00001803,0.00002611,0.00002987,0.0000312
 7,0.00003144,-0.00006791,0.00005632,-0.00007109,0.00009637,0.00000829,
 0.00002879,-0.00006094,-0.00000966,0.00003036,0.00000048,-0.00000930,-
 0.01806019,0.01013566,0.00638782,-0.05409185,0.04068319,0.07071786,-0.
 00021655,-0.00040300,-0.00001851,-0.00000902,0.00022321,0.00016496,0.0
 0009287,-0.00013671,0.00001992,0.00009887,0.00004138,0.00001435,0.0000
 3376,0.00002926,0.00002184,-0.00000700,0.00005437,0.00003362,0.0006339
 4,-0.00054865,0.00129317,-0.00302978,-0.00492179,-0.00750760,0.0025726
 5,0.00170940,0.00028321,0.00017690,0.00012324,0.00024850,0.00021434,0.
 00016020,0.00009806,-0.00008723,0.00000731,-0.00008173,-0.00025057,-0.
 00002435,-0.00001911,-0.00064666,-0.00056329,0.00022096,-0.00011248,-0
 .00010669,0.00003753,-0.00001185,-0.00000691,-0.00007994,-0.00004629,0
 .00004996,0.00015400,0.00002673,0.00000297,-0.00008886,-0.00002801,0.0
 0012037,0.00005621,0.00048578,-0.00131697,-0.00078079,-0.00031447,0.00
 088199,-0.00124293,0.00006372,0.00001194,0.00005482,0.00001123,0.00000
 899,0.00000333,-0.00002460,-0.00000942,0.00000636,-0.00003204,0.000112
 90,-0.00011002,-0.20858260,-0.11634055,0.00440652,0.00001532,-0.000006
 73,0.00000912,0.00083004,0.00097975,-0.00039709,0.00013526,0.00011654,
 0.00014535,0.00006912,0.00000301,0.00010267,0.00006741,0.00000985,0.00
 002404,0.00003881,0.00001714,-0.00002616,0.00027073,0.00001086,-0.0000
 3806,-0.00005650,-0.00002145,-0.00010930,0.00003461,-0.00001158,0.0000
 1442,-0.00000930,0.00001305,0.00001149,0.00365862,0.00372324,0.0001427
 8,-0.01855910,-0.01606968,0.00093224,0.22251991,0.00000976,-0.00002816
 ,-0.00004447,0.00018129,0.00000976,-0.00001801,-0.00006681,-0.00014383
 ,0.00007093,0.00003601,-0.00005263,-0.00006854,-0.00001819,0.00010847,
 0.00002550,-0.00013091,-0.00001326,0.00002823,0.00211839,0.00119518,0.
 00158461,-0.01292685,-0.01314123,-0.01048019,-0.00312506,0.00099631,0.
 00098164,0.00039666,0.00014182,-0.00008147,0.00020361,0.00006323,0.000
 28214,-0.00007517,-0.00000297,-0.00001337,-0.00016458,0.00011511,0.000
 07585,-0.00083322,-0.00060257,0.00037600,0.00006866,-0.00011114,0.0001
 0332,0.00004275,0.00002644,-0.00015675,0.00017933,0.00004363,0.0002307
 4,-0.00000422,-0.00001536,-0.00006098,0.00001261,0.00002059,0.00003097
 ,0.00121163,-0.00014267,-0.00026713,-0.00035704,0.00072959,-0.00108247
 ,0.00006402,0.00000963,0.00004904,0.00000260,0.00000010,0.00000338,-0.
 00000739,0.00000437,-0.00000729,-0.00000650,0.00000082,-0.00003685,-0.
 11535363,-0.13501069,0.00414506,0.00002767,0.00002537,-0.00001239,0.00
 113539,0.00090341,-0.00065117,0.00009836,0.00016665,0.00013006,0.00003
 030,-0.00000386,0.00001017,0.00004901,0.00000688,0.00001760,0.00000986
 ,-0.00001527,-0.00001924,0.00028356,-0.00015678,-0.00011114,-0.0000631
 6,-0.00002478,-0.00010065,0.00004476,-0.00001833,0.00000304,-0.0000116
 8,0.00001297,0.00000928,-0.01884464,-0.01196543,-0.00024646,0.01372303
 ,0.01076219,0.00036700,0.13207990,0.14610884,-0.00001762,-0.00009189,0
 .00003771,0.00027744,0.00062271,-0.00007735,-0.00005997,-0.00018119,-0
 .00008708,0.00011251,0.00000726,-0.00000797,-0.00002813,0.00012773,0.0
 0001133,-0.00011205,0.00001609,0.00002467,-0.00199575,-0.00576359,0.00
 333242,-0.02788746,-0.02486784,-0.01360132,-0.00406747,0.00127646,0.00
 137338,0.00026559,0.00017671,0.00010142,0.00035556,0.00014380,0.000409
 55,0.00000221,0.00000947,0.00006169,0.00003485,0.00009895,0.00012257,-
 0.00076215,-0.00049232,0.00086559,0.00041397,-0.00004087,-0.00017156,0
 .00010888,0.00009546,-0.00008175,0.00011479,0.00011779,0.00009522,0.00
 006824,0.00001998,-0.00006242,-0.00001519,0.00007354,0.00010855,0.0013
 2446,0.00081538,0.00035734,0.00119830,0.00161856,0.00042757,0.00009749
 ,0.00002831,0.00003475,0.00000237,0.00000730,0.00000695,-0.00000791,0.
 00000538,0.00000280,0.00000502,0.00002764,0.00000059,0.00537031,0.0046
 5804,-0.04889403,0.00001701,-0.00000413,-0.00001305,0.00093002,0.00061
 270,-0.00148940,0.00007771,0.00004550,-0.00003342,-0.00002943,-0.00000
 791,-0.00008316,-0.00001278,-0.00000292,-0.00000374,-0.00004876,-0.000
 02610,-0.00001042,0.00002127,-0.00013404,-0.00012471,-0.00003819,0.000
 00074,0.00003092,0.00002522,-0.00001673,-0.00001882,0.00000555,0.00000
 146,-0.00000244,0.01758395,0.01102312,0.00105180,0.00465638,0.00505869
 ,0.00011018,0.00200938,0.00494009,0.05619400,-0.00007691,0.00009622,0.
 00001821,-0.00004660,-0.00026611,-0.00006606,0.00059727,-0.00011756,-0
 .00004544,-0.00114050,-0.00147025,-0.00005793,-0.00050421,0.00044213,0
 .00011896,0.00002615,-0.00013518,-0.00005444,0.00012572,-0.00000795,-0
 .00000829,-0.00024942,-0.00009044,-0.00000306,0.00010798,-0.00004102,-
 0.00004544,0.00003741,0.00003237,0.00001921,0.00002068,0.00001264,-0.0
 0001661,-0.01604233,-0.00474408,-0.00743116,-0.00052844,-0.00024694,-0
 .00170932,-0.00060413,-0.00003993,-0.00017019,0.00001503,0.00001391,-0
 .00000121,-0.00003065,-0.00000174,0.00000412,0.00001741,-0.00003873,-0
 .00001069,-0.00003130,-0.00001243,-0.00000211,0.00000705,0.00001923,-0
 .00004585,-0.00004723,-0.00002661,-0.00000222,-0.00005220,-0.00001722,
 -0.00000994,0.00020760,0.00012884,0.00000149,-0.00003804,0.00005727,0.
 00000299,-0.00005218,-0.00002127,-0.00001115,-0.00000594,-0.00000585,-
 0.00000480,0.00005910,0.00006393,0.00008901,0.00183019,0.00335384,-0.0
 0015266,0.00027314,0.00019727,-0.00001397,0.00032592,-0.00004384,0.000
 25989,-0.00094184,-0.00022708,0.00340599,-0.00172731,0.00338705,0.0026
 1165,-0.00030420,-0.00001253,0.00004555,0.00047955,-0.00005034,0.00008
 054,-0.00125229,0.00061768,0.00033222,0.00165325,-0.00110747,-0.000686
 57,0.00005866,-0.00015233,-0.00010995,0.00000999,0.00001472,0.00000110
 ,0.00000150,0.00001698,0.00002204,-0.00004094,-0.00003088,0.00000662,0
 .42954635,0.00006344,-0.00005846,-0.00001469,0.00005630,0.00006845,0.0
 0003958,-0.00001580,-0.00009080,-0.00000845,0.00002445,0.00000612,-0.0
 0004594,0.00021408,0.00008177,0.00002488,-0.00018666,0.00002104,-0.000
 00253,0.00007892,-0.00003566,0.00003775,-0.00003749,0.00008130,-0.0000
 1474,0.00002325,-0.00002916,-0.00002659,-0.00002035,-0.00002566,0.0000
 1411,-0.00000469,0.00000474,-0.00001724,-0.00453724,0.00290447,-0.0008
 3500,-0.00007751,0.00025961,-0.00016320,0.00000087,0.00019336,0.000009
 11,-0.00001003,0.00000723,-0.00000821,-0.00000824,0.00000834,0.0000005
 9,0.00000786,0.00000682,-0.00000377,-0.00000389,0.00000734,0.00000181,
 -0.00000289,-0.00001229,-0.00001426,-0.00000787,0.00000384,0.00000544,
 -0.00001193,0.00001610,-0.00000435,0.00000297,-0.00009767,-0.00001699,
 0.00007317,0.00007920,0.00005041,0.00001354,0.00001048,0.00000838,-0.0
 0000765,-0.00000118,0.00000091,0.00001017,-0.00000114,0.00000267,0.000
 21964,-0.00009600,0.00006636,-0.00004239,-0.00008598,0.00002666,-0.000
 04415,-0.00011448,-0.00005159,-0.00010933,-0.00029336,0.00037765,0.001
 90293,-0.00401868,-0.00090338,-0.00004349,-0.00014693,-0.00005035,0.00
 006168,-0.00009147,-0.00001817,-0.00003462,0.00047155,0.00011903,0.000
 14361,-0.00058310,-0.00022269,-0.00019858,-0.00006725,0.00004370,-0.00
 000555,0.00000484,-0.00000687,-0.00000736,0.00000173,0.00001376,0.0000
 0008,-0.00000097,0.00000079,0.15091661,0.13541925,-0.00000142,0.000010
 52,-0.00000691,-0.00000829,-0.00003367,-0.00000207,0.00013139,-0.00004
 578,-0.00004194,-0.00034797,-0.00052180,0.00003892,-0.00009524,0.00009
 380,0.00001901,-0.00003067,-0.00004321,-0.00001124,0.00003256,0.000012
 80,-0.00003318,-0.00011031,-0.00004469,0.00005532,0.00005019,-0.000023
 12,-0.00002979,0.00000253,0.00000828,0.00001335,-0.00001401,-0.0000002
 1,-0.00002499,-0.00647952,-0.00103482,0.00458381,-0.00069932,-0.000083
 47,-0.00001865,-0.00036564,0.00002247,0.00014006,0.00000723,0.00000024
 ,0.00000362,-0.00001401,0.00000062,0.00000235,0.00000617,-0.00000685,-
 0.00001429,-0.00001306,-0.00000372,0.00000203,0.00001315,0.00000234,-0
 .00001089,-0.00001720,-0.00000444,0.00000410,-0.00001653,-0.00000848,0
 .00000405,0.00004509,0.00001329,-0.00005402,0.00002182,0.00005576,-0.0
 0008529,-0.00000859,-0.00000085,-0.00001635,-0.00000388,0.00000055,-0.
 00000752,0.00002829,0.00000830,0.00000279,0.00052205,0.00113139,-0.000
 33033,0.00012837,0.00011531,-0.00002723,0.00005532,-0.00004453,-0.0000
 9397,0.00154624,0.00025411,0.00032889,0.00158053,-0.00057133,-0.010462
 27,0.00021713,0.00004098,0.00014005,0.00048257,-0.00010049,-0.00014466
 ,-0.00032358,0.00026680,0.00054237,0.00050033,-0.00052984,-0.00065690,
 -0.00014148,0.00002651,-0.00015173,0.00001355,0.00000005,0.00000426,-0
 .00000092,0.00001895,0.00000146,-0.00001616,-0.00000765,0.00000832,-0.
 12173539,0.16830568,0.64490930,0.00001454,-0.00001976,-0.00000781,0.00
 000169,0.00004276,0.00001135,-0.00002483,-0.00002738,-0.00000706,-0.00
 000442,-0.00006170,0.00002043,0.00001275,-0.00000862,-0.00000818,-0.00
 002168,-0.00000963,-0.00000054,-0.00000480,-0.00000864,-0.00000226,0.0
 0002136,0.00002289,0.00001391,-0.00000739,-0.00000320,-0.00000433,-0.0
 0001335,-0.00001043,0.00000343,-0.00001164,-0.00000287,-0.00000861,-0.
 00327037,0.00015969,0.00064911,-0.00004751,0.00005113,0.00002430,0.000
 01947,0.00006650,0.00007629,-0.00000328,-0.00000192,0.00000028,0.00000
 120,0.00000202,-0.00000049,0.00000019,0.00000876,-0.00000372,0.0000032
 3,0.00000357,0.00000153,0.00000296,-0.00000683,0.00000449,0.00000489,0
 .00000674,0.00000362,0.00000293,0.00000545,0.00000347,-0.00001026,-0.0
 0004684,-0.00003098,0.00001007,0.00000019,-0.00000894,0.00000163,-0.00
 000045,-0.00000202,0.00000107,-0.00000020,-0.00000023,-0.00000571,-0.0
 0001217,-0.00001794,0.00000884,0.00010398,-0.00011308,-0.00002994,-0.0
 0002742,0.00000088,-0.00005459,-0.00004318,-0.00010778,0.00007668,0.00
 002383,0.00006074,0.00474115,-0.00137817,-0.00235866,0.00001138,-0.000
 01823,-0.00001463,0.00005005,-0.00003334,-0.00003231,0.00010766,0.0001
 5992,0.00027165,-0.00002602,-0.00026903,-0.00033166,-0.00017939,0.0000
 4888,-0.00004381,-0.00000024,-0.00000243,0.00000018,-0.00000168,0.0000
 0116,-0.00000073,0.00000538,0.00000489,0.00000040,-0.08599982,-0.08854
 306,-0.14028572,0.07679767,-0.00002645,0.00001926,0.00000122,-0.000024
 15,-0.00002899,-0.00001633,-0.00000484,0.00004015,0.00000107,-0.000003
 86,0.00000552,0.00002906,-0.00005012,-0.00003977,-0.00001532,0.0000604
 5,-0.00000346,0.00000824,-0.00002871,0.00001672,-0.00001781,0.00000865
 ,-0.00003818,0.00000836,-0.00000742,0.00001152,0.00001016,0.00001061,0
 .00001480,-0.00000428,-0.00000049,-0.00000214,0.00000417,0.00069892,0.
 00011541,0.00000826,0.00004624,-0.00005764,0.00001875,-0.00001488,-0.0
 0008568,-0.00001575,0.00000491,-0.00000300,0.00000488,0.00000292,-0.00
 000333,-0.00000030,-0.00000352,-0.00000407,0.00000138,-0.00000024,-0.0
 0000412,-0.00000072,0.00000250,0.00000797,0.00000419,0.00000193,-0.000
 00264,-0.00000285,0.00000302,-0.00000732,0.00000144,0.00000196,0.00005
 148,0.00000483,-0.00001056,-0.00000414,-0.00003512,-0.00000447,-0.0000
 0300,-0.00000648,0.00000115,0.00000152,-0.00000085,-0.00000224,0.00000
 154,0.00000124,-0.00001553,0.00005869,-0.00009349,0.00002637,0.0000436
 4,-0.00001281,0.00002960,0.00004831,0.00003924,-0.00015326,-0.00002569
 ,-0.00002362,-0.00068828,-0.00055503,0.00007072,-0.00001058,0.00002778
 ,0.00000247,-0.00002230,0.00003911,0.00001142,-0.00005263,-0.00018428,
 -0.00002234,0.00000315,0.00019435,0.00002640,0.00009035,0.00004363,-0.
 00001539,0.00000287,-0.00000212,0.00000322,0.00000317,-0.00000015,-0.0
 0000568,-0.00000109,-0.00000015,-0.00000005,-0.07191677,-0.11179027,-0
 .21172991,0.07403987,0.11002062,0.00000085,0.00000096,0.00000044,0.000
 00034,0.00001396,0.00000290,-0.00003465,0.00002195,0.00001263,0.000139
 53,0.00018619,-0.00001149,0.00001741,-0.00004477,-0.00000648,0.0000231
 5,0.00001350,0.00000489,-0.00001726,-0.00000404,0.00001363,0.00004764,
 0.00001783,-0.00002515,-0.00002116,0.00000951,0.00001415,-0.00000194,-
 0.00000491,-0.00000698,0.00000781,-0.00000017,0.00001250,0.00187675,0.
 00046389,0.00022459,0.00020242,0.00005408,0.00010162,0.00013387,0.0000
 0959,-0.00004246,-0.00000275,-0.00000047,-0.00000211,0.00000719,-0.000
 00033,-0.00000034,-0.00000341,0.00000355,0.00000711,0.00000691,0.00000
 227,-0.00000081,-0.00000724,-0.00000180,0.00000596,0.00000756,0.000002
 02,-0.00000172,0.00000791,0.00000317,-0.00000178,-0.00001579,-0.000010
 84,0.00001739,-0.00001401,-0.00002467,0.00002007,0.00000278,0.00000014
 ,0.00000640,0.00000188,-0.00000062,0.00000417,-0.00001099,-0.00000425,
 -0.00000130,-0.00027676,-0.00038202,0.00009413,-0.00005528,-0.00004716
 ,0.00001202,-0.00003106,0.00000584,0.00002593,-0.00014734,-0.00000900,
 -0.00020272,-0.00275652,-0.00073748,-0.00079509,-0.00003407,-0.0000214
 2,-0.00002794,-0.00015732,0.00002059,0.00003655,0.00016092,-0.00002473
 ,-0.00020687,-0.00025271,0.00008963,0.00021351,0.00001012,-0.00002199,
 0.00008589,-0.00000531,0.00000005,-0.00000195,0.00000082,-0.00000719,-
 0.00000126,0.00000635,0.00000337,-0.00000317,-0.09221736,-0.18701024,-
 0.39476965,0.10800163,0.20365343,0.41920002,0.00000486,-0.00001087,-0.
 00000225,0.00000203,0.00002821,0.00000458,-0.00004098,0.00000953,0.000
 00718,0.00006633,0.00006485,0.00001231,0.00000486,-0.00003399,-0.00000
 863,0.00001044,-0.00000487,0.00000033,-0.00001554,-0.00000863,0.000005
 85,0.00005076,0.00002754,-0.00000589,-0.00002155,0.00000540,0.00000787
 ,-0.00000660,-0.00000644,-0.00000195,-0.00000271,-0.00000265,0.0000032
 4,-0.00070795,0.00010289,-0.00156448,0.00029053,0.00008432,-0.00006985
 ,0.00014195,0.00002451,-0.00002064,-0.00000422,-0.00000190,-0.00000068
 ,0.00000425,0.00000021,-0.00000127,-0.00000134,0.00000661,0.00000238,0
 .00000460,0.00000252,-0.00000035,-0.00000073,-0.00000302,0.00000547,0.
 00000885,0.00000568,0.00000030,0.00000710,0.00000553,0.00000085,-0.000
 01204,-0.00001935,0.00000010,-0.00000032,-0.00002924,0.00000634,0.0000
 0283,-0.00000150,0.00000038,0.00000306,-0.00000112,0.00000134,-0.00001
 294,-0.00001152,-0.00001413,-0.00014935,-0.00014087,0.00001235,-0.0000
 5777,-0.00005285,0.00000757,-0.00003981,-0.00001066,-0.00000922,-0.000
 83256,-0.00021990,0.00013738,0.00091166,-0.00024924,0.00352284,-0.0001
 1434,-0.00005223,-0.00010835,-0.00015342,0.00003273,0.00006354,0.00010
 804,0.00003304,-0.00003940,-0.00008652,-0.00002612,0.00004174,-0.00004
 196,0.00000001,0.00002300,-0.00000418,-0.00000196,-0.00000116,-0.00000
 107,-0.00000517,-0.00000183,0.00000897,0.00000587,-0.00000264,-0.32568
 348,-0.05985281,0.26534439,0.00782014,-0.00199628,-0.01460089,0.318540
 11,-0.00004130,0.00003441,0.00000972,-0.00002729,-0.00005617,-0.000022
 92,0.00005954,0.00002906,0.00000623,-0.00006134,-0.00006521,-0.0000007
 1,-0.00014188,0.00001465,0.00000053,0.00009144,-0.00001538,-0.00000481
 ,-0.00002653,0.00001233,-0.00001575,0.00000400,-0.00004128,0.00000575,
 -0.00000454,0.00001211,0.00000783,0.00000926,0.00001061,-0.00000541,0.
 00000369,-0.00000126,0.00000751,-0.00019929,-0.00029744,-0.00035153,0.
 00002118,-0.00018593,-0.00009970,-0.00003147,-0.00008501,-0.00000692,0
 .00000472,-0.00000248,0.00000356,0.00000205,-0.00000356,-0.00000040,-0
 .00000262,-0.00000414,0.00000067,0.00000045,-0.00000353,-0.00000091,0.
 00000156,0.00000516,0.00000371,0.00000128,-0.00000295,-0.00000198,0.00
 000157,-0.00000722,0.00000133,0.00001475,0.00004033,0.00000712,-0.0000
 4566,-0.00002838,0.00001032,-0.00001295,-0.00000791,-0.00000216,0.0000
 0350,0.00000066,0.00000006,-0.00000319,0.00000554,0.00000449,0.0000770
 2,0.00024318,0.00005284,0.00003228,0.00004787,-0.00001183,0.00003400,0
 .00004068,0.00001945,-0.00010043,0.00033444,0.00015352,0.00081131,-0.0
 0035233,0.00061738,-0.00001358,0.00009809,0.00002376,-0.00000102,0.000
 03763,0.00002533,-0.00004866,-0.00009264,0.00002074,0.00001555,0.00005
 581,-0.00003699,0.00002688,0.00002645,-0.00002430,0.00000313,-0.000001
 26,0.00000280,0.00000374,-0.00000016,-0.00000431,-0.00000203,-0.000001
 27,-0.00000005,-0.07854613,-0.02201705,0.04445010,0.01578325,0.0020831
 9,-0.01621744,0.06230376,0.02014038,-0.00001312,0.00000453,0.00000428,
 -0.00000584,-0.00002766,-0.00001001,0.00005208,-0.00001550,0.00001074,
 -0.00011646,-0.00014275,-0.00002875,-0.00005289,0.00004640,0.00001047,
 0.00000318,-0.00001513,-0.00001054,0.00001438,-0.00001400,0.00001566,0
 .00000727,0.00001152,-0.00002721,-0.00000468,0.00000162,0.00000303,0.0
 0000385,0.00000156,-0.00000024,0.00000513,0.00000179,0.00000416,-0.002
 75563,-0.00067150,-0.00201343,0.00029839,-0.00001676,-0.00039674,0.000
 07477,-0.00001185,-0.00010958,-0.00000182,0.00000306,-0.00000141,0.000
 00008,-0.00000027,-0.00000094,0.00000072,-0.00000299,0.00000372,-0.000
 00017,-0.00000011,-0.00000109,-0.00000404,0.00000165,-0.00000450,-0.00
 000030,-0.00000171,-0.00000172,-0.00000335,0.00000300,-0.00000333,0.00
 002421,0.00001370,0.00001865,-0.00000009,-0.00000551,0.00004531,-0.000
 00669,-0.00000534,0.00000650,0.,-0.00000189,0.00000311,-0.00000413,0.0
 0000745,0.00001613,0.00020883,0.00031791,0.00006107,-0.00001455,-0.000
 02674,0.00001274,0.00003810,0.00000622,0.00008829,-0.00042734,-0.00008
 739,0.00069256,0.00396613,0.00088752,0.00328472,-0.00023613,-0.0000235
 0,-0.00006461,-0.00016664,0.00005438,0.00010702,-0.00014644,0.00005313
 ,-0.00007814,0.00016422,-0.00009204,0.00000542,0.00002505,-0.00001590,
 0.00002839,-0.00000596,0.00000366,-0.00000205,0.00000063,-0.00000705,0
 .00000497,0.00000104,-0.00000179,-0.00000354,0.21759218,0.02028999,-0.
 24381019,0.03424379,0.00810493,-0.02400723,-0.25275773,-0.02862665,0.2
 6614831\\0.00000405,-0.00000370,-0.00000209,0.00000197,0.00000051,0.00
 000185,-0.00000434,-0.00000192,-0.00000160,-0.00000112,-0.00000011,-0.
 00000208,0.00000185,0.00000527,-0.00000074,-0.00000548,-0.00000177,-0.
 00000169,-0.00000068,-0.00000055,-0.00000763,0.00000052,0.00000203,0.0
 0000207,0.00000198,0.00000152,0.00000253,-0.00000288,-0.00000006,0.000
 00191,0.00000056,0.00000121,0.00000524,0.00001851,0.00000434,-0.000007
 69,-0.00000083,-0.00000609,-0.00000896,0.00000265,0.00000337,0.0000017
 1,-0.00000032,0.00000100,0.00000098,0.00000034,0.00000085,0.00000142,0
 .00000216,-0.00000066,0.00000077,-0.00000024,0.00000050,-0.00000034,-0
 .00000117,-0.00000062,0.00000030,0.00000010,0.00000096,0.00000094,-0.0
 0000013,0.00000135,-0.00000134,0.00000016,-0.00000111,-0.00000030,-0.0
 0000047,-0.00000142,-0.00000158,0.00000013,0.00000011,-0.00000133,-0.0
 0000156,0.00000146,-0.00000168,-0.00000076,-0.00000146,-0.00000249,-0.
 00000135,0.00000129,0.00000385,0.00000142,-0.00000059,0.,-0.00000051,-
 0.00000069,0.00000155,-0.00000575,-0.00000435,0.00000382,-0.00001444,-
 0.00000099,-0.00000225,0.00000212,0.00000314,0.00000121,0.00000237,0.0
 0000051,0.00000480,0.00000087,0.00000589,0.00000787,-0.00000965,-0.000
 00817,-0.00000447,0.00000180,-0.00000160,0.00000231,-0.00000046,0.0000
 0148,-0.00000005,-0.00000033,0.00000135,-0.00000040,-0.00000035,0.0000
 0189,-0.00000004,0.00000754,-0.00000182,0.00000507,0.00000261,-0.00000
 161,-0.00000398,-0.00000088,-0.00000074,0.00000253\\\@


 "PERFECTION IS NOT AN ACCIDENT"
         --  EAGLE ELECTRIC MANUFACTURING CO.,INC. NY
 Job cpu time:       1 days 17 hours 54 minutes 16.3 seconds.
 Elapsed time:       0 days  1 hours 29 minutes 52.3 seconds.
 File lengths (MBytes):  RWF=   1444 Int=      0 D2E=      0 Chk=     36 Scr=      8
 Normal termination of Gaussian 16 at Thu Dec  8 17:52:00 2022.
