 Entering Gaussian System, Link 0=g16
 Input=Nic5h3bMidDonMid.gjf
 Output=Nic5h3bMidDonMid.log
 Initial command:
 /sw/contrib/gaussian/g16/A03/g16/l1.exe "/gscratch/scrubbed/gds001/Gau-6441.inp" -scrdir="/gscratch/scrubbed/gds001/"
 Entering Link 1 = /sw/contrib/gaussian/g16/A03/g16/l1.exe PID=      6442.
  
 Copyright (c) 1988,1990,1992,1993,1995,1998,2003,2009,2016,
            Gaussian, Inc.  All Rights Reserved.
  
 This is part of the Gaussian(R) 16 program.  It is based on
 the Gaussian(R) 09 system (copyright 2009, Gaussian, Inc.),
 the Gaussian(R) 03 system (copyright 2003, Gaussian, Inc.),
 the Gaussian(R) 98 system (copyright 1998, Gaussian, Inc.),
 the Gaussian(R) 94 system (copyright 1995, Gaussian, Inc.),
 the Gaussian 92(TM) system (copyright 1992, Gaussian, Inc.),
 the Gaussian 90(TM) system (copyright 1990, Gaussian, Inc.),
 the Gaussian 88(TM) system (copyright 1988, Gaussian, Inc.),
 the Gaussian 86(TM) system (copyright 1986, Carnegie Mellon
 University), and the Gaussian 82(TM) system (copyright 1983,
 Carnegie Mellon University). Gaussian is a federally registered
 trademark of Gaussian, Inc.
  
 This software contains proprietary and confidential information,
 including trade secrets, belonging to Gaussian, Inc.
  
 This software is provided under written license and may be
 used, copied, transmitted, or stored only in accord with that
 written license.
  
 The following legend is applicable only to US Government
 contracts under FAR:
  
                    RESTRICTED RIGHTS LEGEND
  
 Use, reproduction and disclosure by the US Government is
 subject to restrictions as set forth in subparagraphs (a)
 and (c) of the Commercial Computer Software - Restricted
 Rights clause in FAR 52.227-19.
  
 Gaussian, Inc.
 340 Quinnipiac St., Bldg. 40, Wallingford CT 06492
  
  
 ---------------------------------------------------------------
 Warning -- This program may not be used in any manner that
 competes with the business of Gaussian, Inc. or will provide
 assistance to any competitor of Gaussian, Inc.  The licensee
 of this program is prohibited from giving any competitor of
 Gaussian, Inc. access to this program.  By using this program,
 the user acknowledges that Gaussian, Inc. is engaged in the
 business of creating and licensing software in the field of
 computational chemistry and represents and warrants to the
 licensee that it is not a competitor of Gaussian, Inc. and that
 it will not use this program in any manner prohibited above.
 ---------------------------------------------------------------
  

 Cite this work as:
 Gaussian 16, Revision A.03,
 M. J. Frisch, G. W. Trucks, H. B. Schlegel, G. E. Scuseria, 
 M. A. Robb, J. R. Cheeseman, G. Scalmani, V. Barone, 
 G. A. Petersson, H. Nakatsuji, X. Li, M. Caricato, A. V. Marenich, 
 J. Bloino, B. G. Janesko, R. Gomperts, B. Mennucci, H. P. Hratchian, 
 J. V. Ortiz, A. F. Izmaylov, J. L. Sonnenberg, D. Williams-Young, 
 F. Ding, F. Lipparini, F. Egidi, J. Goings, B. Peng, A. Petrone, 
 T. Henderson, D. Ranasinghe, V. G. Zakrzewski, J. Gao, N. Rega, 
 G. Zheng, W. Liang, M. Hada, M. Ehara, K. Toyota, R. Fukuda, 
 J. Hasegawa, M. Ishida, T. Nakajima, Y. Honda, O. Kitao, H. Nakai, 
 T. Vreven, K. Throssell, J. A. Montgomery, Jr., J. E. Peralta, 
 F. Ogliaro, M. J. Bearpark, J. J. Heyd, E. N. Brothers, K. N. Kudin, 
 V. N. Staroverov, T. A. Keith, R. Kobayashi, J. Normand, 
 K. Raghavachari, A. P. Rendell, J. C. Burant, S. S. Iyengar, 
 J. Tomasi, M. Cossi, J. M. Millam, M. Klene, C. Adamo, R. Cammi, 
 J. W. Ochterski, R. L. Martin, K. Morokuma, O. Farkas, 
 J. B. Foresman, and D. J. Fox, Gaussian, Inc., Wallingford CT, 2016.
 
 ******************************************
 Gaussian 16:  ES64L-G16RevA.03 25-Dec-2016
                 9-Dec-2022 
 ******************************************
 %nprocshared=28
 Will use up to   28 processors via shared memory.
 %mem=41GB
 -----------------------------
 # wB97XD/aug-cc-pVDZ opt freq
 -----------------------------
 1/18=20,19=15,26=3,38=1/1,3;
 2/9=110,12=2,17=6,18=5,40=1/2;
 3/5=16,7=10,11=2,25=1,30=1,71=1,74=-58/1,2,3;
 4//1;
 5/5=2,38=5/2;
 6/7=2,8=2,9=2,10=2,28=1/1;
 7//1,2,3,16;
 1/18=20,19=15,26=3/3(2);
 2/9=110/2;
 99//99;
 2/9=110/2;
 3/5=16,7=10,11=2,25=1,30=1,71=1,74=-58/1,2,3;
 4/5=5,16=3,69=1/1;
 5/5=2,38=5/2;
 7//1,2,3,16;
 1/18=20,19=15,26=3/3(-5);
 2/9=110/2;
 6/7=2,8=2,9=2,10=2,19=2,28=1/1;
 99/9=1/99;
 ----
 blah
 ----
 Symbolic Z-matrix:
 Charge =  1 Multiplicity = 1
 C                     0.95664   2.59147  -0.37861 
 C                     0.94819   1.20466  -0.53001 
 C                    -0.29105   0.58062  -0.59294 
 N                    -1.4204    1.29023  -0.50395 
 C                    -1.43152   2.62037  -0.34601 
 C                    -0.23596   3.30956  -0.29255 
 C                     2.22455   0.40238  -0.60751 
 N                     2.30835  -0.63867   0.42766 
 C                     3.46714  -1.44229   0.01252 
 C                     3.29513  -1.59404  -1.50454 
 C                     2.42784  -0.38028  -1.91738 
 O                    -3.46174  -0.29338  -0.10572 
 O                    -1.93857  -1.56641   1.83151 
 O                     0.18391  -2.39079   0.39323 
 H                     3.48067  -2.39524   0.55573 
 H                     4.26329  -1.60559  -2.01489 
 H                     2.78453  -2.53205  -1.74965 
 H                     2.90107   0.24766  -2.6794 
 H                     1.46099  -0.70834  -2.31772 
 H                     4.40433  -0.90688   0.25067 
 H                     3.06779   1.10817  -0.47536 
 H                    -0.41448  -0.49627  -0.69342 
 H                    -2.40645   3.09214  -0.25766 
 H                    -0.23804   4.38951  -0.16795 
 H                     1.90867   3.11919  -0.317 
 C                     2.42269  -0.10896   1.78393 
 H                    -2.32255   0.73625  -0.46572 
 H                     0.98468  -1.79761   0.43017 
 H                     0.49733  -3.29187   0.29194 
 H                    -3.13774  -0.89467   0.58731 
 H                    -4.12889  -0.76278  -0.63679 
 H                    -2.22819  -2.17865   2.5121 
 H                    -1.17111  -1.98776   1.38287 
 H                    -1.27379   0.12302   2.38982 
 O                    -0.83582   0.9899    2.42157 
 H                    -0.99105   1.3236    3.30777 
 H                     2.53434  -0.94315   2.48652 
 H                     1.51243   0.4431    2.04837 
 H                     3.30178   0.55298   1.88662 
 O                    -2.79969  -3.31023   3.79499 
 H                    -2.4648   -4.06924   4.3015 
 H                    -3.64681  -3.11536   4.23145 
 
 Add virtual bond connecting atoms H27        and O12        Dist= 2.98D+00.
 Add virtual bond connecting atoms H33        and O14        Dist= 3.26D+00.
 Add virtual bond connecting atoms O13        and H30        Dist= 3.50D+00.
 Add virtual bond connecting atoms H28        and N8         Dist= 3.32D+00.
 Add virtual bond connecting atoms O40        and H32        Dist= 3.41D+00.
 Add virtual bond connecting atoms H34        and O13        Dist= 3.59D+00.

 GradGradGradGradGradGradGradGradGradGradGradGradGradGradGradGradGradGrad
 Berny optimization.
 Initialization pass.
                           ----------------------------
                           !    Initial Parameters    !
                           ! (Angstroms and Degrees)  !
 --------------------------                            --------------------------
 ! Name  Definition              Value          Derivative Info.                !
 --------------------------------------------------------------------------------
 ! R1    R(1,2)                  1.3951         estimate D2E/DX2                !
 ! R2    R(1,6)                  1.3948         estimate D2E/DX2                !
 ! R3    R(1,25)                 1.0902         estimate D2E/DX2                !
 ! R4    R(2,3)                  1.3889         estimate D2E/DX2                !
 ! R5    R(2,7)                  1.5096         estimate D2E/DX2                !
 ! R6    R(3,4)                  1.3367         estimate D2E/DX2                !
 ! R7    R(3,22)                 1.0886         estimate D2E/DX2                !
 ! R8    R(4,5)                  1.3395         estimate D2E/DX2                !
 ! R9    R(4,27)                 1.0594         estimate D2E/DX2                !
 ! R10   R(5,6)                  1.381          estimate D2E/DX2                !
 ! R11   R(5,23)                 1.0867         estimate D2E/DX2                !
 ! R12   R(6,24)                 1.0871         estimate D2E/DX2                !
 ! R13   R(7,8)                  1.4705         estimate D2E/DX2                !
 ! R14   R(7,11)                 1.5394         estimate D2E/DX2                !
 ! R15   R(7,21)                 1.1075         estimate D2E/DX2                !
 ! R16   R(8,9)                  1.47           estimate D2E/DX2                !
 ! R17   R(8,26)                 1.4605         estimate D2E/DX2                !
 ! R18   R(8,28)                 1.7593         estimate D2E/DX2                !
 ! R19   R(9,10)                 1.5343         estimate D2E/DX2                !
 ! R20   R(9,15)                 1.097          estimate D2E/DX2                !
 ! R21   R(9,20)                 1.1053         estimate D2E/DX2                !
 ! R22   R(10,11)                1.5479         estimate D2E/DX2                !
 ! R23   R(10,16)                1.0945         estimate D2E/DX2                !
 ! R24   R(10,17)                1.0957         estimate D2E/DX2                !
 ! R25   R(11,18)                1.095          estimate D2E/DX2                !
 ! R26   R(11,19)                1.0967         estimate D2E/DX2                !
 ! R27   R(12,27)                1.5772         estimate D2E/DX2                !
 ! R28   R(12,30)                0.973          estimate D2E/DX2                !
 ! R29   R(12,31)                0.9734         estimate D2E/DX2                !
 ! R30   R(13,30)                1.854          estimate D2E/DX2                !
 ! R31   R(13,32)                0.9602         estimate D2E/DX2                !
 ! R32   R(13,33)                0.9838         estimate D2E/DX2                !
 ! R33   R(13,34)                1.8994         estimate D2E/DX2                !
 ! R34   R(14,28)                0.9972         estimate D2E/DX2                !
 ! R35   R(14,29)                0.9594         estimate D2E/DX2                !
 ! R36   R(14,33)                1.7257         estimate D2E/DX2                !
 ! R37   R(26,37)                1.0963         estimate D2E/DX2                !
 ! R38   R(26,38)                1.0969         estimate D2E/DX2                !
 ! R39   R(26,39)                1.1052         estimate D2E/DX2                !
 ! R40   R(32,40)                1.8036         estimate D2E/DX2                !
 ! R41   R(34,35)                0.9718         estimate D2E/DX2                !
 ! R42   R(35,36)                0.9596         estimate D2E/DX2                !
 ! R43   R(40,41)                0.972          estimate D2E/DX2                !
 ! R44   R(40,42)                0.9727         estimate D2E/DX2                !
 ! A1    A(2,1,6)              120.8849         estimate D2E/DX2                !
 ! A2    A(2,1,25)             119.5109         estimate D2E/DX2                !
 ! A3    A(6,1,25)             119.6015         estimate D2E/DX2                !
 ! A4    A(1,2,3)              117.1908         estimate D2E/DX2                !
 ! A5    A(1,2,7)              121.9222         estimate D2E/DX2                !
 ! A6    A(3,2,7)              120.8834         estimate D2E/DX2                !
 ! A7    A(2,3,4)              120.8157         estimate D2E/DX2                !
 ! A8    A(2,3,22)             123.354          estimate D2E/DX2                !
 ! A9    A(4,3,22)             115.8171         estimate D2E/DX2                !
 ! A10   A(3,4,5)              122.8188         estimate D2E/DX2                !
 ! A11   A(3,4,27)             116.3767         estimate D2E/DX2                !
 ! A12   A(5,4,27)             120.5281         estimate D2E/DX2                !
 ! A13   A(4,5,6)              119.5335         estimate D2E/DX2                !
 ! A14   A(4,5,23)             116.6235         estimate D2E/DX2                !
 ! A15   A(6,5,23)             123.8406         estimate D2E/DX2                !
 ! A16   A(1,6,5)              118.7448         estimate D2E/DX2                !
 ! A17   A(1,6,24)             121.3436         estimate D2E/DX2                !
 ! A18   A(5,6,24)             119.9029         estimate D2E/DX2                !
 ! A19   A(2,7,8)              112.8487         estimate D2E/DX2                !
 ! A20   A(2,7,11)             115.186          estimate D2E/DX2                !
 ! A21   A(2,7,21)             107.3942         estimate D2E/DX2                !
 ! A22   A(8,7,11)             103.3875         estimate D2E/DX2                !
 ! A23   A(8,7,21)             108.8905         estimate D2E/DX2                !
 ! A24   A(11,7,21)            108.9648         estimate D2E/DX2                !
 ! A25   A(7,8,9)              103.4821         estimate D2E/DX2                !
 ! A26   A(7,8,26)             113.6659         estimate D2E/DX2                !
 ! A27   A(7,8,28)             115.1181         estimate D2E/DX2                !
 ! A28   A(9,8,26)             113.504          estimate D2E/DX2                !
 ! A29   A(9,8,28)             103.4954         estimate D2E/DX2                !
 ! A30   A(26,8,28)            107.2467         estimate D2E/DX2                !
 ! A31   A(8,9,10)             104.1776         estimate D2E/DX2                !
 ! A32   A(8,9,15)             110.1681         estimate D2E/DX2                !
 ! A33   A(8,9,20)             110.0428         estimate D2E/DX2                !
 ! A34   A(10,9,15)            113.8968         estimate D2E/DX2                !
 ! A35   A(10,9,20)            110.8554         estimate D2E/DX2                !
 ! A36   A(15,9,20)            107.6765         estimate D2E/DX2                !
 ! A37   A(9,10,11)            104.4173         estimate D2E/DX2                !
 ! A38   A(9,10,16)            111.2796         estimate D2E/DX2                !
 ! A39   A(9,10,17)            110.9828         estimate D2E/DX2                !
 ! A40   A(11,10,16)           112.3063         estimate D2E/DX2                !
 ! A41   A(11,10,17)           110.5187         estimate D2E/DX2                !
 ! A42   A(16,10,17)           107.3886         estimate D2E/DX2                !
 ! A43   A(7,11,10)            104.2251         estimate D2E/DX2                !
 ! A44   A(7,11,18)            110.9581         estimate D2E/DX2                !
 ! A45   A(7,11,19)            110.2611         estimate D2E/DX2                !
 ! A46   A(10,11,18)           113.1505         estimate D2E/DX2                !
 ! A47   A(10,11,19)           110.9024         estimate D2E/DX2                !
 ! A48   A(18,11,19)           107.3693         estimate D2E/DX2                !
 ! A49   A(27,12,30)           108.994          estimate D2E/DX2                !
 ! A50   A(27,12,31)           133.2627         estimate D2E/DX2                !
 ! A51   A(30,12,31)           108.591          estimate D2E/DX2                !
 ! A52   A(30,13,32)           120.7713         estimate D2E/DX2                !
 ! A53   A(30,13,33)           110.715          estimate D2E/DX2                !
 ! A54   A(30,13,34)            95.8179         estimate D2E/DX2                !
 ! A55   A(32,13,33)           106.5868         estimate D2E/DX2                !
 ! A56   A(32,13,34)           117.6693         estimate D2E/DX2                !
 ! A57   A(33,13,34)           104.0026         estimate D2E/DX2                !
 ! A58   A(28,14,29)           107.4731         estimate D2E/DX2                !
 ! A59   A(28,14,33)           118.0574         estimate D2E/DX2                !
 ! A60   A(29,14,33)           122.4407         estimate D2E/DX2                !
 ! A61   A(8,26,37)            109.0935         estimate D2E/DX2                !
 ! A62   A(8,26,38)            109.9643         estimate D2E/DX2                !
 ! A63   A(8,26,39)            111.4545         estimate D2E/DX2                !
 ! A64   A(37,26,38)           108.2378         estimate D2E/DX2                !
 ! A65   A(37,26,39)           108.3703         estimate D2E/DX2                !
 ! A66   A(38,26,39)           109.6466         estimate D2E/DX2                !
 ! A67   A(4,27,12)            164.7402         estimate D2E/DX2                !
 ! A68   A(12,30,13)           156.5258         estimate D2E/DX2                !
 ! A69   A(13,34,35)           163.9035         estimate D2E/DX2                !
 ! A70   A(34,35,36)           105.5154         estimate D2E/DX2                !
 ! A71   A(32,40,41)           138.7125         estimate D2E/DX2                !
 ! A72   A(32,40,42)           117.9985         estimate D2E/DX2                !
 ! A73   A(41,40,42)           102.8664         estimate D2E/DX2                !
 ! A74   L(8,28,14,3,-1)       174.8455         estimate D2E/DX2                !
 ! A75   L(13,32,40,37,-1)     180.787          estimate D2E/DX2                !
 ! A76   L(13,33,14,1,-1)      167.8483         estimate D2E/DX2                !
 ! A77   L(8,28,14,3,-2)       179.6335         estimate D2E/DX2                !
 ! A78   L(13,32,40,37,-2)     179.1981         estimate D2E/DX2                !
 ! A79   L(13,33,14,1,-2)      184.8977         estimate D2E/DX2                !
 ! D1    D(6,1,2,3)              0.1253         estimate D2E/DX2                !
 ! D2    D(6,1,2,7)           -179.1869         estimate D2E/DX2                !
 ! D3    D(25,1,2,3)           179.5201         estimate D2E/DX2                !
 ! D4    D(25,1,2,7)             0.2079         estimate D2E/DX2                !
 ! D5    D(2,1,6,5)              0.6656         estimate D2E/DX2                !
 ! D6    D(2,1,6,24)           179.5918         estimate D2E/DX2                !
 ! D7    D(25,1,6,5)          -178.7287         estimate D2E/DX2                !
 ! D8    D(25,1,6,24)            0.1975         estimate D2E/DX2                !
 ! D9    D(1,2,3,4)             -0.3351         estimate D2E/DX2                !
 ! D10   D(1,2,3,22)          -178.9608         estimate D2E/DX2                !
 ! D11   D(7,2,3,4)            178.9846         estimate D2E/DX2                !
 ! D12   D(7,2,3,22)             0.3589         estimate D2E/DX2                !
 ! D13   D(1,2,7,8)            122.6254         estimate D2E/DX2                !
 ! D14   D(1,2,7,11)          -118.9634         estimate D2E/DX2                !
 ! D15   D(1,2,7,21)             2.6146         estimate D2E/DX2                !
 ! D16   D(3,2,7,8)            -56.6617         estimate D2E/DX2                !
 ! D17   D(3,2,7,11)            61.7495         estimate D2E/DX2                !
 ! D18   D(3,2,7,21)          -176.6725         estimate D2E/DX2                !
 ! D19   D(2,3,4,5)             -0.2827         estimate D2E/DX2                !
 ! D20   D(2,3,4,27)          -174.2651         estimate D2E/DX2                !
 ! D21   D(22,3,4,5)           178.4422         estimate D2E/DX2                !
 ! D22   D(22,3,4,27)            4.4597         estimate D2E/DX2                !
 ! D23   D(3,4,5,6)              1.1041         estimate D2E/DX2                !
 ! D24   D(3,4,5,23)          -178.3456         estimate D2E/DX2                !
 ! D25   D(27,4,5,6)           174.8445         estimate D2E/DX2                !
 ! D26   D(27,4,5,23)           -4.6051         estimate D2E/DX2                !
 ! D27   D(3,4,27,12)           50.5801         estimate D2E/DX2                !
 ! D28   D(5,4,27,12)         -123.5495         estimate D2E/DX2                !
 ! D29   D(4,5,6,1)             -1.2668         estimate D2E/DX2                !
 ! D30   D(4,5,6,24)           179.7911         estimate D2E/DX2                !
 ! D31   D(23,5,6,1)           178.1408         estimate D2E/DX2                !
 ! D32   D(23,5,6,24)           -0.8013         estimate D2E/DX2                !
 ! D33   D(2,7,8,9)            169.4608         estimate D2E/DX2                !
 ! D34   D(2,7,8,26)           -66.9769         estimate D2E/DX2                !
 ! D35   D(2,7,8,28)            57.2855         estimate D2E/DX2                !
 ! D36   D(11,7,8,9)            44.3628         estimate D2E/DX2                !
 ! D37   D(11,7,8,26)          167.9251         estimate D2E/DX2                !
 ! D38   D(11,7,8,28)          -67.8125         estimate D2E/DX2                !
 ! D39   D(21,7,8,9)           -71.3922         estimate D2E/DX2                !
 ! D40   D(21,7,8,26)           52.17           estimate D2E/DX2                !
 ! D41   D(21,7,8,28)          176.4324         estimate D2E/DX2                !
 ! D42   D(2,7,11,10)         -151.6876         estimate D2E/DX2                !
 ! D43   D(2,7,11,18)           86.2112         estimate D2E/DX2                !
 ! D44   D(2,7,11,19)          -32.615          estimate D2E/DX2                !
 ! D45   D(8,7,11,10)          -28.1144         estimate D2E/DX2                !
 ! D46   D(8,7,11,18)         -150.2157         estimate D2E/DX2                !
 ! D47   D(8,7,11,19)           90.9582         estimate D2E/DX2                !
 ! D48   D(21,7,11,10)          87.5877         estimate D2E/DX2                !
 ! D49   D(21,7,11,18)         -34.5135         estimate D2E/DX2                !
 ! D50   D(21,7,11,19)        -153.3397         estimate D2E/DX2                !
 ! D51   D(7,8,9,10)           -43.0017         estimate D2E/DX2                !
 ! D52   D(7,8,9,15)          -165.5423         estimate D2E/DX2                !
 ! D53   D(7,8,9,20)            75.8816         estimate D2E/DX2                !
 ! D54   D(26,8,9,10)         -166.6703         estimate D2E/DX2                !
 ! D55   D(26,8,9,15)           70.7891         estimate D2E/DX2                !
 ! D56   D(26,8,9,20)          -47.787          estimate D2E/DX2                !
 ! D57   D(28,8,9,10)           77.4257         estimate D2E/DX2                !
 ! D58   D(28,8,9,15)          -45.1148         estimate D2E/DX2                !
 ! D59   D(28,8,9,20)         -163.6909         estimate D2E/DX2                !
 ! D60   D(7,8,14,29)          123.2056         estimate D2E/DX2                !
 ! D61   D(7,8,14,33)          -91.027          estimate D2E/DX2                !
 ! D62   D(9,8,14,29)           10.9932         estimate D2E/DX2                !
 ! D63   D(9,8,14,33)          156.7606         estimate D2E/DX2                !
 ! D64   D(26,8,14,29)        -110.1615         estimate D2E/DX2                !
 ! D65   D(26,8,14,33)          35.6059         estimate D2E/DX2                !
 ! D66   D(7,8,26,37)         -176.9626         estimate D2E/DX2                !
 ! D67   D(7,8,26,38)           64.4759         estimate D2E/DX2                !
 ! D68   D(7,8,26,39)          -57.3343         estimate D2E/DX2                !
 ! D69   D(9,8,26,37)          -59.0467         estimate D2E/DX2                !
 ! D70   D(9,8,26,38)         -177.6082         estimate D2E/DX2                !
 ! D71   D(9,8,26,39)           60.5816         estimate D2E/DX2                !
 ! D72   D(28,8,26,37)          54.6236         estimate D2E/DX2                !
 ! D73   D(28,8,26,38)         -63.938          estimate D2E/DX2                !
 ! D74   D(28,8,26,39)         174.2518         estimate D2E/DX2                !
 ! D75   D(8,9,10,11)           24.268          estimate D2E/DX2                !
 ! D76   D(8,9,10,16)          145.6472         estimate D2E/DX2                !
 ! D77   D(8,9,10,17)          -94.8237         estimate D2E/DX2                !
 ! D78   D(15,9,10,11)         144.3262         estimate D2E/DX2                !
 ! D79   D(15,9,10,16)         -94.2946         estimate D2E/DX2                !
 ! D80   D(15,9,10,17)          25.2345         estimate D2E/DX2                !
 ! D81   D(20,9,10,11)         -94.0597         estimate D2E/DX2                !
 ! D82   D(20,9,10,16)          27.3194         estimate D2E/DX2                !
 ! D83   D(20,9,10,17)         146.8486         estimate D2E/DX2                !
 ! D84   D(9,10,11,7)            2.3592         estimate D2E/DX2                !
 ! D85   D(9,10,11,18)         123.0036         estimate D2E/DX2                !
 ! D86   D(9,10,11,19)        -116.2764         estimate D2E/DX2                !
 ! D87   D(16,10,11,7)        -118.3379         estimate D2E/DX2                !
 ! D88   D(16,10,11,18)          2.3066         estimate D2E/DX2                !
 ! D89   D(16,10,11,19)        123.0266         estimate D2E/DX2                !
 ! D90   D(17,10,11,7)         121.7648         estimate D2E/DX2                !
 ! D91   D(17,10,11,18)       -117.5907         estimate D2E/DX2                !
 ! D92   D(17,10,11,19)          3.1292         estimate D2E/DX2                !
 ! D93   D(30,12,27,4)          -2.0672         estimate D2E/DX2                !
 ! D94   D(31,12,27,4)        -143.9685         estimate D2E/DX2                !
 ! D95   D(27,12,30,13)          3.3466         estimate D2E/DX2                !
 ! D96   D(31,12,30,13)        155.0483         estimate D2E/DX2                !
 ! D97   D(30,13,14,28)        104.3419         estimate D2E/DX2                !
 ! D98   D(30,13,14,29)       -114.77           estimate D2E/DX2                !
 ! D99   D(32,13,14,28)       -120.3674         estimate D2E/DX2                !
 ! D100  D(32,13,14,29)         20.5207         estimate D2E/DX2                !
 ! D101  D(34,13,14,28)          5.8022         estimate D2E/DX2                !
 ! D102  D(34,13,14,29)        146.6903         estimate D2E/DX2                !
 ! D103  D(32,13,30,12)        164.0949         estimate D2E/DX2                !
 ! D104  D(33,13,30,12)        -70.4277         estimate D2E/DX2                !
 ! D105  D(34,13,30,12)         36.9435         estimate D2E/DX2                !
 ! D106  D(30,13,40,41)        147.0417         estimate D2E/DX2                !
 ! D107  D(30,13,40,42)        -42.0292         estimate D2E/DX2                !
 ! D108  D(33,13,40,41)         19.4411         estimate D2E/DX2                !
 ! D109  D(33,13,40,42)       -169.6298         estimate D2E/DX2                !
 ! D110  D(34,13,40,41)        -97.1289         estimate D2E/DX2                !
 ! D111  D(34,13,40,42)         73.8002         estimate D2E/DX2                !
 ! D112  D(30,13,34,35)        -67.137          estimate D2E/DX2                !
 ! D113  D(32,13,34,35)        163.5104         estimate D2E/DX2                !
 ! D114  D(33,13,34,35)         45.9326         estimate D2E/DX2                !
 ! D115  D(13,34,35,36)       -179.5563         estimate D2E/DX2                !
 --------------------------------------------------------------------------------
 Trust Radius=3.00D-01 FncErr=1.00D-07 GrdErr=1.00D-06 EigMax=2.50D+02 EigMin=1.00D-04
 Number of steps in this run=    248 maximum allowed number of steps=    252.
 GradGradGradGradGradGradGradGradGradGradGradGradGradGradGradGradGradGrad

                          Input orientation:                          
 ---------------------------------------------------------------------
 Center     Atomic      Atomic             Coordinates (Angstroms)
 Number     Number       Type             X           Y           Z
 ---------------------------------------------------------------------
      1          6           0        0.956643    2.591473   -0.378613
      2          6           0        0.948191    1.204658   -0.530010
      3          6           0       -0.291053    0.580622   -0.592940
      4          7           0       -1.420404    1.290233   -0.503951
      5          6           0       -1.431516    2.620369   -0.346013
      6          6           0       -0.235956    3.309563   -0.292554
      7          6           0        2.224550    0.402382   -0.607509
      8          7           0        2.308351   -0.638670    0.427661
      9          6           0        3.467138   -1.442292    0.012515
     10          6           0        3.295128   -1.594036   -1.504540
     11          6           0        2.427836   -0.380277   -1.917377
     12          8           0       -3.461744   -0.293375   -0.105719
     13          8           0       -1.938565   -1.566409    1.831507
     14          8           0        0.183908   -2.390793    0.393227
     15          1           0        3.480671   -2.395239    0.555728
     16          1           0        4.263293   -1.605593   -2.014890
     17          1           0        2.784527   -2.532048   -1.749654
     18          1           0        2.901074    0.247661   -2.679403
     19          1           0        1.460992   -0.708340   -2.317721
     20          1           0        4.404330   -0.906876    0.250673
     21          1           0        3.067790    1.108165   -0.475355
     22          1           0       -0.414477   -0.496271   -0.693423
     23          1           0       -2.406451    3.092140   -0.257662
     24          1           0       -0.238044    4.389507   -0.167948
     25          1           0        1.908673    3.119189   -0.316998
     26          6           0        2.422685   -0.108960    1.783933
     27          1           0       -2.322548    0.736249   -0.465719
     28          1           0        0.984681   -1.797611    0.430171
     29          1           0        0.497327   -3.291868    0.291935
     30          1           0       -3.137736   -0.894668    0.587305
     31          1           0       -4.128889   -0.762777   -0.636790
     32          1           0       -2.228192   -2.178651    2.512095
     33          1           0       -1.171114   -1.987755    1.382870
     34          1           0       -1.273792    0.123020    2.389816
     35          8           0       -0.835822    0.989895    2.421569
     36          1           0       -0.991054    1.323603    3.307769
     37          1           0        2.534344   -0.943152    2.486517
     38          1           0        1.512432    0.443103    2.048373
     39          1           0        3.301781    0.552976    1.886620
     40          8           0       -2.799690   -3.310230    3.794989
     41          1           0       -2.464798   -4.069238    4.301501
     42          1           0       -3.646810   -3.115358    4.231448
 ---------------------------------------------------------------------
                    Distance matrix (angstroms):
                    1          2          3          4          5
     1  C    0.000000
     2  C    1.395080   0.000000
     3  C    2.376174   1.388923   0.000000
     4  N    2.712801   2.370284   1.336750   0.000000
     5  C    2.388556   2.775085   2.349935   1.339526   0.000000
     6  C    1.394759   2.426770   2.745976   2.350596   1.381018
     7  C    2.540099   1.509551   2.521952   3.752958   4.284234
     8  N    3.593190   2.482947   3.047163   4.300254   5.020609
     9  C    4.767266   3.694018   4.310772   5.623299   6.374211
    10  C    4.924907   3.780279   4.291951   5.617511   6.437745
    11  C    3.655612   2.574132   3.173298   4.426887   5.134945
    12  O    5.283840   4.676714   3.324836   2.614091   3.559420
    13  O    5.527643   4.646389   3.633453   3.726024   4.746346
    14  O    5.100572   3.789956   3.166610   4.114450   5.316749
    15  H    5.666657   4.533381   4.939746   6.223035   7.078068
    16  H    5.588086   4.592633   5.248194   6.555391   7.285242
    17  H    5.609936   4.338506   4.526135   5.817478   6.803869
    18  H    3.816792   3.057693   3.828037   4.949214   5.463130
    19  H    3.860476   2.668040   2.775960   3.947974   4.830584
    20  H    4.951868   4.124674   4.997095   6.270907   6.845041
    21  H    2.581957   2.122498   3.402051   4.491976   4.748394
    22  H    3.393116   2.185573   1.088590   2.058977   3.296742
    23  H    3.402308   3.858806   3.300764   2.068772   1.086679
    24  H    2.169005   3.417822   3.832888   3.334122   2.141479
    25  H    1.090248   2.152517   3.370350   3.802997   3.377355
    26  C    3.757422   3.042048   3.672795   4.686308   5.180808
    27  H    3.768625   3.304735   2.041415   1.059351   2.087624
    28  H    4.463068   3.152285   2.886216   4.023903   5.094999
    29  H    5.939218   4.593214   4.049781   5.030584   6.251557
    30  H    5.463526   4.727617   3.416586   2.985609   4.017182
    31  H    6.097564   5.446003   4.066402   3.401233   4.336594
    32  H    6.422885   5.548927   4.583376   4.667142   5.642169
    33  H    5.347850   4.282764   3.357811   3.790441   4.928656
    34  H    4.328083   3.825249   3.173643   3.123743   3.707612
    35  O    3.690393   3.455524   3.090557   2.998434   3.266926
    36  H    4.357801   4.301554   4.032066   3.835970   3.902016
    37  H    4.815775   4.028449   4.448349   5.437917   6.037380
    38  H    3.288564   2.747070   3.201250   3.979135   4.374974
    39  H    3.845312   3.435721   4.365483   5.343913   5.626976
    40  O    8.146108   7.289474   6.378550   6.445740   7.361508
    41  H    8.830334   7.925022   7.092385   7.273724   8.210841
    42  H    8.660968   7.902408   6.942341   6.840331   7.665458
                    6          7          8          9         10
     6  C    0.000000
     7  C    3.821647   0.000000
     8  N    4.751921   1.470506   0.000000
     9  C    6.032089   2.308956   1.470014   0.000000
    10  C    6.163014   2.436491   2.370623   1.534298   0.000000
    11  C    4.832262   1.539362   2.362255   2.435674   1.547850
    12  O    4.839605   5.750636   5.804974   7.024485   7.021662
    13  O    5.584408   5.211186   4.568126   5.704889   6.206570
    14  O    5.756791   3.601044   2.753975   3.438633   3.730420
    15  H    6.861317   3.279885   2.115720   1.096983   2.218345
    16  H    6.882473   3.188912   3.274568   2.184239   1.094502
    17  H    6.735791   3.198273   2.924436   2.181459   1.095747
    18  H    4.991317   2.185033   3.284928   3.228435   2.219781
    19  H    4.808792   2.177510   2.874020   3.161219   2.193120
    20  H    6.293307   2.683668   2.120469   1.105314   2.187074
    21  H    3.974205   1.107541   2.107989   2.627228   2.900482
    22  H    3.831049   2.789162   2.948033   4.057122   3.952742
    23  H    2.181637   5.366876   6.051278   7.425168   7.484848
    24  H    1.087111   4.706883   5.667578   6.911644   7.076197
    25  H    2.153201   2.750494   3.851722   4.831615   5.054404
    26  C    4.802756   2.453512   1.460527   2.450832   3.712231
    27  H    3.317499   4.561543   4.912612   6.204451   6.169900
    28  H    5.300520   2.730206   1.759333   2.542298   3.020383
    29  H    6.667700   4.176096   3.215228   3.509813   3.733316
    30  H    5.183632   5.644823   5.454437   6.652416   6.800490
    31  H    5.644234   6.459461   6.525835   7.653951   7.520639
    32  H    6.477311   6.018353   5.224618   6.263139   6.854356
    33  H    5.634105   4.604878   3.852159   4.867113   5.332867
    34  H    4.292583   4.615235   4.154753   5.529754   6.244143
    35  O    3.620382   4.345844   4.063707   5.498594   6.257458
    36  H    4.180495   5.149579   4.799126   6.195510   7.074058
    37  H    5.786483   3.388131   2.093483   2.690712   4.114727
    38  H    4.093091   2.749996   2.104858   3.394158   4.466669
    39  H    4.986297   2.720990   2.129668   2.742391   4.013685
    40  O    8.191605   7.642543   6.675942   7.554431   8.256944
    41  H    8.973282   8.129192   7.039772   7.777154   8.544793
    42  H    8.566220   8.382295   7.487771   8.438412   9.132715
                   11         12         13         14         15
    11  C    0.000000
    12  O    6.162533   0.000000
    13  O    5.875925   2.773722   0.000000
    14  O    3.796877   4.235432   2.693167   0.000000
    15  H    3.359283   7.283713   5.628738   3.300768   0.000000
    16  H    2.209029   8.064927   7.297900   4.801765   2.800735
    17  H    2.187574   6.835940   6.005395   3.372701   2.412078
    18  H    1.094963   6.884913   6.860121   4.877037   4.217455
    19  H    1.096671   5.412807   5.432252   3.436689   3.896337
    20  H    2.980650   7.898007   6.570109   4.475968   1.778041
    21  H    2.168969   6.688480   6.126871   4.616700   3.675247
    22  H    3.096815   3.110048   3.137405   2.264528   4.509838
    23  H    6.179212   3.549428   5.126951   6.098866   8.088952
    24  H    5.737443   5.685552   6.508650   6.816556   7.770800
    25  H    3.882912   6.366444   6.432118   5.817142   5.800150
    26  C    3.711244   6.183146   4.598578   3.486108   2.802658
    27  H    5.091178   1.577179   3.275198   4.098598   6.672850
    28  H    3.098792   4.724468   3.250010   0.997230   2.569609
    29  H    4.133435   4.982302   3.358729   0.959389   3.126319
    30  H    6.124836   0.973045   1.853992   3.648202   6.786459
    31  H    6.691551   0.973374   3.396444   4.723514   7.873527
    32  H    6.673303   3.453819   0.960169   3.217582   6.038659
    33  H    5.140823   3.214624   0.983762   1.725664   4.742290
    34  H    5.701515   3.344879   1.899422   3.525693   5.684226
    35  O    5.599579   3.863862   2.845858   4.072232   5.794187
    36  H    6.472570   4.513405   3.380724   4.865370   6.434271
    37  H    4.440997   6.564676   4.563376   3.464401   2.594617
    38  H    4.152480   5.470369   3.999319   3.540544   3.762730
    39  H    4.013120   7.101478   5.652969   4.540609   3.239637
    40  O    8.279056   4.975465   2.763640   4.617272   7.125514
    41  H    8.730450   5.888517   3.555552   5.010732   7.223690
    42  H    9.065872   5.177727   3.328222   5.470954   8.051737
                   16         17         18         19         20
    16  H    0.000000
    17  H    1.765055   0.000000
    18  H    2.394111   2.933394   0.000000
    19  H    2.957982   2.323867   1.765952   0.000000
    20  H    2.375052   3.044052   3.489711   3.911432   0.000000
    21  H    3.341239   3.867199   2.371938   3.045620   2.524648
    22  H    4.985820   3.936196   3.935788   2.490121   4.927557
    23  H    8.345180   7.797678   6.490432   5.800397   7.914371
    24  H    7.721040   7.716583   5.772032   5.787598   7.055392
    25  H    5.545326   5.895431   3.848570   4.342037   4.770718
    26  C    4.478706   4.299828   4.503044   4.255311   2.629539
    27  H    7.159431   6.197779   5.694325   4.453305   6.961606
    28  H    4.094446   2.920699   4.186305   2.994043   3.538309
    29  H    4.727311   3.158591   5.209138   3.796521   4.577615
    30  H    7.877313   6.573857   6.960138   5.442627   7.549585
    31  H    8.546240   7.222472   7.390104   5.837402   8.580453
    32  H    7.934820   6.588987   7.690774   6.252921   7.121923
    33  H    6.420561   5.075043   6.171050   4.717972   5.791006
    34  H    7.283464   6.376092   6.568259   5.507368   6.154485
    35  O    7.240145   6.550581   6.366727   5.533555   5.980779
    36  H    8.032375   7.395849   7.221672   6.464322   6.590223
    37  H    4.867315   4.531261   5.314062   4.928278   2.914989
    38  H    5.317377   4.989465   4.931368   4.515666   3.662955
    39  H    4.561327   4.796604   4.593729   4.759822   2.454201
    40  O    9.303021   7.907724   9.331401   7.892304   8.380703
    41  H    9.551626   8.156890   9.806183   8.397712   8.578734
    42  H   10.191460   8.802041  10.096759   8.647253   9.249044
                   21         22         23         24         25
    21  H    0.000000
    22  H    3.840306   0.000000
    23  H    5.826737   4.127292   0.000000
    24  H    4.668002   4.917121   2.528478   0.000000
    25  H    2.326553   4.313963   4.315617   2.498863   0.000000
    26  C    2.646117   3.786395   6.142940   5.579025   3.885752
    27  H    5.403162   2.282913   2.366548   4.216648   4.858369
    28  H    3.688205   2.216662   5.990205   6.335079   5.058354
    29  H    5.153281   3.101238   7.034880   7.730187   6.592750
    30  H    6.606750   3.035642   4.140457   6.074630   6.511149
    31  H    7.437652   3.724391   4.239212   6.473370   7.184990
    32  H    6.911978   4.049112   5.956892   7.367769   7.292772
    33  H    5.568306   2.666086   5.479301   6.629112   6.201251
    34  H    5.294247   3.260108   4.136149   5.081126   5.141202
    35  O    4.862545   3.476981   3.750278   4.315124   4.423335
    36  H    5.552716   4.433274   4.224141   4.695466   4.977096
    37  H    3.642136   4.359732   6.944462   6.570356   4.975317
    38  H    3.038198   3.480352   5.262399   4.852870   3.593525
    39  H    2.437604   4.644148   6.605241   5.609865   3.658160
    40  O    8.496197   5.809771   7.587421   9.030661   8.967415
    41  H    8.957310   6.474502   8.489683   9.822667   9.598504
    42  H    9.223773   6.446856   7.760389   9.343306   9.509013
                   26         27         28         29         30
    26  C    0.000000
    27  H    5.319074   0.000000
    28  H    2.598474   4.261552   0.000000
    29  H    4.007988   4.975084   1.577792   0.000000
    30  H    5.741736   2.105536   4.223070   4.364344   0.000000
    31  H    7.015019   2.353553   5.325212   5.353569   1.580566
    32  H    5.142421   4.168084   3.847356   3.687386   2.486101
    33  H    4.075060   3.487589   2.364581   2.382130   2.386496
    34  H    3.752979   3.103227   3.553833   4.381715   2.785502
    35  O    3.497418   3.257472   3.879444   4.964486   3.494984
    36  H    4.003489   4.044388   4.682529   5.710788   4.114595
    37  H    1.096343   5.926676   2.712953   3.805535   5.981793
    38  H    1.096933   4.594961   2.813876   4.250355   5.054544
    39  H    1.105221   6.099194   3.607694   5.019045   6.726907
    40  O    6.447144   5.895361   5.285024   4.810618   4.029696
    41  H    6.775651   6.770475   5.660954   5.045306   4.932139
    42  H    7.201911   6.217067   6.134890   5.720558   4.297720
                   31         32         33         34         35
    31  H    0.000000
    32  H    3.941171   0.000000
    33  H    3.785239   1.558526   0.000000
    34  H    4.254005   2.494699   2.340909   0.000000
    35  O    4.823869   3.462163   3.171390   0.971750   0.000000
    36  H    5.455138   3.798604   3.834416   1.537523   0.959588
    37  H    7.361131   4.920250   4.004953   3.955752   3.885731
    38  H    6.363077   4.591394   3.681492   2.825258   2.439786
    39  H    7.956988   6.199484   5.168739   4.623196   4.194857
    40  O    5.281756   1.803579   3.196798   4.011244   4.922817
    41  H    6.171596   2.613862   3.811115   4.758998   5.637600
    42  H    5.428331   2.417865   3.938903   4.417003   5.294376
                   36         37         38         39         40
    36  H    0.000000
    37  H    4.270956   0.000000
    38  H    2.937482   1.777070   0.000000
    39  H    4.587152   1.785283   1.800002   0.000000
    40  O    4.998095   5.980558   5.977672   7.469550   0.000000
    41  H    5.678218   6.169117   6.423097   7.774957   0.972009
    42  H    5.254579   6.780112   6.636734   8.199866   0.972668
                   41         42
    41  H    0.000000
    42  H    1.520508   0.000000
 Stoichiometry    C10H25N2O5(1+)
 Framework group  C1[X(C10H25N2O5)]
 Deg. of freedom   120
 Full point group                 C1      NOp   1
 Largest Abelian subgroup         C1      NOp   1
 Largest concise Abelian subgroup C1      NOp   1
                         Standard orientation:                         
 ---------------------------------------------------------------------
 Center     Atomic      Atomic             Coordinates (Angstroms)
 Number     Number       Type             X           Y           Z
 ---------------------------------------------------------------------
      1          6           0        1.682755    2.278665    0.734401
      2          6           0        1.403382    1.106392    0.031567
      3          6           0        0.227981    1.074432   -0.707701
      4          7           0       -0.595463    2.127199   -0.730545
      5          6           0       -0.349772    3.255928   -0.052359
      6          6           0        0.809171    3.365078    0.690708
      7          6           0        2.323114   -0.089769    0.076706
      8          7           0        1.650736   -1.309560    0.548304
      9          6           0        2.628910   -2.370401    0.267707
     10          6           0        3.157407   -2.033408   -1.132720
     11          6           0        2.916362   -0.511522   -1.279693
     12          8           0       -2.904680    1.454852   -1.754721
     13          8           0       -2.837633   -0.785564   -0.120838
     14          8           0       -0.567610   -1.981886   -0.938739
     15          1           0        2.149620   -3.354716    0.336827
     16          1           0        4.214712   -2.298105   -1.232594
     17          1           0        2.607433   -2.585531   -1.903012
     18          1           0        3.830508    0.049920   -1.498927
     19          1           0        2.203452   -0.304447   -2.086889
     20          1           0        3.444111   -2.340934    1.013561
     21          1           0        3.150584    0.154838    0.771047
     22          1           0       -0.096033    0.206626   -1.279502
     23          1           0       -1.100889    4.038267   -0.120479
     24          1           0        1.016228    4.279667    1.240675
     25          1           0        2.591470    2.342060    1.333451
     26          6           0        1.242345   -1.249552    1.949288
     27          1           0       -1.515244    1.994332   -1.239046
     28          1           0        0.240668   -1.793748   -0.385785
     29          1           0       -0.477427   -2.871060   -1.287541
     30          1           0       -3.104047    0.614336   -1.306835
     31          1           0       -3.337183    1.452027   -2.626725
     32          1           0       -3.554037   -1.385581    0.099771
     33          1           0       -2.080853   -1.345056   -0.407267
     34          1           0       -2.117953    0.280486    1.276803
     35          8           0       -1.547036    0.855837    1.812829
     36          1           0       -2.011868    0.976653    2.643578
     37          1           0        0.800844   -2.211342    2.235652
     38          1           0        0.483301   -0.469371    2.085056
     39          1           0        2.103183   -1.050017    2.613108
     40          8           0       -4.920544   -2.486610    0.516053
     41          1           0       -5.062203   -3.420477    0.745458
     42          1           0       -5.795198   -2.090384    0.671195
 ---------------------------------------------------------------------
 Rotational constants (GHZ):           0.4209617           0.3015184           0.2198044
 Standard basis: Aug-CC-pVDZ (5D, 7F)
 There are   650 symmetry adapted cartesian basis functions of A   symmetry.
 There are   616 symmetry adapted basis functions of A   symmetry.
   616 basis functions,  1006 primitive gaussians,   650 cartesian basis functions
    69 alpha electrons       69 beta electrons
       nuclear repulsion energy      1400.8249864720 Hartrees.
 NAtoms=   42 NActive=   42 NUniq=   42 SFac= 1.00D+00 NAtFMM=   60 NAOKFM=F Big=F
 Integral buffers will be    131072 words long.
 Raffenetti 2 integral format.
 Two-electron integral symmetry is turned on.
 Nuclear repulsion after empirical dispersion term =     1400.7909775761 Hartrees.
 One-electron integrals computed using PRISM.
 NBasis=   616 RedAO= T EigKep=  1.75D-06  NBF=   616
 NBsUse=   616 1.00D-06 EigRej= -1.00D+00 NBFU=   616
 ExpMin= 2.97D-02 ExpMax= 1.17D+04 ExpMxC= 4.01D+02 IAcc=3 IRadAn=         5 AccDes= 0.00D+00
 Harris functional with IExCor= 4639 and IRadAn=       5 diagonalized for initial guess.
 HarFok:  IExCor= 4639 AccDes= 0.00D+00 IRadAn=         5 IDoV= 1 UseB2=F ITyADJ=14
 ICtDFT=  3500011 ScaDFX=  1.000000  1.000000  1.000000  1.000000
 FoFCou: FMM=F IPFlag=           0 FMFlag=      100000 FMFlg1=           0
         NFxFlg=           0 DoJE=T BraDBF=F KetDBF=T FulRan=T
         wScrn=  0.000000 ICntrl=       500 IOpCl=  0 I1Cent=   200000004 NGrid=           0
         NMat0=    1 NMatS0=      1 NMatT0=    0 NMatD0=    1 NMtDS0=    0 NMtDT0=    0
 Petite list used in FoFCou.
 Requested convergence on RMS density matrix=1.00D-08 within 128 cycles.
 Requested convergence on MAX density matrix=1.00D-06.
 Requested convergence on             energy=1.00D-06.
 No special actions if energy rises.
 SCF Done:  E(RwB97XD) =  -881.469092903     A.U. after   16 cycles
            NFock= 16  Conv=0.17D-08     -V/T= 2.0062

 **********************************************************************

            Population analysis using the SCF density.

 **********************************************************************

 Orbital symmetries:
       Occupied  (A) (A) (A) (A) (A) (A) (A) (A) (A) (A) (A) (A)
                 (A) (A) (A) (A) (A) (A) (A) (A) (A) (A) (A) (A)
                 (A) (A) (A) (A) (A) (A) (A) (A) (A) (A) (A) (A)
                 (A) (A) (A) (A) (A) (A) (A) (A) (A) (A) (A) (A)
                 (A) (A) (A) (A) (A) (A) (A) (A) (A) (A) (A) (A)
                 (A) (A) (A) (A) (A) (A) (A) (A) (A)
       Virtual   (A) (A) (A) (A) (A) (A) (A) (A) (A) (A) (A) (A)
                 (A) (A) (A) (A) (A) (A) (A) (A) (A) (A) (A) (A)
                 (A) (A) (A) (A) (A) (A) (A) (A) (A) (A) (A) (A)
                 (A) (A) (A) (A) (A) (A) (A) (A) (A) (A) (A) (A)
                 (A) (A) (A) (A) (A) (A) (A) (A) (A) (A) (A) (A)
                 (A) (A) (A) (A) (A) (A) (A) (A) (A) (A) (A) (A)
                 (A) (A) (A) (A) (A) (A) (A) (A) (A) (A) (A) (A)
                 (A) (A) (A) (A) (A) (A) (A) (A) (A) (A) (A) (A)
                 (A) (A) (A) (A) (A) (A) (A) (A) (A) (A) (A) (A)
                 (A) (A) (A) (A) (A) (A) (A) (A) (A) (A) (A) (A)
                 (A) (A) (A) (A) (A) (A) (A) (A) (A) (A) (A) (A)
                 (A) (A) (A) (A) (A) (A) (A) (A) (A) (A) (A) (A)
                 (A) (A) (A) (A) (A) (A) (A) (A) (A) (A) (A) (A)
                 (A) (A) (A) (A) (A) (A) (A) (A) (A) (A) (A) (A)
                 (A) (A) (A) (A) (A) (A) (A) (A) (A) (A) (A) (A)
                 (A) (A) (A) (A) (A) (A) (A) (A) (A) (A) (A) (A)
                 (A) (A) (A) (A) (A) (A) (A) (A) (A) (A) (A) (A)
                 (A) (A) (A) (A) (A) (A) (A) (A) (A) (A) (A) (A)
                 (A) (A) (A) (A) (A) (A) (A) (A) (A) (A) (A) (A)
                 (A) (A) (A) (A) (A) (A) (A) (A) (A) (A) (A) (A)
                 (A) (A) (A) (A) (A) (A) (A) (A) (A) (A) (A) (A)
                 (A) (A) (A) (A) (A) (A) (A) (A) (A) (A) (A) (A)
                 (A) (A) (A) (A) (A) (A) (A) (A) (A) (A) (A) (A)
                 (A) (A) (A) (A) (A) (A) (A) (A) (A) (A) (A) (A)
                 (A) (A) (A) (A) (A) (A) (A) (A) (A) (A) (A) (A)
                 (A) (A) (A) (A) (A) (A) (A) (A) (A) (A) (A) (A)
                 (A) (A) (A) (A) (A) (A) (A) (A) (A) (A) (A) (A)
                 (A) (A) (A) (A) (A) (A) (A) (A) (A) (A) (A) (A)
                 (A) (A) (A) (A) (A) (A) (A) (A) (A) (A) (A) (A)
                 (A) (A) (A) (A) (A) (A) (A) (A) (A) (A) (A) (A)
                 (A) (A) (A) (A) (A) (A) (A) (A) (A) (A) (A) (A)
                 (A) (A) (A) (A) (A) (A) (A) (A) (A) (A) (A) (A)
                 (A) (A) (A) (A) (A) (A) (A) (A) (A) (A) (A) (A)
                 (A) (A) (A) (A) (A) (A) (A) (A) (A) (A) (A) (A)
                 (A) (A) (A) (A) (A) (A) (A) (A) (A) (A) (A) (A)
                 (A) (A) (A) (A) (A) (A) (A) (A) (A) (A) (A) (A)
                 (A) (A) (A) (A) (A) (A) (A) (A) (A) (A) (A) (A)
                 (A) (A) (A) (A) (A) (A) (A) (A) (A) (A) (A) (A)
                 (A) (A) (A) (A) (A) (A) (A) (A) (A) (A) (A) (A)
                 (A) (A) (A) (A) (A) (A) (A) (A) (A) (A) (A) (A)
                 (A) (A) (A) (A) (A) (A) (A) (A) (A) (A) (A) (A)
                 (A) (A) (A) (A) (A) (A) (A) (A) (A) (A) (A) (A)
                 (A) (A) (A) (A) (A) (A) (A) (A) (A) (A) (A) (A)
                 (A) (A) (A) (A) (A) (A) (A) (A) (A) (A) (A) (A)
                 (A) (A) (A) (A) (A) (A) (A) (A) (A) (A) (A) (A)
                 (A) (A) (A) (A) (A) (A) (A)
 The electronic state is 1-A.
 Alpha  occ. eigenvalues --  -19.39730 -19.39705 -19.37800 -19.36563 -19.35833
 Alpha  occ. eigenvalues --  -14.65990 -14.57305 -10.49603 -10.49220 -10.46444
 Alpha  occ. eigenvalues --  -10.45886 -10.45534 -10.45453 -10.42819 -10.41614
 Alpha  occ. eigenvalues --  -10.40881 -10.40091  -1.24858  -1.23598  -1.23394
 Alpha  occ. eigenvalues --   -1.22292  -1.20741  -1.19745  -1.16651  -1.06988
 Alpha  occ. eigenvalues --   -1.03366  -0.99764  -0.95047  -0.89336  -0.88670
 Alpha  occ. eigenvalues --   -0.87654  -0.81532  -0.79079  -0.78800  -0.75198
 Alpha  occ. eigenvalues --   -0.73886  -0.73536  -0.73370  -0.72664  -0.72261
 Alpha  occ. eigenvalues --   -0.71035  -0.70141  -0.68742  -0.67581  -0.66647
 Alpha  occ. eigenvalues --   -0.64716  -0.63651  -0.62959  -0.62812  -0.61922
 Alpha  occ. eigenvalues --   -0.60677  -0.59024  -0.58160  -0.57651  -0.57439
 Alpha  occ. eigenvalues --   -0.56299  -0.56015  -0.55511  -0.54789  -0.53301
 Alpha  occ. eigenvalues --   -0.53177  -0.52525  -0.52045  -0.51503  -0.51374
 Alpha  occ. eigenvalues --   -0.50351  -0.49160  -0.47815  -0.43724
 Alpha virt. eigenvalues --   -0.12419  -0.09660  -0.06156  -0.05051  -0.04565
 Alpha virt. eigenvalues --   -0.04514  -0.03515  -0.03130  -0.02633  -0.02507
 Alpha virt. eigenvalues --   -0.02191  -0.01236  -0.00912  -0.00837  -0.00240
 Alpha virt. eigenvalues --   -0.00011   0.00610   0.01013   0.01287   0.01528
 Alpha virt. eigenvalues --    0.01938   0.02116   0.02742   0.02906   0.03224
 Alpha virt. eigenvalues --    0.03444   0.03655   0.04008   0.04224   0.04568
 Alpha virt. eigenvalues --    0.04859   0.05238   0.05597   0.05870   0.05967
 Alpha virt. eigenvalues --    0.06306   0.06616   0.06907   0.07276   0.07349
 Alpha virt. eigenvalues --    0.07631   0.08019   0.08137   0.08275   0.08448
 Alpha virt. eigenvalues --    0.09016   0.09310   0.09693   0.10024   0.10270
 Alpha virt. eigenvalues --    0.10602   0.10679   0.10791   0.11484   0.11777
 Alpha virt. eigenvalues --    0.12023   0.12496   0.12535   0.12765   0.12901
 Alpha virt. eigenvalues --    0.13365   0.13696   0.13960   0.14176   0.14462
 Alpha virt. eigenvalues --    0.14582   0.14835   0.15221   0.15624   0.15941
 Alpha virt. eigenvalues --    0.16307   0.16511   0.16674   0.17229   0.17370
 Alpha virt. eigenvalues --    0.17607   0.18126   0.18160   0.18329   0.18582
 Alpha virt. eigenvalues --    0.18748   0.18940   0.19073   0.19466   0.19749
 Alpha virt. eigenvalues --    0.19902   0.20221   0.20471   0.20627   0.21072
 Alpha virt. eigenvalues --    0.21749   0.22229   0.22301   0.22495   0.22942
 Alpha virt. eigenvalues --    0.23074   0.23375   0.23880   0.24328   0.24389
 Alpha virt. eigenvalues --    0.24625   0.25250   0.25665   0.26218   0.26422
 Alpha virt. eigenvalues --    0.26625   0.26935   0.27048   0.27150   0.27694
 Alpha virt. eigenvalues --    0.27779   0.27845   0.28102   0.28476   0.28652
 Alpha virt. eigenvalues --    0.29347   0.29736   0.30075   0.30298   0.31009
 Alpha virt. eigenvalues --    0.31523   0.31914   0.32328   0.32499   0.32701
 Alpha virt. eigenvalues --    0.33043   0.33729   0.34061   0.34597   0.34964
 Alpha virt. eigenvalues --    0.35470   0.36007   0.36244   0.36762   0.37292
 Alpha virt. eigenvalues --    0.37763   0.37850   0.38222   0.38545   0.38857
 Alpha virt. eigenvalues --    0.39162   0.39749   0.40110   0.40126   0.40628
 Alpha virt. eigenvalues --    0.40744   0.41046   0.41671   0.41823   0.42442
 Alpha virt. eigenvalues --    0.42917   0.43231   0.43705   0.43900   0.44133
 Alpha virt. eigenvalues --    0.44451   0.45086   0.45217   0.45642   0.46114
 Alpha virt. eigenvalues --    0.46660   0.47332   0.47606   0.48196   0.48635
 Alpha virt. eigenvalues --    0.48924   0.49023   0.49323   0.49501   0.49861
 Alpha virt. eigenvalues --    0.50321   0.50549   0.50988   0.51221   0.51429
 Alpha virt. eigenvalues --    0.51960   0.52390   0.52819   0.52989   0.53178
 Alpha virt. eigenvalues --    0.53943   0.54294   0.54510   0.55141   0.55248
 Alpha virt. eigenvalues --    0.55497   0.56030   0.56247   0.56624   0.56943
 Alpha virt. eigenvalues --    0.57398   0.58015   0.58201   0.58469   0.58739
 Alpha virt. eigenvalues --    0.59475   0.59527   0.59824   0.60279   0.60820
 Alpha virt. eigenvalues --    0.61167   0.61533   0.62024   0.62145   0.62834
 Alpha virt. eigenvalues --    0.63364   0.63633   0.63957   0.64556   0.64903
 Alpha virt. eigenvalues --    0.65804   0.66186   0.66313   0.66712   0.67049
 Alpha virt. eigenvalues --    0.67321   0.68394   0.69036   0.69223   0.69278
 Alpha virt. eigenvalues --    0.69861   0.69988   0.70487   0.70643   0.71246
 Alpha virt. eigenvalues --    0.71600   0.72198   0.72914   0.73315   0.73674
 Alpha virt. eigenvalues --    0.74196   0.74349   0.74547   0.75005   0.75766
 Alpha virt. eigenvalues --    0.76215   0.76824   0.77446   0.77734   0.78843
 Alpha virt. eigenvalues --    0.78895   0.79619   0.80048   0.80688   0.81007
 Alpha virt. eigenvalues --    0.81176   0.81768   0.83084   0.83406   0.83948
 Alpha virt. eigenvalues --    0.84070   0.84685   0.85214   0.85566   0.85933
 Alpha virt. eigenvalues --    0.86954   0.87100   0.87818   0.88523   0.89000
 Alpha virt. eigenvalues --    0.89659   0.89846   0.90848   0.91272   0.91456
 Alpha virt. eigenvalues --    0.92282   0.92718   0.92958   0.93580   0.94661
 Alpha virt. eigenvalues --    0.94709   0.95978   0.96900   0.97595   0.98211
 Alpha virt. eigenvalues --    0.98293   0.99200   0.99616   0.99968   1.01041
 Alpha virt. eigenvalues --    1.01891   1.03050   1.04372   1.04940   1.05163
 Alpha virt. eigenvalues --    1.05393   1.06721   1.07223   1.07646   1.09071
 Alpha virt. eigenvalues --    1.09572   1.10059   1.10964   1.11895   1.12346
 Alpha virt. eigenvalues --    1.12707   1.13333   1.13988   1.14731   1.14965
 Alpha virt. eigenvalues --    1.15772   1.16782   1.17438   1.18194   1.18933
 Alpha virt. eigenvalues --    1.20130   1.20295   1.20578   1.22164   1.22537
 Alpha virt. eigenvalues --    1.22826   1.23478   1.24389   1.25957   1.26089
 Alpha virt. eigenvalues --    1.27378   1.28517   1.29727   1.31115   1.31441
 Alpha virt. eigenvalues --    1.31695   1.32271   1.33131   1.34470   1.35211
 Alpha virt. eigenvalues --    1.35448   1.36490   1.36693   1.37484   1.38703
 Alpha virt. eigenvalues --    1.39296   1.39434   1.40098   1.41985   1.43210
 Alpha virt. eigenvalues --    1.43630   1.45043   1.45296   1.47231   1.47307
 Alpha virt. eigenvalues --    1.47585   1.48000   1.48988   1.50871   1.51187
 Alpha virt. eigenvalues --    1.51383   1.54111   1.54584   1.55608   1.55972
 Alpha virt. eigenvalues --    1.56329   1.56544   1.59349   1.59486   1.60332
 Alpha virt. eigenvalues --    1.61250   1.61999   1.63058   1.64094   1.64702
 Alpha virt. eigenvalues --    1.64886   1.65883   1.66335   1.67372   1.68016
 Alpha virt. eigenvalues --    1.68254   1.69230   1.69581   1.70760   1.71221
 Alpha virt. eigenvalues --    1.71958   1.73308   1.73436   1.73828   1.74943
 Alpha virt. eigenvalues --    1.75794   1.76867   1.77426   1.78090   1.79166
 Alpha virt. eigenvalues --    1.79497   1.80633   1.81647   1.81854   1.82002
 Alpha virt. eigenvalues --    1.82928   1.83697   1.84095   1.84849   1.85592
 Alpha virt. eigenvalues --    1.86594   1.86991   1.87554   1.88318   1.89279
 Alpha virt. eigenvalues --    1.89823   1.90448   1.91458   1.92421   1.92929
 Alpha virt. eigenvalues --    1.93714   1.94635   1.95678   1.95847   1.96870
 Alpha virt. eigenvalues --    1.96989   1.97787   1.98185   1.99154   1.99810
 Alpha virt. eigenvalues --    2.01286   2.01717   2.01954   2.02274   2.03168
 Alpha virt. eigenvalues --    2.03734   2.05054   2.05671   2.06588   2.07551
 Alpha virt. eigenvalues --    2.08770   2.09404   2.09653   2.10956   2.12402
 Alpha virt. eigenvalues --    2.13202   2.13436   2.14485   2.14943   2.15635
 Alpha virt. eigenvalues --    2.16409   2.16894   2.18393   2.19147   2.19606
 Alpha virt. eigenvalues --    2.20422   2.22072   2.23098   2.23215   2.24367
 Alpha virt. eigenvalues --    2.25571   2.26218   2.27088   2.28409   2.29214
 Alpha virt. eigenvalues --    2.29564   2.30671   2.31323   2.32515   2.33696
 Alpha virt. eigenvalues --    2.33825   2.35048   2.35537   2.37056   2.38190
 Alpha virt. eigenvalues --    2.40136   2.41168   2.42504   2.44107   2.45051
 Alpha virt. eigenvalues --    2.45659   2.47386   2.47770   2.49119   2.50563
 Alpha virt. eigenvalues --    2.52070   2.53259   2.54186   2.55685   2.56574
 Alpha virt. eigenvalues --    2.57135   2.58173   2.58805   2.59707   2.59785
 Alpha virt. eigenvalues --    2.61928   2.63088   2.64119   2.64795   2.66315
 Alpha virt. eigenvalues --    2.66683   2.68250   2.69268   2.70047   2.70483
 Alpha virt. eigenvalues --    2.72049   2.73434   2.74415   2.74530   2.76129
 Alpha virt. eigenvalues --    2.77576   2.78239   2.79152   2.80485   2.81867
 Alpha virt. eigenvalues --    2.83514   2.85048   2.86161   2.87763   2.88166
 Alpha virt. eigenvalues --    2.89626   2.91723   2.94610   2.96152   2.97048
 Alpha virt. eigenvalues --    2.99060   3.01066   3.02730   3.06142   3.07055
 Alpha virt. eigenvalues --    3.12573   3.14167   3.18516   3.23201   3.25533
 Alpha virt. eigenvalues --    3.28587   3.31510   3.34820   3.39318   3.42065
 Alpha virt. eigenvalues --    3.43526   3.44300   3.44720   3.45457   3.46564
 Alpha virt. eigenvalues --    3.49830   3.50176   3.51354   3.53095   3.55123
 Alpha virt. eigenvalues --    3.59140   3.64019   3.66323   3.68183   3.71182
 Alpha virt. eigenvalues --    3.76179   3.82104   3.88216   3.90359   3.94011
 Alpha virt. eigenvalues --    3.97734   4.01324   4.06266   4.11548   4.16345
 Alpha virt. eigenvalues --    4.39547   5.02775
          Condensed to atoms (all electrons):
               1          2          3          4          5          6
     1  C   27.339166 -13.391966  -1.299630  -0.901740   1.822934  -5.097060
     2  C  -13.391966  30.871802  -5.883057   0.537958  -1.290181   1.103228
     3  C   -1.299630  -5.883057  18.971685  -1.603810  -1.024741  -0.440184
     4  N   -0.901740   0.537958  -1.603810   8.309447   0.045167   0.317930
     5  C    1.822934  -1.290181  -1.024741   0.045167  10.433465  -2.834027
     6  C   -5.097060   1.103228  -0.440184   0.317930  -2.834027  12.404871
     7  C   -0.522580 -11.016950  -1.985659   0.575668  -0.656675   0.371846
     8  N   -0.714750   2.633394   0.692305  -0.119266   0.063247  -0.175430
     9  C    0.219660  -0.817207  -0.119960  -0.005605  -0.025336  -0.028746
    10  C   -0.129714   0.422077  -0.097617   0.036585   0.013548  -0.024176
    11  C    0.186002  -0.261226  -0.733487  -0.031457  -0.098327   0.000774
    12  O    0.010190  -0.081515  -0.038732  -0.096012   0.022505   0.001289
    13  O    0.034187  -0.061649  -0.007401   0.012391   0.068150  -0.034358
    14  O   -0.050624  -0.015141  -0.154787   0.035333  -0.013354   0.014942
    15  H    0.047120  -0.255951  -0.010776  -0.002711  -0.000851  -0.001060
    16  H    0.001244   0.025390   0.035784  -0.002624   0.002600  -0.001955
    17  H   -0.007621  -0.099121  -0.043497   0.008369  -0.001285  -0.000398
    18  H   -0.091629   0.391746   0.249612  -0.008634  -0.000698  -0.001334
    19  H    0.111806  -0.076447  -0.077932   0.003228   0.003484  -0.021663
    20  H    0.013501   0.227911   0.032532   0.000041  -0.001993  -0.001849
    21  H    0.094163   1.035071  -0.213241  -0.002623   0.042708  -0.022541
    22  H   -0.214864  -0.852319  -1.335902   0.116921   0.003377   0.013599
    23  H    0.232660  -0.040761   0.168370  -0.166549  -0.625578   0.107151
    24  H    0.650004   0.024542  -0.128274   0.002476   0.352081  -1.188174
    25  H   -2.797991   1.328572   0.241257  -0.092117  -0.261808   0.802249
    26  C   -0.384923   0.927959  -0.153462  -0.031452  -0.034777   0.092381
    27  H   -0.023340  -0.366784   0.389244   0.040053  -0.526789  -0.004084
    28  H   -0.045182  -0.082047  -0.240076   0.078779   0.014698  -0.001392
    29  H    0.007494   0.008467   0.034606  -0.007852   0.000796  -0.000708
    30  H   -0.004476   0.009765  -0.037097   0.034210  -0.005317   0.004393
    31  H   -0.003127   0.009230  -0.004646  -0.009806  -0.009376   0.005733
    32  H    0.014566  -0.010620   0.030624  -0.008363   0.003971  -0.006311
    33  H   -0.054567   0.050556  -0.065809   0.031081  -0.021712   0.021388
    34  H   -0.068182   0.103253  -0.105536   0.026898  -0.027622   0.039725
    35  O   -0.209376   0.260074  -0.138445  -0.040086  -0.073667   0.060154
    36  H    0.028642  -0.047440   0.039736   0.015775   0.005972  -0.018238
    37  H   -0.072433   0.152538  -0.114895   0.005895   0.001293   0.010319
    38  H    0.066399  -0.229617   0.081269  -0.007459  -0.082125   0.081750
    39  H    0.043430   0.056528   0.070348  -0.007570   0.019232  -0.027311
    40  O    0.000328   0.000003  -0.002685   0.000354   0.000375  -0.000215
    41  H    0.000004   0.000079  -0.000036   0.000031   0.000021  -0.000013
    42  H   -0.000135   0.000168  -0.000399   0.000305  -0.000071   0.000085
               7          8          9         10         11         12
     1  C   -0.522580  -0.714750   0.219660  -0.129714   0.186002   0.010190
     2  C  -11.016950   2.633394  -0.817207   0.422077  -0.261226  -0.081515
     3  C   -1.985659   0.692305  -0.119960  -0.097617  -0.733487  -0.038732
     4  N    0.575668  -0.119266  -0.005605   0.036585  -0.031457  -0.096012
     5  C   -0.656675   0.063247  -0.025336   0.013548  -0.098327   0.022505
     6  C    0.371846  -0.175430  -0.028746  -0.024176   0.000774   0.001289
     7  C   29.032077  -6.931561  -0.192097   0.065360  -1.333244  -0.009533
     8  N   -6.931561  16.662979  -0.463638  -0.320051  -1.222916   0.008517
     9  C   -0.192097  -0.463638   5.989014  -0.001341   0.882294  -0.000775
    10  C    0.065360  -0.320051  -0.001341   6.341396  -1.030934  -0.000686
    11  C   -1.333244  -1.222916   0.882294  -1.030934   8.699345  -0.003940
    12  O   -0.009533   0.008517  -0.000775  -0.000686  -0.003940   7.997242
    13  O   -0.010110  -0.025753   0.000255  -0.004173  -0.005792  -0.044498
    14  O    0.106113  -0.090259   0.027335  -0.003767   0.017087   0.004658
    15  H    0.677075  -1.174260  -0.124026   0.115995   0.107110  -0.000322
    16  H   -0.041445  -0.139030   0.142881  -0.248882   0.206659  -0.000068
    17  H    0.235915   0.150067  -0.062231  -0.383257   0.225682  -0.000015
    18  H    0.011052   0.493243  -0.225559   0.184395  -1.133856   0.000114
    19  H   -0.092287  -0.186778   0.056174   0.326677  -0.157668  -0.000413
    20  H    0.038238  -0.282102  -0.306518  -0.024023   0.023507   0.000011
    21  H   -2.777311  -0.380769   0.062567  -0.065280   0.785779  -0.000012
    22  H    0.112841  -0.146432   0.045074  -0.043200   0.108852   0.000592
    23  H   -0.005618   0.005716   0.000087   0.000296   0.005243   0.013573
    24  H    0.026580   0.002093  -0.000782   0.000800  -0.002954   0.000169
    25  H   -0.128624   0.016432  -0.001986  -0.010529  -0.045344   0.000024
    26  C   -1.421943   1.136235  -0.211042   0.011798  -0.218756   0.000938
    27  H   -0.038283   0.018393  -0.004060  -0.001033  -0.036899  -0.002055
    28  H    0.605685  -0.185645  -0.188375   0.027278  -0.084607   0.005859
    29  H   -0.048209  -0.040140   0.033593  -0.016426   0.029314  -0.000064
    30  H    0.004289   0.001576  -0.001382  -0.000001  -0.001109   0.286675
    31  H    0.000432   0.000754   0.000276   0.000023   0.000818   0.359179
    32  H   -0.008432   0.006400   0.000926  -0.002514   0.000078   0.002927
    33  H    0.057260  -0.043081   0.000861   0.021779   0.001197  -0.006607
    34  H    0.003221   0.000433  -0.004715   0.002285   0.002755   0.004050
    35  O   -0.088309   0.061454  -0.010800   0.003238  -0.004262   0.005344
    36  H    0.009553   0.004991   0.001004  -0.000264  -0.000227  -0.000210
    37  H    0.071665  -0.218855  -0.061762   0.077663  -0.085453  -0.000071
    38  H    0.184166   0.169817  -0.008555  -0.051833   0.090935  -0.000460
    39  H   -0.227508  -0.730585   0.121230   0.002434   0.051150   0.000044
    40  O   -0.000435   0.000216   0.000054  -0.000011  -0.000076   0.000403
    41  H    0.000051  -0.000028   0.000015   0.000015  -0.000002  -0.000095
    42  H    0.000087  -0.000023  -0.000007   0.000008   0.000007   0.000125
              13         14         15         16         17         18
     1  C    0.034187  -0.050624   0.047120   0.001244  -0.007621  -0.091629
     2  C   -0.061649  -0.015141  -0.255951   0.025390  -0.099121   0.391746
     3  C   -0.007401  -0.154787  -0.010776   0.035784  -0.043497   0.249612
     4  N    0.012391   0.035333  -0.002711  -0.002624   0.008369  -0.008634
     5  C    0.068150  -0.013354  -0.000851   0.002600  -0.001285  -0.000698
     6  C   -0.034358   0.014942  -0.001060  -0.001955  -0.000398  -0.001334
     7  C   -0.010110   0.106113   0.677075  -0.041445   0.235915   0.011052
     8  N   -0.025753  -0.090259  -1.174260  -0.139030   0.150067   0.493243
     9  C    0.000255   0.027335  -0.124026   0.142881  -0.062231  -0.225559
    10  C   -0.004173  -0.003767   0.115995  -0.248882  -0.383257   0.184395
    11  C   -0.005792   0.017087   0.107110   0.206659   0.225682  -1.133856
    12  O   -0.044498   0.004658  -0.000322  -0.000068  -0.000015   0.000114
    13  O    8.423941  -0.092970   0.000266  -0.000208  -0.000875  -0.000013
    14  O   -0.092970   8.022030   0.032098  -0.004665   0.010469   0.001366
    15  H    0.000266   0.032098   2.914433   0.122436  -0.323442  -0.043909
    16  H   -0.000208  -0.004665   0.122436   2.119886  -0.620150  -0.317727
    17  H   -0.000875   0.010469  -0.323442  -0.620150   2.261229   0.188031
    18  H   -0.000013   0.001366  -0.043909  -0.317727   0.188031   2.666301
    19  H   -0.001547  -0.018374   0.060224   0.202685  -0.444164  -0.689642
    20  H   -0.000143   0.000599  -0.569940  -0.247489   0.194274   0.064614
    21  H   -0.000432  -0.001156   0.099122   0.067694  -0.064740  -0.374802
    22  H    0.109659   0.083912  -0.018793  -0.006308   0.022662   0.063229
    23  H    0.002531  -0.001070   0.000063   0.000074  -0.000066   0.000931
    24  H   -0.000861   0.000496  -0.000024  -0.000035   0.000084  -0.001829
    25  H    0.001244  -0.002519  -0.002462   0.002566  -0.001260   0.009235
    26  C    0.012708  -0.003481  -0.167355  -0.022958   0.015088   0.094025
    27  H   -0.019010  -0.003388  -0.000122  -0.000030   0.000397   0.001677
    28  H   -0.004173   0.101686   0.043256   0.001886   0.029074  -0.015444
    29  H    0.017273   0.375035   0.004542   0.000521  -0.002409   0.001179
    30  H    0.013022   0.002590  -0.000020   0.000058  -0.000078  -0.000167
    31  H   -0.003646   0.000370   0.000007  -0.000002  -0.000030  -0.000052
    32  H    0.303329  -0.011890  -0.001302  -0.000133  -0.000085   0.000214
    33  H    0.196840   0.032013   0.007781   0.000520   0.000313  -0.002115
    34  H   -0.047654   0.006901   0.000144  -0.000049   0.000521  -0.000070
    35  O   -0.055867   0.009805  -0.001971   0.000115   0.000388   0.000180
    36  H    0.002720  -0.000506   0.000172   0.000027  -0.000035  -0.000031
    37  H    0.005206   0.010430  -0.015864  -0.002238   0.011553   0.001903
    38  H   -0.013312   0.002487   0.011061  -0.003073  -0.004625   0.000846
    39  H   -0.000359  -0.004214   0.036374   0.005183  -0.006231   0.009658
    40  O   -0.038721   0.000765   0.000064   0.000002  -0.000049   0.000002
    41  H    0.008099  -0.000052   0.000044  -0.000000   0.000008   0.000001
    42  H    0.007357  -0.000136  -0.000010   0.000001   0.000001   0.000000
              19         20         21         22         23         24
     1  C    0.111806   0.013501   0.094163  -0.214864   0.232660   0.650004
     2  C   -0.076447   0.227911   1.035071  -0.852319  -0.040761   0.024542
     3  C   -0.077932   0.032532  -0.213241  -1.335902   0.168370  -0.128274
     4  N    0.003228   0.000041  -0.002623   0.116921  -0.166549   0.002476
     5  C    0.003484  -0.001993   0.042708   0.003377  -0.625578   0.352081
     6  C   -0.021663  -0.001849  -0.022541   0.013599   0.107151  -1.188174
     7  C   -0.092287   0.038238  -2.777311   0.112841  -0.005618   0.026580
     8  N   -0.186778  -0.282102  -0.380769  -0.146432   0.005716   0.002093
     9  C    0.056174  -0.306518   0.062567   0.045074   0.000087  -0.000782
    10  C    0.326677  -0.024023  -0.065280  -0.043200   0.000296   0.000800
    11  C   -0.157668   0.023507   0.785779   0.108852   0.005243  -0.002954
    12  O   -0.000413   0.000011  -0.000012   0.000592   0.013573   0.000169
    13  O   -0.001547  -0.000143  -0.000432   0.109659   0.002531  -0.000861
    14  O   -0.018374   0.000599  -0.001156   0.083912  -0.001070   0.000496
    15  H    0.060224  -0.569940   0.099122  -0.018793   0.000063  -0.000024
    16  H    0.202685  -0.247489   0.067694  -0.006308   0.000074  -0.000035
    17  H   -0.444164   0.194274  -0.064740   0.022662  -0.000066   0.000084
    18  H   -0.689642   0.064614  -0.374802   0.063229   0.000931  -0.001829
    19  H    2.341115  -0.058775   0.238110  -0.183174  -0.000380  -0.000368
    20  H   -0.058775   2.519679  -0.090798   0.012687   0.000043  -0.000287
    21  H    0.238110  -0.090798   3.595781  -0.037701   0.001376   0.000925
    22  H   -0.183174   0.012687  -0.037701   4.589646   0.021262  -0.010473
    23  H   -0.000380   0.000043   0.001376   0.021262   2.216529  -0.104581
    24  H   -0.000368  -0.000287   0.000925  -0.010473  -0.104581   2.081545
    25  H   -0.000494   0.002880  -0.174198  -0.017169  -0.011715  -0.129350
    26  C   -0.055962  -0.059365  -0.094573   0.050413   0.002666  -0.008696
    27  H   -0.005866   0.000159  -0.004452  -0.073558  -0.164979   0.009256
    28  H    0.006869   0.020097   0.001466  -0.020247  -0.001448   0.001024
    29  H    0.009165   0.000713   0.000927   0.009582   0.000102  -0.000093
    30  H    0.000061  -0.000117   0.000457  -0.012381  -0.003545   0.000304
    31  H    0.000796   0.000014   0.000021   0.001999   0.004431  -0.000193
    32  H   -0.000327   0.000159  -0.000735   0.008935   0.001324  -0.000262
    33  H    0.004222  -0.000503   0.002998  -0.071970  -0.003721   0.001414
    34  H    0.000034   0.000291   0.000681  -0.021848  -0.000697   0.001854
    35  O   -0.002120  -0.000598  -0.002192   0.008075   0.008466   0.001018
    36  H    0.000060  -0.000126  -0.000288   0.003516  -0.001842  -0.000961
    37  H   -0.011227  -0.002551   0.010721  -0.008970   0.000458  -0.001000
    38  H    0.010378   0.016603  -0.003941   0.012527  -0.000024  -0.000986
    39  H    0.003717   0.026392   0.100259   0.015855   0.000474  -0.000600
    40  O   -0.000041  -0.000016  -0.000040   0.001445   0.000087  -0.000005
    41  H   -0.000003   0.000000   0.000003   0.000231  -0.000001  -0.000001
    42  H    0.000008   0.000001   0.000006  -0.000609  -0.000031   0.000005
              25         26         27         28         29         30
     1  C   -2.797991  -0.384923  -0.023340  -0.045182   0.007494  -0.004476
     2  C    1.328572   0.927959  -0.366784  -0.082047   0.008467   0.009765
     3  C    0.241257  -0.153462   0.389244  -0.240076   0.034606  -0.037097
     4  N   -0.092117  -0.031452   0.040053   0.078779  -0.007852   0.034210
     5  C   -0.261808  -0.034777  -0.526789   0.014698   0.000796  -0.005317
     6  C    0.802249   0.092381  -0.004084  -0.001392  -0.000708   0.004393
     7  C   -0.128624  -1.421943  -0.038283   0.605685  -0.048209   0.004289
     8  N    0.016432   1.136235   0.018393  -0.185645  -0.040140   0.001576
     9  C   -0.001986  -0.211042  -0.004060  -0.188375   0.033593  -0.001382
    10  C   -0.010529   0.011798  -0.001033   0.027278  -0.016426  -0.000001
    11  C   -0.045344  -0.218756  -0.036899  -0.084607   0.029314  -0.001109
    12  O    0.000024   0.000938  -0.002055   0.005859  -0.000064   0.286675
    13  O    0.001244   0.012708  -0.019010  -0.004173   0.017273   0.013022
    14  O   -0.002519  -0.003481  -0.003388   0.101686   0.375035   0.002590
    15  H   -0.002462  -0.167355  -0.000122   0.043256   0.004542  -0.000020
    16  H    0.002566  -0.022958  -0.000030   0.001886   0.000521   0.000058
    17  H   -0.001260   0.015088   0.000397   0.029074  -0.002409  -0.000078
    18  H    0.009235   0.094025   0.001677  -0.015444   0.001179  -0.000167
    19  H   -0.000494  -0.055962  -0.005866   0.006869   0.009165   0.000061
    20  H    0.002880  -0.059365   0.000159   0.020097   0.000713  -0.000117
    21  H   -0.174198  -0.094573  -0.004452   0.001466   0.000927   0.000457
    22  H   -0.017169   0.050413  -0.073558  -0.020247   0.009582  -0.012381
    23  H   -0.011715   0.002666  -0.164979  -0.001448   0.000102  -0.003545
    24  H   -0.129350  -0.008696   0.009256   0.001024  -0.000093   0.000304
    25  H    3.132128   0.061731   0.008976  -0.010795   0.000768  -0.000938
    26  C    0.061731   5.027304  -0.001500  -0.171231   0.017540  -0.001033
    27  H    0.008976  -0.001500   1.716290  -0.002585   0.000116  -0.010019
    28  H   -0.010795  -0.171231  -0.002585   0.762125  -0.200118   0.007039
    29  H    0.000768   0.017540   0.000116  -0.200118   0.622041  -0.001673
    30  H   -0.000938  -0.001033  -0.010019   0.007039  -0.001673   0.573406
    31  H    0.000104   0.000027  -0.000565  -0.001000   0.000087  -0.119224
    32  H    0.000407   0.004003   0.003173  -0.003085   0.003308   0.000863
    33  H   -0.001450  -0.031333  -0.001014  -0.002919  -0.011191   0.003485
    34  H    0.001314  -0.016464  -0.006295   0.003819  -0.002980   0.015346
    35  O    0.002186  -0.018079   0.021155   0.019688  -0.001645  -0.000257
    36  H    0.000217   0.001658   0.002585   0.000191  -0.000109  -0.000713
    37  H    0.000696   0.155172  -0.002345   0.091600  -0.003224   0.000580
    38  H    0.003598   0.090004   0.004247  -0.048879   0.003061  -0.002071
    39  H    0.010842   0.231141   0.000393  -0.049820   0.006667   0.000010
    40  O    0.000017   0.000298   0.000021  -0.002316   0.000764   0.001927
    41  H   -0.000001   0.000009  -0.000040  -0.000139   0.000297   0.000442
    42  H   -0.000004  -0.000123   0.000239   0.000353  -0.000281  -0.000750
              31         32         33         34         35         36
     1  C   -0.003127   0.014566  -0.054567  -0.068182  -0.209376   0.028642
     2  C    0.009230  -0.010620   0.050556   0.103253   0.260074  -0.047440
     3  C   -0.004646   0.030624  -0.065809  -0.105536  -0.138445   0.039736
     4  N   -0.009806  -0.008363   0.031081   0.026898  -0.040086   0.015775
     5  C   -0.009376   0.003971  -0.021712  -0.027622  -0.073667   0.005972
     6  C    0.005733  -0.006311   0.021388   0.039725   0.060154  -0.018238
     7  C    0.000432  -0.008432   0.057260   0.003221  -0.088309   0.009553
     8  N    0.000754   0.006400  -0.043081   0.000433   0.061454   0.004991
     9  C    0.000276   0.000926   0.000861  -0.004715  -0.010800   0.001004
    10  C    0.000023  -0.002514   0.021779   0.002285   0.003238  -0.000264
[...]
 099,0.00146163,-0.00104650,-0.00049783,0.00001528,-0.00040544,0.000269
 90,0.00008368,0.00011565,-0.00009855,-0.00006709,-0.00007627,-0.000203
 29,-0.00032500,-0.00013669,-0.00001611,-0.00004024,-0.00033008,0.00009
 267,-0.00012239,-0.00009956,-0.00049536,0.00001057,-0.00002115,-0.0001
 7749,-0.00002703,0.00005529,0.00007087,-0.00004968,0.00004492,-0.00002
 477,0.00006846,0.00019948,-0.00007321,-0.00003830,0.00021609,-0.000210
 19,0.00003228,-0.00007544,0.00001693,-0.00000528,-0.00000126,0.0000129
 7,0.00000588,-0.00000917,0.00000971,0.00001006,-0.00000091,0.00000988,
 0.04504014,-0.02749965,-0.06261190,-0.00021961,-0.00016962,0.00004997,
 0.00064671,0.00025821,-0.00007765,-0.00001939,-0.00000627,-0.00001622,
 0.00005178,-0.00003956,0.00011911,-0.00000299,0.00000017,-0.00000706,0
 .00003543,0.00002254,0.00003757,-0.00006241,-0.00004037,0.00008578,0.0
 0014542,0.00031002,0.00028217,-0.00052037,-0.00025244,-0.00121580,0.00
 078591,-0.00022389,-0.00015677,-0.01732931,0.00915620,0.00569492,-0.05
 487112,0.03853840,0.07515772,-0.00025124,-0.00031175,-0.00003689,0.000
 09411,0.00015684,0.00005984,-0.00025208,-0.00010392,0.00000100,0.00027
 147,-0.00002803,-0.00000310,0.00000786,0.00005291,0.00003016,-0.000074
 59,0.00007397,0.00006619,0.00073186,-0.00025915,0.00111604,-0.00221916
 ,-0.00341078,-0.00705948,0.00272922,0.00188064,0.00082194,0.00010191,0
 .00011187,0.00013772,0.00032282,0.00017291,0.00000845,-0.00006236,0.00
 007898,-0.00007690,-0.00027949,-0.00004891,0.00003173,-0.00084589,-0.0
 0068235,0.00003206,-0.00012809,-0.00010777,0.00005104,-0.00001196,-0.0
 0003358,-0.00007659,-0.00003257,0.00001097,0.00008953,0.00000299,-0.00
 001620,-0.00010065,-0.00004855,0.00013557,0.00014242,0.00051665,-0.001
 17925,-0.00082589,-0.00020031,0.00075210,-0.00128042,0.00010558,-0.000
 04834,0.00007288,0.00001347,0.00000543,0.00000043,-0.00002181,0.000007
 68,-0.00001183,0.00003448,0.00011855,-0.00013380,-0.20956554,-0.115627
 33,-0.01173287,-0.00004106,-0.00006100,0.00002608,0.00132230,0.0013154
 7,0.00000562,-0.00004117,0.00007663,0.00001652,0.00010989,-0.00005871,
 0.00010514,0.00002586,-0.00000303,0.00000783,0.00005977,0.00008291,-0.
 00009997,0.00023766,0.00000525,-0.00006552,0.00029366,-0.00000137,0.00
 000958,-0.00067819,0.00060056,0.00019081,-0.00015085,-0.00010539,-0.00
 007453,0.00267200,0.00329530,0.00052771,-0.01687714,-0.01721432,-0.001
 80908,0.22215021,-0.00007948,0.00000247,-0.00004272,0.00006437,-0.0000
 8591,-0.00014006,0.00006859,-0.00011266,-0.00000332,-0.00009640,0.0000
 6415,0.00000823,-0.00001401,0.00000914,-0.00002535,-0.00001311,0.00000
 458,0.00001367,0.00206217,0.00117794,0.00137679,-0.01024439,-0.0101585
 9,-0.00996245,-0.00297061,0.00056790,0.00072383,0.00039158,0.00028795,
 0.00007403,0.00019957,0.00011491,0.00024108,-0.00005726,0.00001963,0.0
 0000713,-0.00013996,0.00015727,0.00012601,-0.00097525,-0.00070667,0.00
 009351,0.00004651,-0.00007305,0.00011702,0.00003560,0.00002141,-0.0001
 2944,0.00010053,0.00001115,0.00020400,0.00001434,-0.00002261,-0.000065
 35,-0.00000228,0.00000282,0.00013405,0.00116520,-0.00016939,-0.0003086
 8,-0.00019291,0.00076407,-0.00112404,0.00007003,-0.00004777,0.00000950
 ,-0.00000052,0.00000382,0.00000426,-0.00000774,0.00000284,-0.00000081,
 -0.00001057,-0.00000622,-0.00000090,-0.11397727,-0.13322551,-0.0085285
 7,0.00003909,0.00002515,-0.00002618,0.00141729,0.00120155,-0.00030540,
 -0.00005522,0.00007114,0.00009190,0.00003776,-0.00003448,0.00000614,0.
 00001763,-0.00000444,0.00000315,0.00003610,0.00002079,-0.00003583,0.00
 025869,-0.00012512,-0.00016160,-0.00013768,-0.00014249,-0.00003849,0.0
 0043062,-0.00017195,-0.00007338,0.00003103,0.00000599,0.00000152,-0.02
 022166,-0.01302188,-0.00214904,0.01231592,0.01085407,0.00211670,0.1304
 0494,0.14272911,-0.00010688,-0.00000409,0.00000507,0.00029010,0.000386
 94,-0.00017499,-0.00000623,-0.00017076,-0.00002426,0.00005301,0.000053
 09,0.00001257,-0.00003217,0.00005746,-0.00002629,-0.00001247,0.0000283
 8,0.00002044,-0.00245105,-0.00491306,0.00299954,-0.02801521,-0.0254229
 4,-0.01735873,-0.00442371,0.00114287,0.00118410,0.00024641,0.00035522,
 0.00029128,0.00046560,0.00022728,0.00018136,0.00001887,-0.00000836,0.0
 0005737,0.00005687,0.00014818,0.00020689,-0.00148616,-0.00100370,0.000
 67473,0.00044691,-0.00001937,-0.00012327,0.00004503,0.00006246,-0.0000
 7106,0.00001919,0.00007887,0.00014390,0.00012371,0.00003025,-0.0000864
 0,0.00006246,0.00011084,0.00017487,0.00142058,0.00072005,0.00044896,0.
 00135740,0.00127978,0.00031565,0.00009725,-0.00002094,-0.00000486,0.00
 000256,0.00000856,0.00000014,-0.00000362,0.00000606,-0.00000207,-0.000
 00417,0.00003086,0.00000251,-0.01053218,-0.00727100,-0.04936087,0.0000
 0580,-0.00000814,-0.00002013,0.00187482,0.00135434,-0.00134237,-0.0000
 5917,0.00000323,-0.00006548,-0.00004176,0.00001746,-0.00006870,0.00000
 078,-0.00000351,-0.00000968,-0.00005264,-0.00002660,-0.00000141,0.0000
 9307,-0.00016515,-0.00027171,-0.00022627,-0.00004394,-0.00006752,0.000
 40576,-0.00026063,0.00001919,-0.00000635,0.00006677,0.00003617,0.01621
 073,0.01019379,0.00246179,0.00435386,0.00521424,0.00087126,0.01980221,
 0.01775847,0.05896540,-0.00001649,0.00006181,-0.00000057,-0.00004997,-
 0.00006882,0.00000267,0.00004833,0.00006923,-0.00000587,0.00006578,0.0
 0006475,0.00001948,-0.00006184,-0.00003178,-0.00001956,0.00008470,0.00
 000446,0.00000487,-0.00002721,0.00010963,-0.00008806,-0.00015416,-0.00
 016673,0.00009896,0.00008029,0.00001121,-0.00002793,0.00000719,0.00000
 202,-0.00000738,0.00000546,-0.00000435,0.00001262,0.00093653,-0.000185
 07,0.00032374,0.00175318,-0.00367529,0.00644006,-0.00031294,-0.0002049
 2,0.00056184,0.00002292,-0.00002439,0.00000248,-0.00001096,-0.00000932
 ,0.00001063,0.00000885,-0.00000642,-0.00001450,-0.00000979,-0.00001067
 ,0.00001190,0.00000609,0.00001003,-0.00000972,-0.00001976,-0.00001655,
 0.00000047,-0.00001251,-0.00003482,0.00000919,-0.00001791,0.00006885,-
 0.00007671,-0.00001746,-0.00000394,-0.00000108,-0.00000207,0.00000167,
 -0.00000429,-0.00000062,0.00000947,-0.00000595,0.00001411,0.00005968,-
 0.00006245,-0.00022040,-0.00008388,-0.00002701,0.00027386,0.00027834,-
 0.00009456,0.00001918,-0.00001420,-0.00025987,-0.00130022,0.00038440,-
 0.00060615,-0.00014447,-0.00011421,0.00017208,-0.00607156,-0.00190625,
 -0.00381688,0.00039356,-0.00007339,-0.00051066,-0.00002825,0.00061008,
 0.00002611,0.00014782,-0.00050176,0.00005163,-0.00014540,0.00014283,0.
 00000259,0.00007833,-0.00003233,0.00001753,0.00000615,0.00005121,-0.00
 002365,-0.00003620,-0.00002955,0.00003991,0.43534576,0.00000329,0.0000
 5526,-0.00001212,0.00004113,-0.00012473,-0.00000597,0.00012446,0.00000
 184,-0.00003401,-0.00022621,-0.00010752,0.00005012,-0.00004488,0.00013
 157,-0.00001960,-0.00001887,-0.00000059,0.00000893,0.00008646,0.000011
 65,-0.00000640,-0.00020952,0.00002158,0.00004600,0.00012512,-0.0001145
 3,-0.00001288,-0.00001361,-0.00000963,0.00001959,-0.00000209,0.0000174
 1,-0.00003333,0.00046530,-0.00046618,0.00103275,-0.00408815,-0.0024034
 7,0.00899218,-0.00074140,0.00066299,0.00051182,0.00000235,0.00002014,-
 0.00001176,-0.00001897,0.00000131,0.00001106,0.00001444,0.00001005,-0.
 00000233,-0.00001007,-0.00000271,0.00000303,-0.00000450,-0.00000580,-0
 .00002056,-0.00003213,-0.00000122,0.00000082,-0.00002328,-0.00000590,-
 0.00000067,0.00007662,-0.00002186,-0.00010622,-0.00000390,0.00002539,-
 0.00003361,-0.00000443,0.00000825,-0.00001222,-0.00000225,-0.00000312,
 -0.00000850,0.00006675,-0.00003913,-0.00000288,0.00029950,0.00033324,-
 0.00020185,0.00012270,0.00008169,-0.00003370,-0.00025518,-0.00025982,0
 .00019413,-0.00107214,0.00056031,-0.00135551,-0.00006695,-0.00016728,-
 0.00008763,-0.00064195,-0.00554363,-0.00243433,0.00159957,-0.00204697,
 -0.00027678,0.00057935,0.00096119,-0.00000019,-0.00053785,-0.00069840,
 0.00008240,0.00015077,0.00023072,0.00005630,0.00003401,-0.00000504,-0.
 00000261,0.00007457,0.00003709,-0.00002697,-0.00004599,-0.00000405,0.0
 0002802,0.28049339,0.19703920,0.00003368,-0.00009257,0.00000521,0.0000
 2279,0.00018614,0.00001191,-0.00018890,-0.00008989,0.00000157,0.000306
 62,0.00015839,-0.00003164,0.00008749,-0.00010799,-0.00000049,-0.000039
 76,0.00002300,0.00000667,-0.00006565,-0.00003453,0.00004760,0.00032867
 ,0.00019971,0.00003185,-0.00012701,0.00005488,0.00003552,-0.00001289,-
 0.00001906,-0.00001640,-0.00001908,-0.00002486,0.00001959,-0.00043119,
 0.00084189,-0.00085856,0.00672345,0.00866578,-0.00638402,0.00118045,0.
 00006220,-0.00048044,-0.00002507,-0.00001864,-0.00000900,0.00002211,0.
 00001042,-0.00000458,-0.00001392,0.00001497,0.00002527,0.00001452,0.00
 001130,0.00000124,0.00001231,-0.00000617,0.00003034,0.00004852,0.00002
 199,-0.00000386,0.00003577,0.00003470,-0.00000943,-0.00008100,-0.00007
 852,0.00012136,-0.00000104,-0.00001945,-0.00000143,0.00000827,0.000000
 22,-0.00000462,0.00000748,0.00000341,-0.00000270,-0.00005365,-0.000015
 37,-0.00014348,-0.00043639,-0.00050790,0.00015766,-0.00050213,-0.00048
 975,-0.00005221,-0.00009217,0.00003162,-0.00002374,0.00103069,-0.00090
 464,0.00120852,0.00012244,-0.00004062,0.00014436,-0.00463640,-0.001299
 93,-0.00535105,-0.00161479,0.00130282,0.00044893,-0.00060311,-0.001544
 48,-0.00087020,0.00040905,0.00090442,0.00060642,0.00005863,0.00013199,
 -0.00018874,-0.00000147,-0.00003464,-0.00001508,-0.00004628,-0.0000124
 9,-0.00001938,0.00005124,0.00002685,0.00000477,0.13293041,0.01124647,0
 .57821146,-0.00000114,-0.00000492,-0.00000386,0.00002944,-0.00001847,-
 0.00000216,0.00001966,-0.00000513,0.00000177,-0.00008037,-0.00004766,0
 .00000129,0.00001107,0.00003590,0.00000579,-0.00002948,-0.00000789,-0.
 00000209,0.00003444,-0.00005167,0.00003038,-0.00002641,0.00002896,-0.0
 0006872,-0.00000525,-0.00002434,0.00000290,-0.00000063,0.00000580,0.00
 000975,0.00000075,0.00001019,-0.00001368,-0.00007384,-0.00009673,0.000
 13120,-0.00134967,-0.00175702,0.00098155,-0.00023230,0.00006288,-0.000
 09795,-0.00000334,0.00001907,0.00000266,-0.00000030,0.00000173,-0.0000
 0499,-0.00000069,-0.00000095,-0.00000066,0.00000054,0.00000234,-0.0000
 0738,-0.00000683,-0.00000334,-0.00000493,-0.00000466,0.00000308,0.0000
 0112,-0.00000290,0.00000791,-0.00000099,0.00002805,-0.00000746,-0.0000
 0269,0.00000633,0.00000428,-0.00000186,-0.00000007,-0.00000034,0.00000
 189,-0.00000055,-0.00000708,0.00000389,0.00001122,-0.00004094,0.000091
 12,0.00014156,0.00011983,-0.00003384,0.00002832,0.00001755,0.00007254,
 0.00002163,-0.00000039,0.00010698,-0.00003457,0.00003512,-0.00012287,0
 .00001849,0.00000061,-0.00003141,0.00182604,0.00305925,-0.00122005,0.0
 0049257,-0.00006275,-0.00000203,0.00024839,0.00017311,0.00021306,-0.00
 025380,-0.00001224,-0.00018382,0.00010171,-0.00010138,0.00004576,-0.00
 004868,0.00003339,-0.00000057,0.00001688,-0.00002658,0.00001668,0.0000
 0259,0.00000992,-0.00002657,-0.05750679,-0.02927386,-0.08668309,0.0656
 6092,-0.00001549,0.00000665,0.00000415,-0.00002365,-0.00000854,-0.0000
 0171,0.00001061,0.00003252,0.00001640,-0.00000806,-0.00000504,-0.00001
 405,-0.00000934,-0.00002031,0.00001602,0.00002147,-0.00001089,-0.00000
 970,-0.00001542,0.00000046,-0.00000891,0.00000498,-0.00006555,-0.00003
 150,-0.00002199,0.00003787,-0.00000958,0.00000876,0.00000547,-0.000005
 02,0.00000470,0.00000033,0.00000748,0.00004251,-0.00009966,-0.00001022
 ,-0.00147186,-0.00200427,0.00104752,-0.00010003,-0.00012185,0.00003898
 ,0.00000471,-0.00000525,0.00000684,0.00000206,-0.00000278,-0.00000407,
 -0.00000258,-0.00000727,-0.00000566,-0.00000014,-0.00000243,-0.0000017
 3,-0.00000048,0.00000249,-0.00000073,0.00000035,-0.00000394,0.00000209
 ,-0.00000104,-0.00000611,0.00000383,0.00000101,0.00002751,-0.00000364,
 0.00000207,-0.00000504,0.00001533,-0.00000125,-0.00000462,0.00000776,-
 0.00000155,-0.00000054,0.00000490,-0.00001500,0.00002691,0.00004211,0.
 00002530,0.00004135,0.00001934,0.00007765,0.00010294,0.00001828,0.0000
 2297,0.00004760,-0.00004355,-0.00009129,0.00010249,-0.00004126,-0.0000
 0454,0.00002096,0.00000474,0.00289482,0.00338971,-0.00057294,-0.000064
 68,-0.00016150,0.00001911,0.00003158,0.00024222,0.00043814,0.00005847,
 -0.00002882,-0.00036176,-0.00009090,-0.00021755,0.00008517,-0.00001833
 ,0.00001694,0.00000750,-0.00001811,-0.00001385,0.00002663,0.00000277,-
 0.00000735,-0.00001371,-0.02354487,-0.01882565,0.00541855,0.02914103,0
 .01857853,-0.00000276,0.00001714,0.00000081,-0.00001205,-0.00002961,-0
 .00000168,0.00003307,0.00000746,0.00000132,-0.00005625,-0.00003504,0.0
 0000242,-0.00001034,0.00001680,0.00000310,0.00000702,0.00000111,-0.000
 00355,0.00000780,0.00001758,-0.00001651,-0.00007334,-0.00005673,-0.000
 00021,0.00002988,0.00000005,-0.00000943,0.00000444,0.00000437,0.000001
 62,0.00000348,0.00000362,-0.00000194,-0.00001166,-0.00012462,0.0001205
 9,0.00004649,0.00010950,0.00057651,-0.00014676,-0.00011823,0.00013429,
 0.00000892,-0.00000028,0.00000271,-0.00000490,-0.00000282,0.00000204,0
 .00000244,-0.00000402,-0.00000621,-0.00000287,-0.00000331,0.00000140,-
 0.00000207,0.00000229,-0.00000511,-0.00001118,-0.00000880,0.00000120,-
 0.00000795,-0.00001026,0.00000242,0.00000484,0.00002334,-0.00001431,0.
 00000041,0.00000566,-0.00000208,-0.00000053,-0.00000007,0.00000186,-0.
 00000184,0.00000146,0.00000096,0.00000890,0.00001525,0.00001563,0.0000
 8470,0.00008076,-0.00002228,0.00011631,0.00011402,-0.00001616,0.000041
 25,0.00001210,-0.00006428,-0.00002654,0.00008275,-0.00012072,-0.000003
 94,0.00001563,-0.00003310,-0.00026969,-0.00072671,-0.00157417,0.000025
 88,0.00006305,-0.00014696,0.00005272,0.00016478,-0.00004753,-0.0000638
 6,-0.00012978,-0.00001034,0.00002282,0.00004521,0.00004756,0.00001786,
 0.00000484,0.00000911,0.00000972,0.00000933,-0.00000022,-0.00001732,-0
 .00001329,0.00000923,-0.13407435,-0.02536509,-0.51636718,0.12743062,0.
 02097132,0.52156152,0.00000564,-0.00001977,-0.00000167,0.00001742,0.00
 001907,0.00000003,-0.00000878,-0.00002502,0.00000157,-0.00003605,-0.00
 002819,-0.00000227,0.00001902,0.00001875,0.00000117,-0.00003147,-0.000
 00344,0.00000112,0.00001210,-0.00003612,0.00003151,0.00004970,0.000064
 69,-0.00002639,-0.00002104,-0.00000905,0.00000851,-0.00000488,-0.00000
 430,0.00000291,-0.00000176,0.00000108,-0.00000464,-0.00027592,0.000032
 55,-0.00003486,0.00042301,0.00066496,-0.00097428,0.00013529,0.00015208
 ,-0.00011902,-0.00000712,0.00000687,-0.00000359,0.00000337,0.00000382,
 -0.00000247,-0.00000200,0.00000374,0.00000636,0.00000375,0.00000478,-0
 .00000356,-0.00000222,-0.00000404,0.00000304,0.00000615,0.00000615,-0.
 00000054,0.00000360,0.00001265,-0.00000386,0.00001092,-0.00003033,0.00
 001959,0.00000761,0.00000213,0.00000291,0.00000029,-0.00000064,0.00000
 172,-0.00000016,-0.00000323,0.00000200,-0.00000332,-0.00001615,0.00000
 657,0.00009906,0.00005723,0.00000093,-0.00010366,-0.00010817,0.0000118
 1,-0.00005943,-0.00004259,0.00008206,0.00028362,-0.00012598,0.00015346
 ,0.00008876,0.00001336,-0.00006265,-0.00103415,-0.00073668,0.00142363,
 -0.00009769,-0.00008113,-0.00005594,-0.00001147,-0.00013136,0.00000813
 ,-0.00001276,0.00013370,-0.00002993,0.00001842,-0.00004596,0.00000916,
 -0.00001303,0.00000636,-0.00000544,-0.00000399,-0.00000790,0.00000568,
 0.00001191,0.00000841,-0.00000627,-0.37313111,-0.24702160,-0.04775960,
 -0.00903834,-0.00683722,0.00684061,0.38270073,-0.00000685,0.00000116,0
 .00000315,-0.00001381,0.00001157,-0.00000134,-0.00002020,0.00003254,0.
 00000725,0.00008643,0.00005780,-0.00000935,-0.00000532,-0.00004137,0.0
 0000317,0.00002605,-0.00000102,-0.00000353,-0.00002175,0.00000637,-0.0
 0000655,0.00002817,-0.00002781,-0.00001398,-0.00002268,0.00002462,0.00
 000388,0.00000493,0.00000738,-0.00000424,0.00000225,-0.00000363,0.0000
 0856,0.00024230,0.00008764,-0.00022174,0.00034408,-0.00027081,0.000659
 82,0.00003767,-0.00011090,-0.00007839,0.00000172,-0.00000370,0.0000053
 2,0.00000423,-0.00000151,-0.00000258,-0.00000312,-0.00000502,-0.000001
 37,0.00000123,-0.00000050,-0.00000042,0.00000076,0.00000319,0.00000356
 ,0.00000457,-0.00000098,-0.00000056,0.00000408,-0.00000305,0.00000147,
 -0.00001494,0.00001206,0.00000629,-0.00000417,-0.00000995,0.00001132,0
 .00000047,-0.00000188,0.00000395,0.00000084,0.00000087,0.00000228,-0.0
 0000763,0.00000629,0.00001340,-0.00016467,-0.00012623,0.00004879,0.000
 01394,0.00002389,0.00000791,0.00004371,0.00006611,-0.00000646,-0.00025
 611,-0.00005999,0.00019591,-0.00003212,0.00000883,0.00013019,-0.001373
 11,-0.00021749,-0.00156325,-0.00007242,0.00005057,0.00031868,-0.000076
 35,-0.00000153,0.00001233,0.00012505,0.00002968,-0.00002860,-0.0000581
 2,-0.00002307,-0.00000344,-0.00000882,0.00000226,0.00000277,-0.0000113
 9,-0.00000367,0.00000471,0.00000493,0.00000023,-0.00000755,-0.25168958
 ,-0.16935365,-0.02401024,-0.00122079,-0.00105414,0.00483924,0.25410651
 ,0.17088883,-0.00000256,0.00000248,0.00000405,-0.00000882,-0.00001031,
 -0.00000494,0.00002072,-0.00000298,0.00000691,-0.00007928,-0.00005893,
 -0.00000453,-0.00000477,0.00002130,0.00000810,-0.00000605,-0.00000516,
 -0.00000277,0.00000572,-0.00000795,0.00000468,-0.00002180,-0.00002493,
 -0.00002319,0.00000232,0.00000544,-0.00000034,0.00000462,0.00000696,0.
 00000187,0.00000726,0.00000452,0.00000003,-0.00035942,-0.00014197,-0.0
 0011522,-0.00011118,0.00135788,-0.00305594,-0.00003467,-0.00016813,-0.
 00015316,0.00000263,0.00000403,0.00000243,-0.00000129,-0.00000143,-0.0
 0000164,0.00000039,-0.00000498,-0.00000235,-0.00000036,-0.00000108,-0.
 00000197,-0.00000451,0.00000151,-0.00000183,-0.00000359,-0.00000444,-0
 .00000121,-0.00000354,-0.00000241,-0.00000108,0.00001017,0.00001249,0.
 00001655,0.00000507,0.00000435,0.00000574,-0.00000161,-0.00000122,0.00
 000266,-0.00000158,-0.00000055,0.00000238,-0.00000052,0.00000581,0.000
 03253,0.00016778,0.00013059,0.00000262,0.00004953,0.00005001,0.0000249
 9,0.00010911,0.00005642,0.00002066,0.00049511,0.00006347,0.00024813,0.
 00002053,0.00014887,-0.00011801,0.00102011,-0.00205269,0.00490111,-0.0
 0008637,0.00024454,0.00022587,-0.00001473,-0.00007841,0.00000764,0.000
 00685,0.00006158,-0.00004779,-0.00000263,-0.00002248,0.00001532,-0.000
 00910,0.00000835,-0.00000056,-0.00000604,-0.00000886,0.00000717,0.0000
 0069,-0.00000295,-0.00000740,-0.00100192,0.00782407,-0.05028203,-0.040
 63472,-0.02708247,-0.00403236,0.04047249,0.01966965,0.05231688\\0.0000
 0135,-0.00000318,0.00000080,0.00000325,0.00000464,0.00000081,-0.000004
 48,-0.00000121,-0.00000011,-0.00000286,-0.00000718,0.00000646,0.000001
 33,0.00000360,0.00000024,-0.00000375,-0.00000133,-0.00000031,0.0000011
 9,-0.00000074,0.00000006,0.00000122,0.00000593,0.00000160,-0.00000190,
 -0.00000168,-0.00000181,0.00000227,0.00000165,0.00000076,-0.00000218,-
 0.00000188,0.00000015,0.00000674,-0.00000509,0.00001131,0.00000858,-0.
 00002305,0.00000835,-0.00000051,0.00000110,-0.00000300,0.00000065,0.00
 000023,-0.00000008,-0.00000043,-0.00000063,-0.00000088,-0.00000085,0.0
 0000008,0.00000083,0.00000065,0.00000053,0.00000064,0.00000097,0.00000
 035,-0.00000165,0.00000006,0.00000075,-0.00000037,-0.00000008,0.000000
 55,-0.00000036,0.00000024,-0.00000011,0.00000046,-0.00000026,-0.000000
 80,0.00000048,-0.00000014,-0.00000010,-0.00000002,-0.00000049,0.000000
 56,-0.00000057,0.00000125,0.00000243,0.00000088,0.00000697,0.00001090,
 -0.00000952,-0.00000428,-0.00000517,0.00000051,0.00000215,-0.00000114,
 0.00000031,-0.00000739,0.00000612,-0.00001593,-0.00000691,-0.00000564,
 0.00000320,-0.00000353,0.00001773,-0.00000492,0.00000136,0.00001045,-0
 .00000020,-0.00000008,-0.00000907,-0.00000609,-0.00000121,0.00000429,0
 .00000362,0.00000022,-0.00000046,0.00000030,-0.00000017,0.00000027,-0.
 00000007,-0.00000051,-0.00000055,-0.00000002,-0.00000011,-0.00000020,-
 0.00000043,-0.00000676,-0.00001043,0.00001828,0.00001189,0.00000783,0.
 00000272,-0.00000346,-0.00000036,-0.00001644\\\@


 "A LITTLE BIT GOES A LONG WAY"
 R.S. MULLIKEN AS QUOTED BY K. RUEDENBERG
 Job cpu time:       1 days 18 hours 21 minutes 18.8 seconds.
 Elapsed time:       0 days  1 hours 30 minutes 49.6 seconds.
 File lengths (MBytes):  RWF=   1444 Int=      0 D2E=      0 Chk=     36 Scr=      8
 Normal termination of Gaussian 16 at Fri Dec  9 17:57:23 2022.
