 Entering Gaussian System, Link 0=g16
 Input=Nic5h3bPyDonPy.gjf
 Output=Nic5h3bPyDonPy.log
 Initial command:
 /sw/contrib/gaussian/g16/A03/g16/l1.exe "/gscratch/scrubbed/gds001/Gau-6449.inp" -scrdir="/gscratch/scrubbed/gds001/"
 Entering Link 1 = /sw/contrib/gaussian/g16/A03/g16/l1.exe PID=      6450.
  
 Copyright (c) 1988,1990,1992,1993,1995,1998,2003,2009,2016,
            Gaussian, Inc.  All Rights Reserved.
  
 This is part of the Gaussian(R) 16 program.  It is based on
 the Gaussian(R) 09 system (copyright 2009, Gaussian, Inc.),
 the Gaussian(R) 03 system (copyright 2003, Gaussian, Inc.),
 the Gaussian(R) 98 system (copyright 1998, Gaussian, Inc.),
 the Gaussian(R) 94 system (copyright 1995, Gaussian, Inc.),
 the Gaussian 92(TM) system (copyright 1992, Gaussian, Inc.),
 the Gaussian 90(TM) system (copyright 1990, Gaussian, Inc.),
 the Gaussian 88(TM) system (copyright 1988, Gaussian, Inc.),
 the Gaussian 86(TM) system (copyright 1986, Carnegie Mellon
 University), and the Gaussian 82(TM) system (copyright 1983,
 Carnegie Mellon University). Gaussian is a federally registered
 trademark of Gaussian, Inc.
  
 This software contains proprietary and confidential information,
 including trade secrets, belonging to Gaussian, Inc.
  
 This software is provided under written license and may be
 used, copied, transmitted, or stored only in accord with that
 written license.
  
 The following legend is applicable only to US Government
 contracts under FAR:
  
                    RESTRICTED RIGHTS LEGEND
  
 Use, reproduction and disclosure by the US Government is
 subject to restrictions as set forth in subparagraphs (a)
 and (c) of the Commercial Computer Software - Restricted
 Rights clause in FAR 52.227-19.
  
 Gaussian, Inc.
 340 Quinnipiac St., Bldg. 40, Wallingford CT 06492
  
  
 ---------------------------------------------------------------
 Warning -- This program may not be used in any manner that
 competes with the business of Gaussian, Inc. or will provide
 assistance to any competitor of Gaussian, Inc.  The licensee
 of this program is prohibited from giving any competitor of
 Gaussian, Inc. access to this program.  By using this program,
 the user acknowledges that Gaussian, Inc. is engaged in the
 business of creating and licensing software in the field of
 computational chemistry and represents and warrants to the
 licensee that it is not a competitor of Gaussian, Inc. and that
 it will not use this program in any manner prohibited above.
 ---------------------------------------------------------------
  

 Cite this work as:
 Gaussian 16, Revision A.03,
 M. J. Frisch, G. W. Trucks, H. B. Schlegel, G. E. Scuseria, 
 M. A. Robb, J. R. Cheeseman, G. Scalmani, V. Barone, 
 G. A. Petersson, H. Nakatsuji, X. Li, M. Caricato, A. V. Marenich, 
 J. Bloino, B. G. Janesko, R. Gomperts, B. Mennucci, H. P. Hratchian, 
 J. V. Ortiz, A. F. Izmaylov, J. L. Sonnenberg, D. Williams-Young, 
 F. Ding, F. Lipparini, F. Egidi, J. Goings, B. Peng, A. Petrone, 
 T. Henderson, D. Ranasinghe, V. G. Zakrzewski, J. Gao, N. Rega, 
 G. Zheng, W. Liang, M. Hada, M. Ehara, K. Toyota, R. Fukuda, 
 J. Hasegawa, M. Ishida, T. Nakajima, Y. Honda, O. Kitao, H. Nakai, 
 T. Vreven, K. Throssell, J. A. Montgomery, Jr., J. E. Peralta, 
 F. Ogliaro, M. J. Bearpark, J. J. Heyd, E. N. Brothers, K. N. Kudin, 
 V. N. Staroverov, T. A. Keith, R. Kobayashi, J. Normand, 
 K. Raghavachari, A. P. Rendell, J. C. Burant, S. S. Iyengar, 
 J. Tomasi, M. Cossi, J. M. Millam, M. Klene, C. Adamo, R. Cammi, 
 J. W. Ochterski, R. L. Martin, K. Morokuma, O. Farkas, 
 J. B. Foresman, and D. J. Fox, Gaussian, Inc., Wallingford CT, 2016.
 
 ******************************************
 Gaussian 16:  ES64L-G16RevA.03 25-Dec-2016
                 9-Dec-2022 
 ******************************************
 %nprocshared=28
 Will use up to   28 processors via shared memory.
 %mem=41GB
 -----------------------------
 # wB97XD/aug-cc-pVDZ opt freq
 -----------------------------
 1/18=20,19=15,26=3,38=1/1,3;
 2/9=110,12=2,17=6,18=5,40=1/2;
 3/5=16,7=10,11=2,25=1,30=1,71=1,74=-58/1,2,3;
 4//1;
 5/5=2,38=5/2;
 6/7=2,8=2,9=2,10=2,28=1/1;
 7//1,2,3,16;
 1/18=20,19=15,26=3/3(2);
 2/9=110/2;
 99//99;
 2/9=110/2;
 3/5=16,7=10,11=2,25=1,30=1,71=1,74=-58/1,2,3;
 4/5=5,16=3,69=1/1;
 5/5=2,38=5/2;
 7//1,2,3,16;
 1/18=20,19=15,26=3/3(-5);
 2/9=110/2;
 6/7=2,8=2,9=2,10=2,19=2,28=1/1;
 99/9=1/99;
 ----
 blah
 ----
 Symbolic Z-matrix:
 Charge =  1 Multiplicity = 1
 C                     0.07449  -2.5137    0.39604 
 C                    -0.41705  -1.27758  -0.03375 
 C                     0.51561  -0.31979  -0.40837 
 N                     1.82766  -0.58712  -0.34199 
 C                     2.32391  -1.7649    0.06937 
 C                     1.44512  -2.76525   0.4429 
 C                    -1.89863  -0.99191  -0.1027 
 N                    -2.28852   0.22976   0.61543 
 C                    -3.68334   0.44215   0.1987 
 C                    -3.67164   0.16185  -1.31003 
 C                    -2.44525  -0.7578   -1.52295 
 O                     3.18612   1.74818  -0.80577 
 O                     1.46125   2.78694   0.90628 
 O                    -0.95594   2.48917  -0.26761 
 H                    -4.00554   1.45764   0.45959 
 H                    -4.60488  -0.31028  -1.63227 
 H                    -3.55963   1.08976  -1.88157 
 H                    -2.69638  -1.70654  -2.00847 
 H                    -1.68748  -0.26247  -2.14204 
 H                    -4.34803  -0.26669   0.7251 
 H                    -2.42299  -1.85764   0.34698 
 H                     0.2469    0.67608  -0.7562 
 H                     3.40992  -1.83201   0.08998 
 H                     1.83226  -3.72436   0.77791 
 H                    -0.62593  -3.29096   0.70313 
 C                    -2.12747   0.1398    2.06241 
 H                     2.47506   0.18489  -0.60428 
 H                    -1.49466   1.72331   0.06444 
 H                    -1.56545   3.17171  -0.55618 
 H                     2.64306   2.29999  -0.19379 
 H                     3.29145   2.24528  -1.62042 
 H                     1.56599   3.48778   1.55301 
 H                     0.54485   2.83733   0.5643 
 H                     4.71503   0.61677  -0.23336 
 O                     4.954    -0.30194  -0.05004 
 H                     5.90345  -0.31315   0.08807 
 H                    -2.48149   1.06781   2.52568 
 H                    -1.06769   0.01584   2.317 
 H                    -2.69978  -0.70477   2.4867 
 O                     3.30465   2.69837  -3.3979 
 H                     3.36595   3.23836  -4.20264 
 H                     3.05794   1.82091  -3.74094 
 
 Add virtual bond connecting atoms H30        and O13        Dist= 3.19D+00.
 Add virtual bond connecting atoms H27        and O12        Dist= 3.27D+00.
 Add virtual bond connecting atoms N8         and H28        Dist= 3.36D+00.
 Add virtual bond connecting atoms H33        and O14        Dist= 3.31D+00.
 Add virtual bond connecting atoms O40        and H31        Dist= 3.47D+00.
 Add virtual bond connecting atoms H34        and O12        Dist= 3.75D+00.

 GradGradGradGradGradGradGradGradGradGradGradGradGradGradGradGradGradGrad
 Berny optimization.
 Initialization pass.
                           ----------------------------
                           !    Initial Parameters    !
                           ! (Angstroms and Degrees)  !
 --------------------------                            --------------------------
 ! Name  Definition              Value          Derivative Info.                !
 --------------------------------------------------------------------------------
 ! R1    R(1,2)                  1.398          estimate D2E/DX2                !
 ! R2    R(1,6)                  1.3943         estimate D2E/DX2                !
 ! R3    R(1,25)                 1.0904         estimate D2E/DX2                !
 ! R4    R(2,3)                  1.3884         estimate D2E/DX2                !
 ! R5    R(2,7)                  1.5104         estimate D2E/DX2                !
 ! R6    R(3,4)                  1.3406         estimate D2E/DX2                !
 ! R7    R(3,22)                 1.0885         estimate D2E/DX2                !
 ! R8    R(4,5)                  1.3426         estimate D2E/DX2                !
 ! R9    R(4,27)                 1.0411         estimate D2E/DX2                !
 ! R10   R(5,6)                  1.3829         estimate D2E/DX2                !
 ! R11   R(5,23)                 1.0883         estimate D2E/DX2                !
 ! R12   R(6,24)                 1.0872         estimate D2E/DX2                !
 ! R13   R(7,8)                  1.4698         estimate D2E/DX2                !
 ! R14   R(7,11)                 1.5397         estimate D2E/DX2                !
 ! R15   R(7,21)                 1.1075         estimate D2E/DX2                !
 ! R16   R(8,9)                  1.4711         estimate D2E/DX2                !
 ! R17   R(8,26)                 1.4587         estimate D2E/DX2                !
 ! R18   R(8,28)                 1.7789         estimate D2E/DX2                !
 ! R19   R(9,10)                 1.5346         estimate D2E/DX2                !
 ! R20   R(9,15)                 1.0969         estimate D2E/DX2                !
 ! R21   R(9,20)                 1.1052         estimate D2E/DX2                !
 ! R22   R(10,11)                1.5476         estimate D2E/DX2                !
 ! R23   R(10,16)                1.0944         estimate D2E/DX2                !
 ! R24   R(10,17)                1.0955         estimate D2E/DX2                !
 ! R25   R(11,18)                1.0949         estimate D2E/DX2                !
 ! R26   R(11,19)                1.0967         estimate D2E/DX2                !
 ! R27   R(12,27)                1.7292         estimate D2E/DX2                !
 ! R28   R(12,30)                0.9869         estimate D2E/DX2                !
 ! R29   R(12,31)                0.9601         estimate D2E/DX2                !
 ! R30   R(12,34)                1.9863         estimate D2E/DX2                !
 ! R31   R(13,30)                1.6864         estimate D2E/DX2                !
 ! R32   R(13,32)                0.9594         estimate D2E/DX2                !
 ! R33   R(13,33)                0.9794         estimate D2E/DX2                !
 ! R34   R(14,28)                0.9935         estimate D2E/DX2                !
 ! R35   R(14,29)                0.9595         estimate D2E/DX2                !
 ! R36   R(14,33)                1.7509         estimate D2E/DX2                !
 ! R37   R(26,37)                1.096          estimate D2E/DX2                !
 ! R38   R(26,38)                1.097          estimate D2E/DX2                !
 ! R39   R(26,39)                1.1049         estimate D2E/DX2                !
 ! R40   R(31,40)                1.8344         estimate D2E/DX2                !
 ! R41   R(34,35)                0.9668         estimate D2E/DX2                !
 ! R42   R(35,36)                0.9595         estimate D2E/DX2                !
 ! R43   R(40,41)                0.9711         estimate D2E/DX2                !
 ! R44   R(40,42)                0.9739         estimate D2E/DX2                !
 ! A1    A(2,1,6)              121.0308         estimate D2E/DX2                !
 ! A2    A(2,1,25)             119.407          estimate D2E/DX2                !
 ! A3    A(6,1,25)             119.5617         estimate D2E/DX2                !
 ! A4    A(1,2,3)              117.1778         estimate D2E/DX2                !
 ! A5    A(1,2,7)              121.7462         estimate D2E/DX2                !
 ! A6    A(3,2,7)              121.0737         estimate D2E/DX2                !
 ! A7    A(2,3,4)              120.432          estimate D2E/DX2                !
 ! A8    A(2,3,22)             123.4713         estimate D2E/DX2                !
 ! A9    A(4,3,22)             116.0934         estimate D2E/DX2                !
 ! A10   A(3,4,5)              123.4921         estimate D2E/DX2                !
 ! A11   A(3,4,27)             116.6303         estimate D2E/DX2                !
 ! A12   A(5,4,27)             119.8562         estimate D2E/DX2                !
 ! A13   A(4,5,6)              118.8439         estimate D2E/DX2                !
 ! A14   A(4,5,23)             115.388          estimate D2E/DX2                !
 ! A15   A(6,5,23)             125.7609         estimate D2E/DX2                !
 ! A16   A(1,6,5)              119.0174         estimate D2E/DX2                !
 ! A17   A(1,6,24)             121.3022         estimate D2E/DX2                !
 ! A18   A(5,6,24)             119.6759         estimate D2E/DX2                !
 ! A19   A(2,7,8)              113.2726         estimate D2E/DX2                !
 ! A20   A(2,7,11)             114.7778         estimate D2E/DX2                !
 ! A21   A(2,7,21)             107.3392         estimate D2E/DX2                !
 ! A22   A(8,7,11)             103.3048         estimate D2E/DX2                !
 ! A23   A(8,7,21)             109.011          estimate D2E/DX2                !
 ! A24   A(11,7,21)            108.9826         estimate D2E/DX2                !
 ! A25   A(7,8,9)              103.4801         estimate D2E/DX2                !
 ! A26   A(7,8,26)             113.8364         estimate D2E/DX2                !
 ! A27   A(7,8,28)             115.3499         estimate D2E/DX2                !
 ! A28   A(9,8,26)             113.2397         estimate D2E/DX2                !
 ! A29   A(9,8,28)             102.3662         estimate D2E/DX2                !
 ! A30   A(26,8,28)            108.0447         estimate D2E/DX2                !
 ! A31   A(8,9,10)             104.1759         estimate D2E/DX2                !
 ! A32   A(8,9,15)             110.1689         estimate D2E/DX2                !
 ! A33   A(8,9,20)             110.0425         estimate D2E/DX2                !
 ! A34   A(10,9,15)            113.9028         estimate D2E/DX2                !
 ! A35   A(10,9,20)            110.8378         estimate D2E/DX2                !
 ! A36   A(15,9,20)            107.6886         estimate D2E/DX2                !
 ! A37   A(9,10,11)            104.4681         estimate D2E/DX2                !
 ! A38   A(9,10,16)            111.2094         estimate D2E/DX2                !
 ! A39   A(9,10,17)            111.0376         estimate D2E/DX2                !
 ! A40   A(11,10,16)           112.2641         estimate D2E/DX2                !
 ! A41   A(11,10,17)           110.5192         estimate D2E/DX2                !
 ! A42   A(16,10,17)           107.396          estimate D2E/DX2                !
 ! A43   A(7,11,10)            104.1686         estimate D2E/DX2                !
 ! A44   A(7,11,18)            111.0199         estimate D2E/DX2                !
 ! A45   A(7,11,19)            110.1247         estimate D2E/DX2                !
 ! A46   A(10,11,18)           113.2128         estimate D2E/DX2                !
 ! A47   A(10,11,19)           110.9033         estimate D2E/DX2                !
 ! A48   A(18,11,19)           107.4278         estimate D2E/DX2                !
 ! A49   A(27,12,30)           101.9436         estimate D2E/DX2                !
 ! A50   A(27,12,31)           127.7373         estimate D2E/DX2                !
 ! A51   A(27,12,34)            76.5841         estimate D2E/DX2                !
 ! A52   A(30,12,31)           107.2794         estimate D2E/DX2                !
 ! A53   A(30,12,34)           124.2888         estimate D2E/DX2                !
 ! A54   A(31,12,34)           117.0643         estimate D2E/DX2                !
 ! A55   A(30,13,32)           125.0416         estimate D2E/DX2                !
 ! A56   A(30,13,33)           116.2815         estimate D2E/DX2                !
 ! A57   A(32,13,33)           107.454          estimate D2E/DX2                !
 ! A58   A(28,14,29)           107.7239         estimate D2E/DX2                !
 ! A59   A(28,14,33)           117.3409         estimate D2E/DX2                !
 ! A60   A(29,14,33)           123.0883         estimate D2E/DX2                !
 ! A61   A(8,26,37)            109.3556         estimate D2E/DX2                !
 ! A62   A(8,26,38)            110.1121         estimate D2E/DX2                !
 ! A63   A(8,26,39)            111.7695         estimate D2E/DX2                !
 ! A64   A(37,26,38)           108.0382         estimate D2E/DX2                !
 ! A65   A(37,26,39)           108.5173         estimate D2E/DX2                !
 ! A66   A(38,26,39)           108.9601         estimate D2E/DX2                !
 ! A67   A(4,27,12)            162.8317         estimate D2E/DX2                !
 ! A68   A(12,30,13)           162.1018         estimate D2E/DX2                !
 ! A69   A(12,31,40)           161.9592         estimate D2E/DX2                !
 ! A70   A(13,33,14)           163.2676         estimate D2E/DX2                !
 ! A71   A(12,34,35)           141.8285         estimate D2E/DX2                !
 ! A72   A(34,35,36)           106.4377         estimate D2E/DX2                !
 ! A73   A(31,40,41)           160.1926         estimate D2E/DX2                !
 ! A74   A(31,40,42)            96.7158         estimate D2E/DX2                !
 ! A75   A(41,40,42)           103.0084         estimate D2E/DX2                !
 ! A76   L(8,28,14,3,-1)       173.0897         estimate D2E/DX2                !
 ! A77   L(8,28,14,3,-2)       180.141          estimate D2E/DX2                !
 ! D1    D(6,1,2,3)             -0.0154         estimate D2E/DX2                !
 ! D2    D(6,1,2,7)            179.4402         estimate D2E/DX2                !
 ! D3    D(25,1,2,3)           179.7246         estimate D2E/DX2                !
 ! D4    D(25,1,2,7)            -0.8198         estimate D2E/DX2                !
 ! D5    D(2,1,6,5)              0.6713         estimate D2E/DX2                !
 ! D6    D(2,1,6,24)           179.9001         estimate D2E/DX2                !
 ! D7    D(25,1,6,5)          -179.0683         estimate D2E/DX2                !
 ! D8    D(25,1,6,24)            0.1605         estimate D2E/DX2                !
 ! D9    D(1,2,3,4)             -0.5428         estimate D2E/DX2                !
 ! D10   D(1,2,3,22)          -179.8543         estimate D2E/DX2                !
 ! D11   D(7,2,3,4)            179.9977         estimate D2E/DX2                !
 ! D12   D(7,2,3,22)             0.6862         estimate D2E/DX2                !
 ! D13   D(1,2,7,8)            127.0007         estimate D2E/DX2                !
 ! D14   D(1,2,7,11)          -114.6759         estimate D2E/DX2                !
 ! D15   D(1,2,7,21)             6.6184         estimate D2E/DX2                !
 ! D16   D(3,2,7,8)            -53.5647         estimate D2E/DX2                !
 ! D17   D(3,2,7,11)            64.7587         estimate D2E/DX2                !
 ! D18   D(3,2,7,21)          -173.947          estimate D2E/DX2                !
 ! D19   D(2,3,4,5)              0.4529         estimate D2E/DX2                !
 ! D20   D(2,3,4,27)          -177.8542         estimate D2E/DX2                !
 ! D21   D(22,3,4,5)           179.8134         estimate D2E/DX2                !
 ! D22   D(22,3,4,27)            1.5063         estimate D2E/DX2                !
 ! D23   D(3,4,5,6)              0.2269         estimate D2E/DX2                !
 ! D24   D(3,4,5,23)          -178.8499         estimate D2E/DX2                !
 ! D25   D(27,4,5,6)           178.482          estimate D2E/DX2                !
 ! D26   D(27,4,5,23)           -0.5948         estimate D2E/DX2                !
 ! D27   D(3,4,27,12)           36.592          estimate D2E/DX2                !
 ! D28   D(5,4,27,12)         -141.7801         estimate D2E/DX2                !
 ! D29   D(4,5,6,1)             -0.7747         estimate D2E/DX2                !
 ! D30   D(4,5,6,24)           179.9837         estimate D2E/DX2                !
 ! D31   D(23,5,6,1)           178.1975         estimate D2E/DX2                !
 ! D32   D(23,5,6,24)           -1.0441         estimate D2E/DX2                !
 ! D33   D(2,7,8,9)            169.4154         estimate D2E/DX2                !
 ! D34   D(2,7,8,26)           -67.2518         estimate D2E/DX2                !
 ! D35   D(2,7,8,28)            58.4836         estimate D2E/DX2                !
 ! D36   D(11,7,8,9)            44.6295         estimate D2E/DX2                !
 ! D37   D(11,7,8,26)          167.9623         estimate D2E/DX2                !
 ! D38   D(11,7,8,28)          -66.3024         estimate D2E/DX2                !
 ! D39   D(21,7,8,9)           -71.1565         estimate D2E/DX2                !
 ! D40   D(21,7,8,26)           52.1762         estimate D2E/DX2                !
 ! D41   D(21,7,8,28)          177.9116         estimate D2E/DX2                !
 ! D42   D(2,7,11,10)         -152.4942         estimate D2E/DX2                !
 ! D43   D(2,7,11,18)           85.3312         estimate D2E/DX2                !
 ! D44   D(2,7,11,19)          -33.5194         estimate D2E/DX2                !
 ! D45   D(8,7,11,10)          -28.692          estimate D2E/DX2                !
 ! D46   D(8,7,11,18)         -150.8667         estimate D2E/DX2                !
 ! D47   D(8,7,11,19)           90.2827         estimate D2E/DX2                !
 ! D48   D(21,7,11,10)          87.1143         estimate D2E/DX2                !
 ! D49   D(21,7,11,18)         -35.0604         estimate D2E/DX2                !
 ! D50   D(21,7,11,19)        -153.911          estimate D2E/DX2                !
 ! D51   D(7,8,9,10)           -42.8438         estimate D2E/DX2                !
 ! D52   D(7,8,9,15)          -165.3909         estimate D2E/DX2                !
 ! D53   D(7,8,9,20)            76.0178         estimate D2E/DX2                !
 ! D54   D(26,8,9,10)         -166.5689         estimate D2E/DX2                !
 ! D55   D(26,8,9,15)           70.884          estimate D2E/DX2                !
 ! D56   D(26,8,9,20)          -47.7073         estimate D2E/DX2                !
 ! D57   D(28,8,9,10)           77.3739         estimate D2E/DX2                !
 ! D58   D(28,8,9,15)          -45.1732         estimate D2E/DX2                !
 ! D59   D(28,8,9,20)         -163.7644         estimate D2E/DX2                !
 ! D60   D(7,8,14,29)          123.1371         estimate D2E/DX2                !
 ! D61   D(7,8,14,33)          -90.1946         estimate D2E/DX2                !
 ! D62   D(9,8,14,29)           11.292          estimate D2E/DX2                !
 ! D63   D(9,8,14,33)          157.9603         estimate D2E/DX2                !
 ! D64   D(26,8,14,29)        -109.6147         estimate D2E/DX2                !
 ! D65   D(26,8,14,33)          37.0536         estimate D2E/DX2                !
 ! D66   D(7,8,26,37)         -177.3799         estimate D2E/DX2                !
 ! D67   D(7,8,26,38)           64.0555         estimate D2E/DX2                !
 ! D68   D(7,8,26,39)          -57.1975         estimate D2E/DX2                !
 ! D69   D(9,8,26,37)          -59.5355         estimate D2E/DX2                !
 ! D70   D(9,8,26,38)         -178.1002         estimate D2E/DX2                !
 ! D71   D(9,8,26,39)           60.6468         estimate D2E/DX2                !
 ! D72   D(28,8,26,37)          53.1097         estimate D2E/DX2                !
 ! D73   D(28,8,26,38)         -65.4549         estimate D2E/DX2                !
 ! D74   D(28,8,26,39)         173.2921         estimate D2E/DX2                !
 ! D75   D(8,9,10,11)           23.7463         estimate D2E/DX2                !
 ! D76   D(8,9,10,16)          145.0681         estimate D2E/DX2                !
 ! D77   D(8,9,10,17)          -95.4035         estimate D2E/DX2                !
 ! D78   D(15,9,10,11)         143.8076         estimate D2E/DX2                !
 ! D79   D(15,9,10,16)         -94.8705         estimate D2E/DX2                !
 ! D80   D(15,9,10,17)          24.6579         estimate D2E/DX2                !
 ! D81   D(20,9,10,11)         -94.5715         estimate D2E/DX2                !
 ! D82   D(20,9,10,16)          26.7504         estimate D2E/DX2                !
 ! D83   D(20,9,10,17)         146.2788         estimate D2E/DX2                !
 ! D84   D(9,10,11,7)            3.0004         estimate D2E/DX2                !
 ! D85   D(9,10,11,18)         123.7176         estimate D2E/DX2                !
 ! D86   D(9,10,11,19)        -115.4424         estimate D2E/DX2                !
 ! D87   D(16,10,11,7)        -117.6208         estimate D2E/DX2                !
 ! D88   D(16,10,11,18)          3.0965         estimate D2E/DX2                !
 ! D89   D(16,10,11,19)        123.9364         estimate D2E/DX2                !
 ! D90   D(17,10,11,7)         122.5003         estimate D2E/DX2                !
 ! D91   D(17,10,11,18)       -116.7825         estimate D2E/DX2                !
 ! D92   D(17,10,11,19)          4.0574         estimate D2E/DX2                !
 ! D93   D(30,12,27,4)          12.8699         estimate D2E/DX2                !
 ! D94   D(31,12,27,4)        -110.3338         estimate D2E/DX2                !
 ! D95   D(34,12,27,4)         135.6576         estimate D2E/DX2                !
 ! D96   D(27,12,30,13)         -3.6509         estimate D2E/DX2                !
 ! D97   D(31,12,30,13)        132.4825         estimate D2E/DX2                !
 ! D98   D(34,12,30,13)        -85.4409         estimate D2E/DX2                !
 ! D99   D(27,12,31,40)         -7.5713         estimate D2E/DX2                !
 ! D100  D(30,12,31,40)       -128.5557         estimate D2E/DX2                !
 ! D101  D(34,12,31,40)         86.211          estimate D2E/DX2                !
 ! D102  D(27,12,34,35)          6.6344         estimate D2E/DX2                !
 ! D103  D(30,12,34,35)        102.0778         estimate D2E/DX2                !
 ! D104  D(31,12,34,35)       -119.1484         estimate D2E/DX2                !
 ! D105  D(32,13,30,12)        150.98           estimate D2E/DX2                !
 ! D106  D(33,13,30,12)        -70.0034         estimate D2E/DX2                !
 ! D107  D(30,13,33,14)         42.3722         estimate D2E/DX2                !
 ! D108  D(32,13,33,14)       -171.8828         estimate D2E/DX2                !
 ! D109  D(28,14,33,13)         69.6733         estimate D2E/DX2                !
 ! D110  D(29,14,33,13)       -152.0853         estimate D2E/DX2                !
 ! D111  D(12,31,40,41)        170.177          estimate D2E/DX2                !
 ! D112  D(12,31,40,42)         -4.5684         estimate D2E/DX2                !
 ! D113  D(12,34,35,36)        172.2485         estimate D2E/DX2                !
 ! D114  D(31,40,41,42)       -174.6437         estimate D2E/DX2                !
 --------------------------------------------------------------------------------
 Trust Radius=3.00D-01 FncErr=1.00D-07 GrdErr=1.00D-06 EigMax=2.50D+02 EigMin=1.00D-04
 Number of steps in this run=    245 maximum allowed number of steps=    252.
 GradGradGradGradGradGradGradGradGradGradGradGradGradGradGradGradGradGrad

                          Input orientation:                          
 ---------------------------------------------------------------------
 Center     Atomic      Atomic             Coordinates (Angstroms)
 Number     Number       Type             X           Y           Z
 ---------------------------------------------------------------------
      1          6           0        0.074493   -2.513695    0.396038
      2          6           0       -0.417046   -1.277576   -0.033745
      3          6           0        0.515614   -0.319790   -0.408373
      4          7           0        1.827655   -0.587116   -0.341985
      5          6           0        2.323911   -1.764895    0.069366
      6          6           0        1.445123   -2.765251    0.442901
      7          6           0       -1.898626   -0.991910   -0.102701
      8          7           0       -2.288524    0.229762    0.615429
      9          6           0       -3.683336    0.442150    0.198696
     10          6           0       -3.671636    0.161854   -1.310033
     11          6           0       -2.445250   -0.757799   -1.522952
     12          8           0        3.186124    1.748184   -0.805768
     13          8           0        1.461250    2.786943    0.906281
     14          8           0       -0.955941    2.489165   -0.267608
     15          1           0       -4.005536    1.457640    0.459586
     16          1           0       -4.604877   -0.310283   -1.632267
     17          1           0       -3.559633    1.089763   -1.881574
     18          1           0       -2.696381   -1.706537   -2.008467
     19          1           0       -1.687484   -0.262466   -2.142040
     20          1           0       -4.348033   -0.266689    0.725102
     21          1           0       -2.422989   -1.857642    0.346976
     22          1           0        0.246900    0.676075   -0.756200
     23          1           0        3.409916   -1.832005    0.089983
     24          1           0        1.832255   -3.724362    0.777911
     25          1           0       -0.625931   -3.290962    0.703125
     26          6           0       -2.127474    0.139800    2.062406
     27          1           0        2.475056    0.184892   -0.604279
     28          1           0       -1.494663    1.723307    0.064438
     29          1           0       -1.565447    3.171713   -0.556176
     30          1           0        2.643055    2.299985   -0.193785
     31          1           0        3.291445    2.245284   -1.620419
     32          1           0        1.565988    3.487775    1.553011
     33          1           0        0.544849    2.837334    0.564302
     34          1           0        4.715034    0.616772   -0.233364
     35          8           0        4.953995   -0.301936   -0.050035
     36          1           0        5.903451   -0.313153    0.088072
     37          1           0       -2.481493    1.067806    2.525683
     38          1           0       -1.067690    0.015840    2.316996
     39          1           0       -2.699780   -0.704765    2.486697
     40          8           0        3.304650    2.698375   -3.397896
     41          1           0        3.365953    3.238357   -4.202645
     42          1           0        3.057942    1.820908   -3.740940
 ---------------------------------------------------------------------
                    Distance matrix (angstroms):
                    1          2          3          4          5
     1  C    0.000000
     2  C    1.397968   0.000000
     3  C    2.378000   1.388364   0.000000
     4  N    2.707390   2.368635   1.340642   0.000000
     5  C    2.393177   2.785849   2.363578   1.342625   0.000000
     6  C    1.394311   2.430646   2.751170   2.346625   1.382935
     7  C    2.541214   1.510443   2.524626   3.755833   4.296153
     8  N    3.627470   2.489161   3.035353   4.304284   5.054839
     9  C    4.785106   3.698667   4.310483   5.632295   6.401155
    10  C    4.909452   3.780638   4.310224   5.633851   6.446835
    11  C    3.621436   2.569342   3.193878   4.436387   5.127828
    12  O    5.412042   4.768027   3.400891   2.741197   3.721692
    13  O    5.502745   4.575146   3.503474   3.616171   4.707849
    14  O    5.150809   3.812275   3.174196   4.149391   5.382194
    15  H    5.694047   4.538947   4.934917   6.232950   7.113291
    16  H    5.555677   4.585723   5.264735   6.566501   7.281453
    17  H    5.601723   4.346794   4.556841   5.848515   6.824319
    18  H    3.756447   3.046129   3.847113   4.949461   5.433611
    19  H    3.822883   2.662587   2.804020   3.962549   4.820674
    20  H    4.971524   4.129213   4.994261   6.275386   6.869458
    21  H    2.582679   2.122553   3.401607   4.489641   4.755915
    22  H    3.395881   2.186211   1.088549   2.065433   3.309663
    23  H    3.418101   3.868894   3.303352   2.059100   1.088272
    24  H    2.168241   3.421243   3.838219   3.331141   2.140858
    25  H    1.090431   2.154143   3.371412   3.797779   3.381139
    26  C    3.829684   3.054238   3.647175   4.685355   5.235924
    27  H    3.747760   3.290680   2.032854   1.041116   2.068408
    28  H    4.530386   3.190015   2.904997   4.067067   5.171952
    29  H    5.993328   4.624709   4.067340   5.068315   6.315735
    30  H    5.487888   4.710496   3.381608   3.003696   4.085872
    31  H    6.087919   5.355463   3.969118   3.435049   4.457918
    32  H    6.291326   5.399888   4.409973   4.501579   5.510553
    33  H    5.374296   4.267949   3.303692   3.767467   4.958884
    34  H    5.632991   5.474180   4.306147   3.130192   3.388429
    35  O    5.375909   5.458958   4.452859   3.152866   3.011951
    36  H    6.238107   6.394813   5.410664   4.107568   3.862772
    37  H    4.888313   4.038989   4.417777   5.434247   6.095047
    38  H    3.375383   2.760842   3.169722   3.977029   4.441375
    39  H    3.916590   3.448422   4.343777   5.339752   5.674930
    40  O    7.210654   6.401306   5.081859   4.723829   5.736248
    41  H    8.066455   7.216956   5.931386   5.648477   6.660965
    42  H    6.693604   5.951423   4.706594   4.343395   5.283485
                    6          7          8          9         10
     6  C    0.000000
     7  C    3.824013   0.000000
     8  N    4.789571   1.469767   0.000000
     9  C    6.053771   2.309233   1.471148   0.000000
    10  C    6.149955   2.435649   2.371711   1.534590   0.000000
    11  C    4.798900   1.539714   2.360617   2.436556   1.547617
    12  O    4.996134   5.818685   5.856379   7.064287   7.056883
    13  O    5.571520   5.156214   4.548030   5.697850   6.176541
    14  O    5.820551   3.610226   2.767749   3.441859   3.725322
    15  H    6.895127   3.279563   2.116625   1.096857   2.218581
    16  H    6.850963   3.182449   3.272503   2.183534   1.094389
    17  H    6.731411   3.202608   2.930929   2.182253   1.095545
    18  H    4.927691   2.186104   3.286401   3.234579   2.220319
    19  H    4.770648   2.176137   2.864816   3.155781   2.192976
    20  H    6.315307   2.685293   2.121337   1.105160   2.186993
    21  H    3.974323   1.107546   2.108887   2.626691   2.895369
    22  H    3.836184   2.795088   2.917008   4.051333   3.990749
    23  H    2.203613   5.378058   6.082696   7.449686   7.488918
    24  H    1.087197   4.707573   5.713345   6.936646   7.053722
    25  H    2.152523   2.748590   3.894535   4.851629   5.025044
    26  C    4.881144   2.453737   1.458689   2.446536   3.709214
    27  H    3.295556   4.556922   4.917458   6.215846   6.187119
    28  H    5.378915   2.750186   1.778899   2.539622   3.011066
    29  H    6.731213   4.201476   3.248165   3.536354   3.750144
    30  H    5.243761   5.609967   5.409355   6.605211   6.759655
    31  H    5.724653   6.302359   6.340142   7.430211   7.274718
    32  H    6.351951   5.900213   5.133320   6.218151   6.833116
    33  H    5.675755   4.591141   3.850980   4.873205   5.333861
    34  H    4.752655   6.807748   7.065412   8.411289   8.467727
    35  O    4.315448   6.887471   7.292436   8.672890   8.729502
    36  H    5.100527   7.833869   8.226866   9.617131   9.688272
    37  H    5.869295   3.389774   2.094905   2.692720   4.117026
    38  H    4.190576   2.749718   2.105120   3.392719   4.467348
    39  H    5.059933   2.725671   2.131693   2.741851   4.013813
    40  O    6.932588   7.179875   7.313305   8.176673   7.711140
    41  H    7.830325   7.900664   8.014898   8.768298   8.207297
    42  H    6.413935   6.761383   7.077740   7.928842   7.344998
                   11         12         13         14         15
    11  C    0.000000
    12  O    6.205375   0.000000
    13  O    5.807505   2.642976   0.000000
    14  O    3.786384   4.242095   2.703609   0.000000
    15  H    3.357547   7.307907   5.643787   3.300437   0.000000
    16  H    2.208214   8.100622   7.268764   4.797284   2.803678
    17  H    2.187223   6.862661   5.988474   3.367852   2.411471
    18  H    1.094941   6.927153   6.780340   4.864528   4.221041
    19  H    1.096738   5.438786   5.339071   3.408830   3.885947
    20  H    2.985887   7.947754   6.565460   4.481796   1.777952
    21  H    2.169512   6.767049   6.080486   4.628680   3.675355
    22  H    3.145087   3.129043   2.948602   2.229987   4.491346
    23  H    6.167532   3.697324   5.079205   6.153137   8.120794
    24  H    5.691354   5.855746   6.523129   6.890215   7.812444
    25  H    3.831743   6.496269   6.429504   5.870358   5.833546
    26  C    3.709644   6.248811   4.606835   3.510124   2.798723
    27  H    5.093333   1.729190   3.174943   4.146657   6.689527
    28  H    3.095046   4.761055   3.252298   0.993486   2.555622
    29  H    4.141229   4.966504   3.383448   0.959500   3.150215
    30  H    6.083385   0.986880   1.686397   3.604721   6.733513
    31  H    6.475931   0.960134   3.166579   4.464288   7.628416
    32  H    6.601248   3.348859   0.959372   3.266803   6.029835
    33  H    5.120772   3.168544   0.979428   1.750904   4.756104
    34  H    7.404198   1.986279   4.073763   5.972184   8.788378
    35  O    7.558182   2.810604   4.759725   6.539490   9.144890
    36  H    8.514336   3.525894   5.478431   7.418272  10.072823
    37  H    4.441350   6.609339   4.595989   3.485691   2.596812
    38  H    4.152275   5.554062   4.008075   3.579106   3.762937
    39  H    4.018070   7.176430   5.657200   4.563810   3.238854
    40  O    6.965767   2.763339   4.683152   5.291041   8.358135
    41  H    7.544541   3.713721   5.471087   5.892756   8.902033
    42  H    6.469492   2.938869   5.007925   5.349940   8.226123
                   16         17         18         19         20
    16  H    0.000000
    17  H    1.764885   0.000000
    18  H    2.394454   2.929266   0.000000
    19  H    2.961982   2.324071   1.766651   0.000000
    20  H    2.371720   3.042416   3.503358   3.911399   0.000000
    21  H    3.327515   3.865953   2.376066   3.046433   2.525847
    22  H    5.027936   3.990902   3.988473   2.557978   4.918991
    23  H    8.337787   7.810146   6.458026   5.781770   7.939733
    24  H    7.674735   7.702020   5.687184   5.735800   7.081967
    25  H    5.492769   5.871799   3.761635   4.288781   4.795910
    26  C    4.471097   4.302149   4.506065   4.246502   2.623833
    27  H    7.171291   6.234400   5.682694   4.459997   6.966041
    28  H    4.085061   2.907308   4.183885   2.974730   3.540944
    29  H    4.745567   3.173007   5.213970   3.784632   4.605113
    30  H    7.836788   6.541147   6.917721   5.395871   7.503831
    31  H    8.299576   6.952748   7.184813   5.599164   8.376939
    32  H    7.915227   6.619579   7.604787   6.188925   7.053870
    33  H    6.422779   5.087542   6.145850   4.681491   5.796646
    34  H    9.469799   8.450469   7.967297   6.738571   9.156328
    35  O    9.688940   8.818913   8.021011   6.963281   9.334335
    36  H   10.648217   9.767171   8.960698   7.911906  10.271363
    37  H    4.867899   4.537266   5.319932   4.918100   2.916666
    38  H    5.311754   4.999108   4.932428   4.510499   3.657130
    39  H    4.555313   4.800153   4.605438   4.758737   2.451911
    40  O    8.644657   7.211467   7.572723   5.938448   9.184459
    41  H    9.095813   7.613643   8.125164   6.483755   9.801715
    42  H    8.228443   6.912606   6.968254   5.423652   8.896744
                   21         22         23         24         25
    21  H    0.000000
    22  H    3.842529   0.000000
    23  H    5.838620   4.124459   0.000000
    24  H    4.666632   4.922468   2.557982   0.000000
    25  H    2.326084   4.316115   4.335039   2.497220   0.000000
    26  C    2.649491   3.724216   6.200093   5.679888   3.984019
    27  H    5.391445   2.286705   2.328913   4.195940   4.838077
    28  H    3.710096   2.191617   6.057705   6.422969   5.128890
    29  H    5.181262   3.090764   7.085828   7.802565   6.650917
    30  H    6.575948   2.948721   4.212118   6.155838   6.538303
    31  H    7.304752   3.532498   4.423098   6.596810   7.169010
    32  H    6.777901   3.870156   5.817266   7.258553   7.174823
    33  H    5.558605   2.550204   5.498756   6.690209   6.240674
    34  H    7.576998   4.499011   2.793635   5.308346   6.683809
    35  O    7.549684   4.859210   2.178278   4.705715   6.374724
    36  H    8.472431   5.804131   2.919697   5.356012   7.202671
    37  H    3.648072   4.285830   7.003588   6.680419   5.075794
    38  H    3.037721   3.407138   5.331329   4.976703   3.706032
    39  H    2.446251   4.594129   6.659076   5.707649   3.764358
    40  O    8.221144   4.518639   5.718455   7.801081   8.254696
    41  H    8.954334   5.307708   6.643580   8.696989   9.090309
    42  H    7.764238   4.256909   5.305057   7.257571   7.710503
                   26         27         28         29         30
    26  C    0.000000
    27  H    5.319448   0.000000
    28  H    2.626751   4.309591   0.000000
    29  H    4.045410   5.024846   1.577356   0.000000
    30  H    5.702170   2.161099   4.185684   4.313088   0.000000
    31  H    6.881929   2.438083   5.100787   5.057695   1.568020
    32  H    5.010996   4.048375   3.833638   3.788727   2.371121
    33  H    4.081950   3.482345   2.377084   2.412598   2.294757
    34  H    7.233117   2.311190   6.314542   6.787958   2.669807
    35  O    7.403022   2.586373   6.760170   7.404427   3.482973
    36  H    8.282446   3.532887   7.673319   8.267030   4.187853
    37  H    1.095970   5.928202   2.731527   3.842320   5.930832
    38  H    1.096961   4.594940   2.858630   4.296791   5.029013
    39  H    1.104919   6.092992   3.635269   5.056962   6.690246
    40  O    8.115983   3.848392   5.997660   5.658381   3.295869
    41  H    8.889862   4.802664   6.642963   6.133505   4.180201
    42  H    7.962003   3.585379   5.934361   5.774350   3.603325
                   31         32         33         34         35
    31  H    0.000000
    32  H    3.819901   0.000000
    33  H    3.559118   1.563120   0.000000
    34  H    2.569548   4.620637   4.791410   0.000000
    35  O    3.423231   5.330127   5.447292   0.966818   0.000000
    36  H    4.035730   5.950352   6.234339   1.542860   0.959513
    37  H    7.204403   4.815023   4.017087   7.720478   7.987302
    38  H    6.282970   4.424281   3.692296   6.348650   6.478002
    39  H    7.840023   6.053589   5.173943   8.007787   8.073262
    40  O    1.834364   5.306372   4.830614   4.041846   4.788567
    41  H    2.767604   6.035698   5.553668   4.944483   5.683284
    42  H    2.175138   5.747198   5.087619   4.061894   4.660929
                   36         37         38         39         40
    36  H    0.000000
    37  H    8.840604   0.000000
    38  H    7.326196   1.774548   0.000000
    39  H    8.939930   1.786387   1.792146   0.000000
    40  O    5.289144   8.439609   7.679411   9.069894   0.000000
    41  H    6.120651   9.174656   8.517483   9.853356   0.971060
    42  H    5.226133   8.397801   7.548357   8.849511   0.973905
                   41         42
    41  H    0.000000
    42  H    1.522236   0.000000
 Stoichiometry    C10H25N2O5(1+)
 Framework group  C1[X(C10H25N2O5)]
 Deg. of freedom   120
 Full point group                 C1      NOp   1
 Largest Abelian subgroup         C1      NOp   1
 Largest concise Abelian subgroup C1      NOp   1
                         Standard orientation:                         
 ---------------------------------------------------------------------
 Center     Atomic      Atomic             Coordinates (Angstroms)
 Number     Number       Type             X           Y           Z
 ---------------------------------------------------------------------
      1          6           0        0.694554    2.684511   -0.277934
      2          6           0        0.907768    1.303914   -0.330893
      3          6           0       -0.213749    0.486825   -0.284815
      4          7           0       -1.439195    1.020793   -0.182434
      5          6           0       -1.669268    2.342420   -0.127546
      6          6           0       -0.593564    3.209756   -0.183213
      7          6           0        2.295107    0.717857   -0.446075
      8          7           0        2.589297   -0.285421    0.586930
      9          6           0        3.850040   -0.889642    0.128979
     10          6           0        3.650264   -1.077117   -1.380958
     11          6           0        2.570264   -0.035589   -1.760353
     12          8           0       -3.211697   -1.021746    0.265258
     13          8           0       -1.432944   -1.826581    2.046718
     14          8           0        0.789358   -2.387796    0.612873
     15          1           0        4.040708   -1.823722    0.671415
     16          1           0        4.586140   -0.921507   -1.926492
     17          1           0        3.302968   -2.090859   -1.608842
     18          1           0        2.892876    0.653343   -2.547874
     19          1           0        1.655949   -0.529789   -2.110535
     20          1           0        4.693725   -0.205256    0.331930
     21          1           0        3.015433    1.553940   -0.352517
     22          1           0       -0.166287   -0.600220   -0.316727
     23          1           0       -2.713773    2.630351   -0.025372
     24          1           0       -0.764358    4.282588   -0.140121
     25          1           0        1.550143    3.359909   -0.307012
     26          6           0        2.670846    0.263764    1.935825
     27          1           0       -2.235320    0.352997   -0.117976
     28          1           0        1.489362   -1.682939    0.626527
     29          1           0        1.228689   -3.233684    0.502862
     30          1           0       -2.676616   -1.462938    0.967376
     31          1           0       -3.520641   -1.707761   -0.331227
     32          1           0       -1.547930   -2.265633    2.891944
     33          1           0       -0.600806   -2.160807    1.652867
     34          1           0       -4.430833    0.513215    0.586048
     35          8           0       -4.487205    1.473096    0.485114
     36          1           0       -5.389442    1.716481    0.702826
     37          1           0        2.937969   -0.534614    2.637529
     38          1           0        1.697289    0.669403    2.237433
     39          1           0        3.430558    1.062838    2.007702
     40          8           0       -3.881764   -2.659296   -1.857354
     41          1           0       -4.153185   -3.391226   -2.434907
     42          1           0       -3.552899   -1.993329   -2.487297
 ---------------------------------------------------------------------
 Rotational constants (GHZ):           0.4756137           0.2454344           0.2020318
 Standard basis: Aug-CC-pVDZ (5D, 7F)
 There are   650 symmetry adapted cartesian basis functions of A   symmetry.
 There are   616 symmetry adapted basis functions of A   symmetry.
   616 basis functions,  1006 primitive gaussians,   650 cartesian basis functions
    69 alpha electrons       69 beta electrons
       nuclear repulsion energy      1369.0923409910 Hartrees.
 NAtoms=   42 NActive=   42 NUniq=   42 SFac= 1.00D+00 NAtFMM=   60 NAOKFM=F Big=F
 Integral buffers will be    131072 words long.
 Raffenetti 2 integral format.
 Two-electron integral symmetry is turned on.
 Nuclear repulsion after empirical dispersion term =     1369.0601721928 Hartrees.
 One-electron integrals computed using PRISM.
 NBasis=   616 RedAO= T EigKep=  1.57D-06  NBF=   616
 NBsUse=   616 1.00D-06 EigRej= -1.00D+00 NBFU=   616
 ExpMin= 2.97D-02 ExpMax= 1.17D+04 ExpMxC= 4.01D+02 IAcc=3 IRadAn=         5 AccDes= 0.00D+00
 Harris functional with IExCor= 4639 and IRadAn=       5 diagonalized for initial guess.
 HarFok:  IExCor= 4639 AccDes= 0.00D+00 IRadAn=         5 IDoV= 1 UseB2=F ITyADJ=14
 ICtDFT=  3500011 ScaDFX=  1.000000  1.000000  1.000000  1.000000
 FoFCou: FMM=F IPFlag=           0 FMFlag=      100000 FMFlg1=           0
         NFxFlg=           0 DoJE=T BraDBF=F KetDBF=T FulRan=T
         wScrn=  0.000000 ICntrl=       500 IOpCl=  0 I1Cent=   200000004 NGrid=           0
         NMat0=    1 NMatS0=      1 NMatT0=    0 NMatD0=    1 NMtDS0=    0 NMtDT0=    0
 Petite list used in FoFCou.
 Requested convergence on RMS density matrix=1.00D-08 within 128 cycles.
 Requested convergence on MAX density matrix=1.00D-06.
 Requested convergence on             energy=1.00D-06.
 No special actions if energy rises.
 SCF Done:  E(RwB97XD) =  -881.464544009     A.U. after   16 cycles
            NFock= 16  Conv=0.17D-08     -V/T= 2.0062

 **********************************************************************

            Population analysis using the SCF density.

 **********************************************************************

 Orbital symmetries:
       Occupied  (A) (A) (A) (A) (A) (A) (A) (A) (A) (A) (A) (A)
                 (A) (A) (A) (A) (A) (A) (A) (A) (A) (A) (A) (A)
                 (A) (A) (A) (A) (A) (A) (A) (A) (A) (A) (A) (A)
                 (A) (A) (A) (A) (A) (A) (A) (A) (A) (A) (A) (A)
                 (A) (A) (A) (A) (A) (A) (A) (A) (A) (A) (A) (A)
                 (A) (A) (A) (A) (A) (A) (A) (A) (A)
       Virtual   (A) (A) (A) (A) (A) (A) (A) (A) (A) (A) (A) (A)
                 (A) (A) (A) (A) (A) (A) (A) (A) (A) (A) (A) (A)
                 (A) (A) (A) (A) (A) (A) (A) (A) (A) (A) (A) (A)
                 (A) (A) (A) (A) (A) (A) (A) (A) (A) (A) (A) (A)
                 (A) (A) (A) (A) (A) (A) (A) (A) (A) (A) (A) (A)
                 (A) (A) (A) (A) (A) (A) (A) (A) (A) (A) (A) (A)
                 (A) (A) (A) (A) (A) (A) (A) (A) (A) (A) (A) (A)
                 (A) (A) (A) (A) (A) (A) (A) (A) (A) (A) (A) (A)
                 (A) (A) (A) (A) (A) (A) (A) (A) (A) (A) (A) (A)
                 (A) (A) (A) (A) (A) (A) (A) (A) (A) (A) (A) (A)
                 (A) (A) (A) (A) (A) (A) (A) (A) (A) (A) (A) (A)
                 (A) (A) (A) (A) (A) (A) (A) (A) (A) (A) (A) (A)
                 (A) (A) (A) (A) (A) (A) (A) (A) (A) (A) (A) (A)
                 (A) (A) (A) (A) (A) (A) (A) (A) (A) (A) (A) (A)
                 (A) (A) (A) (A) (A) (A) (A) (A) (A) (A) (A) (A)
                 (A) (A) (A) (A) (A) (A) (A) (A) (A) (A) (A) (A)
                 (A) (A) (A) (A) (A) (A) (A) (A) (A) (A) (A) (A)
                 (A) (A) (A) (A) (A) (A) (A) (A) (A) (A) (A) (A)
                 (A) (A) (A) (A) (A) (A) (A) (A) (A) (A) (A) (A)
                 (A) (A) (A) (A) (A) (A) (A) (A) (A) (A) (A) (A)
                 (A) (A) (A) (A) (A) (A) (A) (A) (A) (A) (A) (A)
                 (A) (A) (A) (A) (A) (A) (A) (A) (A) (A) (A) (A)
                 (A) (A) (A) (A) (A) (A) (A) (A) (A) (A) (A) (A)
                 (A) (A) (A) (A) (A) (A) (A) (A) (A) (A) (A) (A)
                 (A) (A) (A) (A) (A) (A) (A) (A) (A) (A) (A) (A)
                 (A) (A) (A) (A) (A) (A) (A) (A) (A) (A) (A) (A)
                 (A) (A) (A) (A) (A) (A) (A) (A) (A) (A) (A) (A)
                 (A) (A) (A) (A) (A) (A) (A) (A) (A) (A) (A) (A)
                 (A) (A) (A) (A) (A) (A) (A) (A) (A) (A) (A) (A)
                 (A) (A) (A) (A) (A) (A) (A) (A) (A) (A) (A) (A)
                 (A) (A) (A) (A) (A) (A) (A) (A) (A) (A) (A) (A)
                 (A) (A) (A) (A) (A) (A) (A) (A) (A) (A) (A) (A)
                 (A) (A) (A) (A) (A) (A) (A) (A) (A) (A) (A) (A)
                 (A) (A) (A) (A) (A) (A) (A) (A) (A) (A) (A) (A)
                 (A) (A) (A) (A) (A) (A) (A) (A) (A) (A) (A) (A)
                 (A) (A) (A) (A) (A) (A) (A) (A) (A) (A) (A) (A)
                 (A) (A) (A) (A) (A) (A) (A) (A) (A) (A) (A) (A)
                 (A) (A) (A) (A) (A) (A) (A) (A) (A) (A) (A) (A)
                 (A) (A) (A) (A) (A) (A) (A) (A) (A) (A) (A) (A)
                 (A) (A) (A) (A) (A) (A) (A) (A) (A) (A) (A) (A)
                 (A) (A) (A) (A) (A) (A) (A) (A) (A) (A) (A) (A)
                 (A) (A) (A) (A) (A) (A) (A) (A) (A) (A) (A) (A)
                 (A) (A) (A) (A) (A) (A) (A) (A) (A) (A) (A) (A)
                 (A) (A) (A) (A) (A) (A) (A) (A) (A) (A) (A) (A)
                 (A) (A) (A) (A) (A) (A) (A) (A) (A) (A) (A) (A)
                 (A) (A) (A) (A) (A) (A) (A)
 The electronic state is 1-A.
 Alpha  occ. eigenvalues --  -19.39641 -19.38482 -19.37751 -19.37276 -19.36431
 Alpha  occ. eigenvalues --  -14.67034 -14.58202 -10.50070 -10.49689 -10.47307
 Alpha  occ. eigenvalues --  -10.46798 -10.46390 -10.46053 -10.43568 -10.43140
 Alpha  occ. eigenvalues --  -10.41618 -10.40759  -1.25190  -1.23585  -1.23147
 Alpha  occ. eigenvalues --   -1.22163  -1.21079  -1.20415  -1.17559  -1.07824
 Alpha  occ. eigenvalues --   -1.04022  -1.00625  -0.95777  -0.90065  -0.89603
 Alpha  occ. eigenvalues --   -0.88488  -0.82030  -0.79840  -0.79505  -0.74886
 Alpha  occ. eigenvalues --   -0.74412  -0.74009  -0.73587  -0.72824  -0.72252
 Alpha  occ. eigenvalues --   -0.71763  -0.70644  -0.69620  -0.68183  -0.67380
 Alpha  occ. eigenvalues --   -0.65568  -0.64402  -0.63761  -0.62872  -0.61604
 Alpha  occ. eigenvalues --   -0.60779  -0.60056  -0.58820  -0.57975  -0.57385
 Alpha  occ. eigenvalues --   -0.57316  -0.56623  -0.56241  -0.55723  -0.54084
 Alpha  occ. eigenvalues --   -0.52896  -0.52456  -0.52226  -0.52049  -0.51314
 Alpha  occ. eigenvalues --   -0.51067  -0.49782  -0.48740  -0.44618
 Alpha virt. eigenvalues --   -0.13286  -0.10323  -0.06394  -0.05233  -0.05050
 Alpha virt. eigenvalues --   -0.04305  -0.03496  -0.02995  -0.02930  -0.02767
 Alpha virt. eigenvalues --   -0.01846  -0.01628  -0.01007  -0.00715  -0.00604
 Alpha virt. eigenvalues --   -0.00158   0.00422   0.00671   0.01049   0.01364
 Alpha virt. eigenvalues --    0.01643   0.01885   0.02424   0.02691   0.03014
 Alpha virt. eigenvalues --    0.03133   0.03608   0.03696   0.03797   0.04453
 Alpha virt. eigenvalues --    0.04773   0.05015   0.05383   0.05487   0.05675
 Alpha virt. eigenvalues --    0.06031   0.06429   0.06829   0.06958   0.06997
 Alpha virt. eigenvalues --    0.07299   0.07490   0.07633   0.08039   0.08309
 Alpha virt. eigenvalues --    0.08617   0.08967   0.09373   0.09669   0.09841
 Alpha virt. eigenvalues --    0.09932   0.10355   0.10781   0.10910   0.11241
 Alpha virt. eigenvalues --    0.11504   0.11818   0.12036   0.12262   0.12544
 Alpha virt. eigenvalues --    0.12894   0.13584   0.13648   0.13896   0.14072
 Alpha virt. eigenvalues --    0.14603   0.14974   0.15025   0.15631   0.15941
 Alpha virt. eigenvalues --    0.16065   0.16281   0.16429   0.16705   0.16982
 Alpha virt. eigenvalues --    0.17318   0.17360   0.17585   0.17803   0.18293
 Alpha virt. eigenvalues --    0.18575   0.18768   0.18985   0.19107   0.19756
 Alpha virt. eigenvalues --    0.20077   0.20161   0.20288   0.20732   0.21139
 Alpha virt. eigenvalues --    0.21292   0.21544   0.21751   0.22185   0.22312
 Alpha virt. eigenvalues --    0.22412   0.23012   0.23174   0.23795   0.23932
 Alpha virt. eigenvalues --    0.24252   0.24629   0.24959   0.25232   0.25636
 Alpha virt. eigenvalues --    0.25675   0.26157   0.26457   0.26771   0.27073
 Alpha virt. eigenvalues --    0.27541   0.27639   0.28209   0.28521   0.28717
 Alpha virt. eigenvalues --    0.29175   0.29324   0.30193   0.30337   0.30616
 Alpha virt. eigenvalues --    0.31018   0.31366   0.31812   0.32448   0.32619
 Alpha virt. eigenvalues --    0.33138   0.33404   0.33691   0.33833   0.34265
 Alpha virt. eigenvalues --    0.34739   0.34860   0.35822   0.36142   0.36320
 Alpha virt. eigenvalues --    0.36649   0.36794   0.37494   0.37696   0.37921
 Alpha virt. eigenvalues --    0.38284   0.38548   0.38970   0.39423   0.39747
 Alpha virt. eigenvalues --    0.40206   0.40430   0.40985   0.41496   0.41880
 Alpha virt. eigenvalues --    0.42659   0.42793   0.43014   0.43533   0.43691
 Alpha virt. eigenvalues --    0.44326   0.44608   0.44849   0.45213   0.45897
 Alpha virt. eigenvalues --    0.46142   0.46336   0.46683   0.47055   0.47205
 Alpha virt. eigenvalues --    0.47755   0.48304   0.48441   0.48786   0.49201
 Alpha virt. eigenvalues --    0.49806   0.50387   0.50616   0.51044   0.51401
 Alpha virt. eigenvalues --    0.51929   0.52111   0.52542   0.52606   0.52839
 Alpha virt. eigenvalues --    0.53674   0.53768   0.53939   0.54278   0.54622
 Alpha virt. eigenvalues --    0.54759   0.55058   0.55639   0.56255   0.56908
 Alpha virt. eigenvalues --    0.57006   0.57198   0.57499   0.57677   0.58183
 Alpha virt. eigenvalues --    0.58415   0.59152   0.59388   0.59591   0.60438
 Alpha virt. eigenvalues --    0.61057   0.61276   0.61544   0.61899   0.62098
 Alpha virt. eigenvalues --    0.62543   0.63114   0.63323   0.64119   0.64255
 Alpha virt. eigenvalues --    0.64821   0.65104   0.65338   0.65989   0.66576
 Alpha virt. eigenvalues --    0.66978   0.67270   0.67738   0.68413   0.68524
 Alpha virt. eigenvalues --    0.68703   0.69288   0.69817   0.70343   0.70643
 Alpha virt. eigenvalues --    0.71261   0.71355   0.71605   0.71997   0.72836
 Alpha virt. eigenvalues --    0.72959   0.73724   0.73964   0.74407   0.74938
 Alpha virt. eigenvalues --    0.75482   0.75924   0.76403   0.76563   0.77113
 Alpha virt. eigenvalues --    0.77619   0.78332   0.78707   0.78985   0.79286
 Alpha virt. eigenvalues --    0.79839   0.80559   0.80949   0.81549   0.81786
 Alpha virt. eigenvalues --    0.82288   0.82642   0.83494   0.84033   0.84348
 Alpha virt. eigenvalues --    0.85087   0.85619   0.86308   0.87224   0.87519
 Alpha virt. eigenvalues --    0.88125   0.88376   0.88868   0.90205   0.90816
 Alpha virt. eigenvalues --    0.91574   0.91732   0.92317   0.92934   0.93285
 Alpha virt. eigenvalues --    0.93989   0.94602   0.95073   0.95339   0.96104
 Alpha virt. eigenvalues --    0.97115   0.97939   0.99598   1.00073   1.01062
 Alpha virt. eigenvalues --    1.01203   1.01661   1.02989   1.04001   1.04509
 Alpha virt. eigenvalues --    1.04939   1.05631   1.06049   1.06480   1.07459
 Alpha virt. eigenvalues --    1.08027   1.08670   1.09481   1.09902   1.10420
 Alpha virt. eigenvalues --    1.11694   1.12308   1.12877   1.13661   1.13724
 Alpha virt. eigenvalues --    1.14893   1.15271   1.16011   1.17058   1.17879
 Alpha virt. eigenvalues --    1.18187   1.18560   1.19709   1.20459   1.21279
 Alpha virt. eigenvalues --    1.21741   1.22425   1.23792   1.24430   1.25847
 Alpha virt. eigenvalues --    1.26140   1.27683   1.28857   1.29063   1.29593
 Alpha virt. eigenvalues --    1.30265   1.31691   1.32759   1.33324   1.34212
 Alpha virt. eigenvalues --    1.34835   1.35236   1.35794   1.36552   1.37401
 Alpha virt. eigenvalues --    1.38231   1.38692   1.40052   1.40848   1.41873
 Alpha virt. eigenvalues --    1.42894   1.43934   1.44451   1.44789   1.45803
 Alpha virt. eigenvalues --    1.46872   1.48019   1.48507   1.49719   1.49951
 Alpha virt. eigenvalues --    1.50628   1.50985   1.53031   1.53141   1.54477
 Alpha virt. eigenvalues --    1.55633   1.56221   1.56748   1.58095   1.59453
 Alpha virt. eigenvalues --    1.59947   1.60550   1.61350   1.62547   1.63003
 Alpha virt. eigenvalues --    1.63517   1.64132   1.64332   1.65262   1.65489
 Alpha virt. eigenvalues --    1.67015   1.67662   1.68075   1.68832   1.69783
 Alpha virt. eigenvalues --    1.71462   1.72162   1.72612   1.72718   1.73413
 Alpha virt. eigenvalues --    1.73933   1.74944   1.76571   1.77101   1.77715
 Alpha virt. eigenvalues --    1.78258   1.79242   1.80440   1.80650   1.81027
 Alpha virt. eigenvalues --    1.81645   1.82173   1.82762   1.83032   1.84253
 Alpha virt. eigenvalues --    1.84548   1.86257   1.86523   1.87129   1.87663
 Alpha virt. eigenvalues --    1.88456   1.89298   1.89738   1.90559   1.90887
 Alpha virt. eigenvalues --    1.91354   1.92507   1.93646   1.93831   1.94565
 Alpha virt. eigenvalues --    1.94931   1.95719   1.96828   1.97338   1.98834
 Alpha virt. eigenvalues --    1.99206   2.00369   2.00619   2.00827   2.01885
 Alpha virt. eigenvalues --    2.02752   2.03206   2.04573   2.05671   2.05891
 Alpha virt. eigenvalues --    2.06902   2.08508   2.08884   2.10444   2.11450
 Alpha virt. eigenvalues --    2.11880   2.12397   2.13264   2.14304   2.14847
 Alpha virt. eigenvalues --    2.15384   2.15469   2.16947   2.17475   2.18731
 Alpha virt. eigenvalues --    2.19627   2.20234   2.22151   2.24176   2.24351
 Alpha virt. eigenvalues --    2.24864   2.25112   2.26610   2.27356   2.27719
 Alpha virt. eigenvalues --    2.28386   2.29543   2.30497   2.31196   2.32427
 Alpha virt. eigenvalues --    2.32895   2.34175   2.35182   2.35822   2.37664
 Alpha virt. eigenvalues --    2.38571   2.39262   2.41012   2.41408   2.42346
 Alpha virt. eigenvalues --    2.42742   2.44620   2.45721   2.45842   2.46328
 Alpha virt. eigenvalues --    2.48675   2.50227   2.51020   2.52647   2.53861
 Alpha virt. eigenvalues --    2.56228   2.56669   2.57084   2.58197   2.58651
 Alpha virt. eigenvalues --    2.60468   2.61104   2.61837   2.63424   2.64523
 Alpha virt. eigenvalues --    2.65181   2.67774   2.68174   2.68949   2.69459
 Alpha virt. eigenvalues --    2.69708   2.71593   2.73029   2.74071   2.75950
 Alpha virt. eigenvalues --    2.76678   2.77296   2.78766   2.79470   2.80124
 Alpha virt. eigenvalues --    2.82421   2.83196   2.84052   2.85336   2.87328
 Alpha virt. eigenvalues --    2.89639   2.90760   2.91400   2.92392   2.94556
 Alpha virt. eigenvalues --    2.96247   2.97361   2.99781   3.03034   3.05286
 Alpha virt. eigenvalues --    3.09490   3.11996   3.19421   3.23825   3.24804
 Alpha virt. eigenvalues --    3.29493   3.31071   3.35649   3.36985   3.38252
 Alpha virt. eigenvalues --    3.39469   3.39997   3.41711   3.43951   3.47177
 Alpha virt. eigenvalues --    3.48634   3.49609   3.52441   3.53481   3.56066
 Alpha virt. eigenvalues --    3.60374   3.62180   3.65492   3.66768   3.69936
 Alpha virt. eigenvalues --    3.74900   3.79437   3.83629   3.91358   3.94615
 Alpha virt. eigenvalues --    3.95451   4.01332   4.04246   4.09563   4.11700
 Alpha virt. eigenvalues --    4.37836   4.99918
          Condensed to atoms (all electrons):
               1          2          3          4          5          6
     1  C   30.034296 -12.960193  -1.955634  -0.528081   4.513943  -8.926524
     2  C  -12.960193  29.535322  -4.817528  -0.135489  -1.861022   2.843640
     3  C   -1.955634  -4.817528  17.876514  -1.499689  -2.071956   0.314094
     4  N   -0.528081  -0.135489  -1.499689   8.204338   0.042359   0.081198
     5  C    4.513943  -1.861022  -2.071956   0.042359  13.250904  -5.649485
     6  C   -8.926524   2.843640   0.314094   0.081198  -5.649485  16.223616
     7  C   -2.280200 -11.199390  -2.370118   1.278834  -1.538940   1.188808
     8  N   -0.403391   2.415429   0.615409  -0.171855   0.103169  -0.207888
     9  C   -0.073624  -0.642802  -0.140205   0.056276  -0.052010  -0.022142
    10  C   -0.028667   0.439271  -0.021617   0.014567   0.020362  -0.036795
    11  C   -0.256795   0.055136  -0.911074   0.055953  -0.122805   0.099705
    12  O    0.075490  -0.247286   0.215421  -0.299237   0.054657  -0.012249
    13  O   -0.013108   0.016193  -0.021865  -0.008557   0.003732  -0.000837
    14  O   -0.011299  -0.040917  -0.100339   0.011948  -0.012095   0.009215
    15  H    0.020518  -0.187789  -0.021915   0.002741  -0.001705  -0.000347
    16  H    0.001947   0.056830   0.020313  -0.003032   0.002555  -0.002289
    17  H    0.003468  -0.133553  -0.014766   0.005382  -0.001302  -0.001070
    18  H   -0.075753   0.416517   0.317835  -0.017469  -0.003592  -0.002199
    19  H    0.060465   0.078458  -0.256049   0.029598   0.027689  -0.022292
    20  H    0.030393   0.153933   0.034212  -0.000100  -0.001022  -0.000094
    21  H    0.148266   1.337076  -0.242991  -0.010742   0.068789  -0.023307
    22  H   -0.165659  -1.684715  -0.087645  -0.183893  -0.427179   0.158393
    23  H    0.169743   0.253270  -0.038897  -0.006057  -1.060785   0.300069
    24  H    0.935773  -0.309142  -0.076742  -0.026082   0.655245  -1.561929
    25  H   -3.416539   1.697422   0.108381  -0.056679  -0.499619   1.208750
    26  C   -0.373239   0.809671   0.072554  -0.070519  -0.042601   0.080989
    27  H    0.044190  -0.433505   0.672156  -0.031875  -0.532021  -0.164976
    28  H    0.051326  -0.198540  -0.157446   0.046677   0.005831  -0.005198
    29  H    0.000461   0.018558   0.011956  -0.001761   0.001590  -0.000259
    30  H   -0.016022   0.021006  -0.029538   0.020269  -0.016798   0.013050
    31  H    0.003013   0.006220   0.009229  -0.007010  -0.013125   0.000531
    32  H    0.002469   0.001619  -0.008462   0.004332   0.001810  -0.001025
    33  H   -0.016469  -0.000250   0.036578   0.000562  -0.000830   0.003450
    34  H   -0.002578   0.005408   0.013940  -0.020764   0.009419   0.000654
    35  O    0.018524  -0.028558   0.001634  -0.023405   0.096693  -0.096499
    36  H   -0.006620   0.006770  -0.005460   0.013178  -0.023588   0.021861
    37  H   -0.012400   0.046493  -0.082556  -0.000783  -0.002715   0.011342
    38  H   -0.057148  -0.105359   0.147523  -0.002306  -0.063072   0.077013
    39  H    0.019393   0.190237   0.021502  -0.006975   0.019806  -0.020013
    40  O    0.001143   0.004548  -0.002082   0.006513   0.005565  -0.000055
    41  H    0.000124   0.000138   0.000001  -0.000281  -0.000482  -0.000360
    42  H   -0.001363  -0.001602   0.002742   0.000155   0.000409   0.002641
               7          8          9         10         11         12
     1  C   -2.280200  -0.403391  -0.073624  -0.028667  -0.256795   0.075490
     2  C  -11.199390   2.415429  -0.642802   0.439271   0.055136  -0.247286
     3  C   -2.370118   0.615409  -0.140205  -0.021617  -0.911074   0.215421
     4  N    1.278834  -0.171855   0.056276   0.014567   0.055953  -0.299237
     5  C   -1.538940   0.103169  -0.052010   0.020362  -0.122805   0.054657
     6  C    1.188808  -0.207888  -0.022142  -0.036795   0.099705  -0.012249
     7  C   30.862201  -6.853010  -0.012645  -0.040523  -1.179758  -0.002813
     8  N   -6.853010  15.740017  -0.252606  -0.275407  -0.967263   0.003026
     9  C   -0.012645  -0.252606   5.934960  -0.016743   0.745401   0.001722
    10  C   -0.040523  -0.275407  -0.016743   6.304388  -1.064778  -0.001876
    11  C   -1.179758  -0.967263   0.745401  -1.064778   8.622266  -0.002869
    12  O   -0.002813   0.003026   0.001722  -0.001876  -0.002869   8.639052
    13  O    0.011993   0.001648   0.001911   0.000844  -0.005355  -0.070591
    14  O    0.072611  -0.075861   0.041469  -0.021178   0.035925   0.000120
    15  H    0.662752  -1.124159  -0.144990   0.111800   0.078013   0.000363
    16  H   -0.138931  -0.104636   0.147174  -0.232262   0.235203  -0.000116
    17  H    0.266371   0.101130  -0.031050  -0.402029   0.247471  -0.000218
    18  H   -0.070475   0.436187  -0.203077   0.173966  -1.113517   0.000251
    19  H   -0.132589  -0.085605   0.015541   0.345649  -0.176810  -0.004149
    20  H    0.066838  -0.262304  -0.324591   0.005392   0.017633   0.000016
    21  H   -3.164004  -0.320212  -0.041167  -0.055893   0.706020   0.000174
    22  H    0.053544  -0.291448   0.060045  -0.036118   0.008287   0.107567
    23  H   -0.025166   0.012521  -0.001262   0.001271   0.008173   0.022897
    24  H    0.069758  -0.003996   0.000824   0.000119  -0.003938  -0.001235
    25  H   -0.023060   0.041744  -0.007602  -0.005839  -0.022697   0.001190
    26  C   -1.314918   1.247386  -0.246633  -0.008029  -0.185503   0.001040
    27  H   -0.140903  -0.007066  -0.019188  -0.002382  -0.036504  -0.177534
    28  H    0.630180  -0.290479  -0.112658   0.013387  -0.008680  -0.011174
    29  H   -0.042520  -0.026286   0.020098  -0.009150   0.020876   0.001599
    30  H    0.015604   0.001453  -0.000039   0.000061  -0.001973   0.261659
    31  H   -0.001409   0.000402   0.000426  -0.000381   0.002210   0.285019
    32  H    0.000190   0.001381  -0.000721  -0.000668   0.000143   0.007732
    33  H    0.018538  -0.021098   0.003342   0.011023  -0.002981  -0.007066
    34  H   -0.003305   0.000474   0.000028   0.000167   0.000025   0.018124
    35  O   -0.000160  -0.000540  -0.000078  -0.000005  -0.000553  -0.023566
    36  H    0.002032  -0.000183   0.000012  -0.000019  -0.000039  -0.004942
    37  H    0.156371  -0.253987  -0.009292   0.068994  -0.069034  -0.000127
    38  H    0.082181   0.076002  -0.072319  -0.045569   0.072552   0.001841
    39  H   -0.332492  -0.502071   0.114753  -0.004574   0.058461  -0.000002
    40  O    0.000313  -0.000085   0.000042   0.000004   0.000655  -0.063508
    41  H   -0.000160  -0.000070  -0.000006  -0.000003   0.000035   0.003267
    42  H    0.003016   0.000170   0.000093   0.000253  -0.000442   0.010758
              13         14         15         16         17         18
     1  C   -0.013108  -0.011299   0.020518   0.001947   0.003468  -0.075753
     2  C    0.016193  -0.040917  -0.187789   0.056830  -0.133553   0.416517
     3  C   -0.021865  -0.100339  -0.021915   0.020313  -0.014766   0.317835
     4  N   -0.008557   0.011948   0.002741  -0.003032   0.005382  -0.017469
     5  C    0.003732  -0.012095  -0.001705   0.002555  -0.001302  -0.003592
     6  C   -0.000837   0.009215  -0.000347  -0.002289  -0.001070  -0.002199
     7  C    0.011993   0.072611   0.662752  -0.138931   0.266371  -0.070475
     8  N    0.001648  -0.075861  -1.124159  -0.104636   0.101130   0.436187
     9  C    0.001911   0.041469  -0.144990   0.147174  -0.031050  -0.203077
    10  C    0.000844  -0.021178   0.111800  -0.232262  -0.402029   0.173966
    11  C   -0.005355   0.035925   0.078013   0.235203   0.247471  -1.113517
    12  O   -0.070591   0.000120   0.000363  -0.000116  -0.000218   0.000251
    13  O    7.843374  -0.038786  -0.000244  -0.000028   0.000403  -0.000093
    14  O   -0.038786   8.008167   0.026397  -0.003970   0.007803   0.002934
    15  H   -0.000244   0.026397   2.895637   0.125247  -0.318101  -0.039725
    16  H   -0.000028  -0.003970   0.125247   2.102656  -0.615397  -0.313125
    17  H    0.000403   0.007803  -0.318101  -0.615397   2.242204   0.182197
    18  H   -0.000093   0.002934  -0.039725  -0.313125   0.182197   2.638083
    19  H   -0.001532  -0.018744   0.052773   0.203165  -0.433261  -0.673573
    20  H   -0.000130   0.002765  -0.572476  -0.249833   0.194868   0.063610
    21  H    0.000285  -0.002612   0.091410   0.064643  -0.060609  -0.351926
    22  H    0.023817   0.081674  -0.019015  -0.006908   0.021518   0.078565
    23  H   -0.000385  -0.000728  -0.000003   0.000130  -0.000045   0.001140
    24  H    0.000177   0.000280   0.000077  -0.000079   0.000057  -0.002337
    25  H   -0.000340  -0.001001  -0.002449   0.002866  -0.000933   0.013483
    26  C    0.001762  -0.007266  -0.168456  -0.016974   0.011344   0.078940
    27  H   -0.003423  -0.006316  -0.001609  -0.000033   0.000874  -0.001437
    28  H    0.002367   0.088525   0.065793  -0.002307   0.017663  -0.022006
    29  H    0.006753   0.373333   0.001517   0.000997  -0.001008   0.000729
    30  H    0.011623  -0.003000   0.000035   0.000002   0.000124  -0.000227
    31  H   -0.007193   0.000916   0.000022  -0.000007  -0.000152   0.000024
    32  H    0.360212  -0.000884  -0.000207  -0.000020  -0.000041   0.000043
    33  H    0.289275   0.038778   0.002075   0.000153  -0.000336  -0.000316
    34  H    0.002831  -0.000251   0.000016   0.000004   0.000017   0.000067
    35  O   -0.000739   0.000068  -0.000009  -0.000000  -0.000003  -0.000043
    36  H   -0.000047   0.000032  -0.000001  -0.000001  -0.000000  -0.000010
    37  H    0.002617   0.001178  -0.008839  -0.004788   0.012296   0.002615
    38  H   -0.008552   0.014881   0.009743   0.000413  -0.006704  -0.001968
    39  H    0.000009  -0.004970   0.029276   0.006044  -0.006114   0.008083
    40  O   -0.001042   0.000446   0.000005   0.000004  -0.000040   0.000092
    41  H    0.000074   0.000011   0.000005   0.000002   0.000006  -0.000003
    42  H   -0.000124  -0.000063  -0.000003  -0.000001   0.000016  -0.000030
              19         20         21         22         23         24
     1  C    0.060465   0.030393   0.148266  -0.165659   0.169743   0.935773
     2  C    0.078458   0.153933   1.337076  -1.684715   0.253270  -0.309142
     3  C   -0.256049   0.034212  -0.242991  -0.087645  -0.038897  -0.076742
     4  N    0.029598  -0.000100  -0.010742  -0.183893  -0.006057  -0.026082
     5  C    0.027689  -0.001022   0.068789  -0.427179  -1.060785   0.655245
     6  C   -0.022292  -0.000094  -0.023307   0.158393   0.300069  -1.561929
     7  C   -0.132589   0.066838  -3.164004   0.053544  -0.025166   0.069758
     8  N   -0.085605  -0.262304  -0.320212  -0.291448   0.012521  -0.003996
     9  C    0.015541  -0.324591  -0.041167   0.060045  -0.001262   0.000824
    10  C    0.345649   0.005392  -0.055893  -0.036118   0.001271   0.000119
    11  C   -0.176810   0.017633   0.706020   0.008287   0.008173  -0.003938
    12  O   -0.004149   0.000016   0.000174   0.107567   0.022897  -0.001235
    13  O   -0.001532  -0.000130   0.000285   0.023817  -0.000385   0.000177
    14  O   -0.018744   0.002765  -0.002612   0.081674  -0.000728   0.000280
    15  H    0.052773  -0.572476   0.091410  -0.019015  -0.000003   0.000077
    16  H    0.203165  -0.249833   0.064643  -0.006908   0.000130  -0.000079
    17  H   -0.433261   0.194868  -0.060609   0.021518  -0.000045   0.000057
    18  H   -0.673573   0.063610  -0.351926   0.078565   0.001140  -0.002337
    19  H    2.334178  -0.059037   0.228522  -0.206644   0.000815   0.000107
    20  H   -0.059037   2.492780  -0.100423   0.013344   0.000053  -0.000313
    21  H    0.228522  -0.100423   3.727058  -0.034138   0.001323  -0.003385
    22  H   -0.206644   0.013344  -0.034138   5.147627  -0.019266  -0.006123
    23  H    0.000815   0.000053   0.001323  -0.019266   2.692309  -0.121863
    24  H    0.000107  -0.000313  -0.003385  -0.006123  -0.121863   2.135157
    25  H   -0.004424   0.002682  -0.179961  -0.011349  -0.021512  -0.129908
    26  C   -0.032572  -0.032127  -0.056918   0.034841   0.004340  -0.006671
    27  H   -0.001810   0.000402   0.006320  -0.134176  -0.377511   0.030530
    28  H    0.015385   0.021595   0.007254  -0.073451  -0.000108   0.000490
    29  H    0.008413  -0.000058   0.001042  -0.001875   0.000022  -0.000049
    30  H   -0.000079  -0.000179   0.000347  -0.006487   0.004064   0.000227
    31  H    0.001382   0.000027  -0.000100  -0.000176  -0.000283  -0.000102
    32  H   -0.000039   0.000028  -0.000103   0.003786  -0.000275  -0.000040
    33  H    0.000773   0.000081   0.000847  -0.047418  -0.000073   0.000502
    34  H   -0.000398   0.000001  -0.000113  -0.000868   0.018140  -0.000742
    35  O    0.000070  -0.000002   0.000078  -0.001514  -0.095424   0.001943
    36  H    0.000038   0.000001   0.000073  -0.001016  -0.006476   0.000762
    37  H   -0.007487   0.011160   0.014433   0.007476   0.000527  -0.000808
    38  H    0.007087   0.004535   0.011712   0.010260  -0.001706  -0.000170
    39  H    0.005818   0.039051   0.095837  -0.000301   0.000705  -0.000431
    40  O    0.001386   0.000001  -0.000031  -0.012607   0.000738  -0.000046
    41  H   -0.000080  -0.000000  -0.000001   0.000409  -0.000194  -0.000003
    42  H    0.000095  -0.000001   0.000041  -0.002310   0.001134   0.000006
              25         26         27         28         29         30
     1  C   -3.416539  -0.373239   0.044190   0.051326   0.000461  -0.016022
     2  C    1.697422   0.809671  -0.433505  -0.198540   0.018558   0.021006
     3  C    0.108381   0.072554   0.672156  -0.157446   0.011956  -0.029538
     4  N   -0.056679  -0.070519  -0.031875   0.046677  -0.001761   0.020269
     5  C   -0.499619  -0.042601  -0.532021   0.005831   0.001590  -0.016798
     6  C    1.208750   0.080989  -0.164976  -0.005198  -0.000259   0.013050
     7  C   -0.023060  -1.314918  -0.140903   0.630180  -0.042520   0.015604
     8  N    0.041744   1.247386  -0.007066  -0.290479  -0.026286   0.001453
     9  C   -0.007602  -0.246633  -0.019188  -0.112658   0.020098  -0.000039
    10  C   -0.005839  -0.008029  -0.002382   0.013387  -0.009150   0.000061
    11  C   -0.022697  -0.185503  -0.036504  -0.008680   0.020876  -0.001973
    12  O    0.001190   0.001040  -0.177534  -0.011174   0.001599   0.261659
    13  O   -0.000340   0.001762  -0.003423   0.002367   0.006753   0.011623
    14  O   -0.001001  -0.007266  -0.006316   0.088525   0.373333  -0.003000
    15  H   -0.002449  -0.168456  -0.001609   0.065793   0.001517   0.000035
    16  H    0.002866  -0.016974  -0.000033  -0.002307   0.000997   0.000002
    17  H   -0.000933   0.011344   0.000874   0.017663  -0.001008   0.000124
    18  H    0.013483   0.078940  -0.001437  -0.022006   0.000729  -0.000227
    19  H   -0.004424  -0.032572  -0.001810   0.015385   0.008413  -0.000079
    20  H    0.002682  -0.032127   0.000402   0.021595  -0.000058  -0.000179
    21  H   -0.179961  -0.056918   0.006320   0.007254   0.001042   0.000347
    22  H   -0.011349   0.034841  -0.134176  -0.073451  -0.001875  -0.006487
    23  H   -0.021512   0.004340  -0.377511  -0.000108   0.000022   0.004064
    24  H   -0.129908  -0.006671   0.030530   0.000490  -0.000049   0.000227
    25  H    3.205274   0.049019  -0.002839  -0.007278   0.000334  -0.000414
    26  C    0.049019   4.869568  -0.003502  -0.138013   0.014228  -0.000120
    27  H   -0.002839  -0.003502   2.166792   0.001671   0.001537  -0.003793
    28  H   -0.007278  -0.138013   0.001671   0.675048  -0.179574   0.007580
    29  H    0.000334   0.014228   0.001537  -0.179574   0.611886  -0.002146
    30  H   -0.000414  -0.000120  -0.003793   0.007580  -0.002146   0.570863
    31  H    0.000013  -0.000127   0.018467  -0.001165   0.000444  -0.201042
    32  H    0.000048  -0.000357  -0.000556   0.000245   0.001162  -0.007743
    33  H   -0.000248  -0.012878   0.003531  -0.006070  -0.003123  -0.002282
    34  H   -0.000000   0.000213  -0.004443  -0.000679  -0.000017   0.000472
    35  O    0.000408  -0.000363   0.021705   0.000195   0.000023  -0.001509
    36  H   -0.000154  -0.000084   0.009506   0.000140  -0.000010   0.001808
    37  H    0.001641   0.193240  -0.000774   0.044495   0.000830   0.000675
    38  H    0.004950   0.063005  -0.004766   0.002959  -0.001725  -0.001698
    39  H    0.006845   0.228388   0.002012  -0.037823   0.005627  -0.000349
    40  O    0.000045  -0.000042  -0.008959   0.000148   0.000258   0.004300
    41  H   -0.000001  -0.000012   0.005045  -0.000017  -0.000013  -0.001804
    42  H    0.000032   0.000009  -0.007747   0.000159  -0.000049   0.001044
              31         32         33         34         35         36
     1  C    0.003013   0.002469  -0.016469  -0.002578   0.018524  -0.006620
     2  C    0.006220   0.001619  -0.000250   0.005408  -0.028558   0.006770
     3  C    0.009229  -0.008462   0.036578   0.013940   0.001634  -0.005460
     4  N   -0.007010   0.004332   0.000562  -0.020764  -0.023405   0.013178
     5  C   -0.013125   0.001810  -0.000830   0.009419   0.096693  -0.023588
     6  C    0.000531  -0.001025   0.003450   0.000654  -0.096499   0.021861
     7  C   -0.001409   0.000190   0.018538  -0.003305  -0.000160   0.002032
     8  N    0.000402   0.001381  -0.021098   0.000474  -0.000540  -0.000183
     9  C    0.000426  -0.000721   0.003342   0.000028  -0.000078   0.000012
    10  C   -0.000381  -0.000668   0.011023   0.000167  -0.000005  -0.000019
    11  C    0.002210   0.000143  -0.002981   0.000025  -0.000553  -0.000039
    12  O    0.285019   0.007732  -0.007066   0.018124  -0.023566  -0.004942
    13  O   -0.007193   0.360212   0.289275   0.002831  -0.000739  -0.000047
[...]
 00005195,-0.00005513,-0.00014712,-0.00001147,0.00043965,0.00030665,-0.
 00002704,0.00002825,0.00025583,0.00005349,0.00005282,-0.00003045,-0.00
 060148,-0.00003056,-0.00002529,-0.00015238,0.00005095,-0.00002322,0.00
 006063,0.00006234,-0.00003153,-0.00003182,-0.00015111,-0.00026713,-0.0
 0000419,0.00014995,-0.00024802,-0.00021501,-0.00008062,0.00007290,-0.0
 0004126,0.00005221,0.00001831,-0.00000338,-0.00000581,0.00000699,0.000
 00633,0.00000445,0.00003578,0.00002328,-0.04596064,0.00496559,-0.05798
 644,0.00013438,0.00016526,-0.00006709,-0.00068974,-0.00066034,0.000105
 84,-0.00001202,0.00000365,-0.00000024,0.00002103,0.00003100,0.00000252
 ,0.00001099,0.00001966,-0.00005722,0.00000108,-0.00001203,0.00005255,-
 0.00003433,0.00012492,-0.00007638,0.00002778,0.00000282,0.00000555,-0.
 00006700,-0.00001306,-0.00001336,0.00000524,-0.00000875,0.00001013,0.0
 1274807,-0.00009372,0.00305776,0.06093657,-0.00774534,0.07064160,-0.00
 002644,-0.00032899,0.00011810,-0.00007237,0.00013971,-0.00009356,-0.00
 020903,-0.00011275,0.00004673,0.00030071,0.00001488,-0.00001887,0.0000
 0688,0.00006589,-0.00005120,-0.00011264,0.00000783,-0.00005898,0.00018
 981,-0.00032286,-0.00024808,0.00280636,0.00385943,0.00025965,0.0031627
 8,0.00245193,-0.00146180,-0.00006304,-0.00006775,-0.00007413,0.0001404
 3,0.00017654,0.00003096,-0.00006131,0.00006320,0.00005846,-0.00017636,
 -0.00011837,0.00012554,-0.00015399,-0.00031845,0.00019044,-0.00013803,
 -0.00013258,0.00004960,-0.00000969,-0.00004133,0.00002893,-0.00006718,
 -0.00002368,0.00001062,-0.00000697,0.00000661,0.00005944,-0.00009179,0
 .00006637,-0.00008746,0.00039263,-0.00078813,0.00095211,-0.00026642,0.
 00043237,0.00071000,0.00006106,-0.00002268,-0.00007486,0.00000375,0.00
 001026,0.00000345,-0.00001712,0.00000367,0.00001332,0.00000165,0.00014
 341,0.00008168,-0.11821423,-0.10034251,0.04554509,-0.00001044,-0.00006
 400,-0.00000451,0.00021863,0.00065650,-0.00045971,-0.00002626,0.000039
 47,0.00000401,0.00009576,-0.00004684,-0.00009076,0.00001305,0.00001058
 ,-0.00003063,0.00003130,0.00005876,0.00000121,0.00008938,0.00010646,-0
 .00007487,0.00002832,-0.00002315,0.00000186,-0.00002370,0.00002839,0.0
 0000070,0.00000639,-0.00000578,0.00000043,0.00556971,0.00883723,-0.004
 35556,-0.01342919,-0.02405459,0.01070286,0.12005934,-0.00006518,-0.000
 10135,0.00010951,0.00003706,-0.00014753,0.00009049,0.00002511,-0.00007
 378,0.00001198,-0.00004523,0.00002259,0.00000320,-0.00000890,0.0000088
 2,0.00000566,-0.00003999,0.00000529,-0.00002599,0.00170130,0.00297584,
 -0.00177717,0.00008574,-0.00077542,0.00657654,-0.00066241,0.00042949,-
 0.00065082,0.00020927,0.00024713,-0.00012451,0.00007705,0.00007556,-0.
 00020972,-0.00008860,0.00002020,0.00005110,-0.00022916,-0.00001030,-0.
 00000043,-0.00041736,-0.00067348,0.00037570,-0.00010272,-0.00018691,-0
 .00009485,0.00002412,0.00003213,0.00011041,0.00005758,-0.00003587,-0.0
 0016448,-0.00000727,-0.00001765,0.00007366,-0.00004458,-0.00003809,-0.
 00010042,0.00103678,-0.00021827,0.00070951,-0.00070909,0.00071610,0.00
 143704,0.00007617,-0.00003180,-0.00002773,0.00001452,0.00000811,-0.000
 00534,-0.00001084,0.00000069,0.00000460,0.00000261,0.00003007,0.000032
 29,-0.09948361,-0.19703358,0.06655907,0.00002354,0.00001547,-0.0000000
 4,0.00059676,0.00128771,-0.00060663,-0.00008625,0.00002320,-0.00010978
 ,0.00008759,-0.00003774,-0.00006106,0.00002071,0.00001258,-0.00003941,
 0.00004506,0.00002758,0.00001495,0.00027337,0.00004793,0.00003522,0.00
 003524,-0.00002150,0.00000713,-0.00004159,0.00001894,-0.00000867,0.000
 00778,-0.00000668,0.00000415,-0.01520378,-0.01852818,0.00976483,0.0031
 7466,0.00327325,-0.00226096,0.10963739,0.20866282,0.00014516,0.0000864
 9,-0.00003583,-0.00017563,-0.00045615,-0.00001913,-0.00004893,0.000190
 87,-0.00005419,-0.00002680,-0.00009402,0.00004297,0.00004513,-0.000034
 43,-0.00002661,0.00003324,-0.00002898,0.00004065,0.00014333,0.00547535
 ,0.00185276,0.01587824,0.02810959,-0.03126176,0.00482150,0.00052571,0.
 00103206,-0.00014393,-0.00040346,0.00046846,-0.00039270,-0.00036461,0.
 00038684,0.00001246,-0.00000467,0.00003244,0.00011052,-0.00006443,0.00
 022243,0.00122407,0.00189088,-0.00004911,-0.00041259,-0.00011326,-0.00
 002055,-0.00002815,-0.00010004,-0.00007913,0.00000988,-0.00002134,0.00
 022013,-0.00010888,-0.00008985,-0.00008243,0.00001558,-0.00006343,0.00
 025691,-0.00143902,-0.00089823,0.00060572,-0.00056069,-0.00184747,0.00
 038669,-0.00013287,0.00000358,0.00001450,0.00000016,-0.00000963,0.0000
 0644,0.00001002,-0.00000462,-0.00000278,0.00001697,-0.00004668,-0.0000
 1039,0.04443157,0.06539120,-0.07825310,-0.00000520,0.00001303,-0.00001
 637,-0.00156964,-0.00280843,-0.00034150,0.00009044,-0.00000770,-0.0000
 3694,0.00000212,-0.00000543,-0.00002880,-0.00000982,0.00000330,-0.0000
 1382,0.00004179,0.00003699,-0.00004420,-0.00028817,0.00002738,-0.00027
 511,-0.00000377,0.00000531,-0.00000963,-0.00000037,-0.00000150,0.00001
 354,0.00000147,-0.00000078,-0.00000366,-0.00722522,-0.00919465,0.00547
 324,-0.00264065,-0.00536968,0.00296004,-0.05182157,-0.07972313,0.09664
 360,-0.00008720,0.00006895,-0.00002866,-0.00000041,-0.00013579,0.00007
 203,0.00001527,0.00018651,-0.00006407,-0.00003917,0.00005868,-0.000032
 22,-0.00007510,-0.00005931,0.00001874,0.00014428,0.00002460,-0.0000157
 1,-0.00003213,0.00003460,0.00000733,-0.00003881,-0.00013357,0.00008577
 ,0.00002794,0.00001071,-0.00001965,0.00000983,0.00002939,-0.00000714,0
 .00006750,0.00003724,-0.00005427,0.00378436,-0.00247977,0.00291673,0.0
 0024158,-0.00011472,0.00025131,-0.00012173,-0.00022187,0.00036551,0.00
 001340,0.00000619,-0.00000491,-0.00000591,-0.00001106,0.00000714,0.000
 02334,-0.00002194,0.00000504,-0.00000813,-0.00000794,0.00000887,-0.000
 02890,0.00000917,0.00000643,-0.00000786,-0.00001844,0.00001723,0.00000
 169,-0.00002204,0.00002015,0.00002748,0.00007369,-0.00012354,-0.000127
 11,-0.00007539,0.00002338,-0.00000487,-0.00000350,0.00000247,0.0000022
 1,-0.00000002,-0.00000198,-0.00001116,0.00001157,-0.00007314,-0.000133
 24,0.00002793,-0.00000173,0.00010201,0.00025477,-0.00010345,0.00010380
 ,0.00000348,-0.00014738,-0.00031243,0.00045888,-0.00047747,-0.00549974
 ,0.00280914,-0.00030310,-0.00007620,-0.00002183,-0.00006777,-0.0000720
 9,0.00003357,-0.00026980,-0.00057161,0.00007432,0.00031185,0.00046807,
 0.00007380,-0.00034888,0.00001006,-0.00013093,0.00018970,0.00000320,0.
 00000615,-0.00000420,0.00000833,0.00000396,-0.00000012,-0.00001109,-0.
 00001889,0.00001259,0.27712315,0.00002573,-0.00000222,-0.00000382,0.00
 004610,-0.00002518,0.00001450,0.00024538,-0.00009785,0.00000272,-0.000
 26106,-0.00030777,0.00017049,-0.00008910,0.00024108,-0.00011067,-0.000
 12363,-0.00004137,0.00002646,0.00011877,-0.00007502,-0.00007552,-0.000
 06236,0.00012053,0.00000440,0.00003102,-0.00000466,0.00002017,0.000004
 50,-0.00003636,0.00000148,0.00000260,0.00004138,0.00001582,-0.00279151
 ,0.00284464,0.00822351,-0.00041043,0.00066312,0.00014151,0.00003399,0.
 00034500,-0.00013784,-0.00001693,0.00001350,0.00001136,-0.00001480,0.0
 0000718,0.00000021,-0.00000764,0.00001520,-0.00000756,0.00000805,0.000
 00823,0.00000129,0.00000316,-0.00003540,0.00001338,-0.00000675,-0.0000
 0293,-0.00000013,-0.00002260,0.00001975,0.00001089,0.00010221,-0.00011
 444,-0.00003212,0.00004902,0.00006227,-0.00006194,-0.00001166,-0.00000
 481,-0.00000933,-0.00000446,-0.00000682,-0.00000269,0.00001583,0.00000
 879,-0.00001414,0.00053214,0.00073988,-0.00050818,-0.00004423,-0.00022
 578,0.00004097,-0.00008405,-0.00009636,0.00007478,0.00102960,-0.002135
 48,0.00079620,0.00364548,-0.00773227,-0.00393028,-0.00014037,-0.000093
 15,0.00013947,-0.00001187,-0.00011037,0.00019437,-0.00030479,0.0001247
 6,-0.00046015,0.00022823,-0.00019377,0.00051892,-0.00008685,-0.0000322
 5,-0.00011490,-0.00001442,0.00001037,0.00000776,-0.00000877,-0.0000151
 7,-0.00001930,0.00000125,-0.00000297,-0.00000324,-0.15467873,0.6357734
 8,0.00002510,-0.00001610,-0.00000484,0.00000478,0.00014398,-0.00005617
 ,-0.00052301,0.00017898,-0.00007006,0.00119630,0.00170514,-0.00038810,
 0.00038246,-0.00038832,0.00012182,0.00012203,0.00014841,-0.00007540,-0
 .00017075,0.00000543,0.00000437,0.00022845,0.00009525,0.00003013,-0.00
 013893,-0.00000738,-0.00007040,0.00000134,0.00002558,0.00003063,0.0000
 5406,-0.00002489,-0.00007677,0.00399805,0.00827533,-0.01462747,0.00133
 050,-0.00044374,-0.00085536,0.00051411,0.00012246,0.00023227,0.0000052
 5,-0.00001026,0.00000478,0.00002726,0.00000713,0.00000152,0.00000248,-
 0.00003350,-0.00001649,0.00001644,0.00002493,-0.00000893,-0.00002607,-
 0.00001249,-0.00004833,0.00003076,0.00001990,0.00000511,0.00005127,0.0
 0001223,0.00000595,-0.00017294,-0.00006783,-0.00005913,-0.00011047,-0.
 00014391,0.00000184,0.00003516,0.00001970,-0.00002469,0.00000955,0.000
 00777,-0.00001221,-0.00005658,-0.00002296,0.00002035,-0.00218659,-0.00
 379293,0.00045119,-0.00012426,-0.00017435,0.00004946,-0.00001194,0.000
 03805,-0.00010615,-0.00196867,0.00222102,0.00103973,-0.00286528,-0.003
 81134,-0.00181533,0.00009469,0.00003154,0.00008700,-0.00072133,-0.0001
 5256,-0.00029456,0.00137893,-0.00127401,0.00038962,-0.00082360,0.00102
 232,-0.00018664,0.00016109,-0.00002358,0.00000365,-0.00001050,-0.00001
 098,0.00000845,0.00002201,-0.00001771,0.00003137,0.00002114,0.00002692
 ,0.00000736,-0.25189409,-0.00748570,0.29320271,0.00002971,-0.00002747,
 0.00001053,0.00001555,0.00004166,-0.00002064,0.00005664,-0.00008733,0.
 00002215,-0.00008613,-0.00012475,0.00004649,-0.00001754,0.00007816,-0.
 00002436,-0.00006928,-0.00002610,0.00001072,0.00004124,-0.00003619,-0.
 00001935,0.00001156,0.00010363,-0.00004797,-0.00001017,-0.00000832,0.0
 0001492,-0.00000384,-0.00002742,0.00000670,-0.00002663,-0.00000577,0.0
 0002365,-0.00044750,-0.00022021,0.00086529,-0.00024670,0.00015813,-0.0
 0013543,0.00006291,0.00023593,-0.00025324,-0.00001093,-0.00000071,0.00
 000660,-0.00000075,0.00000818,-0.00000322,-0.00001434,0.00001527,-0.00
 000540,0.00000447,0.00000667,-0.00000235,0.00001649,-0.00001601,0.0000
 0165,0.00000306,0.00001013,-0.00000998,-0.00000592,0.00001677,-0.00000
 788,0.00003506,-0.00006588,0.00003356,0.00004249,0.00003049,-0.0000086
 8,-0.00000136,-0.00000144,0.00000010,0.00000158,-0.00000175,0.00000103
 ,0.00000860,-0.00000453,0.00003944,0.00021285,0.00027956,-0.00012031,-
 0.00007005,-0.00019993,0.00006513,-0.00009336,-0.00004313,0.00012368,0
 .00049023,-0.00022008,-0.00004430,-0.00006464,0.00011612,-0.00162063,0
 .00004307,-0.00000282,0.00005750,0.00008072,-0.00005814,0.00019625,0.0
 0002317,0.00007398,-0.00002817,-0.00005763,-0.00009788,0.00004855,0.00
 000185,0.00003801,-0.00003016,-0.00000382,-0.00000132,0.00000442,-0.00
 000597,-0.00000384,-0.00000401,0.00000608,0.00001010,-0.00000811,-0.02
 228044,-0.00009747,0.02445567,0.02434585,0.00000157,-0.00000384,-0.000
 00042,-0.00001731,0.00002122,-0.00000874,-0.00004835,0.00000454,-0.000
 00491,0.00011089,0.00013430,-0.00005136,0.00003088,-0.00005162,0.00001
 291,0.00002659,0.00001397,-0.00000298,-0.00003236,0.00002135,0.0000246
 2,0.00002432,-0.00002683,-0.00001351,-0.00001478,0.00000406,-0.0000031
 8,-0.00000204,0.00000824,0.00000010,-0.00000939,-0.00001492,0.00000213
 ,0.00046931,0.00067555,-0.00163285,0.00007692,-0.00020188,-0.00008745,
 0.00001302,-0.00010666,-0.00002254,0.00000427,-0.00000607,-0.00000414,
 0.00000524,-0.00000072,-0.00000060,-0.00000222,-0.00000139,0.00000313,
 -0.00000086,-0.00000289,-0.00000195,0.00000468,0.00000790,-0.00000436,
 0.00000324,0.00000232,-0.00000222,0.00000671,-0.00000397,-0.00000647,-
 0.00003921,0.00001342,0.00003108,-0.00001892,-0.00001640,0.00001252,0.
 00000309,0.00000200,0.00000213,0.00000109,0.00000299,0.00000147,-0.000
 00402,-0.00000220,0.00001397,-0.00017144,-0.00028020,0.00010571,0.0000
 0742,0.00004431,-0.00000216,0.00001929,0.00005544,-0.00000302,-0.00015
 239,0.00022685,0.00028431,-0.00084338,-0.00129742,0.00217566,0.0000382
 6,0.00005959,-0.00004714,0.00000230,0.00005110,0.00000002,0.00006090,-
 0.00007957,0.00010814,-0.00004035,0.00009090,-0.00015011,0.00001838,-0
 .00000368,0.00005438,0.00000513,-0.00000428,-0.00000285,0.00000209,0.0
 0000470,0.00000581,0.00000037,0.00000254,-0.00000088,0.03969126,-0.513
 80474,0.09196214,-0.03376660,0.53197692,-0.00000956,0.00000880,-0.0000
 0246,0.00000837,-0.00002279,0.00000586,0.00001068,0.00001905,-0.000010
 92,-0.00004662,-0.00006368,0.00001343,-0.00000788,-0.00000328,0.000009
 65,-0.00000125,-0.00000222,-0.00000086,0.00000535,0.00002668,0.0000166
 1,-0.00004855,-0.00007138,-0.00000277,0.00003288,0.00000491,0.00001269
 ,0.00000007,-0.00000148,-0.00000380,-0.00000822,-0.00000068,0.00000783
 ,0.00046172,-0.00084819,-0.00291611,-0.00012836,-0.00034745,0.00015166
 ,-0.00016909,-0.00017282,-0.00000648,0.00000439,-0.00000018,-0.0000028
 9,-0.00000471,-0.00000483,0.00000021,0.00000315,0.00000594,0.00000729,
 -0.00000358,-0.00000797,0.00000125,0.00000693,0.00000700,0.00000775,-0
 .00000724,-0.00000565,-0.00000093,-0.00000374,-0.00001071,-0.00000286,
 -0.00000035,0.00004194,0.00001741,0.00001379,0.00001371,0.00000441,-0.
 00000044,0.00000118,0.00000332,-0.00000035,-0.00000014,0.00000320,0.00
 000854,0.00000562,-0.00000478,0.00006306,0.00012489,0.00000753,0.00005
 121,0.00013549,-0.00003179,0.00005095,0.00002544,0.00001033,-0.0000530
 8,0.00085743,-0.00048945,-0.00069545,0.00252207,0.00454370,0.00008675,
 0.00005086,-0.00013964,0.00022888,0.00010146,-0.00003158,0.00003440,0.
 00007213,0.00003465,-0.00002724,-0.00007027,-0.00003305,-0.00001008,0.
 00004109,-0.00000045,0.00000866,0.00000040,-0.00000461,-0.00000368,0.0
 0000984,-0.00000239,-0.00000654,-0.00000794,-0.00000040,0.01397722,0.1
 3132900,-0.05497830,-0.01724426,-0.10254183,0.04878418,0.00002708,-0.0
 0002819,0.00001125,0.00000343,0.00004683,-0.00002598,-0.00006442,-0.00
 002721,0.00001638,0.00005554,0.00002911,-0.00002809,0.00006213,-0.0000
 1607,0.00000977,-0.00005078,-0.00000524,0.00000271,0.00000449,0.000002
 14,0.00000987,0.00000619,0.00001772,-0.00003371,-0.00000454,-0.0000035
 0,0.00000950,-0.00000426,-0.00000503,-0.00000249,-0.00002286,-0.000014
 05,0.00001530,-0.00002096,0.00089943,-0.00115164,-0.00001312,0.0000115
 6,-0.00006712,0.00000825,0.00001081,-0.00006843,-0.00000177,-0.0000036
 9,-0.00000093,0.00000225,0.00000092,-0.00000122,-0.00000565,0.00000706
 ,0.00000125,-0.00000262,-0.00000287,-0.00000007,0.00001019,0.00000806,
 0.00000518,0.00000143,0.00000551,-0.00000669,0.00000097,0.00000400,-0.
 00001014,-0.00001024,0.00001141,0.00003149,0.00007073,0.00003768,-0.00
 000251,0.00000561,0.00000270,0.00000093,0.00000039,0.00000014,0.000003
 30,0.00000383,-0.00000567,0.00002467,-0.00000159,-0.00008087,0.0001005
 4,-0.00001646,-0.00002849,0.00002328,-0.00000986,0.00000404,0.00002883
 ,-0.00005238,-0.00008005,0.00007680,-0.00026473,-0.00121285,0.00139971
 ,0.00001926,-0.00000119,0.00002296,0.00002207,0.,0.00002904,0.00028033
 ,-0.00007130,-0.00010070,-0.00027497,-0.00002855,0.00018944,0.00001393
 ,0.00004754,-0.00013165,0.00000117,-0.00000270,-0.00000033,-0.00000260
 ,0.00000085,0.00000109,0.00000326,0.00000592,-0.00000352,-0.25263219,0
 .15317140,0.22763615,-0.00201618,-0.00546359,0.00342327,0.25486964,-0.
 00003928,0.00001249,0.00000135,-0.00001842,-0.00004249,0.00001665,0.00
 000770,0.00004913,0.00000311,-0.00012959,-0.00020370,-0.00001017,-0.00
 007038,-0.00003999,0.00004386,0.00006291,-0.00001500,-0.00000821,-0.00
 002791,0.00002905,0.00003371,-0.00000409,-0.00006511,-0.00000210,0.000
 00528,0.00000256,-0.00000152,-0.00000204,0.00001395,-0.00000544,0.0000
 0090,-0.00000860,-0.00000277,0.00027215,-0.00190351,0.00211011,-0.0001
 0044,-0.00005910,0.00010720,-0.00008915,-0.00013048,0.00003531,0.00000
 652,-0.00000421,-0.00000549,0.00000203,-0.00000387,0.00000034,0.000004
 72,-0.00000480,0.00000469,-0.00000893,-0.00000813,0.00000240,-0.000000
 87,0.00001849,0.00000274,-0.00000130,-0.00000185,0.00000030,0.00000101
 ,-0.00001034,-0.00000326,0.00001171,0.00005706,-0.00000032,-0.00002315
 ,-0.00000986,0.00004978,-0.00000441,-0.00000398,0.00001321,0.00000138,
 0.00000102,0.00000438,0.00000157,-0.00000089,0.00000015,0.00016239,0.0
 0053112,0.00007719,0.00003805,0.00011533,-0.00002784,0.00002336,0.0000
 1812,-0.00001734,0.00004171,-0.00001515,-0.00022117,-0.00097875,0.0027
 1514,-0.00297919,0.00000747,0.00001531,-0.00002906,0.00008969,0.000047
 92,-0.00001440,-0.00025923,0.00032440,0.00019053,0.00014759,-0.0001785
 7,-0.00036175,0.00001954,0.00001746,0.00010230,0.00000748,-0.00000276,
 -0.00000413,0.00000113,0.00000937,0.00000377,-0.00000407,-0.00000298,0
 .00000103,0.11416714,-0.11584200,-0.08817967,0.03392227,-0.01751494,-0
 .03122143,-0.14724370,0.13209440,0.00000944,-0.00000781,0.00000124,0.0
 0001187,-0.00001287,-0.00000240,0.00005745,-0.00001292,0.00001484,-0.0
 0006068,-0.00009245,0.00005817,0.00000389,0.00006111,-0.00002624,-0.00
 006139,-0.00001153,0.00000571,0.00003640,0.00000283,-0.00000520,-0.000
 04770,-0.00001777,-0.00000923,0.00002705,0.00000296,0.00001474,-0.0000
 0024,-0.00000416,-0.00000827,-0.00001072,0.00000821,0.00001620,-0.0010
 5439,0.00135060,-0.00096235,-0.00016338,0.00002403,0.00006944,-0.00007
 407,-0.00002804,-0.00001679,-0.00000121,0.00000171,-0.00000141,-0.0000
 0661,-0.00000164,0.00000076,0.00000045,0.00000678,0.00000403,-0.000004
 42,-0.00000744,0.00000302,0.00000506,0.00000422,0.00000987,-0.00000597
 ,-0.00000407,-0.00000063,-0.00000854,-0.00000200,-0.00000052,0.0000114
 2,-0.00000350,0.00000630,0.00007241,0.00006155,-0.00001701,-0.00000055
 ,0.00000175,0.00000294,-0.00000416,-0.00000077,0.00000399,0.00001059,0
 .00000504,-0.00000311,0.00017848,0.00018780,-0.00015560,0.00002571,0.0
 0003161,-0.00000915,0.00000876,0.00000193,0.00000865,0.00010671,-0.000
 18611,-0.00000704,0.00292891,-0.00263329,0.00037869,0.00001899,0.00000
 533,-0.00001449,0.00008341,0.00001611,0.00003848,0.00018549,0.00005317
 ,-0.00036610,-0.00012286,-0.00019401,0.00035008,-0.00005970,0.00009021
 ,-0.00011883,0.00000158,0.00000202,-0.00000149,-0.00000499,0.00000183,
 -0.00000522,-0.00000325,-0.00000486,-0.00000133,0.23574381,-0.12878214
 ,-0.22195398,-0.00639555,0.00979544,0.00502354,-0.23143747,0.12029116,
 0.21767568\\0.00000281,-0.00000171,0.00000279,-0.00000030,0.00000492,-
 0.00000358,-0.00000822,0.00000042,0.00000449,0.00000990,-0.00000530,0.
 00001083,-0.00000128,0.00000949,-0.00000353,-0.00000649,-0.00000282,0.
 00000093,-0.00000214,-0.00000497,0.00000384,0.00000738,0.00000844,-0.0
 0000563,-0.00000199,0.00000052,-0.00000202,-0.00000106,-0.00000097,0.0
 0000040,-0.00000016,-0.00000023,-0.00000172,-0.00005435,-0.00000451,0.
 00000964,0.00001057,-0.00001817,-0.00000995,-0.00000051,-0.00000069,0.
 00000457,0.00000121,-0.00000014,0.00000024,-0.00000019,0.00000097,-0.0
 0000070,0.00000053,0.00000098,0.00000009,-0.00000045,0.00000071,-0.000
 00015,0.00000002,0.00000081,0.00000017,0.00000070,-0.00000030,0.000000
 10,-0.00000014,0.00000123,0.00000087,0.00000280,0.00000067,-0.00000136
 ,0.00000076,0.00000082,-0.00000017,-0.00000105,-0.00000090,-0.00000184
 ,-0.00000050,-0.00000065,-0.00000118,0.00000117,-0.00000233,0.00000398
 ,0.00000275,-0.00000617,-0.00001500,-0.00000373,-0.00000516,0.00000406
 ,0.00000070,-0.00000411,-0.00000190,-0.00001187,0.00001981,0.00001409,
 0.00008581,-0.00000717,-0.00000342,-0.00000177,-0.00000043,0.00000124,
 0.00000395,0.00001360,-0.00000329,-0.00000389,0.00000119,0.00000674,0.
 00000040,-0.00000641,-0.00000295,-0.00000042,0.00000009,-0.00000036,-0
 .00000123,-0.00000074,0.00000006,0.00000068,0.00000176,-0.00000042,0.0
 0000106,-0.00000068,-0.00000133,-0.00000710,0.00003144,-0.00004668,-0.
 00000156,-0.00003191,0.00001198,-0.00002280,0.00000859,0.00002606\\\@


 WHAT, THEN, IS TIME?  IF NO ONE ASKS ME, I KNOW WHAT IT IS.
 IF I WISH TO EXPLAIN WHAT IT IS TO HIM WHO ASKS ME, I DO NOT KNOW.
                                   -- ST. AUGUSTINE (FIFTH CENTURY)
 Job cpu time:       1 days 15 hours 57 minutes  6.6 seconds.
 Elapsed time:       0 days  1 hours 25 minutes 41.5 seconds.
 File lengths (MBytes):  RWF=   1444 Int=      0 D2E=      0 Chk=     36 Scr=      8
 Normal termination of Gaussian 16 at Fri Dec  9 16:27:44 2022.
