 Entering Gaussian System, Link 0=g16
 Input=NicPyr5h2bPyCW.gjf
 Output=NicPyr5h2bPyCW.log
 Initial command:
 /sw/contrib/gaussian/g16/A03/g16/l1.exe "/gscratch/scrubbed/gds001/Gau-22164.inp" -scrdir="/gscratch/scrubbed/gds001/"
 Entering Link 1 = /sw/contrib/gaussian/g16/A03/g16/l1.exe PID=     22165.
  
 Copyright (c) 1988,1990,1992,1993,1995,1998,2003,2009,2016,
            Gaussian, Inc.  All Rights Reserved.
  
 This is part of the Gaussian(R) 16 program.  It is based on
 the Gaussian(R) 09 system (copyright 2009, Gaussian, Inc.),
 the Gaussian(R) 03 system (copyright 2003, Gaussian, Inc.),
 the Gaussian(R) 98 system (copyright 1998, Gaussian, Inc.),
 the Gaussian(R) 94 system (copyright 1995, Gaussian, Inc.),
 the Gaussian 92(TM) system (copyright 1992, Gaussian, Inc.),
 the Gaussian 90(TM) system (copyright 1990, Gaussian, Inc.),
 the Gaussian 88(TM) system (copyright 1988, Gaussian, Inc.),
 the Gaussian 86(TM) system (copyright 1986, Carnegie Mellon
 University), and the Gaussian 82(TM) system (copyright 1983,
 Carnegie Mellon University). Gaussian is a federally registered
 trademark of Gaussian, Inc.
  
 This software contains proprietary and confidential information,
 including trade secrets, belonging to Gaussian, Inc.
  
 This software is provided under written license and may be
 used, copied, transmitted, or stored only in accord with that
 written license.
  
 The following legend is applicable only to US Government
 contracts under FAR:
  
                    RESTRICTED RIGHTS LEGEND
  
 Use, reproduction and disclosure by the US Government is
 subject to restrictions as set forth in subparagraphs (a)
 and (c) of the Commercial Computer Software - Restricted
 Rights clause in FAR 52.227-19.
  
 Gaussian, Inc.
 340 Quinnipiac St., Bldg. 40, Wallingford CT 06492
  
  
 ---------------------------------------------------------------
 Warning -- This program may not be used in any manner that
 competes with the business of Gaussian, Inc. or will provide
 assistance to any competitor of Gaussian, Inc.  The licensee
 of this program is prohibited from giving any competitor of
 Gaussian, Inc. access to this program.  By using this program,
 the user acknowledges that Gaussian, Inc. is engaged in the
 business of creating and licensing software in the field of
 computational chemistry and represents and warrants to the
 licensee that it is not a competitor of Gaussian, Inc. and that
 it will not use this program in any manner prohibited above.
 ---------------------------------------------------------------
  

 Cite this work as:
 Gaussian 16, Revision A.03,
 M. J. Frisch, G. W. Trucks, H. B. Schlegel, G. E. Scuseria, 
 M. A. Robb, J. R. Cheeseman, G. Scalmani, V. Barone, 
 G. A. Petersson, H. Nakatsuji, X. Li, M. Caricato, A. V. Marenich, 
 J. Bloino, B. G. Janesko, R. Gomperts, B. Mennucci, H. P. Hratchian, 
 J. V. Ortiz, A. F. Izmaylov, J. L. Sonnenberg, D. Williams-Young, 
 F. Ding, F. Lipparini, F. Egidi, J. Goings, B. Peng, A. Petrone, 
 T. Henderson, D. Ranasinghe, V. G. Zakrzewski, J. Gao, N. Rega, 
 G. Zheng, W. Liang, M. Hada, M. Ehara, K. Toyota, R. Fukuda, 
 J. Hasegawa, M. Ishida, T. Nakajima, Y. Honda, O. Kitao, H. Nakai, 
 T. Vreven, K. Throssell, J. A. Montgomery, Jr., J. E. Peralta, 
 F. Ogliaro, M. J. Bearpark, J. J. Heyd, E. N. Brothers, K. N. Kudin, 
 V. N. Staroverov, T. A. Keith, R. Kobayashi, J. Normand, 
 K. Raghavachari, A. P. Rendell, J. C. Burant, S. S. Iyengar, 
 J. Tomasi, M. Cossi, J. M. Millam, M. Klene, C. Adamo, R. Cammi, 
 J. W. Ochterski, R. L. Martin, K. Morokuma, O. Farkas, 
 J. B. Foresman, and D. J. Fox, Gaussian, Inc., Wallingford CT, 2016.
 
 ******************************************
 Gaussian 16:  ES64L-G16RevA.03 25-Dec-2016
                 9-Dec-2022 
 ******************************************
 %nprocshared=28
 Will use up to   28 processors via shared memory.
 %mem=41GB
 -----------------------------
 # wB97XD/aug-cc-pVDZ opt freq
 -----------------------------
 1/18=20,19=15,26=3,38=1/1,3;
 2/9=110,12=2,17=6,18=5,40=1/2;
 3/5=16,7=10,11=2,25=1,30=1,71=1,74=-58/1,2,3;
 4//1;
 5/5=2,38=5/2;
 6/7=2,8=2,9=2,10=2,28=1/1;
 7//1,2,3,16;
 1/18=20,19=15,26=3/3(2);
 2/9=110/2;
 99//99;
 2/9=110/2;
 3/5=16,7=10,11=2,25=1,30=1,71=1,74=-58/1,2,3;
 4/5=5,16=3,69=1/1;
 5/5=2,38=5/2;
 7//1,2,3,16;
 1/18=20,19=15,26=3/3(-5);
 2/9=110/2;
 6/7=2,8=2,9=2,10=2,19=2,28=1/1;
 99/9=1/99;
 ----
 blah
 ----
 Symbolic Z-matrix:
 Charge =  1 Multiplicity = 1
 C                     1.17292   0.12149  -0.65848 
 C                     0.52221  -1.03977  -0.24318 
 C                     1.30713  -2.07174   0.27113 
 C                     2.68496  -1.89437   0.35358 
 C                     3.2266   -0.67477  -0.04768 
 N                     2.48474   0.32225  -0.54198 
 C                    -0.97975  -1.12396  -0.30444 
 C                    -1.65672  -0.78192  -1.65191 
 C                    -2.82446   0.17189  -1.31461 
 C                    -3.00775   0.03112   0.19131 
 N                    -1.61069  -0.15752   0.68153 
 O                    -0.62499   2.39879   0.63229 
 H                    -3.57811  -0.86627   0.46295 
 H                    -3.74336  -0.07534  -1.85366 
 H                    -2.55874   1.20726  -1.55787 
 H                    -0.94835  -0.31972  -2.34531 
 H                    -2.00904  -1.70606  -2.12087 
 H                    -3.44781   0.90289   0.68523 
 H                    -1.30158  -2.11727   0.03398 
 H                     0.60702   0.94938  -1.09028 
 H                     4.29751  -0.48741   0.03378 
 H                     3.33172  -2.68028   0.73876 
 H                     0.85054  -3.00544   0.6031 
 C                    -1.49683  -0.57481   2.09547 
 H                    -1.14199   0.77831   0.60501 
 H                    -1.01503   3.11754   1.13482 
 H                     0.28462   2.69505   0.39556 
 O                     1.90324   3.02746  -0.05653 
 H                     2.44794   2.26522  -0.3266 
 H                     2.41136   3.63622   0.54166 
 H                    -1.95963   0.18842   2.72786 
 H                    -0.43752  -0.66947   2.35175 
 H                    -2.00787  -1.53384   2.23076 
 O                     1.96973   5.03419  -2.07398 
 H                     1.83156   4.29351  -1.44324 
 H                     2.23503   4.56376  -2.88271 
 O                     2.83977   6.90445  -0.30659 
 H                     2.88774   7.78385  -0.72026 
 H                     2.48965   6.36556  -1.05858 
 O                     3.15812   4.87418   1.43602 
 H                     3.72384   5.2287    2.14467 
 H                     3.06079   5.68838   0.8774 
 
 Add virtual bond connecting atoms O40        and H30        Dist= 3.21D+00.
 Add virtual bond connecting atoms H25        and O12        Dist= 3.21D+00.
 Add virtual bond connecting atoms H42        and O37        Dist= 3.23D+00.
 Add virtual bond connecting atoms O28        and H27        Dist= 3.24D+00.
 Add virtual bond connecting atoms O28        and H35        Dist= 3.55D+00.
 Add virtual bond connecting atoms H39        and O34        Dist= 3.31D+00.

 GradGradGradGradGradGradGradGradGradGradGradGradGradGradGradGradGradGrad
 Berny optimization.
 Initialization pass.
                           ----------------------------
                           !    Initial Parameters    !
                           ! (Angstroms and Degrees)  !
 --------------------------                            --------------------------
 ! Name  Definition              Value          Derivative Info.                !
 --------------------------------------------------------------------------------
 ! R1    R(1,2)                  1.3944         estimate D2E/DX2                !
 ! R2    R(1,6)                  1.3322         estimate D2E/DX2                !
 ! R3    R(1,20)                 1.0918         estimate D2E/DX2                !
 ! R4    R(2,3)                  1.3948         estimate D2E/DX2                !
 ! R5    R(2,7)                  1.5056         estimate D2E/DX2                !
 ! R6    R(3,4)                  1.3916         estimate D2E/DX2                !
 ! R7    R(3,23)                 1.0911         estimate D2E/DX2                !
 ! R8    R(4,5)                  1.3935         estimate D2E/DX2                !
 ! R9    R(4,22)                 1.0883         estimate D2E/DX2                !
 ! R10   R(5,6)                  1.3374         estimate D2E/DX2                !
 ! R11   R(5,21)                 1.0902         estimate D2E/DX2                !
 ! R12   R(7,8)                  1.5463         estimate D2E/DX2                !
 ! R13   R(7,11)                 1.518          estimate D2E/DX2                !
 ! R14   R(7,19)                 1.0976         estimate D2E/DX2                !
 ! R15   R(8,9)                  1.545          estimate D2E/DX2                !
 ! R16   R(8,16)                 1.0937         estimate D2E/DX2                !
 ! R17   R(8,17)                 1.0946         estimate D2E/DX2                !
 ! R18   R(9,10)                 1.5236         estimate D2E/DX2                !
 ! R19   R(9,14)                 1.0936         estimate D2E/DX2                !
 ! R20   R(9,15)                 1.0963         estimate D2E/DX2                !
 ! R21   R(10,11)                1.4925         estimate D2E/DX2                !
 ! R22   R(10,13)                1.0974         estimate D2E/DX2                !
 ! R23   R(10,18)                1.0943         estimate D2E/DX2                !
 ! R24   R(11,24)                1.4786         estimate D2E/DX2                !
 ! R25   R(11,25)                1.0494         estimate D2E/DX2                !
 ! R26   R(12,25)                1.7012         estimate D2E/DX2                !
 ! R27   R(12,26)                0.9598         estimate D2E/DX2                !
 ! R28   R(12,27)                0.9855         estimate D2E/DX2                !
 ! R29   R(24,31)                1.0939         estimate D2E/DX2                !
 ! R30   R(24,32)                1.094          estimate D2E/DX2                !
 ! R31   R(24,33)                1.0951         estimate D2E/DX2                !
 ! R32   R(27,28)                1.7131         estimate D2E/DX2                !
 ! R33   R(28,29)                0.975          estimate D2E/DX2                !
 ! R34   R(28,30)                0.9933         estimate D2E/DX2                !
 ! R35   R(28,35)                1.8791         estimate D2E/DX2                !
 ! R36   R(30,40)                1.7            estimate D2E/DX2                !
 ! R37   R(34,35)                0.9826         estimate D2E/DX2                !
 ! R38   R(34,36)                0.9725         estimate D2E/DX2                !
 ! R39   R(34,39)                1.7533         estimate D2E/DX2                !
 ! R40   R(37,38)                0.973          estimate D2E/DX2                !
 ! R41   R(37,39)                0.9892         estimate D2E/DX2                !
 ! R42   R(37,42)                1.7116         estimate D2E/DX2                !
 ! R43   R(40,41)                0.9736         estimate D2E/DX2                !
 ! R44   R(40,42)                0.9922         estimate D2E/DX2                !
 ! A1    A(2,1,6)              123.9846         estimate D2E/DX2                !
 ! A2    A(2,1,20)             120.4903         estimate D2E/DX2                !
 ! A3    A(6,1,20)             115.5109         estimate D2E/DX2                !
 ! A4    A(1,2,3)              117.6038         estimate D2E/DX2                !
 ! A5    A(1,2,7)              119.9986         estimate D2E/DX2                !
 ! A6    A(3,2,7)              122.3453         estimate D2E/DX2                !
 ! A7    A(2,3,4)              118.9922         estimate D2E/DX2                !
 ! A8    A(2,3,23)             120.652          estimate D2E/DX2                !
 ! A9    A(4,3,23)             120.3558         estimate D2E/DX2                !
 ! A10   A(3,4,5)              118.6416         estimate D2E/DX2                !
 ! A11   A(3,4,22)             121.1532         estimate D2E/DX2                !
 ! A12   A(5,4,22)             120.1966         estimate D2E/DX2                !
 ! A13   A(4,5,6)              122.9062         estimate D2E/DX2                !
 ! A14   A(4,5,21)             120.7103         estimate D2E/DX2                !
 ! A15   A(6,5,21)             116.3831         estimate D2E/DX2                !
 ! A16   A(1,6,5)              117.7867         estimate D2E/DX2                !
 ! A17   A(2,7,8)              117.3775         estimate D2E/DX2                !
 ! A18   A(2,7,11)             110.6477         estimate D2E/DX2                !
 ! A19   A(2,7,19)             109.3025         estimate D2E/DX2                !
 ! A20   A(8,7,11)             104.0766         estimate D2E/DX2                !
 ! A21   A(8,7,19)             109.9074         estimate D2E/DX2                !
 ! A22   A(11,7,19)            104.7158         estimate D2E/DX2                !
 ! A23   A(7,8,9)              106.0937         estimate D2E/DX2                !
 ! A24   A(7,8,16)             111.2479         estimate D2E/DX2                !
 ! A25   A(7,8,17)             109.1183         estimate D2E/DX2                !
 ! A26   A(9,8,16)             111.5328         estimate D2E/DX2                !
 ! A27   A(9,8,17)             111.8059         estimate D2E/DX2                !
 ! A28   A(16,8,17)            107.076          estimate D2E/DX2                !
 ! A29   A(8,9,10)             104.4582         estimate D2E/DX2                !
 ! A30   A(8,9,14)             112.8223         estimate D2E/DX2                !
 ! A31   A(8,9,15)             110.573          estimate D2E/DX2                !
 ! A32   A(10,9,14)            111.421          estimate D2E/DX2                !
 ! A33   A(10,9,15)            109.6191         estimate D2E/DX2                !
 ! A34   A(14,9,15)            107.9262         estimate D2E/DX2                !
 ! A35   A(9,10,11)            102.927          estimate D2E/DX2                !
 ! A36   A(9,10,13)            112.5028         estimate D2E/DX2                !
 ! A37   A(9,10,18)            114.8903         estimate D2E/DX2                !
 ! A38   A(11,10,13)           107.5672         estimate D2E/DX2                !
 ! A39   A(11,10,18)           109.1982         estimate D2E/DX2                !
 ! A40   A(13,10,18)           109.3112         estimate D2E/DX2                !
 ! A41   A(7,11,10)            104.8441         estimate D2E/DX2                !
 ! A42   A(7,11,24)            114.1696         estimate D2E/DX2                !
 ! A43   A(7,11,25)            109.5574         estimate D2E/DX2                !
 ! A44   A(10,11,24)           114.9496         estimate D2E/DX2                !
 ! A45   A(10,11,25)           106.3435         estimate D2E/DX2                !
 ! A46   A(24,11,25)           106.6781         estimate D2E/DX2                !
 ! A47   A(25,12,26)           126.7417         estimate D2E/DX2                !
 ! A48   A(25,12,27)           124.2647         estimate D2E/DX2                !
 ! A49   A(26,12,27)           106.0053         estimate D2E/DX2                !
 ! A50   A(11,24,31)           108.8645         estimate D2E/DX2                !
 ! A51   A(11,24,32)           108.8444         estimate D2E/DX2                !
 ! A52   A(11,24,33)           109.2297         estimate D2E/DX2                !
 ! A53   A(31,24,32)           109.5486         estimate D2E/DX2                !
 ! A54   A(31,24,33)           110.0095         estimate D2E/DX2                !
 ! A55   A(32,24,33)           110.3141         estimate D2E/DX2                !
 ! A56   A(27,28,29)           116.6953         estimate D2E/DX2                !
 ! A57   A(27,28,30)           116.3167         estimate D2E/DX2                !
 ! A58   A(27,28,35)           106.8244         estimate D2E/DX2                !
 ! A59   A(29,28,30)           111.1098         estimate D2E/DX2                !
 ! A60   A(29,28,35)           110.098          estimate D2E/DX2                !
 ! A61   A(30,28,35)            92.9241         estimate D2E/DX2                !
 ! A62   A(35,34,36)           101.978          estimate D2E/DX2                !
 ! A63   A(35,34,39)           104.0245         estimate D2E/DX2                !
 ! A64   A(36,34,39)           140.1808         estimate D2E/DX2                !
 ! A65   A(38,37,39)           100.7557         estimate D2E/DX2                !
 ! A66   A(38,37,42)           158.4124         estimate D2E/DX2                !
 ! A67   A(39,37,42)           100.6336         estimate D2E/DX2                !
 ! A68   A(34,39,37)           163.5236         estimate D2E/DX2                !
 ! A69   A(30,40,41)           154.5977         estimate D2E/DX2                !
 ! A70   A(30,40,42)           104.9683         estimate D2E/DX2                !
 ! A71   A(41,40,42)            99.6706         estimate D2E/DX2                !
 ! A72   L(11,25,12,1,-1)      190.2522         estimate D2E/DX2                !
 ! A73   L(12,27,28,1,-1)      173.6638         estimate D2E/DX2                !
 ! A74   L(28,30,40,34,-1)     172.2514         estimate D2E/DX2                !
 ! A75   L(28,35,34,42,-1)     169.1195         estimate D2E/DX2                !
 ! A76   L(37,42,40,9,-1)      172.3798         estimate D2E/DX2                !
 ! A77   L(11,25,12,1,-2)      180.3874         estimate D2E/DX2                !
 ! A78   L(12,27,28,1,-2)      180.7833         estimate D2E/DX2                !
 ! A79   L(28,30,40,34,-2)     175.3793         estimate D2E/DX2                !
 ! A80   L(28,35,34,42,-2)     173.6818         estimate D2E/DX2                !
 ! A81   L(37,42,40,9,-2)      173.4784         estimate D2E/DX2                !
 ! D1    D(6,1,2,3)             -2.884          estimate D2E/DX2                !
 ! D2    D(6,1,2,7)            174.5472         estimate D2E/DX2                !
 ! D3    D(20,1,2,3)           178.5457         estimate D2E/DX2                !
 ! D4    D(20,1,2,7)            -4.023          estimate D2E/DX2                !
 ! D5    D(2,1,6,5)              2.9108         estimate D2E/DX2                !
 ! D6    D(20,1,6,5)          -178.4543         estimate D2E/DX2                !
 ! D7    D(1,2,3,4)              0.4182         estimate D2E/DX2                !
 ! D8    D(1,2,3,23)          -179.4924         estimate D2E/DX2                !
 ! D9    D(7,2,3,4)           -176.9485         estimate D2E/DX2                !
 ! D10   D(7,2,3,23)             3.1408         estimate D2E/DX2                !
 ! D11   D(1,2,7,8)             52.3863         estimate D2E/DX2                !
 ! D12   D(1,2,7,11)           -66.8122         estimate D2E/DX2                !
 ! D13   D(1,2,7,19)           178.3777         estimate D2E/DX2                !
 ! D14   D(3,2,7,8)           -130.3082         estimate D2E/DX2                !
 ! D15   D(3,2,7,11)           110.4932         estimate D2E/DX2                !
 ! D16   D(3,2,7,19)            -4.3169         estimate D2E/DX2                !
 ! D17   D(2,3,4,5)              1.7499         estimate D2E/DX2                !
 ! D18   D(2,3,4,22)          -179.3191         estimate D2E/DX2                !
 ! D19   D(23,3,4,5)          -178.3392         estimate D2E/DX2                !
 ! D20   D(23,3,4,22)            0.5918         estimate D2E/DX2                !
 ! D21   D(3,4,5,6)             -1.7989         estimate D2E/DX2                !
 ! D22   D(3,4,5,21)           177.9485         estimate D2E/DX2                !
 ! D23   D(22,4,5,6)           179.2595         estimate D2E/DX2                !
 ! D24   D(22,4,5,21)           -0.9931         estimate D2E/DX2                !
 ! D25   D(4,5,6,1)             -0.4913         estimate D2E/DX2                !
 ! D26   D(21,5,6,1)           179.7511         estimate D2E/DX2                !
 ! D27   D(2,7,8,9)           -133.1138         estimate D2E/DX2                !
 ! D28   D(2,7,8,16)           -11.6438         estimate D2E/DX2                !
 ! D29   D(2,7,8,17)           106.276          estimate D2E/DX2                !
 ! D30   D(11,7,8,9)           -10.4818         estimate D2E/DX2                !
 ! D31   D(11,7,8,16)          110.9882         estimate D2E/DX2                !
 ! D32   D(11,7,8,17)         -131.092          estimate D2E/DX2                !
 ! D33   D(19,7,8,9)           101.1931         estimate D2E/DX2                !
 ! D34   D(19,7,8,16)         -137.3369         estimate D2E/DX2                !
 ! D35   D(19,7,8,17)          -19.4171         estimate D2E/DX2                !
 ! D36   D(2,7,11,10)          159.9561         estimate D2E/DX2                !
 ! D37   D(2,7,11,24)          -73.3701         estimate D2E/DX2                !
 ! D38   D(2,7,11,25)           46.1847         estimate D2E/DX2                !
 ! D39   D(8,7,11,10)           33.0061         estimate D2E/DX2                !
 ! D40   D(8,7,11,24)          159.6799         estimate D2E/DX2                !
 ! D41   D(8,7,11,25)          -80.7653         estimate D2E/DX2                !
 ! D42   D(19,7,11,10)         -82.3857         estimate D2E/DX2                !
 ! D43   D(19,7,11,24)          44.2881         estimate D2E/DX2                !
 ! D44   D(19,7,11,25)         163.843          estimate D2E/DX2                !
 ! D45   D(7,8,9,10)           -15.0835         estimate D2E/DX2                !
 ! D46   D(7,8,9,14)          -136.2617         estimate D2E/DX2                !
 ! D47   D(7,8,9,15)           102.7655         estimate D2E/DX2                !
 ! D48   D(16,8,9,10)         -136.3705         estimate D2E/DX2                !
 ! D49   D(16,8,9,14)          102.4513         estimate D2E/DX2                !
 ! D50   D(16,8,9,15)          -18.5215         estimate D2E/DX2                !
 ! D51   D(17,8,9,10)          103.7707         estimate D2E/DX2                !
 ! D52   D(17,8,9,14)          -17.4075         estimate D2E/DX2                !
 ! D53   D(17,8,9,15)         -138.3803         estimate D2E/DX2                !
 ! D54   D(8,9,10,11)           35.3663         estimate D2E/DX2                !
 ! D55   D(8,9,10,13)          -80.119          estimate D2E/DX2                !
 ! D56   D(8,9,10,18)          153.9493         estimate D2E/DX2                !
 ! D57   D(14,9,10,11)         157.469          estimate D2E/DX2                !
 ! D58   D(14,9,10,13)          41.9837         estimate D2E/DX2                !
 ! D59   D(14,9,10,18)         -83.948          estimate D2E/DX2                !
 ! D60   D(15,9,10,11)         -83.1342         estimate D2E/DX2                !
 ! D61   D(15,9,10,13)         161.3804         estimate D2E/DX2                !
 ! D62   D(15,9,10,18)          35.4487         estimate D2E/DX2                !
 ! D63   D(9,10,11,7)          -42.8679         estimate D2E/DX2                !
 ! D64   D(9,10,11,24)        -169.0587         estimate D2E/DX2                !
 ! D65   D(9,10,11,25)          73.1475         estimate D2E/DX2                !
 ! D66   D(13,10,11,7)          76.1155         estimate D2E/DX2                !
 ! D67   D(13,10,11,24)        -50.0753         estimate D2E/DX2                !
 ! D68   D(13,10,11,25)       -167.8691         estimate D2E/DX2                !
 ! D69   D(18,10,11,7)        -165.3596         estimate D2E/DX2                !
 ! D70   D(18,10,11,24)         68.4495         estimate D2E/DX2                !
 ! D71   D(18,10,11,25)        -49.3443         estimate D2E/DX2                !
 ! D72   D(7,11,12,26)         172.6129         estimate D2E/DX2                !
 ! D73   D(7,11,12,27)         -29.8962         estimate D2E/DX2                !
 ! D74   D(10,11,12,26)         59.3195         estimate D2E/DX2                !
 ! D75   D(10,11,12,27)       -143.1895         estimate D2E/DX2                !
 ! D76   D(24,11,12,26)        -60.8878         estimate D2E/DX2                !
 ! D77   D(24,11,12,27)         96.6032         estimate D2E/DX2                !
 ! D78   D(7,11,24,31)         178.9007         estimate D2E/DX2                !
 ! D79   D(7,11,24,32)          59.5443         estimate D2E/DX2                !
 ! D80   D(7,11,24,33)         -60.9567         estimate D2E/DX2                !
 ! D81   D(10,11,24,31)        -59.8677         estimate D2E/DX2                !
 ! D82   D(10,11,24,32)       -179.2241         estimate D2E/DX2                !
 ! D83   D(10,11,24,33)         60.2748         estimate D2E/DX2                !
 ! D84   D(25,11,24,31)         57.7373         estimate D2E/DX2                !
 ! D85   D(25,11,24,32)        -61.6192         estimate D2E/DX2                !
 ! D86   D(25,11,24,33)        177.8798         estimate D2E/DX2                !
 ! D87   D(25,12,28,29)          1.2595         estimate D2E/DX2                !
 ! D88   D(25,12,28,30)       -132.2244         estimate D2E/DX2                !
 ! D89   D(25,12,28,35)        124.2478         estimate D2E/DX2                !
 ! D90   D(26,12,28,29)        162.531          estimate D2E/DX2                !
 ! D91   D(26,12,28,30)         29.0471         estimate D2E/DX2                !
 ! D92   D(26,12,28,35)        -74.4807         estimate D2E/DX2                !
 ! D93   D(27,28,34,36)       -108.9887         estimate D2E/DX2                !
 ! D94   D(27,28,34,39)        104.2601         estimate D2E/DX2                !
 ! D95   D(29,28,34,36)         21.0704         estimate D2E/DX2                !
 ! D96   D(29,28,34,39)       -125.6808         estimate D2E/DX2                !
 ! D97   D(30,28,34,36)        133.221          estimate D2E/DX2                !
 ! D98   D(30,28,34,39)        -13.5302         estimate D2E/DX2                !
 ! D99   D(27,28,40,41)         95.2026         estimate D2E/DX2                !
 ! D100  D(27,28,40,42)        -98.2628         estimate D2E/DX2                !
 ! D101  D(29,28,40,41)        -45.7645         estimate D2E/DX2                !
 ! D102  D(29,28,40,42)        120.77           estimate D2E/DX2                !
 ! D103  D(35,28,40,41)       -157.1153         estimate D2E/DX2                !
 ! D104  D(35,28,40,42)          9.4192         estimate D2E/DX2                !
 ! D105  D(35,34,39,37)         19.1401         estimate D2E/DX2                !
 ! D106  D(36,34,39,37)       -110.1792         estimate D2E/DX2                !
 ! D107  D(38,37,39,34)        171.7442         estimate D2E/DX2                !
 ! D108  D(42,37,39,34)         -5.319          estimate D2E/DX2                !
 ! D109  D(38,37,40,30)       -176.3739         estimate D2E/DX2                !
 ! D110  D(38,37,40,41)         -3.5906         estimate D2E/DX2                !
 ! D111  D(39,37,40,30)         -7.6765         estimate D2E/DX2                !
 ! D112  D(39,37,40,41)        165.1068         estimate D2E/DX2                !
 --------------------------------------------------------------------------------
 Trust Radius=3.00D-01 FncErr=1.00D-07 GrdErr=1.00D-06 EigMax=2.50D+02 EigMin=1.00D-04
 Number of steps in this run=    247 maximum allowed number of steps=    252.
 GradGradGradGradGradGradGradGradGradGradGradGradGradGradGradGradGradGrad

                          Input orientation:                          
 ---------------------------------------------------------------------
 Center     Atomic      Atomic             Coordinates (Angstroms)
 Number     Number       Type             X           Y           Z
 ---------------------------------------------------------------------
      1          6           0        1.172915    0.121486   -0.658481
      2          6           0        0.522205   -1.039773   -0.243176
      3          6           0        1.307127   -2.071745    0.271133
      4          6           0        2.684958   -1.894367    0.353582
      5          6           0        3.226600   -0.674765   -0.047680
      6          7           0        2.484739    0.322251   -0.541982
      7          6           0       -0.979752   -1.123957   -0.304442
      8          6           0       -1.656716   -0.781916   -1.651907
      9          6           0       -2.824463    0.171892   -1.314606
     10          6           0       -3.007755    0.031120    0.191314
     11          7           0       -1.610690   -0.157521    0.681529
     12          8           0       -0.624994    2.398791    0.632286
     13          1           0       -3.578114   -0.866265    0.462950
     14          1           0       -3.743356   -0.075338   -1.853655
     15          1           0       -2.558737    1.207259   -1.557872
     16          1           0       -0.948351   -0.319717   -2.345309
     17          1           0       -2.009044   -1.706061   -2.120872
     18          1           0       -3.447805    0.902893    0.685228
     19          1           0       -1.301577   -2.117266    0.033981
     20          1           0        0.607023    0.949376   -1.090281
     21          1           0        4.297508   -0.487411    0.033784
     22          1           0        3.331717   -2.680277    0.738756
     23          1           0        0.850539   -3.005436    0.603095
     24          6           0       -1.496831   -0.574810    2.095471
     25          1           0       -1.141989    0.778314    0.605014
     26          1           0       -1.015034    3.117539    1.134816
     27          1           0        0.284617    2.695054    0.395555
     28          8           0        1.903238    3.027458   -0.056530
     29          1           0        2.447936    2.265218   -0.326598
     30          1           0        2.411363    3.636216    0.541659
     31          1           0       -1.959628    0.188424    2.727859
     32          1           0       -0.437522   -0.669468    2.351750
     33          1           0       -2.007875   -1.533840    2.230762
     34          8           0        1.969730    5.034193   -2.073984
     35          1           0        1.831565    4.293511   -1.443239
     36          1           0        2.235025    4.563764   -2.882711
     37          8           0        2.839769    6.904448   -0.306590
     38          1           0        2.887744    7.783851   -0.720256
     39          1           0        2.489651    6.365562   -1.058581
     40          8           0        3.158121    4.874177    1.436022
     41          1           0        3.723835    5.228698    2.144673
     42          1           0        3.060791    5.688384    0.877402
 ---------------------------------------------------------------------
                    Distance matrix (angstroms):
                    1          2          3          4          5
     1  C    0.000000
     2  C    1.394426   0.000000
     3  C    2.385887   1.394841   0.000000
     4  C    2.715549   2.400823   1.391646   0.000000
     5  C    2.285764   2.735910   2.395323   1.393491   0.000000
     6  N    1.332201   2.407475   2.789111   2.399066   1.337435
     7  C    2.512060   1.505561   2.541536   3.802187   4.238053
     8  C    3.132067   2.607434   3.761131   4.910160   5.141187
     9  C    4.051182   3.717026   4.961704   6.116044   6.239975
    10  C    4.267121   3.714325   4.800689   6.011723   6.278740
    11  N    3.101923   2.486501   3.513735   4.645081   4.919214
    12  O    3.175638   3.729105   4.883566   5.428136   4.974322
    13  H    4.980516   4.164293   5.035430   6.347836   6.826533
    14  H    5.063290   4.660342   5.831616   7.035907   7.225036
    15  H    3.989114   4.033582   5.389066   6.385145   6.268398
    16  H    2.745873   2.664579   3.873313   4.792126   4.778637
    17  H    3.950111   3.221320   4.105168   5.309617   5.724829
    18  H    4.875162   4.516289   5.623995   6.748736   6.897379
    19  H    3.408024   2.136349   2.619857   4.005532   4.753090
    20  H    1.091827   2.163676   3.386852   3.806498   3.253772
    21  H    3.257770   3.825536   3.392466   2.163819   1.090221
    22  H    3.802969   3.398353   2.165167   1.088260   2.156759
    23  H    3.387203   2.165135   1.091078   2.159126   3.391342
    24  C    3.898285   3.124415   3.664861   4.718344   5.187860
    25  H    2.717834   2.606609   3.772596   4.674609   4.649948
    26  H    4.120603   4.641682   5.750396   6.278493   5.811310
    27  H    2.919472   3.796493   4.876821   5.179400   4.495264
    28  O    3.056205   4.299355   5.144374   5.000364   3.931643
    29  H    2.516230   3.826012   4.524155   4.221489   3.054114
    30  H    3.915024   5.103896   5.820081   5.540539   4.426792
    31  H    4.613524   4.061405   4.670712   5.616706   5.945223
    32  H    3.504370   2.791387   3.056002   3.904220   4.379850
    33  H    4.604916   3.572923   3.888281   5.067195   5.773131
    34  O    5.174288   6.506938   7.512188   7.376284   6.186908
    35  H    4.295981   5.621253   6.612911   6.499744   5.345790
    36  H    5.080267   6.426548   7.405248   7.237643   6.038444
    37  O    6.993626   8.275613   9.124407   8.824905   7.593494
    38  H    7.852152   9.147662  10.030651   9.739720   8.492076
    39  H    6.393931   7.705499   8.622914   8.382050   7.150609
    40  O    5.560221   6.688989   7.282100   6.870863   5.744286
    41  H    6.359912   7.432765   7.914992   7.417906   6.317003
    42  H    6.075637   7.277926   7.978878   7.610108   6.432179
                    6          7          8          9         10
     6  N    0.000000
     7  C    3.761734   0.000000
     8  C    4.427501   1.546265   0.000000
     9  C    5.367232   2.470347   1.545042   0.000000
    10  C    5.548871   2.385953   2.425654   1.523551   0.000000
    11  N    4.301128   1.517966   2.415970   2.359303   1.492544
    12  O    3.919357   3.662385   4.049554   3.686073   3.387901
    13  H    6.259444   2.721540   2.858584   2.192137   1.097449
    14  H    6.377126   3.337240   2.212243   1.093646   2.175854
    15  H    5.220337   3.082020   2.186161   1.096254   2.155127
    16  H    3.930677   2.193838   1.093716   2.196321   3.286136
    17  H    5.176971   2.167419   1.094581   2.200382   3.059645
    18  H    6.085907   3.343479   3.392459   2.218615   1.094341
    19  H    4.540833   1.097618   2.179794   3.062370   2.747974
    20  H    2.054199   2.726556   2.904705   3.525606   3.943640
    21  H    2.067170   5.326261   6.195246   7.278414   7.325337
    22  H    3.372364   4.700974   5.848377   7.088703   6.916666
    23  H    3.880117   2.777328   4.039233   5.222895   4.927136
    24  C    4.859401   2.515654   3.756501   3.734809   2.505166
    25  H    3.831025   2.114726   2.791586   2.623625   2.051957
    26  H    4.782645   4.479174   4.835631   4.236807   3.793035
    27  H    3.368933   4.083316   4.477744   4.354007   4.240044
    28  O    2.809262   5.060369   5.452507   5.664642   5.758239
    29  H    1.955215   4.820378   5.281064   5.758156   5.918107
    30  H    3.487410   5.905489   6.393817   6.546842   6.518152
    31  H    5.519254   3.446353   4.496183   4.133973   2.749068
    32  H    4.230461   2.748805   4.186687   4.455058   3.429928
    33  H    5.596138   2.766279   3.970368   4.018205   2.758298
    34  O    4.981431   7.053619   6.867051   6.870438   7.411995
    35  H    4.124294   6.208810   6.162110   6.219557   6.652725
    36  H    4.850959   7.023705   6.725832   6.880836   7.581638
    37  O    6.595967   8.890671   9.006023   8.855898   9.037925
    38  H    7.474601   9.720055   9.741276   9.535433   9.782265
    39  H    6.065353   8.288448   8.284373   8.164980   8.479909
    40  O    5.008590   7.491917   8.044213   8.091277   7.938673
    41  H    5.729459   8.275151   8.915819   8.967615   8.726095
    42  H    5.580490   8.008166   8.397443   8.358995   8.324818
                   11         12         13         14         15
    11  N    0.000000
    12  O    2.740210   0.000000
    13  H    2.102582   4.405699   0.000000
    14  H    3.313937   4.693122   2.453473   0.000000
    15  H    2.788608   3.155298   3.069585   1.770837   0.000000
    16  H    3.102700   4.044863   3.885960   2.848420   2.354794
    17  H    3.226471   5.132766   3.137415   2.395517   3.017709
    18  H    2.121198   3.195117   1.787822   2.736825   2.431991
    19  H    2.086976   4.605486   2.632801   3.700665   3.894472
    20  H    3.046766   2.566302   4.819175   4.534157   3.210480
    21  H    5.952748   5.737542   7.896400   8.269687   7.239708
    22  H    5.549321   6.439241   7.149299   7.972638   7.421919
    23  H    3.764893   5.602117   4.920230   5.977037   5.834359
    24  C    1.478623   3.426852   2.661167   4.570771   4.201230
    25  H    1.049439   1.701168   2.942707   3.679794   2.620924
    26  H    3.359508   0.959826   4.784504   5.154528   3.644552
    27  H    3.436736   0.985498   5.254353   5.381318   3.756870
    28  O    4.799637   2.694744   6.743601   6.688873   5.047413
    29  H    4.833056   3.221832   6.836874   6.792805   5.263277
    30  H    5.530725   3.280076   7.493488   7.575865   5.916904
    31  H    2.104496   3.325417   2.976857   4.923568   4.445722
    32  H    2.104293   3.522203   3.670097   5.382096   4.827712
    33  H    2.110008   4.464647   2.456922   4.671358   4.708590
    34  O    6.882307   4.582776   8.487050   7.667803   5.951370
    35  H    6.014602   3.732619   7.715016   7.094718   5.367759
    36  H    7.055768   5.022153   8.629672   7.636836   6.000123
    37  O    8.405615   5.760817  10.107690   9.718454   7.947801
    38  H    9.233975   6.570203  10.864244  10.345189   8.580053
    39  H    7.898822   5.319334   9.562016   8.998206   7.234888
    40  O    6.973436   4.591894   8.903730   9.107693   7.422409
    41  H    7.720707   5.404443   9.658946   9.993917   8.327756
    42  H    7.485700   4.946363   9.338643   9.326070   7.588816
                   16         17         18         19         20
    16  H    0.000000
    17  H    1.759941   0.000000
    18  H    4.114146   4.092783   0.000000
    19  H    3.002827   2.304993   3.761885   0.000000
    20  H    2.367463   3.867463   4.426762   3.782990   0.000000
    21  H    5.762572   6.774972   7.896024   5.831482   4.116741
    22  H    5.779505   6.135984   7.668370   4.720286   4.893232
    23  H    4.375177   4.157594   5.810124   2.396735   4.308986
    24  C    4.481789   4.395411   2.824658   2.582060   4.110762
    25  H    3.153977   3.788715   2.310572   2.955661   2.441788
    26  H    4.891875   5.903785   3.320416   5.356970   3.504719
    27  H    4.256923   5.564450   4.150509   5.079879   2.314961
    28  O    4.957182   6.478708   5.804967   6.061948   2.658428
    29  H    4.721424   6.233390   6.135103   5.778843   2.388224
    30  H    5.938996   7.427583   6.466956   6.866310   3.624635
    31  H    5.197877   5.205930   2.626305   3.606413   4.663147
    32  H    4.737682   4.852685   3.783044   2.866141   3.944529
    33  H    4.851506   4.355041   3.224863   2.380145   4.902385
    34  O    6.103537   7.827124   7.350550   8.141765   4.417055
    35  H    5.461093   7.155720   6.625587   7.286756   3.578732
    36  H    5.854150   7.609417   7.643737   8.102518   4.350517
    37  O    8.408019  10.047063   8.748483   9.932676   6.407980
    38  H    9.111763  10.770268   9.458443  10.777356   7.214475
    39  H    7.626826   9.301495   8.254393   9.355504   5.734140
    40  O    7.624836   9.091239   7.744227   8.410405   5.319246
    41  H    8.530778   9.957493   8.501470   9.147294   6.204196
    42  H    7.909258   9.453607   8.080821   8.981636   5.687789
                   21         22         23         24         25
    21  H    0.000000
    22  H    2.497679   0.000000
    23  H    4.306525   2.506068   0.000000
    24  C    6.150818   5.439535   3.693951   0.000000
    25  H    5.613955   5.656305   4.276323   2.044094   0.000000
    26  H    6.513911   7.257119   6.422921   3.845572   2.401829
    27  H    5.134419   6.188440   5.732271   4.093322   2.398535
    28  O    4.253821   5.937278   6.159472   5.400733   3.843136
    29  H    3.335829   5.135559   5.585320   5.430779   3.995791
    30  H    4.562870   6.386234   6.822865   5.951559   4.560475
    31  H    6.845914   6.339109   4.755250   1.093902   2.350101
    32  H    5.275094   4.566428   3.189615   1.093972   2.375591
    33  H    6.758667   5.661417   3.603530   1.095084   2.956158
    34  O    6.352113   8.323434   8.547220   7.801430   5.913741
    35  H    5.578502   7.459576   7.643593   6.877589   5.039243
    36  H    6.186610   8.172752   8.447510   8.069324   6.156142
    37  O    7.541912   9.654104  10.148417   8.973032   7.363079
    38  H    8.424356  10.574677  11.059393   9.849875   8.189788
    39  H    7.171112   9.261031   9.657300   8.602839   6.868311
    40  O    5.657836   7.588550   8.252697   7.196869   5.996467
    41  H    6.120364   8.042527   8.856255   7.806311   6.771463
    42  H    6.354652   8.374193   8.974573   7.841122   6.468874
                   26         27         28         29         30
    26  H    0.000000
    27  H    1.553735   0.000000
    28  O    3.153368   1.713128   0.000000
    29  H    3.854133   2.320822   0.975009   0.000000
    30  H    3.515830   2.330275   0.993281   1.623220   0.000000
    31  H    3.465510   4.093833   5.543886   5.750600   5.980995
    32  H    4.019437   3.958307   4.994620   4.910377   5.470968
    33  H    4.880795   5.148500   6.429148   6.389615   7.008011
    34  O    4.783177   3.796024   2.846318   3.308967   2.998494
    35  H    4.016516   2.886048   1.879092   2.395991   2.169798
    36  H    5.366095   4.247728   3.233824   3.444177   3.552147
    37  O    5.592659   4.974013   3.996332   4.655791   3.403586
    38  H    6.359830   5.823844   4.902352   5.550109   4.361450
    39  H    5.257704   4.522091   3.534250   4.165376   3.164842
    40  O    4.537811   3.753422   2.685669   3.227671   1.700024
    41  H    5.285233   4.615949   3.606290   4.064150   2.613090
    42  H    4.825749   4.110881   3.048390   3.680118   2.178502
                   31         32         33         34         35
    31  H    0.000000
    32  H    1.787245   0.000000
    33  H    1.793217   1.796604   0.000000
    34  O    7.872676   7.610107   8.802911   0.000000
    35  H    6.973015   6.646943   7.886545   0.982619   0.000000
    36  H    8.259371   7.869486   9.018347   0.972483   1.519176
    37  O    8.794718   8.670156  10.056963   2.716340   3.020834
    38  H    9.647643   9.589224  10.931375   3.199367   3.717619
    39  H    8.502367   8.348074   9.666854   1.753256   2.207812
    40  O    7.058079   6.670773   8.269330   3.709181   3.222898
    41  H    7.618807   7.221367   8.865204   4.572941   4.162736
    42  H    7.673223   7.405010   8.926560   3.213886   2.973557
                   36         37         38         39         40
    36  H    0.000000
    37  O    3.532834   0.000000
    38  H    3.933346   0.973021   0.000000
    39  H    2.576579   0.989177   1.511451   0.000000
    40  O    4.427179   2.694447   3.631644   2.982302   0.000000
    41  H    5.285194   3.098129   3.928826   3.616145   0.973603
    42  H    4.010625   1.711579   2.640727   2.129038   0.992200
                   41         42
    41  H    0.000000
    42  H    1.502303   0.000000
 Stoichiometry    C10H25N2O5(1+)
 Framework group  C1[X(C10H25N2O5)]
 Deg. of freedom   120
 Full point group                 C1      NOp   1
 Largest Abelian subgroup         C1      NOp   1
 Largest concise Abelian subgroup C1      NOp   1
                         Standard orientation:                         
 ---------------------------------------------------------------------
 Center     Atomic      Atomic             Coordinates (Angstroms)
 Number     Number       Type             X           Y           Z
 ---------------------------------------------------------------------
      1          6           0        0.612892    1.006313   -0.707464
      2          6           0        1.957552    1.070585   -0.343893
      3          6           0        2.464837    2.312132    0.039259
      4          6           0        1.614870    3.414006    0.049676
      5          6           0        0.275934    3.227970   -0.288641
      6          7           0       -0.222448    2.042868   -0.657263
      7          6           0        2.791159   -0.182875   -0.318317
      8          6           0        2.793215   -1.061529   -1.590676
      9          6           0        2.577879   -2.513610   -1.108758
     10          6           0        2.845442   -2.460563    0.390176
     11          7           0        2.315084   -1.120063    0.776786
     12          8           0       -0.387313   -1.565094    0.864838
     13          1           0        3.917120   -2.473457    0.626260
     14          1           0        3.238556   -3.228419   -1.607372
     15          1           0        1.543295   -2.829241   -1.287042
     16          1           0        2.010954   -0.750063   -2.288724
     17          1           0        3.750911   -0.942321   -2.107122
     18          1           0        2.336403   -3.231733    0.976486
     19          1           0        3.821430    0.072212   -0.038610
     20          1           0        0.172821    0.063320   -1.037903
     21          1           0       -0.426665    4.061086   -0.259414
     22          1           0        1.976069    4.401002    0.331962
     23          1           0        3.512068    2.420840    0.325508
     24          6           0        2.666315   -0.681059    2.144352
     25          1           0        1.268888   -1.195764    0.744139
     26          1           0       -0.789786   -2.215455    1.444763
     27          1           0       -1.112909   -0.954869    0.595876
     28          8           0       -2.237561    0.226227    0.071493
     29          1           0       -1.868040    1.052888   -0.290071
     30          1           0       -2.998476    0.411634    0.682427
     31          1           0        2.267132   -1.404278    2.861450
     32          1           0        2.218465    0.300300    2.326393
     33          1           0        3.756069   -0.624602    2.236311
     34          8           0       -4.069514   -0.914135   -1.784592
     35          1           0       -3.339627   -0.601390   -1.205805
     36          1           0       -3.828152   -0.524351   -2.642226
     37          8           0       -6.058514   -0.944650    0.065126
     38          1           0       -6.854253   -1.384592   -0.281314
     39          1           0       -5.443468   -1.043770   -0.703227
     40          8           0       -4.411620    0.512662    1.622054
     41          1           0       -4.979124    0.885793    2.319632
     42          1           0       -5.082538   -0.032707    1.135328
 ---------------------------------------------------------------------
 Rotational constants (GHZ):           0.4809200           0.2028840           0.1701963
 Standard basis: Aug-CC-pVDZ (5D, 7F)
 There are   650 symmetry adapted cartesian basis functions of A   symmetry.
 There are   616 symmetry adapted basis functions of A   symmetry.
   616 basis functions,  1006 primitive gaussians,   650 cartesian basis functions
    69 alpha electrons       69 beta electrons
       nuclear repulsion energy      1339.0006139827 Hartrees.
 NAtoms=   42 NActive=   42 NUniq=   42 SFac= 1.00D+00 NAtFMM=   60 NAOKFM=F Big=F
 Integral buffers will be    131072 words long.
 Raffenetti 2 integral format.
 Two-electron integral symmetry is turned on.
 Nuclear repulsion after empirical dispersion term =     1338.9690898325 Hartrees.
 One-electron integrals computed using PRISM.
 NBasis=   616 RedAO= T EigKep=  2.29D-06  NBF=   616
 NBsUse=   616 1.00D-06 EigRej= -1.00D+00 NBFU=   616
 ExpMin= 2.97D-02 ExpMax= 1.17D+04 ExpMxC= 4.01D+02 IAcc=3 IRadAn=         5 AccDes= 0.00D+00
 Harris functional with IExCor= 4639 and IRadAn=       5 diagonalized for initial guess.
 HarFok:  IExCor= 4639 AccDes= 0.00D+00 IRadAn=         5 IDoV= 1 UseB2=F ITyADJ=14
 ICtDFT=  3500011 ScaDFX=  1.000000  1.000000  1.000000  1.000000
 FoFCou: FMM=F IPFlag=           0 FMFlag=      100000 FMFlg1=           0
         NFxFlg=           0 DoJE=T BraDBF=F KetDBF=T FulRan=T
         wScrn=  0.000000 ICntrl=       500 IOpCl=  0 I1Cent=   200000004 NGrid=           0
         NMat0=    1 NMatS0=      1 NMatT0=    0 NMatD0=    1 NMtDS0=    0 NMtDT0=    0
 Petite list used in FoFCou.
 Requested convergence on RMS density matrix=1.00D-08 within 128 cycles.
 Requested convergence on MAX density matrix=1.00D-06.
 Requested convergence on             energy=1.00D-06.
 No special actions if energy rises.
 SCF Done:  E(RwB97XD) =  -881.459348182     A.U. after   14 cycles
            NFock= 14  Conv=0.76D-08     -V/T= 2.0064

 **********************************************************************

            Population analysis using the SCF density.

 **********************************************************************

 Orbital symmetries:
       Occupied  (A) (A) (A) (A) (A) (A) (A) (A) (A) (A) (A) (A)
                 (A) (A) (A) (A) (A) (A) (A) (A) (A) (A) (A) (A)
                 (A) (A) (A) (A) (A) (A) (A) (A) (A) (A) (A) (A)
                 (A) (A) (A) (A) (A) (A) (A) (A) (A) (A) (A) (A)
                 (A) (A) (A) (A) (A) (A) (A) (A) (A) (A) (A) (A)
                 (A) (A) (A) (A) (A) (A) (A) (A) (A)
       Virtual   (A) (A) (A) (A) (A) (A) (A) (A) (A) (A) (A) (A)
                 (A) (A) (A) (A) (A) (A) (A) (A) (A) (A) (A) (A)
                 (A) (A) (A) (A) (A) (A) (A) (A) (A) (A) (A) (A)
                 (A) (A) (A) (A) (A) (A) (A) (A) (A) (A) (A) (A)
                 (A) (A) (A) (A) (A) (A) (A) (A) (A) (A) (A) (A)
                 (A) (A) (A) (A) (A) (A) (A) (A) (A) (A) (A) (A)
                 (A) (A) (A) (A) (A) (A) (A) (A) (A) (A) (A) (A)
                 (A) (A) (A) (A) (A) (A) (A) (A) (A) (A) (A) (A)
                 (A) (A) (A) (A) (A) (A) (A) (A) (A) (A) (A) (A)
                 (A) (A) (A) (A) (A) (A) (A) (A) (A) (A) (A) (A)
                 (A) (A) (A) (A) (A) (A) (A) (A) (A) (A) (A) (A)
                 (A) (A) (A) (A) (A) (A) (A) (A) (A) (A) (A) (A)
                 (A) (A) (A) (A) (A) (A) (A) (A) (A) (A) (A) (A)
                 (A) (A) (A) (A) (A) (A) (A) (A) (A) (A) (A) (A)
                 (A) (A) (A) (A) (A) (A) (A) (A) (A) (A) (A) (A)
                 (A) (A) (A) (A) (A) (A) (A) (A) (A) (A) (A) (A)
                 (A) (A) (A) (A) (A) (A) (A) (A) (A) (A) (A) (A)
                 (A) (A) (A) (A) (A) (A) (A) (A) (A) (A) (A) (A)
                 (A) (A) (A) (A) (A) (A) (A) (A) (A) (A) (A) (A)
                 (A) (A) (A) (A) (A) (A) (A) (A) (A) (A) (A) (A)
                 (A) (A) (A) (A) (A) (A) (A) (A) (A) (A) (A) (A)
                 (A) (A) (A) (A) (A) (A) (A) (A) (A) (A) (A) (A)
                 (A) (A) (A) (A) (A) (A) (A) (A) (A) (A) (A) (A)
                 (A) (A) (A) (A) (A) (A) (A) (A) (A) (A) (A) (A)
                 (A) (A) (A) (A) (A) (A) (A) (A) (A) (A) (A) (A)
                 (A) (A) (A) (A) (A) (A) (A) (A) (A) (A) (A) (A)
                 (A) (A) (A) (A) (A) (A) (A) (A) (A) (A) (A) (A)
                 (A) (A) (A) (A) (A) (A) (A) (A) (A) (A) (A) (A)
                 (A) (A) (A) (A) (A) (A) (A) (A) (A) (A) (A) (A)
                 (A) (A) (A) (A) (A) (A) (A) (A) (A) (A) (A) (A)
                 (A) (A) (A) (A) (A) (A) (A) (A) (A) (A) (A) (A)
                 (A) (A) (A) (A) (A) (A) (A) (A) (A) (A) (A) (A)
                 (A) (A) (A) (A) (A) (A) (A) (A) (A) (A) (A) (A)
                 (A) (A) (A) (A) (A) (A) (A) (A) (A) (A) (A) (A)
                 (A) (A) (A) (A) (A) (A) (A) (A) (A) (A) (A) (A)
                 (A) (A) (A) (A) (A) (A) (A) (A) (A) (A) (A) (A)
                 (A) (A) (A) (A) (A) (A) (A) (A) (A) (A) (A) (A)
                 (A) (A) (A) (A) (A) (A) (A) (A) (A) (A) (A) (A)
                 (A) (A) (A) (A) (A) (A) (A) (A) (A) (A) (A) (A)
                 (A) (A) (A) (A) (A) (A) (A) (A) (A) (A) (A) (A)
                 (A) (A) (A) (A) (A) (A) (A) (A) (A) (A) (A) (A)
                 (A) (A) (A) (A) (A) (A) (A) (A) (A) (A) (A) (A)
                 (A) (A) (A) (A) (A) (A) (A) (A) (A) (A) (A) (A)
                 (A) (A) (A) (A) (A) (A) (A) (A) (A) (A) (A) (A)
                 (A) (A) (A) (A) (A) (A) (A) (A) (A) (A) (A) (A)
                 (A) (A) (A) (A) (A) (A) (A)
 The electronic state is 1-A.
 Alpha  occ. eigenvalues --  -19.39797 -19.37334 -19.36090 -19.35355 -19.34519
 Alpha  occ. eigenvalues --  -14.69362 -14.58507 -10.50231 -10.48858 -10.48557
 Alpha  occ. eigenvalues --  -10.46864 -10.46326 -10.45431 -10.45316 -10.44277
 Alpha  occ. eigenvalues --  -10.44092 -10.43652  -1.26023  -1.24031  -1.21543
 Alpha  occ. eigenvalues --   -1.19957  -1.19322  -1.18316  -1.17693  -1.06731
 Alpha  occ. eigenvalues --   -1.04937  -1.01604  -0.97126  -0.94820  -0.89227
 Alpha  occ. eigenvalues --   -0.86111  -0.85742  -0.83422  -0.78306  -0.75499
 Alpha  occ. eigenvalues --   -0.75249  -0.74147  -0.73221  -0.72086  -0.70808
 Alpha  occ. eigenvalues --   -0.70567  -0.69488  -0.68927  -0.67198  -0.67092
 Alpha  occ. eigenvalues --   -0.65714  -0.65480  -0.63462  -0.63104  -0.62515
 Alpha  occ. eigenvalues --   -0.62217  -0.61581  -0.61056  -0.59485  -0.59061
 Alpha  occ. eigenvalues --   -0.58112  -0.57664  -0.56991  -0.56698  -0.55700
 Alpha  occ. eigenvalues --   -0.53898  -0.53564  -0.51169  -0.49852  -0.49262
 Alpha  occ. eigenvalues --   -0.48692  -0.47874  -0.47182  -0.46921
 Alpha virt. eigenvalues --   -0.09762  -0.09013  -0.06989  -0.05809  -0.05153
 Alpha virt. eigenvalues --   -0.04925  -0.03340  -0.03263  -0.03132  -0.02908
 Alpha virt. eigenvalues --   -0.02647  -0.01953  -0.01142  -0.01119  -0.00920
 Alpha virt. eigenvalues --   -0.00413  -0.00188   0.00138   0.00643   0.01000
 Alpha virt. eigenvalues --    0.01045   0.01518   0.01713   0.02396   0.02789
 Alpha virt. eigenvalues --    0.03068   0.03198   0.03682   0.03898   0.04002
 Alpha virt. eigenvalues --    0.04329   0.04666   0.05045   0.05126   0.05299
 Alpha virt. eigenvalues --    0.05664   0.05766   0.06012   0.06214   0.06632
 Alpha virt. eigenvalues --    0.06743   0.06926   0.07108   0.07465   0.07687
 Alpha virt. eigenvalues --    0.07924   0.08099   0.08277   0.08900   0.09273
 Alpha virt. eigenvalues --    0.09563   0.09895   0.10044   0.10364   0.10634
 Alpha virt. eigenvalues --    0.11058   0.11172   0.11459   0.11639   0.11916
 Alpha virt. eigenvalues --    0.12222   0.12596   0.13022   0.13092   0.13640
 Alpha virt. eigenvalues --    0.13996   0.14210   0.14408   0.14610   0.14926
 Alpha virt. eigenvalues --    0.15417   0.15458   0.15864   0.15981   0.16760
 Alpha virt. eigenvalues --    0.17074   0.17354   0.17529   0.17674   0.18260
 Alpha virt. eigenvalues --    0.18613   0.18815   0.18954   0.19427   0.19660
 Alpha virt. eigenvalues --    0.19991   0.20047   0.20146   0.20408   0.20737
 Alpha virt. eigenvalues --    0.20835   0.21127   0.21510   0.21775   0.21898
 Alpha virt. eigenvalues --    0.22044   0.22233   0.22412   0.22747   0.23484
 Alpha virt. eigenvalues --    0.23621   0.23933   0.24318   0.24552   0.25098
 Alpha virt. eigenvalues --    0.25439   0.25815   0.25852   0.26361   0.26547
 Alpha virt. eigenvalues --    0.26759   0.27210   0.28105   0.28169   0.28380
 Alpha virt. eigenvalues --    0.28760   0.28983   0.29606   0.30100   0.30422
 Alpha virt. eigenvalues --    0.30616   0.31136   0.31252   0.31677   0.31850
 Alpha virt. eigenvalues --    0.32369   0.32752   0.32842   0.33017   0.33356
 Alpha virt. eigenvalues --    0.33721   0.34066   0.34151   0.34633   0.35051
 Alpha virt. eigenvalues --    0.35505   0.35813   0.36376   0.36578   0.36977
 Alpha virt. eigenvalues --    0.37332   0.37588   0.37832   0.38253   0.38910
 Alpha virt. eigenvalues --    0.39948   0.40648   0.40696   0.40841   0.41182
 Alpha virt. eigenvalues --    0.41527   0.41729   0.42068   0.42347   0.42694
 Alpha virt. eigenvalues --    0.43127   0.43540   0.43757   0.44394   0.44709
 Alpha virt. eigenvalues --    0.45010   0.45461   0.45708   0.46228   0.46536
 Alpha virt. eigenvalues --    0.46814   0.47028   0.47277   0.47920   0.48280
 Alpha virt. eigenvalues --    0.48543   0.48898   0.49547   0.49707   0.50473
 Alpha virt. eigenvalues --    0.50576   0.50627   0.51163   0.51851   0.52227
 Alpha virt. eigenvalues --    0.52605   0.52913   0.53143   0.53488   0.54067
 Alpha virt. eigenvalues --    0.54499   0.54833   0.55087   0.55554   0.55721
 Alpha virt. eigenvalues --    0.56203   0.56360   0.56866   0.57222   0.57500
 Alpha virt. eigenvalues --    0.57785   0.58553   0.58750   0.58943   0.59030
 Alpha virt. eigenvalues --    0.59394   0.60071   0.60174   0.60599   0.60769
 Alpha virt. eigenvalues --    0.61520   0.61675   0.61965   0.62392   0.62944
 Alpha virt. eigenvalues --    0.63647   0.63789   0.64401   0.64511   0.64991
 Alpha virt. eigenvalues --    0.65728   0.66295   0.66481   0.66901   0.67342
 Alpha virt. eigenvalues --    0.67610   0.68297   0.68583   0.69392   0.69785
 Alpha virt. eigenvalues --    0.69977   0.70617   0.71169   0.71259   0.71448
 Alpha virt. eigenvalues --    0.72302   0.72922   0.72968   0.73921   0.74643
 Alpha virt. eigenvalues --    0.74747   0.75341   0.75651   0.76433   0.76843
 Alpha virt. eigenvalues --    0.76970   0.77540   0.78073   0.78694   0.79013
 Alpha virt. eigenvalues --    0.79564   0.80057   0.80838   0.81664   0.82161
 Alpha virt. eigenvalues --    0.82410   0.83109   0.83606   0.84501   0.85172
 Alpha virt. eigenvalues --    0.85431   0.86005   0.86416   0.86998   0.87429
 Alpha virt. eigenvalues --    0.88528   0.88741   0.89384   0.89967   0.90238
 Alpha virt. eigenvalues --    0.90931   0.91733   0.92417   0.93386   0.93534
 Alpha virt. eigenvalues --    0.94062   0.94713   0.95319   0.95884   0.96634
 Alpha virt. eigenvalues --    0.96761   0.97631   0.97788   0.98791   0.99674
 Alpha virt. eigenvalues --    0.99897   1.00565   1.01105   1.01769   1.02379
 Alpha virt. eigenvalues --    1.02978   1.03953   1.04149   1.04830   1.05602
 Alpha virt. eigenvalues --    1.06655   1.07202   1.07467   1.08088   1.09297
 Alpha virt. eigenvalues --    1.09553   1.09677   1.11521   1.12420   1.13153
 Alpha virt. eigenvalues --    1.13705   1.14324   1.14906   1.16213   1.16849
 Alpha virt. eigenvalues --    1.17046   1.18074   1.18447   1.19014   1.20389
 Alpha virt. eigenvalues --    1.20800   1.21003   1.21609   1.22871   1.24325
 Alpha virt. eigenvalues --    1.25516   1.27181   1.27806   1.28793   1.29395
 Alpha virt. eigenvalues --    1.30806   1.31190   1.31531   1.32939   1.33145
 Alpha virt. eigenvalues --    1.34550   1.35418   1.35664   1.36647   1.37417
 Alpha virt. eigenvalues --    1.38314   1.39280   1.39810   1.40604   1.41042
 Alpha virt. eigenvalues --    1.41331   1.42549   1.42600   1.43370   1.44368
 Alpha virt. eigenvalues --    1.45215   1.45805   1.46117   1.47429   1.48143
 Alpha virt. eigenvalues --    1.48758   1.49705   1.50881   1.51305   1.52437
 Alpha virt. eigenvalues --    1.53423   1.54252   1.54751   1.55901   1.56459
 Alpha virt. eigenvalues --    1.57179   1.58952   1.59339   1.60422   1.61349
 Alpha virt. eigenvalues --    1.61906   1.62180   1.63333   1.63715   1.63962
 Alpha virt. eigenvalues --    1.64994   1.65616   1.66566   1.67185   1.69705
 Alpha virt. eigenvalues --    1.69973   1.70344   1.72234   1.72851   1.73482
 Alpha virt. eigenvalues --    1.73939   1.74391   1.74909   1.75369   1.76221
 Alpha virt. eigenvalues --    1.76884   1.77511   1.78254   1.79558   1.79923
 Alpha virt. eigenvalues --    1.81057   1.81449   1.81902   1.82274   1.83579
 Alpha virt. eigenvalues --    1.84110   1.84461   1.85346   1.85999   1.86815
 Alpha virt. eigenvalues --    1.87473   1.87855   1.88777   1.89432   1.90259
 Alpha virt. eigenvalues --    1.90351   1.90611   1.91172   1.91666   1.92584
 Alpha virt. eigenvalues --    1.93171   1.95107   1.95216   1.96273   1.97048
 Alpha virt. eigenvalues --    1.97439   1.98183   1.98511   1.99423   2.00039
 Alpha virt. eigenvalues --    2.01506   2.02196   2.02954   2.04054   2.04688
 Alpha virt. eigenvalues --    2.05158   2.06102   2.07257   2.08219   2.08739
 Alpha virt. eigenvalues --    2.09787   2.11130   2.11715   2.12917   2.14054
 Alpha virt. eigenvalues --    2.15661   2.16418   2.16768   2.18188   2.18656
 Alpha virt. eigenvalues --    2.19193   2.20790   2.22148   2.22406   2.23788
 Alpha virt. eigenvalues --    2.23891   2.24435   2.25023   2.26139   2.27491
 Alpha virt. eigenvalues --    2.29264   2.29471   2.30182   2.30305   2.31006
 Alpha virt. eigenvalues --    2.31388   2.33635   2.34158   2.35336   2.36395
 Alpha virt. eigenvalues --    2.36916   2.38485   2.40596   2.42299   2.43651
 Alpha virt. eigenvalues --    2.44532   2.46528   2.46954   2.48402   2.49493
 Alpha virt. eigenvalues --    2.50581   2.50697   2.52110   2.53515   2.54040
 Alpha virt. eigenvalues --    2.54459   2.54904   2.56181   2.56529   2.57323
 Alpha virt. eigenvalues --    2.59057   2.60549   2.60875   2.62271   2.62776
 Alpha virt. eigenvalues --    2.64556   2.66304   2.68302   2.69815   2.70039
 Alpha virt. eigenvalues --    2.71013   2.71917   2.73025   2.73648   2.75100
 Alpha virt. eigenvalues --    2.76514   2.76970   2.78340   2.80094   2.80387
 Alpha virt. eigenvalues --    2.81509   2.82706   2.84943   2.85533   2.85701
 Alpha virt. eigenvalues --    2.87210   2.89285   2.90091   2.91550   2.93293
 Alpha virt. eigenvalues --    2.95397   2.98373   3.02015   3.03069   3.05681
 Alpha virt. eigenvalues --    3.09801   3.11508   3.15037   3.18410   3.31483
 Alpha virt. eigenvalues --    3.33385   3.34546   3.36759   3.37467   3.38181
 Alpha virt. eigenvalues --    3.38331   3.39090   3.41776   3.43459   3.45160
 Alpha virt. eigenvalues --    3.48956   3.49040   3.50880   3.51440   3.52542
 Alpha virt. eigenvalues --    3.54956   3.59529   3.62931   3.64501   3.70284
 Alpha virt. eigenvalues --    3.80896   3.83247   3.84756   3.87609   3.90891
 Alpha virt. eigenvalues --    4.00499   4.01366   4.07012   4.12597   4.14804
 Alpha virt. eigenvalues --    4.21345   4.78754
          Condensed to atoms (all electrons):
               1          2          3          4          5          6
     1  C   14.037793  -3.674903  -0.879777  -0.044397  -1.474822   0.111843
     2  C   -3.674903  20.714804  -8.873154   0.214075  -0.989728   0.021416
     3  C   -0.879777  -8.873154  21.561376  -3.259500   1.222542  -0.659468
     4  C   -0.044397   0.214075  -3.259500  10.770688  -2.173572   0.223918
     5  C   -1.474822  -0.989728   1.222542  -2.173572   9.509663   0.297984
     6  N    0.111843   0.021416  -0.659468   0.223918   0.297984   7.516710
     7  C   -0.904355  -5.148329  -1.826578   0.422750  -0.591959   0.252060
     8  C   -0.217730   0.645814  -0.180670  -0.101462  -0.085978   0.025802
     9  C   -0.186578   0.292713  -0.095952  -0.004501   0.016668  -0.007919
    10  C   -0.020163  -0.080353  -0.052550   0.000808  -0.029713   0.036150
    11  N   -0.258868   0.712468  -0.344438  -0.090320   0.137826  -0.011276
    12  O   -0.067002   0.043673  -0.036884  -0.003925   0.006588   0.008376
    13  H    0.007286   0.077756   0.018924  -0.004791   0.001065   0.000191
    14  H    0.015168  -0.033957   0.009583   0.000700   0.001115  -0.001232
    15  H   -0.002228   0.025312  -0.006921  -0.000178  -0.000634  -0.001255
    16  H   -0.042402  -0.365690   0.040437  -0.025413   0.000995   0.029639
    17  H    0.077787   0.281390  -0.017171   0.003881  -0.005182  -0.012044
    18  H   -0.031872  -0.094095   0.001269   0.002894  -0.003955   0.001161
    19  H   -0.132996   0.773582  -0.083339  -0.026193   0.027776   0.005654
    20  H   -0.800412  -0.808477  -0.048736   0.021722   0.052831  -0.331153
    21  H    0.135443  -0.077193   0.234463   0.022938  -0.326243  -0.217929
    22  H   -0.006779   0.023286   0.498248  -1.101962   0.355849  -0.058263
    23  H   -0.069859   1.012199  -2.276629   0.576647  -0.237612   0.010977
    24  C    0.012265   0.173056  -0.039374   0.075733  -0.026459  -0.002157
    25  H   -0.137523  -0.087707  -0.208802   0.015496  -0.015921  -0.010114
    26  H    0.015990  -0.015514   0.008135   0.000544  -0.001424  -0.006840
    27  H    0.030081   0.059043  -0.011244  -0.011933  -0.001582   0.023578
    28  O   -0.174500   0.004889  -0.004207  -0.024074   0.084952  -0.026511
    29  H   -0.074028  -0.063901   0.072526  -0.101148   0.110513   0.139258
    30  H    0.030237   0.028071  -0.027756   0.032029  -0.035244  -0.021567
    31  H   -0.000412  -0.048076  -0.032511   0.016092  -0.007505  -0.002276
    32  H   -0.019216   0.050834   0.045162  -0.008038  -0.001184   0.004141
    33  H    0.033423   0.058212   0.081380  -0.012998   0.006173   0.000895
    34  O   -0.000912  -0.000688  -0.000700   0.000982  -0.000757   0.000389
    35  H    0.016153   0.001497  -0.001436   0.001943   0.000823  -0.010930
    36  H    0.001135   0.000275  -0.000334   0.000149   0.001286   0.002389
    37  O   -0.000925  -0.000167   0.000072  -0.000105  -0.000097   0.000076
    38  H    0.000113  -0.000039   0.000010  -0.000014   0.000080   0.000008
    39  H   -0.001478   0.000014   0.000043  -0.000010  -0.001137   0.000301
    40  O    0.004509  -0.005200   0.001198  -0.001173  -0.001303  -0.003046
    41  H   -0.000045   0.000160   0.000058  -0.000265   0.000256   0.000061
    42  H    0.000160  -0.000511   0.000510  -0.000403   0.000497  -0.000590
               7          8          9         10         11         12
     1  C   -0.904355  -0.217730  -0.186578  -0.020163  -0.258868  -0.067002
     2  C   -5.148329   0.645814   0.292713  -0.080353   0.712468   0.043673
     3  C   -1.826578  -0.180670  -0.095952  -0.052550  -0.344438  -0.036884
     4  C    0.422750  -0.101462  -0.004501   0.000808  -0.090320  -0.003925
     5  C   -0.591959  -0.085978   0.016668  -0.029713   0.137826   0.006588
     6  N    0.252060   0.025802  -0.007919   0.036150  -0.011276   0.008376
     7  C   20.259703  -2.403779  -0.050382  -0.588206  -2.694005   0.041677
     8  C   -2.403779   8.593312  -0.445958   0.492275  -1.208580   0.059388
     9  C   -0.050382  -0.445958   5.926145   0.169412  -0.289173   0.035764
    10  C   -0.588206   0.492275   0.169412   5.591789  -0.033842   0.023369
    11  N   -2.694005  -1.208580  -0.289173  -0.033842  12.208803  -0.320673
    12  O    0.041677   0.059388   0.035764   0.023369  -0.320673   8.085313
    13  H    0.242798  -0.197110   0.058509  -0.311532   0.009324  -0.019170
    14  H    0.058013   0.237418  -0.301818   0.092726   0.020421  -0.002269
    15  H    0.081653   0.073566  -0.191578  -0.119685   0.031414  -0.002876
    16  H    0.091465  -0.251481   0.264811   0.051556   0.130243   0.011656
    17  H    0.331494  -0.895517   0.093260  -0.161804   0.231543  -0.000511
    18  H    0.245452   0.243277  -0.003682  -0.146472  -0.888806   0.075307
    19  H   -2.689698   0.721631   0.010902   0.003204   0.014733   0.010226
    20  H    0.287812  -0.274045   0.021294   0.004325  -0.226714   0.016708
    21  H    0.004260   0.001488   0.000221  -0.000378   0.008045  -0.000379
    22  H   -0.000756   0.007147   0.000735  -0.001197  -0.004416   0.000131
    23  H    0.227293  -0.051976  -0.012173   0.016595  -0.011052  -0.001906
    24  C   -0.435271  -0.264389   0.071855  -0.069498   0.864675  -0.040966
    25  H    0.072178   0.242560  -0.134302  -0.282506   0.567350  -0.031686
    26  H    0.031754  -0.002362   0.002129  -0.009146   0.009454   0.358985
    27  H   -0.128489   0.014581  -0.019855   0.039246   0.030547   0.275974
    28  O   -0.047588  -0.017895   0.009713  -0.006088  -0.005936  -0.076338
    29  H   -0.008914  -0.008289  -0.003303   0.001241  -0.005725  -0.006615
    30  H    0.016004  -0.000355   0.003424  -0.002553  -0.000055   0.015888
    31  H    0.111456  -0.049628   0.041314   0.032790  -0.266727   0.012996
    32  H    0.038340   0.101150  -0.044854  -0.058917   0.149110   0.005202
    33  H   -0.013068  -0.043170   0.060241   0.098190  -0.571502  -0.004180
    34  O   -0.000345   0.000388  -0.000173  -0.000144  -0.000140  -0.001489
    35  H    0.010507   0.005751   0.000365  -0.000860  -0.003369   0.000878
    36  H   -0.000765  -0.000289   0.000121   0.000013   0.000211   0.000718
    37  O   -0.000008  -0.000012  -0.000008  -0.000002   0.000023   0.000081
    38  H    0.000048   0.000004   0.000010  -0.000005  -0.000023   0.000080
    39  H   -0.000577  -0.000203  -0.000170   0.000069   0.000440  -0.000395
    40  O   -0.001147  -0.000019  -0.000023  -0.000071   0.000190   0.001955
    41  H   -0.000020   0.000037  -0.000025   0.000023   0.000019   0.000241
    42  H   -0.000565  -0.000035  -0.000041  -0.000038   0.000142  -0.001104
              13         14         15         16         17         18
     1  C    0.007286   0.015168  -0.002228  -0.042402   0.077787  -0.031872
     2  C    0.077756  -0.033957   0.025312  -0.365690   0.281390  -0.094095
     3  C    0.018924   0.009583  -0.006921   0.040437  -0.017171   0.001269
     4  C   -0.004791   0.000700  -0.000178  -0.025413   0.003881   0.002894
     5  C    0.001065   0.001115  -0.000634   0.000995  -0.005182  -0.003955
     6  N    0.000191  -0.001232  -0.001255   0.029639  -0.012044   0.001161
     7  C    0.242798   0.058013   0.081653   0.091465   0.331494   0.245452
     8  C   -0.197110   0.237418   0.073566  -0.251481  -0.895517   0.243277
     9  C    0.058509  -0.301818  -0.191578   0.264811   0.093260  -0.003682
    10  C   -0.311532   0.092726  -0.119685   0.051556  -0.161804  -0.146472
    11  N    0.009324   0.020421   0.031414   0.130243   0.231543  -0.888806
    12  O   -0.019170  -0.002269  -0.002876   0.011656  -0.000511   0.075307
    13  H    2.117951  -0.167969   0.168776  -0.052169   0.049741  -0.510311
    14  H   -0.167969   1.951571  -0.505971   0.127170  -0.294182   0.044674
    15  H    0.168776  -0.505971   2.104649  -0.382354   0.208312  -0.228378
    16  H   -0.052169   0.127170  -0.382354   2.381386  -0.657975   0.033978
    17  H    0.049741  -0.294182   0.208312  -0.657975   2.464513  -0.016702
    18  H   -0.510311   0.044674  -0.228378   0.033978  -0.016702   2.650208
    19  H   -0.111849   0.044516  -0.069875   0.232547  -0.384041   0.064569
    20  H    0.018059   0.010851   0.043063  -0.217143   0.072438  -0.038565
    21  H    0.000077   0.000067  -0.000111   0.000441   0.000496  -0.000113
    22  H   -0.000248   0.000004  -0.000030   0.001836  -0.000824   0.000099
    23  H    0.002166   0.000102   0.001806  -0.009573   0.005247  -0.002963
    24  C   -0.021956  -0.002788  -0.003561  -0.001537   0.031026  -0.084130
    25  H   -0.035352   0.010501   0.033409   0.007519  -0.020244   0.123649
    26  H    0.001122   0.000378  -0.000903   0.000258  -0.000693  -0.002151
    27  H   -0.000771  -0.004436   0.015077  -0.002740   0.003882  -0.012297
    28  O   -0.000673   0.000304   0.001492  -0.010817   0.000814   0.000765
    29  H    0.000580  -0.000616   0.003118  -0.002024   0.000891  -0.001894
    30  H   -0.000242   0.000263  -0.001033   0.000969  -0.000284   0.000864
    31  H    0.005439  -0.001719   0.007164  -0.001724   0.000004  -0.006233
    32  H   -0.015457   0.002964  -0.013819   0.014299  -0.006530   0.006591
    33  H    0.061920  -0.002911   0.006371  -0.008967   0.013286   0.028005
    34  O   -0.000008  -0.000029   0.000886  -0.000343   0.000049  -0.000052
    35  H   -0.000283   0.000490  -0.003423   0.004844  -0.000959   0.001200
    36  H    0.000006  -0.000070   0.000117   0.000135   0.000096  -0.000015
    37  O    0.000001  -0.000002   0.000019  -0.000000  -0.000000  -0.000002
    38  H   -0.000001   0.000001  -0.000020   0.000029  -0.000001   0.000005
    39  H    0.000014  -0.000019   0.000212  -0.000391   0.000025  -0.000081
    40  O   -0.000004  -0.000005   0.000027  -0.000096   0.000012  -0.000032
    41  H    0.000001  -0.000001   0.000003  -0.000002   0.000002  -0.000001
    42  H    0.000003  -0.000005   0.000016  -0.000027   0.000006  -0.000021
              19         20         21         22         23         24
     1  C   -0.132996  -0.800412   0.135443  -0.006779  -0.069859   0.012265
     2  C    0.773582  -0.808477  -0.077193   0.023286   1.012199   0.173056
     3  C   -0.083339  -0.048736   0.234463   0.498248  -2.276629  -0.039374
     4  C   -0.026193   0.021722   0.022938  -1.101962   0.576647   0.075733
     5  C    0.027776   0.052831  -0.326243   0.355849  -0.237612  -0.026459
     6  N    0.005654  -0.331153  -0.217929  -0.058263   0.010977  -0.002157
     7  C   -2.689698   0.287812   0.004260  -0.000756   0.227293  -0.435271
     8  C    0.721631  -0.274045   0.001488   0.007147  -0.051976  -0.264389
     9  C    0.010902   0.021294   0.000221   0.000735  -0.012173   0.071855
    10  C    0.003204   0.004325  -0.000378  -0.001197   0.016595  -0.069498
    11  N    0.014733  -0.226714   0.008045  -0.004416  -0.011052   0.864675
    12  O    0.010226   0.016708  -0.000379   0.000131  -0.001906  -0.040966
    13  H   -0.111849   0.018059   0.000077  -0.000248   0.002166  -0.021956
    14  H    0.044516   0.010851   0.000067   0.000004   0.000102  -0.002788
    15  H   -0.069875   0.043063  -0.000111  -0.000030   0.001806  -0.003561
    16  H    0.232547  -0.217143   0.000441   0.001836  -0.009573  -0.001537
    17  H   -0.384041   0.072438   0.000496  -0.000824   0.005247   0.031026
    18  H    0.064569  -0.038565  -0.000113   0.000099  -0.002963  -0.084130
    19  H    3.635259  -0.057357   0.000226   0.000339  -0.151805  -0.012475
    20  H   -0.057357   4.594038   0.013346  -0.017646  -0.008723   0.002943
    21  H    0.000226   0.013346   1.928924  -0.117027  -0.004238   0.002860
    22  H    0.000339  -0.017646  -0.117027   2.161208  -0.151610  -0.010498
    23  H   -0.151805  -0.008723  -0.004238  -0.151610   2.983719   0.046296
    24  C   -0.012475   0.002943   0.002860  -0.010498   0.046296   4.420048
    25  H   -0.018286  -0.144364  -0.000618   0.003197   0.000671  -0.237549
    26  H    0.000870   0.021135   0.000051  -0.000041  -0.000087  -0.007803
    27  H   -0.002549  -0.090487  -0.005253   0.001848  -0.000006   0.019132
    28  O   -0.000973   0.107249   0.002699   0.000112  -0.001453   0.007780
    29  H   -0.001611  -0.029084  -0.053467   0.012397  -0.003608  -0.003159
    30  H    0.000645  -0.004246   0.008278  -0.001764   0.000370  -0.000874
    31  H    0.014266   0.002749   0.000293  -0.001165   0.001944   0.218400
    32  H    0.035666  -0.007056  -0.002980   0.001257  -0.030938   0.048167
    33  H   -0.008147   0.014105   0.000172  -0.000220   0.015676   0.220695
    34  O   -0.000015   0.005162  -0.000053   0.000021  -0.000017   0.000063
    35  H    0.000880  -0.019999   0.001832   0.000035  -0.000278  -0.002113
    36  H   -0.000068  -0.005585  -0.000064   0.000004   0.000019   0.000124
    37  O   -0.000001  -0.000563   0.000008  -0.000003   0.000003  -0.000006
    38  H    0.000003  -0.000422   0.000002   0.000000  -0.000000  -0.000008
    39  H   -0.000045   0.004394  -0.000105  -0.000005   0.000012   0.000119
    40  O   -0.000063   0.001489   0.000042  -0.000028   0.000041   0.000165
    41  H   -0.000005  -0.000168  -0.000080   0.000009  -0.000001  -0.000029
    42  H   -0.000025  -0.000217   0.000076  -0.000003   0.000007   0.000046
              25         26         27         28         29         30
     1  C   -0.137523   0.015990   0.030081  -0.174500  -0.074028   0.030237
     2  C   -0.087707  -0.015514   0.059043   0.004889  -0.063901   0.028071
     3  C   -0.208802   0.008135  -0.011244  -0.004207   0.072526  -0.027756
     4  C    0.015496   0.000544  -0.011933  -0.024074  -0.101148   0.032029
     5  C   -0.015921  -0.001424  -0.001582   0.084952   0.110513  -0.035244
     6  N   -0.010114  -0.006840   0.023578  -0.026511   0.139258  -0.021567
     7  C    0.072178   0.031754  -0.128489  -0.047588  -0.008914   0.016004
     8  C    0.242560  -0.002362   0.014581  -0.017895  -0.008289  -0.000355
     9  C   -0.134302   0.002129  -0.019855   0.009713  -0.003303   0.003424
    10  C   -0.282506  -0.009146   0.039246  -0.006088   0.001241  -0.002553
    11  N    0.567350   0.009454   0.030547  -0.005936  -0.005725  -0.000055
    12  O   -0.031686   0.358985   0.275974  -0.076338  -0.006615   0.015888
    13  H   -0.035352   0.001122  -0.000771  -0.000673   0.000580  -0.000242
    14  H    0.010501   0.000378  -0.004436   0.000304  -0.000616   0.000263
    15  H    0.033409  -0.000903   0.015077   0.001492   0.003118  -0.001033
    16  H    0.007519   0.000258  -0.002740  -0.010817  -0.002024   0.000969
    17  H   -0.020244  -0.000693   0.003882   0.000814   0.000891  -0.000284
    18  H    0.123649  -0.002151  -0.012297   0.000765  -0.001894   0.000864
    19  H   -0.018286   0.000870  -0.002549  -0.000973  -0.001611   0.000645
    20  H   -0.144364   0.021135  -0.090487   0.107249  -0.029084  -0.004246
    21  H   -0.000618   0.000051  -0.005253   0.002699  -0.053467   0.008278
    22  H    0.003197  -0.000041   0.001848   0.000112   0.012397  -0.001764
    23  H    0.000671  -0.000087  -0.000006  -0.001453  -0.003608   0.000370
    24  C   -0.237549  -0.007803   0.019132   0.007780  -0.003159  -0.000874
    25  H    1.342453  -0.028399  -0.024077  -0.036171  -0.013378   0.011280
    26  H   -0.028399   0.604448  -0.159964  -0.012617  -0.000490   0.006125
    27  H   -0.024077  -0.159964   0.664280  -0.004876   0.036030  -0.036769
    28  O   -0.036171  -0.012617  -0.004876   8.615722   0.198042   0.266348
    29  H   -0.013378  -0.000490   0.036030   0.198042   0.674772  -0.206707
    30  H    0.011280   0.006125  -0.036769   0.266348  -0.206707   0.595413
    31  H    0.038523  -0.000502   0.000095  -0.000973  -0.000985   0.000593
    32  H   -0.011692   0.000758  -0.003014   0.003698   0.001576  -0.000725
    33  H   -0.154842   0.001181   0.004020   0.001163   0.000855  -0.000386
    34  O   -0.002974   0.000982   0.006319  -0.029786  -0.000140  -0.000613
    35  H    0.011180   0.000028  -0.004475   0.057109  -0.030742   0.012339
    36  H   -0.000141  -0.000404   0.003159  -0.011503  -0.001409  -0.000810
    37  O   -0.000334  -0.000198   0.004391  -0.001611   0.008800  -0.011223
    38  H    0.000102   0.000011  -0.000765  -0.000035  -0.000827   0.001847
    39  H   -0.001176   0.000237   0.002334  -0.006658   0.003282  -0.000538
    40  O   -0.000751   0.000517   0.005720  -0.069966   0.018230  -0.048734
    41  H    0.000037   0.000094  -0.001144   0.007044  -0.003034   0.005535
    42  H    0.000323  -0.000458   0.002883   0.011392   0.002572  -0.020061
              31         32         33         34         35         36
     1  C   -0.000412  -0.019216   0.033423  -0.000912   0.016153   0.001135
     2  C   -0.048076   0.050834   0.058212  -0.000688   0.001497   0.000275
     3  C   -0.032511   0.045162   0.081380  -0.000700  -0.001436  -0.000334
     4  C    0.016092  -0.008038  -0.012998   0.000982   0.001943   0.000149
     5  C   -0.007505  -0.001184   0.006173  -0.000757   0.000823   0.001286
     6  N   -0.002276   0.004141   0.000895   0.000389  -0.010930   0.002389
     7  C    0.111456   0.038340  -0.013068  -0.000345   0.010507  -0.000765
     8  C   -0.049628   0.101150  -0.043170   0.000388   0.005751  -0.000289
     9  C    0.041314  -0.044854   0.060241  -0.000173   0.000365   0.000121
    10  C    0.032790  -0.058917   0.098190  -0.000144  -0.000860   0.000013
    11  N   -0.266727   0.149110  -0.571502  -0.000140  -0.003369   0.000211
[...]
 17359,0.00016416,0.00000546,0.00043325,0.00242716,-0.00054442,0.000016
 92,-0.00000156,-0.00000687,-0.00001953,-0.00002516,-0.00000933,0.00006
 307,-0.00002028,0.00000296,0.00000490,-0.00000785,-0.00000154,-0.00000
 287,0.00001379,0.00000117,-0.00001001,-0.00000045,0.00004078,-0.000001
 49,0.00001483,0.00000387,-0.00000470,0.00001892,-0.00001795,-0.0000031
 1,0.00000108,0.00000129,-0.00000082,0.00000360,0.00000182,0.00000267,0
 .00000283,0.00000177,-0.00002712,0.00000255,0.00010395,-0.00032866,-0.
 00032011,-0.00011483,-0.00165445,-0.00203066,0.00123546,0.00026707,-0.
 00042145,-0.00010283,-0.00012141,0.00007621,0.00006942,0.00000139,-0.0
 0007574,0.00002924,0.00012284,0.00002634,0.00000118,-0.00000876,0.0000
 1035,0.00000113,-0.00000036,-0.00000855,-0.00000498,0.00000775,0.00000
 645,-0.00001049,-0.00003075,-0.00089402,-0.00332867,-0.00018832,0.0004
 0789,0.00021880,0.00030146,-0.00072231,-0.00027779,-0.03450024,0.03067
 219,-0.04618658,0.00726170,0.00037256,0.04190565,-0.00002978,0.0002111
 4,-0.00008868,0.00008477,-0.00008333,0.00008862,-0.00004584,-0.0000439
 0,0.00002801,-0.00003504,-0.00006170,0.00004239,-0.00010659,0.00008700
 ,-0.00006309,0.00001238,-0.00032202,0.00003083,0.00015183,-0.00010134,
 -0.00010973,0.00014486,0.00008646,-0.00003176,-0.00023745,-0.00002796,
 0.00004625,0.00007933,-0.00024207,0.00001516,-0.00003585,0.00015934,0.
 00005210,-0.00144660,0.00115260,0.00015146,-0.00001688,0.00007321,0.00
 002226,-0.00002001,-0.00003557,-0.00002665,0.00043885,-0.00021213,-0.0
 0032155,-0.00002342,0.00009243,0.00004249,-0.00005565,0.00005119,0.000
 00867,-0.00011152,-0.00004953,0.00015676,-0.00002721,0.00000866,0.0000
 1638,0.00011697,0.00017427,-0.00013095,0.00001325,0.00000110,-0.000004
 01,-0.00001165,-0.00001164,0.00000074,0.00000171,-0.00003225,0.0000037
 1,-0.00001523,-0.00000401,0.00003396,-0.00004384,-0.00025523,-0.000046
 29,0.00132817,-0.00189776,0.00140935,0.00101975,0.00041441,-0.00098783
 ,0.00051203,-0.00149204,0.00085362,0.00010148,0.00057519,0.00020402,-0
 .00051663,-0.00000294,-0.00064178,-0.00000558,-0.00000835,0.00002483,-
 0.00000060,0.00000101,-0.00002957,0.00000875,-0.00000037,0.00000048,-0
 .00453070,-0.00452879,-0.00570931,-0.00322409,0.00540249,0.00218404,-0
 .00038767,-0.00088620,0.00091505,-0.03503581,0.02638270,0.01003506,-0.
 00395816,0.00968340,0.02837598,0.04461774,0.00017365,-0.00048860,0.000
 21575,-0.00006860,0.00022280,-0.00014891,0.00007769,-0.00003804,0.0000
 1398,-0.00008041,0.00002800,-0.00002667,0.00013597,-0.00000188,0.00001
 982,-0.00017657,0.00026671,-0.00011786,-0.00004192,-0.00002061,0.00014
 180,0.00009733,0.00002274,0.00003621,-0.00026846,-0.00031428,0.0000287
 4,0.00000994,0.00013630,0.00023047,0.00002391,-0.00003579,-0.00015457,
 0.00060322,-0.00196306,-0.00226848,0.00002622,0.00006428,-0.00011329,0
 .00010099,0.00011735,0.00000789,-0.00037216,-0.00024397,-0.00002128,0.
 00000439,-0.00013407,-0.00006062,0.00000717,0.00010352,-0.00003046,-0.
 00004565,0.00001652,0.00000691,0.00001118,0.00001981,-0.00003982,-0.00
 001729,-0.00025159,0.00009990,-0.00002389,0.00001902,-0.00000273,0.000
 00090,0.00001849,-0.00000151,0.00000639,0.00002439,-0.00000466,-0.0000
 5423,-0.00002111,0.00016032,-0.00004255,-0.00013451,0.00018704,-0.0009
 5955,0.00403474,0.00415513,0.00017421,-0.00045359,0.00132890,-0.001477
 86,0.00025417,-0.00175113,-0.00014360,-0.00035897,-0.00013322,0.000076
 10,0.00168139,0.00080284,0.00001427,0.00001296,-0.00000546,0.00000013,
 0.00001539,-0.00000301,0.00000130,0.00000489,-0.00001094,-0.00115387,-
 0.00542275,0.00656697,0.00417175,-0.00279154,0.00060938,-0.00205912,0.
 00466716,0.00107643,0.03389004,-0.07744378,-0.10266387,0.00235334,-0.0
 1086635,-0.03065995,-0.03367518,0.09025527,0.00027747,-0.00049967,0.00
 019647,-0.00011782,0.00021305,-0.00020560,0.00008191,0.00003602,-0.000
 01712,-0.00002804,0.00005232,-0.00002108,0.00007547,-0.00001801,0.0000
 5223,-0.00017982,0.00020573,-0.00025109,-0.00018117,0.00015341,0.00037
 520,0.00000768,-0.00003166,0.00004366,-0.00012821,-0.00019908,-0.00008
 499,0.00013258,0.00027485,0.00038460,-0.00040045,-0.00056657,-0.000400
 40,0.00113423,-0.00340610,-0.00065995,0.00000676,-0.00001050,-0.000167
 61,-0.00000441,0.00000996,-0.00000247,-0.00050795,-0.00020030,0.000488
 81,0.00003610,-0.00021126,-0.00007487,0.00002702,0.00006178,-0.0000435
 1,0.00013545,0.00004283,-0.00011156,0.00002738,-0.00001964,-0.00008908
 ,-0.00007378,-0.00036679,0.00034977,-0.00002091,0.00001947,0.00000486,
 0.00000464,0.00001672,0.00000359,-0.00000107,0.00004088,-0.00000125,-0
 .00006011,0.00001778,0.00002819,0.00086812,0.00127115,0.00054399,-0.00
 049071,0.00484584,-0.00397153,-0.00148330,0.00066740,0.00093544,-0.000
 98031,-0.00016398,-0.00343915,-0.00000090,-0.00011510,0.00001082,-0.00
 039216,0.00158530,0.00092042,0.00006933,0.00002944,-0.00004893,0.00000
 133,0.00005274,0.00000884,-0.00002589,-0.00003136,-0.00000806,-0.00509
 260,0.00874694,-0.00143254,0.00393859,-0.00151702,0.00634539,0.0002301
 8,0.00050695,-0.00263619,0.04368342,-0.14107087,-0.40529501,-0.0042951
 0,0.00675515,0.00669141,-0.03444196,0.12405890,0.40333430,-0.00005833,
 0.00017658,-0.00007862,0.00000288,-0.00008321,0.00002970,-0.00004275,0
 .00008399,-0.00005465,0.00014206,0.00002807,0.00000382,-0.00014895,-0.
 00009687,0.00004808,0.00017733,-0.00010649,0.00001798,-0.00016666,0.00
 016095,0.00013533,-0.00001931,-0.00001527,-0.00000763,0.00009635,0.000
 07541,0.00003017,-0.00001234,0.00008505,0.00002372,-0.00022911,-0.0004
 1959,-0.00009953,0.00034387,-0.00211069,-0.00032809,-0.00001145,-0.000
 05475,-0.00000313,-0.00000341,-0.00001525,0.00000560,-0.00001849,0.000
 04903,0.00006677,0.00001293,0.00001719,-0.00001111,0.00000317,-0.00004
 191,0.00000373,0.00009979,0.00003070,-0.00005892,0.00001963,-0.0000332
 0,-0.00001451,-0.00005564,0.00002545,0.00003254,0.00001434,-0.00004795
 ,0.00000054,0.00000010,-0.00000925,0.00000254,-0.00000359,0.00001368,-
 0.00000010,0.00000329,0.00005367,-0.00010441,0.00054114,0.00087099,0.0
 0021537,0.00023189,0.00209109,-0.00047129,-0.00093153,0.00084397,0.000
 69809,0.00636465,-0.00212899,-0.00110316,-0.00037892,-0.00092810,-0.00
 083081,-0.01013413,-0.00046725,0.00141184,0.00003763,0.00002207,-0.000
 03237,0.00000404,0.00001714,0.00001195,-0.00001652,-0.00002015,-0.0000
 0369,0.00091328,-0.00128895,-0.00112926,-0.00094940,0.00080303,-0.0001
 3552,-0.00008051,-0.00010276,0.00012918,-0.01055995,-0.00137874,-0.004
 63900,-0.00037756,-0.00179803,-0.00072152,-0.00142933,0.00177729,0.002
 57919,0.64017563,0.00030178,0.00018133,-0.00008049,0.00005816,-0.00013
 811,0.00007658,-0.00004215,-0.00001922,0.00003409,-0.00002961,-0.00012
 584,0.00013665,-0.00046187,0.00022853,-0.00015758,-0.00000052,-0.00120
 520,-0.00020609,0.00015444,-0.00003900,0.00002369,0.00000618,0.0000243
 7,0.00002704,0.00000468,0.00002243,-0.00003065,0.00014234,-0.00007882,
 0.00009334,-0.00033698,-0.00021175,-0.00005936,-0.00203380,-0.00016492
 ,0.00023519,-0.00002433,-0.00001041,-0.00000670,-0.00003634,-0.0000121
 6,-0.00001193,0.00005682,-0.00003431,0.00001952,0.00001700,0.00002321,
 0.00005233,-0.00003308,-0.00000864,0.00000036,0.00002339,0.00000462,0.
 00000482,-0.00003657,-0.00002086,-0.00000310,0.00027419,0.00014628,0.0
 0014370,0.00004138,-0.00000274,-0.00001031,-0.00002881,-0.00004019,0.0
 0001840,-0.00001631,-0.00003095,0.00000743,0.00002252,0.00004425,-0.00
 011517,0.00050948,0.00057890,0.00013616,0.00080157,-0.00082284,0.00026
 967,0.00218432,0.00065832,-0.00081306,0.00002208,-0.01925081,-0.009535
 37,-0.00264257,0.00035099,-0.00145206,-0.00187509,0.00144114,-0.000055
 63,0.00002970,0.00001402,-0.00001075,0.00001632,0.00002330,-0.00002789
 ,-0.00001482,-0.00002410,-0.00000726,-0.00129969,0.00118391,-0.0008403
 3,0.00194646,-0.00095479,0.00204874,-0.00008620,-0.00025606,0.00007924
 ,-0.00121616,0.00455950,0.00060124,-0.00132728,-0.00052065,-0.00060589
 ,0.00080647,-0.00095329,-0.00063066,0.10550130,0.51668113,0.00010773,0
 .00020750,-0.00008890,0.00004104,-0.00011576,0.00007280,-0.00004594,-0
 .00001402,0.00002401,0.00000869,-0.00008272,0.00008345,-0.00027166,0.0
 0010108,-0.00010093,0.00005218,-0.00065894,0.00000210,0.00009451,-0.00
 005601,-0.00007635,-0.00001142,0.00001033,0.00000140,0.00005792,0.0000
 5682,0.00000425,-0.00002413,-0.00000623,-0.00004162,-0.00002500,0.0000
 2046,0.00006963,-0.00038737,0.00004136,0.00127839,-0.00000762,-0.00002
 632,0.00002094,-0.00000661,-0.00000451,0.00000661,0.00006299,0.0000302
 0,-0.00003546,0.00000159,0.00004073,0.00003212,-0.00001190,-0.00002293
 ,0.00000858,0.00001613,0.00002571,-0.00001715,-0.00002174,-0.00000878,
 0.00001583,0.00014905,0.00012349,0.00001334,0.00003708,-0.00001697,-0.
 00003144,-0.00001480,-0.00003298,0.00000045,-0.00000779,-0.00002286,-0
 .00000322,0.00003178,0.00003203,-0.00011759,0.00001296,-0.00000313,-0.
 00006878,-0.00029991,0.00019552,-0.00088411,0.00110174,0.00002410,-0.0
 0134317,0.00074874,-0.00944401,0.00019024,-0.00157324,0.00026347,-0.00
 049482,-0.00092593,0.00100094,-0.00559109,-0.00003187,0.00000236,-0.00
 001101,0.00000190,-0.00003315,-0.00002427,0.00000297,-0.00000002,0.000
 01283,-0.00101748,-0.00071346,-0.00040622,0.00084492,0.00082336,0.0005
 9312,0.00021776,0.00023100,0.00040969,-0.00431319,0.00014219,0.0022946
 6,-0.00021502,-0.00064657,-0.00049783,0.00158709,0.00028475,-0.0001006
 7,0.11184410,0.04420983,0.03105273,-0.00002585,-0.00006998,0.00003815,
 -0.00001689,0.00004608,-0.00002159,0.00001804,-0.00001082,0.00000341,-
 0.00002951,0.00001571,-0.00002383,0.00011945,-0.00001938,0.00001610,-0
 .00004641,0.00022533,0.00002860,0.00000647,-0.00002435,-0.00002136,0.0
 0000074,-0.00000146,-0.00000197,-0.00001545,-0.00001507,-0.00000320,-0
 .00001012,-0.00000658,-0.00001111,0.00006150,0.00008373,0.00002257,0.0
 0021944,0.00023166,-0.00002706,0.00000438,0.00000946,-0.00000032,0.000
 00482,0.00000322,0.00000019,-0.00000893,-0.00000264,-0.00000606,-0.000
 00431,-0.00000834,-0.00000540,0.00000513,0.00000856,-0.00000118,-0.000
 01655,-0.00000491,0.00000703,0.00000223,0.00000699,0.00000057,-0.00004
 319,-0.00003206,-0.00002898,-0.00000912,0.00001440,0.00000178,0.000006
 43,0.00000873,-0.00000431,0.00000243,0.00000192,-0.00000172,-0.0000014
 6,-0.00001460,0.00002410,-0.00012389,-0.00017967,-0.00004356,0.0000202
 4,-0.00008433,0.00001232,-0.00028877,-0.00011672,0.00008509,0.00031667
 ,0.00347670,0.00199905,0.00040972,0.00006165,0.00018646,0.00113051,-0.
 00420986,-0.00276149,-0.00001128,-0.00000573,0.00000447,-0.00000221,-0
 .00000675,0.00000201,0.00000480,0.00000577,0.00000333,0.00016326,0.000
 09827,0.00024581,-0.00021258,0.00001270,-0.00025525,0.00001419,-0.0000
 3204,-0.00008183,-0.00098913,0.00110907,-0.00016528,-0.00057613,-0.000
 31616,-0.00027953,-0.00003963,-0.00010948,-0.00011051,-0.17431660,-0.1
 8919460,-0.03308860,0.19088458,0.00001060,0.00000651,0.00000654,0.0000
 1060,0.00000830,0.00000483,-0.00000485,-0.00000797,0.00000154,0.000005
 28,-0.00000839,0.00001114,-0.00003469,-0.00000470,-0.00000802,0.000021
 17,-0.00005535,0.00000045,0.00000343,-0.00001410,-0.00000933,0.0000019
 2,-0.00000133,-0.00000071,-0.00000849,-0.00000786,-0.00000103,-0.00000
 723,-0.00000592,-0.00000578,0.00003678,0.00003739,0.00001446,-0.000066
 71,0.00020356,0.00004165,0.00000244,0.00000761,-0.00000036,0.00000180,
 0.00000246,0.00000030,-0.00000251,-0.00000618,-0.00000365,-0.00000167,
 -0.00000300,-0.00000071,0.00000111,0.00000590,0.,-0.00001158,-0.000004
 53,0.00000488,-0.00000086,0.00000327,0.00000001,0.00002005,0.00000137,
 0.00000399,0.00000294,-0.00001091,-0.00000373,-0.00000245,-0.00000238,
 -0.00000111,0.00000390,-0.00000042,-0.00000092,-0.00000067,-0.00000433
 ,0.00000922,-0.00005730,-0.00008022,-0.00002009,-0.00001081,-0.0002613
 7,0.00002966,0.00021756,0.00007975,-0.00006226,0.00068657,-0.00101888,
 -0.00085280,-0.00041024,-0.00007118,-0.00036463,-0.00181652,0.00051309
 ,0.00187617,-0.00000837,-0.00000215,0.00000204,-0.00000149,-0.00000585
 ,-0.00000327,0.00000294,0.00000413,0.00000239,-0.00004043,0.00022090,0
 .00012757,0.00010486,-0.00022537,0.00007872,-0.00004027,0.00000380,-0.
 00005679,0.00165768,0.00009846,0.00049830,0.00014532,0.00019030,0.0000
 9889,-0.00005226,-0.00022364,-0.00023607,-0.24176337,-0.41502426,-0.05
 520913,0.23041525,0.40768307,0.00000948,-0.00003724,0.00001879,-0.0000
 0009,0.00002079,-0.00000916,0.00001013,-0.00000768,0.00000443,-0.00000
 956,-0.00000285,-0.00000011,0.00000098,-0.00000295,0.00000310,0.000001
 45,-0.00004592,-0.00004320,0.00000393,-0.00000143,0.00000621,0.0000007
 9,-0.00000046,0.00000260,-0.00001258,-0.00001471,-0.00000336,0.0000041
 7,0.00000208,0.00001175,0.00002635,0.00003864,-0.00001212,0.00010678,0
 .00018545,-0.00001445,0.00000324,0.00000549,-0.00000426,-0.00000126,0.
 00000196,0.00000005,-0.00000773,-0.00000677,0.00000734,0.00000199,-0.0
 0000846,-0.00000151,-0.00000027,0.00000497,-0.00000157,-0.00000728,-0.
 00000493,0.00000505,-0.00000080,0.00000518,-0.00000139,-0.00000107,-0.
 00000831,0.00001042,-0.00000460,-0.00000031,0.00000717,-0.00000125,0.0
 0000334,0.00000481,0.00000120,0.00000079,0.00000132,-0.00000339,-0.000
 00559,0.00003563,-0.00004388,-0.00007254,-0.00000252,-0.00009612,-0.00
 011003,0.00004925,-0.00003572,-0.00011137,-0.00009218,0.00052543,-0.00
 180389,-0.00061446,-0.00025879,-0.00033130,-0.00006510,-0.00136648,0.0
 0159950,0.00015869,0.00000497,-0.00000274,0.00000469,-0.00000153,0.000
 00793,0.00000397,0.00000075,0.00000107,-0.00000343,0.00009176,0.000289
 43,-0.00012712,0.00005102,-0.00015215,0.00025539,-0.00010517,-0.000142
 49,-0.00008228,-0.00008036,0.00043072,-0.00018950,-0.00023956,-0.00007
 255,0.00016125,-0.00004058,-0.00012968,0.00016101,-0.03359768,-0.04451
 578,-0.00691699,0.03771169,0.05170858,0.00895707,0.00014594,-0.0001280
 8,0.00007737,0.00001528,0.00006484,-0.00000956,0.00002957,-0.00008992,
 0.00005991,-0.00013267,-0.00006095,0.00003182,-0.00001415,0.00014233,-
 0.00007735,-0.00015451,-0.00027564,-0.00008842,0.00018519,-0.00016773,
 -0.00011760,0.00003695,0.00002332,0.00001361,-0.00012803,-0.00007972,-
 0.00003883,0.00007196,-0.00014669,-0.00000009,0.00014173,0.00034972,0.
 00007377,-0.00140786,0.00244934,-0.00017656,0.00000491,0.00007240,0.00
 000113,-0.00000433,0.00001089,-0.00001300,0.00005471,-0.00008563,-0.00
 008880,-0.00001216,-0.00001115,0.00001950,-0.00001365,0.00005126,-0.00
 000520,-0.00011462,-0.00004817,0.00008474,-0.00002566,0.00002988,0.000
 01083,0.00011036,0.00001153,-0.00001751,-0.00000341,0.00002995,-0.0000
 0456,-0.00001086,-0.00000206,0.00000368,0.00000225,-0.00001960,0.00000
 069,-0.00001032,-0.00005236,0.00010312,-0.00040631,-0.00069948,-0.0001
 6614,0.00024812,-0.00366722,0.00119454,0.00191952,-0.00008957,-0.00046
 309,-0.00194673,-0.00281123,-0.00120908,-0.00029256,0.00044563,0.00003
 368,-0.00007847,0.00566110,0.00184135,-0.00001886,-0.00002046,0.000037
 14,-0.00000191,-0.00000053,-0.00001587,0.00001382,0.00001556,-0.000000
 87,-0.00180891,0.00167397,0.00134943,0.00163055,-0.00044683,0.00092220
 ,0.00008559,0.00020501,0.00000196,0.00191183,0.00272983,0.00386349,-0.
 00034512,0.00192197,0.00092424,0.00275887,-0.00296699,-0.00429966,-0.4
 4923953,0.08781619,-0.07472165,-0.01660697,0.01099057,-0.00264039,0.46
 341047,-0.00003012,-0.00008661,0.00004890,-0.00000871,0.00004943,-0.00
 001334,0.00002293,-0.00003312,0.00001488,-0.00003651,0.00000380,-0.000
 01749,0.00009245,-0.00000658,0.00000558,-0.00003552,0.00014421,0.00003
 708,0.00004320,-0.00005749,-0.00007913,-0.00000067,-0.00000337,-0.0000
 0457,-0.00001985,-0.00003336,-0.00000061,-0.00007398,0.00003814,-0.000
 05156,0.00025896,0.00029859,0.00008648,0.00085023,0.00108687,0.0003550
 9,0.00001886,0.00001179,0.00000735,0.00001517,0.00001328,0.00000708,-0
 .00002283,0.00000601,-0.00002973,-0.00000654,-0.00000920,-0.00000601,0
 .00000734,0.00001076,0.00000144,-0.00003805,-0.00000529,0.00000882,-0.
 00000103,0.00002270,0.00001324,-0.00001023,-0.00002482,-0.00005267,-0.
 00000887,0.00000744,-0.00000130,0.00000186,0.00000755,-0.00000279,0.00
 000513,0.00000030,-0.00000224,-0.00000002,-0.00003038,0.00007968,-0.00
 048502,-0.00065673,-0.00019236,-0.00138015,-0.00039691,-0.00020300,0.0
 0007065,-0.00116236,-0.00028272,-0.00200363,-0.00053093,-0.00064516,-0
 .00004006,-0.00019685,0.00009259,0.00471658,0.00144972,0.00183275,-0.0
 0003243,-0.00001069,0.00001320,-0.00000331,-0.00001953,0.00000105,0.00
 001376,0.00002043,0.00000123,0.00017909,-0.00001364,0.00049503,-0.0000
 4102,-0.00033994,-0.00062794,0.00002853,0.00014402,-0.00003121,0.00054
 548,-0.00662081,-0.00144214,0.00275567,0.00125479,0.00143470,-0.001336
 51,0.00017553,-0.00037002,0.14018412,-0.08621633,0.01925128,-0.0413696
 8,0.00798042,-0.00671379,-0.10282529,0.08372915,0.00003356,-0.00011765
 ,0.00005008,-0.00000849,0.00005178,-0.00004330,0.00002221,-0.00001146,
 0.00000493,-0.00002799,0.00000798,-0.00001384,0.00004914,0.00000831,0.
 00000827,-0.00005773,0.00008576,-0.00003648,-0.00000799,0.00000483,0.0
 0004482,0.00002119,0.00000335,0.00000419,-0.00006563,-0.00005337,-0.00
 001613,0.00006588,-0.00004032,0.00005756,-0.00006559,-0.00005390,-0.00
 005770,-0.00058971,0.00017885,-0.00105005,-0.00000281,0.00003133,-0.00
 001933,-0.00000480,-0.00000070,-0.00001188,-0.00002492,-0.00004605,0.0
 0001477,0.00000090,-0.00002768,-0.00000803,-0.00000188,0.00002506,-0.0
 0000728,-0.00002557,-0.00002577,0.00003177,0.00000301,0.00000357,-0.00
 001281,-0.00000147,-0.00005674,0.00003033,-0.00001023,0.00000931,0.000
 00703,-0.00000009,0.00000882,0.00000224,0.00000202,0.00000626,0.000003
 79,-0.00002715,-0.00001061,0.00005940,0.00009435,0.00009173,0.00006964
 ,0.00076035,-0.00073654,0.00133005,0.00004158,0.00012437,0.00065882,-0
 .00141844,-0.00037559,-0.00127135,0.00000592,-0.00001456,-0.00010767,0
 .00266478,0.00102156,0.00192944,0.00002518,0.00000255,0.00000990,-0.00
 000092,0.00001866,0.00000205,-0.00000252,-0.00000551,-0.00000686,0.000
 14898,0.00127840,0.00062136,0.00041509,-0.00117215,-0.00000822,-0.0000
 4682,-0.00013389,-0.00028631,0.00508710,0.00021353,-0.00445626,0.00041
 288,0.00113105,0.00060071,-0.00365555,-0.00168400,-0.00181634,-0.07386
 527,0.01095804,-0.01933555,-0.00344858,0.00231906,-0.00168530,0.073506
 03,-0.01301768,0.02470956\\-0.00000497,-0.00000336,-0.00000162,0.00000
 178,0.00000467,-0.00000235,0.00000261,-0.00000130,0.00000417,-0.000002
 59,-0.00000132,0.00000003,0.00000043,0.00000438,0.00000320,0.00000181,
 -0.00000725,0.00000204,-0.00000092,-0.00000340,-0.00000652,0.00000165,
 0.00000225,0.00000362,-0.00000032,-0.00000272,0.00000193,-0.00000260,0
 .00000318,-0.00000411,-0.00000158,-0.00000739,0.00001491,0.00000922,-0
 .00000454,0.00000341,-0.00000062,-0.00000028,-0.00000123,0.00000089,0.
 00000016,-0.00000104,-0.00000048,0.00000030,-0.00000078,0.00000029,-0.
 00000084,-0.00000014,-0.00000035,-0.00000044,-0.00000003,-0.00000065,-
 0.00000056,-0.00000015,0.00000054,-0.00000030,-0.00000050,-0.00000010,
 -0.00000179,0.00000014,0.00000007,-0.00000011,0.00000027,-0.00000002,-
 0.00000002,0.00000035,0.,-0.00000030,-0.00000060,0.00000003,0.00000388
 ,-0.00000900,0.00000344,0.00000777,-0.00000533,-0.00000625,-0.00000151
 ,-0.00000428,-0.00000429,-0.00000379,0.00000727,0.00000146,0.00002438,
 0.00000491,-0.00000094,-0.00000485,-0.00000404,-0.00000130,-0.00000340
 ,-0.00000284,-0.00000034,0.00000014,-0.00000009,-0.00000072,-0.0000005
 7,0.00000053,-0.00000063,-0.00000038,0.00000019,0.00000042,0.00000003,
 -0.00000144,-0.00000065,0.00000392,-0.00000241,0.00000306,-0.00000330,
 0.00000008,0.00000578,0.00000302,-0.00000410,0.00000001,-0.00000385,-0
 .00000150,-0.00000845,0.00000019,0.00000095,0.00000456,0.00000418,0.00
 001186,-0.00000271,-0.00000037,-0.00000277,0.00000346,-0.00000452,-0.0
 0000296\\\@


 Spring appears, and we are once more children.
                                  -- Anonymous
 Job cpu time:       1 days 19 hours 50 minutes 59.2 seconds.
 Elapsed time:       0 days  1 hours 34 minutes  2.0 seconds.
 File lengths (MBytes):  RWF=   1444 Int=      0 D2E=      0 Chk=     36 Scr=      8
 Normal termination of Gaussian 16 at Fri Dec  9 19:19:07 2022.
