 Entering Gaussian System, Link 0=g16
 Input=NicPyrNa5h29.gjf
 Output=NicPyrNa5h29.log
 Initial command:
 /sw/contrib/gaussian/g16/A03/g16/l1.exe "/gscratch/scrubbed/gds001/Gau-13135.inp" -scrdir="/gscratch/scrubbed/gds001/"
 Entering Link 1 = /sw/contrib/gaussian/g16/A03/g16/l1.exe PID=     13137.
  
 Copyright (c) 1988,1990,1992,1993,1995,1998,2003,2009,2016,
            Gaussian, Inc.  All Rights Reserved.
  
 This is part of the Gaussian(R) 16 program.  It is based on
 the Gaussian(R) 09 system (copyright 2009, Gaussian, Inc.),
 the Gaussian(R) 03 system (copyright 2003, Gaussian, Inc.),
 the Gaussian(R) 98 system (copyright 1998, Gaussian, Inc.),
 the Gaussian(R) 94 system (copyright 1995, Gaussian, Inc.),
 the Gaussian 92(TM) system (copyright 1992, Gaussian, Inc.),
 the Gaussian 90(TM) system (copyright 1990, Gaussian, Inc.),
 the Gaussian 88(TM) system (copyright 1988, Gaussian, Inc.),
 the Gaussian 86(TM) system (copyright 1986, Carnegie Mellon
 University), and the Gaussian 82(TM) system (copyright 1983,
 Carnegie Mellon University). Gaussian is a federally registered
 trademark of Gaussian, Inc.
  
 This software contains proprietary and confidential information,
 including trade secrets, belonging to Gaussian, Inc.
  
 This software is provided under written license and may be
 used, copied, transmitted, or stored only in accord with that
 written license.
  
 The following legend is applicable only to US Government
 contracts under FAR:
  
                    RESTRICTED RIGHTS LEGEND
  
 Use, reproduction and disclosure by the US Government is
 subject to restrictions as set forth in subparagraphs (a)
 and (c) of the Commercial Computer Software - Restricted
 Rights clause in FAR 52.227-19.
  
 Gaussian, Inc.
 340 Quinnipiac St., Bldg. 40, Wallingford CT 06492
  
  
 ---------------------------------------------------------------
 Warning -- This program may not be used in any manner that
 competes with the business of Gaussian, Inc. or will provide
 assistance to any competitor of Gaussian, Inc.  The licensee
 of this program is prohibited from giving any competitor of
 Gaussian, Inc. access to this program.  By using this program,
 the user acknowledges that Gaussian, Inc. is engaged in the
 business of creating and licensing software in the field of
 computational chemistry and represents and warrants to the
 licensee that it is not a competitor of Gaussian, Inc. and that
 it will not use this program in any manner prohibited above.
 ---------------------------------------------------------------
  

 Cite this work as:
 Gaussian 16, Revision A.03,
 M. J. Frisch, G. W. Trucks, H. B. Schlegel, G. E. Scuseria, 
 M. A. Robb, J. R. Cheeseman, G. Scalmani, V. Barone, 
 G. A. Petersson, H. Nakatsuji, X. Li, M. Caricato, A. V. Marenich, 
 J. Bloino, B. G. Janesko, R. Gomperts, B. Mennucci, H. P. Hratchian, 
 J. V. Ortiz, A. F. Izmaylov, J. L. Sonnenberg, D. Williams-Young, 
 F. Ding, F. Lipparini, F. Egidi, J. Goings, B. Peng, A. Petrone, 
 T. Henderson, D. Ranasinghe, V. G. Zakrzewski, J. Gao, N. Rega, 
 G. Zheng, W. Liang, M. Hada, M. Ehara, K. Toyota, R. Fukuda, 
 J. Hasegawa, M. Ishida, T. Nakajima, Y. Honda, O. Kitao, H. Nakai, 
 T. Vreven, K. Throssell, J. A. Montgomery, Jr., J. E. Peralta, 
 F. Ogliaro, M. J. Bearpark, J. J. Heyd, E. N. Brothers, K. N. Kudin, 
 V. N. Staroverov, T. A. Keith, R. Kobayashi, J. Normand, 
 K. Raghavachari, A. P. Rendell, J. C. Burant, S. S. Iyengar, 
 J. Tomasi, M. Cossi, J. M. Millam, M. Klene, C. Adamo, R. Cammi, 
 J. W. Ochterski, R. L. Martin, K. Morokuma, O. Farkas, 
 J. B. Foresman, and D. J. Fox, Gaussian, Inc., Wallingford CT, 2016.
 
 ******************************************
 Gaussian 16:  ES64L-G16RevA.03 25-Dec-2016
                 4-Sep-2020 
 ******************************************
 %nprocshared=28
 Will use up to   28 processors via shared memory.
 %mem=41GB
 %chk=NicPyrNa5h29.chk
 -----------------------------
 # wB97XD/aug-cc-pVDZ Opt Freq
 -----------------------------
 1/18=20,19=15,26=3,38=1/1,3;
 2/9=110,12=2,17=6,18=5,40=1/2;
 3/5=16,7=10,11=2,25=1,30=1,71=1,74=-58/1,2,3;
 4//1;
 5/5=2,38=5/2;
 6/7=2,8=2,9=2,10=2,28=1/1;
 7//1,2,3,16;
 1/18=20,19=15,26=3/3(2);
 2/9=110/2;
 99//99;
 2/9=110/2;
 3/5=16,7=10,11=2,25=1,30=1,71=1,74=-58/1,2,3;
 4/5=5,16=3,69=1/1;
 5/5=2,38=5/2;
 7//1,2,3,16;
 1/18=20,19=15,26=3/3(-5);
 2/9=110/2;
 6/7=2,8=2,9=2,10=2,19=2,28=1/1;
 99/9=1/99;
 ------------------------------
 p-Py Nornicotine, N anti, 5H2O
 ------------------------------
 Symbolic Z-matrix:
 Charge =  1 Multiplicity = 1
 C                    -0.44367   3.00603  -0.07846 
 C                     0.03444   1.69959  -0.21688 
 C                    -0.90895   0.67623  -0.32884 
 N                    -2.22928   0.88759  -0.30692 
 C                    -2.67424   2.14452  -0.17049 
 C                    -1.81741   3.23567  -0.05418 
 C                     1.51571   1.41656  -0.24608 
 N                     2.00082   0.79927   1.03858 
 C                     3.37847   0.25787   0.77431 
 C                     3.44457   0.06252  -0.75552 
 C                     2.04017   0.41235  -1.27108 
 O                     0.81152  -1.43194   1.62655 
 O                    -1.81427  -1.65806   2.2103 
 O                    -3.152    -1.66429  -0.24265 
 O                     1.25617  -2.96421  -0.5523 
 H                     4.11697   0.97858   1.13763 
 H                     4.19384   0.73605  -1.18625 
 H                     3.72142  -0.96292  -1.01487 
 H                     1.40732  -0.48251  -1.28564 
 H                     2.04575   0.84285  -2.27677 
 H                     3.47894  -0.67225   1.34022 
 H                     2.05885   2.36537  -0.35575 
 H                    -0.59872  -0.36287  -0.44285 
 H                    -3.75602   2.27964  -0.15701 
 H                    -2.22024   4.24113   0.04953 
 H                     0.25155   3.84334   0.00132 
 C                     1.93537   1.6754    2.24512 
 H                     1.38141  -0.04467   1.3019 
 H                    -0.12399  -1.55084   1.89946 
 H                     0.9816   -2.09203   0.91998 
 H                    -3.0495   -0.68217  -0.33834 
 H                    -4.08209  -1.86943  -0.36624 
 H                     0.45342  -2.81199  -1.09243 
 H                     1.33914  -3.93004  -0.48433 
 H                    -2.38975  -1.79807   1.43661 
 H                    -2.14085  -2.23541   2.9042 
 O                    -1.07045  -2.51648  -1.87011 
 H                    -1.89656  -2.27229  -1.41155 
 H                    -1.21837  -2.37407  -2.80674 
 H                     2.49896   2.59116   2.04775 
 H                     2.36978   1.12668   3.08535 
 H                     0.88724   1.89843   2.45763 
 
 Add virtual bond connecting atoms H28        and O12        Dist= 2.90D+00.
 Add virtual bond connecting atoms H29        and O13        Dist= 3.25D+00.
 Add virtual bond connecting atoms H30        and O15        Dist= 3.28D+00.
 Add virtual bond connecting atoms O37        and H33        Dist= 3.28D+00.
 Add virtual bond connecting atoms O14        and H35        Dist= 3.49D+00.
 Add virtual bond connecting atoms O14        and H38        Dist= 3.44D+00.
 Add virtual bond connecting atoms H31        and N4         Dist= 3.35D+00.

 GradGradGradGradGradGradGradGradGradGradGradGradGradGradGradGradGradGrad
 Berny optimization.
 Initialization pass.
                           ----------------------------
                           !    Initial Parameters    !
                           ! (Angstroms and Degrees)  !
 --------------------------                            --------------------------
 ! Name  Definition              Value          Derivative Info.                !
 --------------------------------------------------------------------------------
 ! R1    R(1,2)                  1.398          estimate D2E/DX2                !
 ! R2    R(1,6)                  1.393          estimate D2E/DX2                !
 ! R3    R(1,26)                 1.0912         estimate D2E/DX2                !
 ! R4    R(2,3)                  1.3963         estimate D2E/DX2                !
 ! R5    R(2,7)                  1.5084         estimate D2E/DX2                !
 ! R6    R(3,4)                  1.3373         estimate D2E/DX2                !
 ! R7    R(3,23)                 1.0904         estimate D2E/DX2                !
 ! R8    R(4,5)                  1.3403         estimate D2E/DX2                !
 ! R9    R(4,31)                 1.7714         estimate D2E/DX2                !
 ! R10   R(5,6)                  1.3922         estimate D2E/DX2                !
 ! R11   R(5,24)                 1.0903         estimate D2E/DX2                !
 ! R12   R(6,25)                 1.0881         estimate D2E/DX2                !
 ! R13   R(7,8)                  1.5056         estimate D2E/DX2                !
 ! R14   R(7,11)                 1.5278         estimate D2E/DX2                !
 ! R15   R(7,22)                 1.0988         estimate D2E/DX2                !
 ! R16   R(8,9)                  1.5036         estimate D2E/DX2                !
 ! R17   R(8,27)                 1.4925         estimate D2E/DX2                !
 ! R18   R(8,28)                 1.0795         estimate D2E/DX2                !
 ! R19   R(9,10)                 1.5437         estimate D2E/DX2                !
 ! R20   R(9,16)                 1.094          estimate D2E/DX2                !
 ! R21   R(9,21)                 1.0934         estimate D2E/DX2                !
 ! R22   R(10,11)                1.5364         estimate D2E/DX2                !
 ! R23   R(10,17)                1.0957         estimate D2E/DX2                !
 ! R24   R(10,18)                1.0934         estimate D2E/DX2                !
 ! R25   R(11,19)                1.0961         estimate D2E/DX2                !
 ! R26   R(11,20)                1.094          estimate D2E/DX2                !
 ! R27   R(12,28)                1.5345         estimate D2E/DX2                !
 ! R28   R(12,29)                0.9817         estimate D2E/DX2                !
 ! R29   R(12,30)                0.9818         estimate D2E/DX2                !
 ! R30   R(13,29)                1.722          estimate D2E/DX2                !
 ! R31   R(13,35)                0.9744         estimate D2E/DX2                !
 ! R32   R(13,36)                0.9599         estimate D2E/DX2                !
 ! R33   R(14,31)                0.9921         estimate D2E/DX2                !
 ! R34   R(14,32)                0.9604         estimate D2E/DX2                !
 ! R35   R(14,35)                1.849          estimate D2E/DX2                !
 ! R36   R(14,38)                1.8199         estimate D2E/DX2                !
 ! R37   R(15,30)                1.7331         estimate D2E/DX2                !
 ! R38   R(15,33)                0.9795         estimate D2E/DX2                !
 ! R39   R(15,34)                0.9718         estimate D2E/DX2                !
 ! R40   R(27,40)                1.0933         estimate D2E/DX2                !
 ! R41   R(27,41)                1.0935         estimate D2E/DX2                !
 ! R42   R(27,42)                1.0925         estimate D2E/DX2                !
 ! R43   R(33,37)                1.7362         estimate D2E/DX2                !
 ! R44   R(37,38)                0.9759         estimate D2E/DX2                !
 ! R45   R(37,39)                0.9589         estimate D2E/DX2                !
 ! A1    A(2,1,6)              119.5396         estimate D2E/DX2                !
 ! A2    A(2,1,26)             120.424          estimate D2E/DX2                !
 ! A3    A(6,1,26)             120.0342         estimate D2E/DX2                !
 ! A4    A(1,2,3)              117.5003         estimate D2E/DX2                !
 ! A5    A(1,2,7)              120.871          estimate D2E/DX2                !
 ! A6    A(3,2,7)              121.6286         estimate D2E/DX2                !
 ! A7    A(2,3,4)              123.3594         estimate D2E/DX2                !
 ! A8    A(2,3,23)             120.9685         estimate D2E/DX2                !
 ! A9    A(4,3,23)             115.672          estimate D2E/DX2                !
 ! A10   A(3,4,5)              118.5311         estimate D2E/DX2                !
 ! A11   A(3,4,31)             108.4702         estimate D2E/DX2                !
 ! A12   A(5,4,31)             132.7744         estimate D2E/DX2                !
 ! A13   A(4,5,6)              122.6275         estimate D2E/DX2                !
 ! A14   A(4,5,24)             116.5432         estimate D2E/DX2                !
 ! A15   A(6,5,24)             120.829          estimate D2E/DX2                !
 ! A16   A(1,6,5)              118.4418         estimate D2E/DX2                !
 ! A17   A(1,6,25)             121.2703         estimate D2E/DX2                !
 ! A18   A(5,6,25)             120.2875         estimate D2E/DX2                !
 ! A19   A(2,7,8)              112.1381         estimate D2E/DX2                !
 ! A20   A(2,7,11)             118.258          estimate D2E/DX2                !
 ! A21   A(2,7,22)             108.9865         estimate D2E/DX2                !
 ! A22   A(8,7,11)             101.0906         estimate D2E/DX2                !
 ! A23   A(8,7,22)             106.257          estimate D2E/DX2                !
 ! A24   A(11,7,22)            109.3259         estimate D2E/DX2                !
 ! A25   A(7,8,9)              107.03           estimate D2E/DX2                !
 ! A26   A(7,8,27)             115.7834         estimate D2E/DX2                !
 ! A27   A(7,8,28)             110.1087         estimate D2E/DX2                !
 ! A28   A(9,8,27)             113.1798         estimate D2E/DX2                !
 ! A29   A(9,8,28)             106.6852         estimate D2E/DX2                !
 ! A30   A(27,8,28)            103.6848         estimate D2E/DX2                !
 ! A31   A(8,9,10)             105.0099         estimate D2E/DX2                !
 ! A32   A(8,9,16)             108.8402         estimate D2E/DX2                !
 ! A33   A(8,9,21)             107.4288         estimate D2E/DX2                !
 ! A34   A(10,9,16)            112.5562         estimate D2E/DX2                !
 ! A35   A(10,9,21)            113.6631         estimate D2E/DX2                !
 ! A36   A(16,9,21)            109.0561         estimate D2E/DX2                !
 ! A37   A(9,10,11)            105.3429         estimate D2E/DX2                !
 ! A38   A(9,10,17)            109.9427         estimate D2E/DX2                !
 ! A39   A(9,10,18)            111.3837         estimate D2E/DX2                !
 ! A40   A(11,10,17)           110.683          estimate D2E/DX2                !
 ! A41   A(11,10,18)           111.4324         estimate D2E/DX2                !
 ! A42   A(17,10,18)           108.0661         estimate D2E/DX2                !
 ! A43   A(7,11,10)            103.7872         estimate D2E/DX2                !
 ! A44   A(7,11,19)            110.3241         estimate D2E/DX2                !
 ! A45   A(7,11,20)            111.0915         estimate D2E/DX2                !
 ! A46   A(10,11,19)           110.2623         estimate D2E/DX2                !
 ! A47   A(10,11,20)           113.1677         estimate D2E/DX2                !
 ! A48   A(19,11,20)           108.1798         estimate D2E/DX2                !
 ! A49   A(28,12,29)           121.48           estimate D2E/DX2                !
 ! A50   A(28,12,30)           113.0312         estimate D2E/DX2                !
 ! A51   A(29,12,30)           106.4819         estimate D2E/DX2                !
 ! A52   A(29,13,35)           116.4462         estimate D2E/DX2                !
 ! A53   A(29,13,36)           120.125          estimate D2E/DX2                !
 ! A54   A(35,13,36)           106.6566         estimate D2E/DX2                !
 ! A55   A(31,14,32)           107.4029         estimate D2E/DX2                !
 ! A56   A(31,14,35)            96.6975         estimate D2E/DX2                !
 ! A57   A(31,14,38)           101.3909         estimate D2E/DX2                !
 ! A58   A(32,14,35)           120.0429         estimate D2E/DX2                !
 ! A59   A(32,14,38)           120.9329         estimate D2E/DX2                !
 ! A60   A(35,14,38)           105.9475         estimate D2E/DX2                !
 ! A61   A(30,15,33)           105.0944         estimate D2E/DX2                !
 ! A62   A(30,15,34)           117.0188         estimate D2E/DX2                !
 ! A63   A(33,15,34)           105.2484         estimate D2E/DX2                !
 ! A64   A(8,27,40)            108.854          estimate D2E/DX2                !
 ! A65   A(8,27,41)            108.0091         estimate D2E/DX2                !
 ! A66   A(8,27,42)            108.6122         estimate D2E/DX2                !
 ! A67   A(40,27,41)           110.7475         estimate D2E/DX2                !
 ! A68   A(40,27,42)           111.0203         estimate D2E/DX2                !
 ! A69   A(41,27,42)           109.5188         estimate D2E/DX2                !
 ! A70   A(4,31,14)            157.4277         estimate D2E/DX2                !
 ! A71   A(13,35,14)           162.6006         estimate D2E/DX2                !
 ! A72   A(33,37,38)           125.1078         estimate D2E/DX2                !
 ! A73   A(33,37,39)           126.7423         estimate D2E/DX2                !
 ! A74   A(38,37,39)           106.9323         estimate D2E/DX2                !
 ! A75   L(8,28,12,3,-1)       189.8686         estimate D2E/DX2                !
 ! A76   L(12,29,13,1,-1)      174.5521         estimate D2E/DX2                !
 ! A77   L(12,30,15,3,-1)      169.0351         estimate D2E/DX2                !
 ! A78   L(15,33,37,1,-1)      177.6183         estimate D2E/DX2                !
 ! A79   L(14,38,37,1,-1)      170.6328         estimate D2E/DX2                !
 ! A80   L(8,28,12,3,-2)       170.4676         estimate D2E/DX2                !
 ! A81   L(12,29,13,1,-2)      176.0197         estimate D2E/DX2                !
 ! A82   L(12,30,15,3,-2)      174.2771         estimate D2E/DX2                !
 ! A83   L(15,33,37,1,-2)      186.5681         estimate D2E/DX2                !
 ! A84   L(14,38,37,1,-2)      169.0447         estimate D2E/DX2                !
 ! D1    D(6,1,2,3)              0.16           estimate D2E/DX2                !
 ! D2    D(6,1,2,7)           -179.9678         estimate D2E/DX2                !
 ! D3    D(26,1,2,3)          -179.2961         estimate D2E/DX2                !
 ! D4    D(26,1,2,7)             0.5762         estimate D2E/DX2                !
 ! D5    D(2,1,6,5)             -0.0301         estimate D2E/DX2                !
 ! D6    D(2,1,6,25)          -179.8269         estimate D2E/DX2                !
 ! D7    D(26,1,6,5)           179.4281         estimate D2E/DX2                !
 ! D8    D(26,1,6,25)           -0.3687         estimate D2E/DX2                !
 ! D9    D(1,2,3,4)             -0.1455         estimate D2E/DX2                !
 ! D10   D(1,2,3,23)           179.773          estimate D2E/DX2                !
 ! D11   D(7,2,3,4)            179.9833         estimate D2E/DX2                !
 ! D12   D(7,2,3,23)            -0.0983         estimate D2E/DX2                !
 ! D13   D(1,2,7,8)            105.726          estimate D2E/DX2                !
 ! D14   D(1,2,7,11)          -137.245          estimate D2E/DX2                !
 ! D15   D(1,2,7,22)           -11.6347         estimate D2E/DX2                !
 ! D16   D(3,2,7,8)            -74.4071         estimate D2E/DX2                !
 ! D17   D(3,2,7,11)            42.6219         estimate D2E/DX2                !
 ! D18   D(3,2,7,22)           168.2322         estimate D2E/DX2                !
 ! D19   D(2,3,4,5)             -0.0097         estimate D2E/DX2                !
 ! D20   D(2,3,4,31)          -175.2542         estimate D2E/DX2                !
 ! D21   D(23,3,4,5)          -179.9321         estimate D2E/DX2                !
 ! D22   D(23,3,4,31)            4.8234         estimate D2E/DX2                !
 ! D23   D(3,4,5,6)              0.1533         estimate D2E/DX2                !
 ! D24   D(3,4,5,24)           179.9802         estimate D2E/DX2                !
 ! D25   D(31,4,5,6)           174.0038         estimate D2E/DX2                !
 ! D26   D(31,4,5,24)           -6.1693         estimate D2E/DX2                !
 ! D27   D(3,4,31,14)           18.4264         estimate D2E/DX2                !
 ! D28   D(5,4,31,14)         -155.8789         estimate D2E/DX2                !
 ! D29   D(4,5,6,1)             -0.1332         estimate D2E/DX2                !
 ! D30   D(4,5,6,25)           179.6657         estimate D2E/DX2                !
 ! D31   D(24,5,6,1)          -179.9529         estimate D2E/DX2                !
 ! D32   D(24,5,6,25)           -0.154          estimate D2E/DX2                !
 ! D33   D(2,7,8,9)            166.275          estimate D2E/DX2                !
 ! D34   D(2,7,8,27)           -66.4855         estimate D2E/DX2                !
 ! D35   D(2,7,8,28)            50.6857         estimate D2E/DX2                !
 ! D36   D(11,7,8,9)            39.3622         estimate D2E/DX2                !
 ! D37   D(11,7,8,27)          166.6016         estimate D2E/DX2                !
 ! D38   D(11,7,8,28)          -76.2271         estimate D2E/DX2                !
 ! D39   D(22,7,8,9)           -74.7451         estimate D2E/DX2                !
 ! D40   D(22,7,8,27)           52.4944         estimate D2E/DX2                !
 ! D41   D(22,7,8,28)          169.6656         estimate D2E/DX2                !
 ! D42   D(2,7,11,10)         -163.7029         estimate D2E/DX2                !
 ! D43   D(2,7,11,19)          -45.5936         estimate D2E/DX2                !
 ! D44   D(2,7,11,20)           74.3708         estimate D2E/DX2                !
 ! D45   D(8,7,11,10)          -40.9287         estimate D2E/DX2                !
 ! D46   D(8,7,11,19)           77.1806         estimate D2E/DX2                !
 ! D47   D(8,7,11,20)         -162.855          estimate D2E/DX2                !
 ! D48   D(22,7,11,10)          70.8519         estimate D2E/DX2                !
 ! D49   D(22,7,11,19)        -171.0388         estimate D2E/DX2                !
 ! D50   D(22,7,11,20)         -51.0744         estimate D2E/DX2                !
 ! D51   D(7,8,9,10)           -22.0812         estimate D2E/DX2                !
 ! D52   D(7,8,9,16)            98.6567         estimate D2E/DX2                !
 ! D53   D(7,8,9,21)          -143.3938         estimate D2E/DX2                !
 ! D54   D(27,8,9,10)         -150.8384         estimate D2E/DX2                !
 ! D55   D(27,8,9,16)          -30.1005         estimate D2E/DX2                !
 ! D56   D(27,8,9,21)           87.849          estimate D2E/DX2                !
 ! D57   D(28,8,9,10)           95.7703         estimate D2E/DX2                !
 ! D58   D(28,8,9,16)         -143.4918         estimate D2E/DX2                !
 ! D59   D(28,8,9,21)          -25.5423         estimate D2E/DX2                !
 ! D60   D(7,8,12,29)          -69.1364         estimate D2E/DX2                !
 ! D61   D(7,8,12,30)           61.2119         estimate D2E/DX2                !
 ! D62   D(9,8,12,29)          177.9843         estimate D2E/DX2                !
 ! D63   D(9,8,12,30)          -51.6674         estimate D2E/DX2                !
 ! D64   D(27,8,12,29)          60.2403         estimate D2E/DX2                !
 ! D65   D(27,8,12,30)        -169.4114         estimate D2E/DX2                !
 ! D66   D(7,8,27,40)          -56.3687         estimate D2E/DX2                !
 ! D67   D(7,8,27,41)         -176.6758         estimate D2E/DX2                !
 ! D68   D(7,8,27,42)           64.6257         estimate D2E/DX2                !
 ! D69   D(9,8,27,40)           67.7324         estimate D2E/DX2                !
 ! D70   D(9,8,27,41)          -52.5747         estimate D2E/DX2                !
 ! D71   D(9,8,27,42)         -171.2732         estimate D2E/DX2                !
 ! D72   D(28,8,27,40)        -177.072          estimate D2E/DX2                !
 ! D73   D(28,8,27,41)          62.621          estimate D2E/DX2                !
 ! D74   D(28,8,27,42)         -56.0775         estimate D2E/DX2                !
 ! D75   D(8,9,10,11)           -4.1298         estimate D2E/DX2                !
 ! D76   D(8,9,10,17)          115.1562         estimate D2E/DX2                !
 ! D77   D(8,9,10,18)         -125.0843         estimate D2E/DX2                !
 ! D78   D(16,9,10,11)        -122.3852         estimate D2E/DX2                !
 ! D79   D(16,9,10,17)          -3.0993         estimate D2E/DX2                !
 ! D80   D(16,9,10,18)         116.6603         estimate D2E/DX2                !
 ! D81   D(21,9,10,11)         113.0036         estimate D2E/DX2                !
 ! D82   D(21,9,10,17)        -127.7104         estimate D2E/DX2                !
 ! D83   D(21,9,10,18)          -7.9509         estimate D2E/DX2                !
 ! D84   D(9,10,11,7)           28.1448         estimate D2E/DX2                !
 ! D85   D(9,10,11,19)         -90.0073         estimate D2E/DX2                !
 ! D86   D(9,10,11,20)         148.6786         estimate D2E/DX2                !
 ! D87   D(17,10,11,7)         -90.6476         estimate D2E/DX2                !
 ! D88   D(17,10,11,19)        151.2003         estimate D2E/DX2                !
 ! D89   D(17,10,11,20)         29.8862         estimate D2E/DX2                !
 ! D90   D(18,10,11,7)         149.0674         estimate D2E/DX2                !
 ! D91   D(18,10,11,19)         30.9154         estimate D2E/DX2                !
 ! D92   D(18,10,11,20)        -90.3988         estimate D2E/DX2                !
 ! D93   D(28,12,13,35)         88.633          estimate D2E/DX2                !
 ! D94   D(28,12,13,36)       -139.7371         estimate D2E/DX2                !
 ! D95   D(30,12,13,35)        -39.4571         estimate D2E/DX2                !
 ! D96   D(30,12,13,36)         92.1728         estimate D2E/DX2                !
 ! D97   D(28,12,15,33)        -89.0728         estimate D2E/DX2                !
 ! D98   D(28,12,15,34)        153.8511         estimate D2E/DX2                !
 ! D99   D(29,12,15,33)         42.9307         estimate D2E/DX2                !
 ! D100  D(29,12,15,34)        -74.1454         estimate D2E/DX2                !
 ! D101  D(29,13,35,14)        -45.1687         estimate D2E/DX2                !
 ! D102  D(36,13,35,14)        177.6154         estimate D2E/DX2                !
 ! D103  D(32,14,31,4)         173.315          estimate D2E/DX2                !
 ! D104  D(35,14,31,4)          48.9075         estimate D2E/DX2                !
 ! D105  D(38,14,31,4)         -58.9025         estimate D2E/DX2                !
 ! D106  D(31,14,35,13)        -36.7489         estimate D2E/DX2                !
 ! D107  D(32,14,35,13)       -151.3184         estimate D2E/DX2                !
 ! D108  D(38,14,35,13)         67.1597         estimate D2E/DX2                !
 ! D109  D(31,14,37,33)         92.9246         estimate D2E/DX2                !
 ! D110  D(31,14,37,39)        -70.8149         estimate D2E/DX2                !
 ! D111  D(32,14,37,33)       -147.168          estimate D2E/DX2                !
 ! D112  D(32,14,37,39)         49.0925         estimate D2E/DX2                !
 ! D113  D(35,14,37,33)         -6.0617         estimate D2E/DX2                !
 ! D114  D(35,14,37,39)       -169.8012         estimate D2E/DX2                !
 ! D115  D(30,15,37,38)        -22.3984         estimate D2E/DX2                !
 ! D116  D(30,15,37,39)        143.0995         estimate D2E/DX2                !
 ! D117  D(34,15,37,38)        100.0707         estimate D2E/DX2                !
 ! D118  D(34,15,37,39)        -94.4314         estimate D2E/DX2                !
 --------------------------------------------------------------------------------
 Trust Radius=3.00D-01 FncErr=1.00D-07 GrdErr=1.00D-06 EigMax=2.50D+02 EigMin=1.00D-04
 Number of steps in this run=    252 maximum allowed number of steps=    252.
 GradGradGradGradGradGradGradGradGradGradGradGradGradGradGradGradGradGrad

                          Input orientation:                          
 ---------------------------------------------------------------------
 Center     Atomic      Atomic             Coordinates (Angstroms)
 Number     Number       Type             X           Y           Z
 ---------------------------------------------------------------------
      1          6           0       -0.443668    3.006029   -0.078456
      2          6           0        0.034438    1.699592   -0.216880
      3          6           0       -0.908952    0.676232   -0.328840
      4          7           0       -2.229279    0.887585   -0.306923
      5          6           0       -2.674235    2.144519   -0.170485
      6          6           0       -1.817410    3.235667   -0.054176
      7          6           0        1.515710    1.416561   -0.246082
      8          7           0        2.000818    0.799268    1.038579
      9          6           0        3.378466    0.257872    0.774305
     10          6           0        3.444574    0.062522   -0.755518
     11          6           0        2.040166    0.412350   -1.271081
     12          8           0        0.811522   -1.431944    1.626549
     13          8           0       -1.814267   -1.658062    2.210304
     14          8           0       -3.152004   -1.664291   -0.242646
     15          8           0        1.256172   -2.964206   -0.552297
     16          1           0        4.116971    0.978576    1.137625
     17          1           0        4.193842    0.736047   -1.186250
     18          1           0        3.721421   -0.962917   -1.014870
     19          1           0        1.407320   -0.482512   -1.285637
     20          1           0        2.045746    0.842845   -2.276770
     21          1           0        3.478937   -0.672246    1.340223
     22          1           0        2.058852    2.365372   -0.355753
     23          1           0       -0.598719   -0.362871   -0.442852
     24          1           0       -3.756018    2.279643   -0.157007
     25          1           0       -2.220237    4.241130    0.049531
     26          1           0        0.251550    3.843341    0.001318
     27          6           0        1.935373    1.675397    2.245121
     28          1           0        1.381405   -0.044674    1.301895
     29          1           0       -0.123991   -1.550843    1.899459
     30          1           0        0.981596   -2.092029    0.919979
     31          1           0       -3.049502   -0.682166   -0.338336
     32          1           0       -4.082094   -1.869429   -0.366238
     33          1           0        0.453415   -2.811988   -1.092432
     34          1           0        1.339139   -3.930037   -0.484334
     35          1           0       -2.389745   -1.798065    1.436606
     36          1           0       -2.140847   -2.235409    2.904202
     37          8           0       -1.070451   -2.516481   -1.870109
     38          1           0       -1.896560   -2.272290   -1.411547
     39          1           0       -1.218371   -2.374074   -2.806740
     40          1           0        2.498963    2.591160    2.047746
     41          1           0        2.369781    1.126679    3.085352
     42          1           0        0.887238    1.898434    2.457628
 ---------------------------------------------------------------------
                    Distance matrix (angstroms):
                    1          2          3          4          5
     1  C    0.000000
     2  C    1.398043   0.000000
     3  C    2.388961   1.396347   0.000000
     4  N    2.780002   2.406632   1.337316   0.000000
     5  C    2.392927   2.745364   2.301558   1.340330   0.000000
     6  C    1.393015   2.411502   2.729733   2.397291   1.392222
     7  C    2.528571   1.508352   2.536518   3.782652   4.253384
     8  N    3.477510   2.500682   3.217411   4.439808   5.012749
     9  C    4.784169   3.774060   4.446786   5.745642   6.409934
    10  C    4.923522   3.820884   4.417226   5.751050   6.489746
    11  C    3.784040   2.606008   3.107209   4.402682   5.141721
    12  O    4.917128   3.715994   3.350818   4.285440   5.307629
    13  O    5.373147   4.536824   3.565919   3.604023   4.568077
    14  O    5.401290   4.633550   3.242955   2.714337   3.839336
    15  O    6.225567   4.832820   4.241519   5.200468   6.457008
    16  H    5.137008   4.361379   5.244219   6.509216   7.013633
    17  H    5.280769   4.378212   5.174673   6.484802   7.084212
    18  H    5.829011   4.617314   4.959617   6.271872   7.160556
    19  H    4.129572   2.790811   2.761026   4.007480   4.980356
    20  H    3.963475   3.003751   3.542941   4.707243   5.330011
    21  H    5.561402   4.462596   4.884438   6.142466   6.933825
    22  H    2.598065   2.135603   3.414935   4.535891   4.741858
    23  H    3.392096   2.169264   1.090403   2.059331   3.266337
    24  H    3.391971   3.835049   3.272039   2.071529   1.090273
    25  H    2.167499   3.407925   3.817215   3.372448   2.156455
    26  H    1.091230   2.165735   3.389152   3.871178   3.387585
    27  C    3.581819   3.110560   3.964062   4.947514   5.225295
    28  H    3.813535   2.676464   2.902540   4.061335   4.838252
    29  H    4.977893   3.881922   3.246743   3.904650   4.944099
    30  H    5.386877   4.070129   3.577288   4.548968   5.701101
    31  H    4.523350   3.898488   2.535210   1.771404   2.856422
    32  H    6.090242   5.450326   4.068245   3.322284   4.258188
    33  H    5.973460   4.614812   3.821884   4.636886   5.932887
    34  H    7.173015   5.785024   5.127944   5.997880   7.287380
    35  H    5.400180   4.565554   3.381079   3.205988   4.267042
    36  H    6.264929   5.473322   4.521922   4.480205   5.377915
    37  O    5.839606   4.661461   3.548945   3.920982   5.213997
    38  H    5.634597   4.575132   3.292629   3.363883   4.653302
    39  H    6.081875   4.987149   3.942093   4.231955   5.430199
    40  H    3.654029   3.463713   4.574822   5.550037   5.646416
    41  H    4.632185   4.084947   4.754966   5.719795   6.089218
    42  H    3.070798   2.814214   3.533338   4.286868   4.433015
                    6          7          8          9         10
     6  C    0.000000
     7  C    3.802060   0.000000
     8  N    4.659294   1.505568   0.000000
     9  C    6.045723   2.419423   1.503617   0.000000
    10  C    6.184594   2.411112   2.417852   1.543661   0.000000
    11  C    4.932836   1.527782   2.342175   2.449186   1.536407
    12  O    5.614509   3.480892   2.595851   3.189200   3.852354
    13  O    5.392260   5.155180   4.686820   5.718162   6.277891
    14  O    5.081953   5.592782   5.853395   6.883018   6.838111
    15  O    6.937828   4.399119   4.153206   4.079925   3.740519
    16  H    6.460010   2.978764   2.126044   1.093986   2.208000
    17  H    6.607938   2.918802   3.124614   2.176526   1.095705
    18  H    7.016387   3.334383   3.206622   2.192964   1.093359
    19  H    5.073484   2.167695   2.719776   2.945666   2.174510
    20  H    5.058606   2.175726   3.315940   3.380443   2.209034
    21  H    6.728107   3.276238   2.107410   1.093379   2.221080
    22  H    3.984190   1.098760   2.097668   2.731294   2.717196
    23  H    3.819130   2.770543   3.209797   4.205329   4.077614
    24  H    2.163968   5.342655   6.063175   7.473671   7.557934
    25  H    1.088109   4.692854   5.535516   6.909205   7.085122
    26  H    2.157068   2.747466   3.660906   4.819824   5.006276
    27  C    4.669538   2.539528   1.492524   2.501039   3.725975
    28  H    4.778282   2.132951   1.079466   2.087615   2.915666
    29  H    5.440132   4.012163   3.283131   4.099345   4.731438
    30  H    6.096536   3.735663   3.067976   3.359798   3.676362
    31  H    4.116821   5.025368   5.440246   6.590934   6.549933
    32  H    5.593584   6.492117   6.789497   7.841314   7.780405
    33  H    6.542840   4.441329   4.469545   4.632998   4.162133
    34  H    7.841948   5.354816   5.012326   4.825102   4.521828
    35  H    5.280952   5.330838   5.116797   6.159365   6.504342
    36  H    6.228104   6.052403   5.462893   6.419948   7.061938
    37  O    6.078056   4.979409   5.374695   5.872208   5.317802
    38  H    5.673298   5.158441   5.534179   6.245444   5.865955
    39  H    6.277312   5.329267   5.934623   6.393898   5.646908
    40  H    4.844021   2.758282   2.115997   2.799895   3.891848
    41  H    5.642432   3.451365   2.105377   2.667060   4.127940
    42  H    3.925872   2.817308   2.112327   3.425090   4.498316
                   11         12         13         14         15
    11  C    0.000000
    12  O    3.647910   0.000000
    13  O    5.591360   2.699383   0.000000
    14  O    5.685837   4.388327   2.794019   0.000000
    15  O    3.540117   2.700539   4.331925   4.606265   0.000000
    16  H    3.230417   4.120151   6.578912   7.856710   5.156116
    17  H    2.179517   4.904295   7.305184   7.785465   4.766935
    18  H    2.187149   3.957852   6.444285   6.952138   3.208829
    19  H    1.096122   3.120452   4.897157   4.824092   2.592188
    20  H    1.093969   4.683361   6.425579   6.118823   4.253337
    21  H    3.172589   2.788230   5.454070   6.889050   3.711522
    22  H    2.156958   4.461498   6.146033   6.588171   5.393267
    23  H    2.872394   2.722888   3.192853   2.872811   3.196802
    24  H    6.190613   6.149746   4.987993   3.990837   7.264727
    25  H    5.878317   6.622863   6.295571   5.985612   8.022748
    26  H    4.073063   5.548295   6.277950   6.479021   6.903510
    27  C    3.737639   3.361732   5.017266   6.574489   5.460108
    28  H    2.695003   1.534498   3.693311   5.055746   3.460835
    29  H    4.311615   0.981734   1.721962   3.710842   3.148579
    30  H    3.491880   0.981773   3.109681   4.315241   1.733113
    31  H    5.288922   4.396640   2.995621   0.992085   4.877737
    32  H    6.596008   5.301893   3.438936   0.960429   5.452544
    33  H    3.598062   3.070117   4.169172   3.877936   0.979456
    34  H    4.468415   3.312805   4.729367   5.036108   0.971767
    35  H    5.642837   3.227729   0.974364   1.849006   4.313737
    36  H    6.474912   3.315786   0.959937   3.354291   4.900844
    37  O    4.314258   4.116389   4.235554   2.776279   2.711136
    38  H    4.767057   4.155709   3.674487   1.819926   3.340176
    39  H    4.554171   4.966098   5.102793   3.288967   3.399137
    40  H    3.996539   4.382948   6.056919   7.435603   6.258342
    41  H    4.426897   3.332091   5.101642   7.025325   5.586408
    42  H    4.176238   3.433343   4.473026   6.024945   5.730710
                   16         17         18         19         20
    16  H    0.000000
    17  H    2.337761   0.000000
    18  H    2.925592   1.771731   0.000000
    19  H    3.917804   3.042938   2.378900   0.000000
    20  H    3.995809   2.411422   2.767861   1.773839   0.000000
    21  H    1.781389   2.979504   2.385320   3.350035   4.175186
    22  H    2.896418   2.811158   3.778370   3.065880   2.451238
    23  H    5.151225   4.972816   4.398962   2.179173   3.436597
    24  H    8.084108   8.163474   8.195256   5.963503   6.341786
    25  H    7.210299   7.413041   7.969840   6.103658   5.929471
    26  H    4.943637   5.158223   6.014379   4.658869   4.172745
    27  C    2.543910   4.213949   4.558312   4.171530   4.599220
    28  H    2.925294   3.835387   3.418515   2.624442   3.746449
    29  H    4.996410   5.778853   4.860675   3.692029   5.279999
    30  H    4.393923   4.769983   3.539092   2.763427   4.468233
    31  H    7.502990   7.429422   6.810427   4.560757   5.660807
    32  H    8.808939   8.715047   7.882724   5.736070   6.968284
    33  H    5.723912   5.156370   3.755655   2.524623   4.158843
    34  H    5.868695   5.514921   3.841944   3.540080   5.147089
    35  H    7.080712   7.526268   6.637285   4.853760   6.359021
    36  H    7.253329   8.104914   7.165511   5.763409   7.337962
    37  O    6.940550   6.225703   5.109504   3.258525   4.600123
    38  H    7.295818   6.796606   5.782173   3.759625   5.098476
    39  H    7.433986   6.449100   5.440929   3.575754   4.613447
    40  H    2.459004   4.095460   4.848246   4.663753   4.686518
    41  H    2.620734   4.661156   4.796369   4.756193   5.379397
    42  H    3.608285   5.055949   5.317722   4.466702   4.987077
                   21         22         23         24         25
    21  H    0.000000
    22  H    3.757672   0.000000
    23  H    4.461205   3.809669   0.000000
    24  H    7.956125   5.818897   4.127121   0.000000
    25  H    7.634640   4.689704   4.905975   2.499742   0.000000
    26  H    5.709573   2.361828   4.314216   4.304744   2.504055
    27  C    2.951755   2.693670   4.219165   6.207033   5.354689
    28  H    2.189739   3.002508   2.658248   5.824428   5.736581
    29  H    3.750436   5.018717   2.668907   5.665094   6.431441
    30  H    2.903291   4.759874   2.710109   6.535779   7.149707
    31  H    6.740784   5.948367   2.473704   3.050305   5.007691
    32  H    7.843115   7.459549   3.795983   4.167122   6.401430
    33  H    4.432842   5.470391   2.743559   6.672260   7.628825
    34  H    4.303597   6.337720   4.059764   8.039148   8.928726
    35  H    5.976469   6.351124   2.966466   4.586285   6.198757
    36  H    6.039162   7.030787   4.133682   5.689066   7.078206
    37  O    5.865523   5.993188   2.626334   5.757586   7.118450
    38  H    6.247267   6.186105   2.503726   5.074598   6.683125
    39  H    6.492936   6.261779   3.164944   5.926029   7.274816
    40  H    3.480052   2.453872   4.952274   6.639485   5.383875
    41  H    2.740772   3.670455   4.845511   7.026211   6.323313
    42  H    3.817577   3.083151   3.966655   5.342421   4.576413
                   26         27         28         29         30
    26  H    0.000000
    27  C    3.545404   0.000000
    28  H    4.252615   2.038431   0.000000
    29  H    5.730723   3.843057   2.211752   0.000000
    30  H    6.050250   4.105994   2.120700   1.573082   0.000000
    31  H    5.611820   6.089444   4.767567   3.784302   4.452058
    32  H    7.179924   7.456198   5.996851   4.571811   5.229231
    33  H    6.747625   5.785506   3.775181   3.297771   2.201616
    34  H    7.864103   6.263091   4.276499   3.672027   2.340557
    35  H    6.392335   5.605825   4.161021   2.325724   3.423340
    36  H    7.148531   5.687210   4.446680   2.354962   3.702344
    37  O    6.759975   6.598631   4.709887   4.004733   3.489362
    38  H    6.634117   6.605994   4.803134   3.824297   3.708408
    39  H    6.978689   7.201778   5.391273   4.901396   4.336801
    40  H    3.287353   1.093258   2.958522   4.904902   5.050398
    41  H    4.623681   1.093522   2.351526   3.846344   4.120191
    42  H    3.196908   1.092470   2.314215   3.637534   4.277507
                   31         32         33         34         35
    31  H    0.000000
    32  H    1.573727   0.000000
    33  H    4.168361   4.688989   0.000000
    34  H    5.461699   5.800846   1.550588   0.000000
    35  H    2.197937   2.473739   3.937973   4.705305   0.000000
    36  H    3.708405   3.820754   4.799554   5.144341   1.551470
    37  O    3.102851   3.427871   1.736166   3.118435   3.631945
    38  H    2.238203   2.455917   2.432178   3.752012   2.929180
    39  H    3.508363   3.796265   2.434233   3.788858   4.439582
    40  H    6.869754   8.308699   6.575637   7.091025   6.598352
    41  H    6.660495   7.906759   6.053052   6.274971   5.824567
    42  H    5.474928   6.845822   5.914322   6.544496   5.044325
                   36         37         38         39         40
    36  H    0.000000
    37  O    4.900897   0.000000
    38  H    4.322815   0.975892   0.000000
    39  H    5.786627   0.958873   1.554627   0.000000
    40  H    6.749602   7.360591   7.412185   7.876431   0.000000
    41  H    5.628696   7.047298   7.069424   7.736075   1.799449
    42  H    5.143675   6.484854   6.333639   7.099400   1.801535
                   41         42
    41  H    0.000000
    42  H    1.785379   0.000000
 Stoichiometry    C10H25N2O5(1+)
 Framework group  C1[X(C10H25N2O5)]
 Deg. of freedom   120
 Full point group                 C1      NOp   1
 Largest Abelian subgroup         C1      NOp   1
 Largest concise Abelian subgroup C1      NOp   1
                         Standard orientation:                         
 ---------------------------------------------------------------------
 Center     Atomic      Atomic             Coordinates (Angstroms)
 Number     Number       Type             X           Y           Z
 ---------------------------------------------------------------------
      1          6           0        0.093281    2.927302   -0.456728
      2          6           0        0.249849    1.538832   -0.503204
      3          6           0       -0.905557    0.757234   -0.440537
      4          7           0       -2.136000    1.270704   -0.336748
      5          6           0       -2.271740    2.603322   -0.289970
      6          6           0       -1.184610    3.471097   -0.348230
      7          6           0        1.619517    0.917898   -0.619720
      8          7           0        2.077427    0.306319    0.677594
      9          6           0        3.265523   -0.559254    0.361248
     10          6           0        3.135455   -0.882674   -1.142538
     11          6           0        1.801786   -0.257097   -1.579033
     12          8           0        0.481159   -1.534874    1.572233
     13          8           0       -2.057963   -1.098558    2.377933
     14          8           0       -3.597281   -0.983953    0.049004
     15          8           0        0.354126   -3.292774   -0.473875
     16          1           0        4.179027   -0.003974    0.593580
     17          1           0        3.970790   -0.437225   -1.694226
     18          1           0        3.148119   -1.961316   -1.320873
     19          1           0        0.985874   -0.978732   -1.456495
     20          1           0        1.805060    0.080974   -2.619449
     21          1           0        3.209672   -1.440478    1.006075
     22          1           0        2.348371    1.703050   -0.863815
     23          1           0       -0.849315   -0.331142   -0.475934
     24          1           0       -3.288861    2.986792   -0.205647
     25          1           0       -1.339188    4.547579   -0.312553
     26          1           0        0.963147    3.583704   -0.513774
     27          6           0        2.329243    1.264538    1.793853
     28          1           0        1.313271   -0.347517    1.069782
     29          1           0       -0.425706   -1.411557    1.927465
     30          1           0        0.428410   -2.269171    0.922692
     31          1           0       -3.286774   -0.063008   -0.150190
     32          1           0       -4.557207   -0.976261    0.018884
     33          1           0       -0.443030   -3.000521   -0.962205
     34          1           0        0.224366   -4.243178   -0.318223
     35          1           0       -2.723336   -1.160558    1.668835
     36          1           0       -2.436053   -1.528585    3.148390
     37          8           0       -1.930462   -2.420177   -1.644129
     38          1           0       -2.631490   -1.955864   -1.148814
     39          1           0       -2.133910   -2.320382   -2.575841
     40          1           0        3.061884    2.006095    1.464392
     41          1           0        2.709736    0.696755    2.647456
     42          1           0        1.384038    1.740859    2.064402
 ---------------------------------------------------------------------
 Rotational constants (GHZ):           0.4134690           0.3522395           0.2564250
 Standard basis: Aug-CC-pVDZ (5D, 7F)
 There are   650 symmetry adapted cartesian basis functions of A   symmetry.
 There are   616 symmetry adapted basis functions of A   symmetry.
   616 basis functions,  1006 primitive gaussians,   650 cartesian basis functions
    69 alpha electrons       69 beta electrons
       nuclear repulsion energy      1422.6512836190 Hartrees.
 NAtoms=   42 NActive=   42 NUniq=   42 SFac= 1.00D+00 NAtFMM=   60 NAOKFM=F Big=F
 Integral buffers will be    131072 words long.
 Raffenetti 2 integral format.
 Two-electron integral symmetry is turned on.
 Nuclear repulsion after empirical dispersion term =     1422.6154921020 Hartrees.
 One-electron integrals computed using PRISM.
 NBasis=   616 RedAO= T EigKep=  1.33D-06  NBF=   616
 NBsUse=   616 1.00D-06 EigRej= -1.00D+00 NBFU=   616
 ExpMin= 2.97D-02 ExpMax= 1.17D+04 ExpMxC= 4.01D+02 IAcc=3 IRadAn=         5 AccDes= 0.00D+00
 Harris functional with IExCor= 4639 and IRadAn=       5 diagonalized for initial guess.
 HarFok:  IExCor= 4639 AccDes= 0.00D+00 IRadAn=         5 IDoV= 1 UseB2=F ITyADJ=14
 ICtDFT=  3500011 ScaDFX=  1.000000  1.000000  1.000000  1.000000
 FoFCou: FMM=F IPFlag=           0 FMFlag=      100000 FMFlg1=           0
         NFxFlg=           0 DoJE=T BraDBF=F KetDBF=T FulRan=T
         wScrn=  0.000000 ICntrl=       500 IOpCl=  0 I1Cent=   200000004 NGrid=           0
         NMat0=    1 NMatS0=      1 NMatT0=    0 NMatD0=    1 NMtDS0=    0 NMtDT0=    0
 Petite list used in FoFCou.
 Requested convergence on RMS density matrix=1.00D-08 within 128 cycles.
 Requested convergence on MAX density matrix=1.00D-06.
 Requested convergence on             energy=1.00D-06.
 No special actions if energy rises.
 SCF Done:  E(RwB97XD) =  -881.482050918     A.U. after   15 cycles
            NFock= 15  Conv=0.33D-08     -V/T= 2.0063

 **********************************************************************

            Population analysis using the SCF density.

 **********************************************************************

 Orbital symmetries:
       Occupied  (A) (A) (A) (A) (A) (A) (A) (A) (A) (A) (A) (A)
                 (A) (A) (A) (A) (A) (A) (A) (A) (A) (A) (A) (A)
                 (A) (A) (A) (A) (A) (A) (A) (A) (A) (A) (A) (A)
                 (A) (A) (A) (A) (A) (A) (A) (A) (A) (A) (A) (A)
                 (A) (A) (A) (A) (A) (A) (A) (A) (A) (A) (A) (A)
                 (A) (A) (A) (A) (A) (A) (A) (A) (A)
       Virtual   (A) (A) (A) (A) (A) (A) (A) (A) (A) (A) (A) (A)
                 (A) (A) (A) (A) (A) (A) (A) (A) (A) (A) (A) (A)
                 (A) (A) (A) (A) (A) (A) (A) (A) (A) (A) (A) (A)
                 (A) (A) (A) (A) (A) (A) (A) (A) (A) (A) (A) (A)
                 (A) (A) (A) (A) (A) (A) (A) (A) (A) (A) (A) (A)
                 (A) (A) (A) (A) (A) (A) (A) (A) (A) (A) (A) (A)
                 (A) (A) (A) (A) (A) (A) (A) (A) (A) (A) (A) (A)
                 (A) (A) (A) (A) (A) (A) (A) (A) (A) (A) (A) (A)
                 (A) (A) (A) (A) (A) (A) (A) (A) (A) (A) (A) (A)
                 (A) (A) (A) (A) (A) (A) (A) (A) (A) (A) (A) (A)
                 (A) (A) (A) (A) (A) (A) (A) (A) (A) (A) (A) (A)
                 (A) (A) (A) (A) (A) (A) (A) (A) (A) (A) (A) (A)
                 (A) (A) (A) (A) (A) (A) (A) (A) (A) (A) (A) (A)
                 (A) (A) (A) (A) (A) (A) (A) (A) (A) (A) (A) (A)
                 (A) (A) (A) (A) (A) (A) (A) (A) (A) (A) (A) (A)
                 (A) (A) (A) (A) (A) (A) (A) (A) (A) (A) (A) (A)
                 (A) (A) (A) (A) (A) (A) (A) (A) (A) (A) (A) (A)
                 (A) (A) (A) (A) (A) (A) (A) (A) (A) (A) (A) (A)
                 (A) (A) (A) (A) (A) (A) (A) (A) (A) (A) (A) (A)
                 (A) (A) (A) (A) (A) (A) (A) (A) (A) (A) (A) (A)
                 (A) (A) (A) (A) (A) (A) (A) (A) (A) (A) (A) (A)
                 (A) (A) (A) (A) (A) (A) (A) (A) (A) (A) (A) (A)
                 (A) (A) (A) (A) (A) (A) (A) (A) (A) (A) (A) (A)
                 (A) (A) (A) (A) (A) (A) (A) (A) (A) (A) (A) (A)
                 (A) (A) (A) (A) (A) (A) (A) (A) (A) (A) (A) (A)
                 (A) (A) (A) (A) (A) (A) (A) (A) (A) (A) (A) (A)
                 (A) (A) (A) (A) (A) (A) (A) (A) (A) (A) (A) (A)
                 (A) (A) (A) (A) (A) (A) (A) (A) (A) (A) (A) (A)
                 (A) (A) (A) (A) (A) (A) (A) (A) (A) (A) (A) (A)
                 (A) (A) (A) (A) (A) (A) (A) (A) (A) (A) (A) (A)
                 (A) (A) (A) (A) (A) (A) (A) (A) (A) (A) (A) (A)
                 (A) (A) (A) (A) (A) (A) (A) (A) (A) (A) (A) (A)
                 (A) (A) (A) (A) (A) (A) (A) (A) (A) (A) (A) (A)
                 (A) (A) (A) (A) (A) (A) (A) (A) (A) (A) (A) (A)
                 (A) (A) (A) (A) (A) (A) (A) (A) (A) (A) (A) (A)
                 (A) (A) (A) (A) (A) (A) (A) (A) (A) (A) (A) (A)
                 (A) (A) (A) (A) (A) (A) (A) (A) (A) (A) (A) (A)
                 (A) (A) (A) (A) (A) (A) (A) (A) (A) (A) (A) (A)
                 (A) (A) (A) (A) (A) (A) (A) (A) (A) (A) (A) (A)
                 (A) (A) (A) (A) (A) (A) (A) (A) (A) (A) (A) (A)
                 (A) (A) (A) (A) (A) (A) (A) (A) (A) (A) (A) (A)
                 (A) (A) (A) (A) (A) (A) (A) (A) (A) (A) (A) (A)
                 (A) (A) (A) (A) (A) (A) (A) (A) (A) (A) (A) (A)
                 (A) (A) (A) (A) (A) (A) (A) (A) (A) (A) (A) (A)
                 (A) (A) (A) (A) (A) (A) (A) (A) (A) (A) (A) (A)
                 (A) (A) (A) (A) (A) (A) (A)
 The electronic state is 1-A.
 Alpha  occ. eigenvalues --  -19.39469 -19.38397 -19.37960 -19.37876 -19.36916
 Alpha  occ. eigenvalues --  -14.66530 -14.58901 -10.48782 -10.46921 -10.46825
 Alpha  occ. eigenvalues --  -10.46643 -10.46516 -10.45144 -10.45082 -10.43594
 Alpha  occ. eigenvalues --  -10.42810 -10.42430  -1.24177  -1.23633  -1.22853
 Alpha  occ. eigenvalues --   -1.22407  -1.21557  -1.20377  -1.18267  -1.05872
 Alpha  occ. eigenvalues --   -1.03483  -1.00966  -0.96261  -0.93020  -0.87836
 Alpha  occ. eigenvalues --   -0.85792  -0.83909  -0.82208  -0.77466  -0.75227
 Alpha  occ. eigenvalues --   -0.73899  -0.73626  -0.73437  -0.73131  -0.72968
 Alpha  occ. eigenvalues --   -0.72507  -0.71018  -0.69556  -0.67660  -0.66076
 Alpha  occ. eigenvalues --   -0.64821  -0.64338  -0.62722  -0.62589  -0.62235
 Alpha  occ. eigenvalues --   -0.61876  -0.61381  -0.60594  -0.59788  -0.58910
 Alpha  occ. eigenvalues --   -0.58068  -0.57533  -0.56633  -0.56073  -0.55419
 Alpha  occ. eigenvalues --   -0.54180  -0.52965  -0.51847  -0.51273  -0.50989
 Alpha  occ. eigenvalues --   -0.50631  -0.49834  -0.48397  -0.46748
 Alpha virt. eigenvalues --   -0.09808  -0.08575  -0.06213  -0.05579  -0.04635
 Alpha virt. eigenvalues --   -0.04509  -0.03637  -0.03154  -0.02980  -0.02829
 Alpha virt. eigenvalues --   -0.01916  -0.01520  -0.01329  -0.00652  -0.00530
 Alpha virt. eigenvalues --   -0.00325   0.00111   0.00646   0.00985   0.01240
 Alpha virt. eigenvalues --    0.01842   0.01937   0.02435   0.02615   0.02968
 Alpha virt. eigenvalues --    0.03472   0.03598   0.03735   0.03981   0.04331
 Alpha virt. eigenvalues --    0.04721   0.04926   0.05347   0.05586   0.05773
 Alpha virt. eigenvalues --    0.05905   0.06364   0.06437   0.06645   0.06806
 Alpha virt. eigenvalues --    0.07305   0.07537   0.07714   0.07961   0.08142
 Alpha virt. eigenvalues --    0.08279   0.08619   0.08930   0.09174   0.09365
 Alpha virt. eigenvalues --    0.09664   0.10247   0.10424   0.10810   0.10920
 Alpha virt. eigenvalues --    0.11090   0.11544   0.11907   0.12152   0.12462
 Alpha virt. eigenvalues --    0.12629   0.13229   0.13525   0.14078   0.14584
 Alpha virt. eigenvalues --    0.14688   0.15060   0.15326   0.15482   0.15699
 Alpha virt. eigenvalues --    0.16068   0.16139   0.16330   0.16829   0.16980
 Alpha virt. eigenvalues --    0.17431   0.17605   0.18193   0.18287   0.18618
 Alpha virt. eigenvalues --    0.18714   0.19222   0.19264   0.19585   0.19688
 Alpha virt. eigenvalues --    0.19984   0.20397   0.20543   0.20780   0.21081
 Alpha virt. eigenvalues --    0.21280   0.21670   0.22100   0.22472   0.22777
 Alpha virt. eigenvalues --    0.22972   0.23254   0.23528   0.23765   0.23982
 Alpha virt. eigenvalues --    0.24264   0.24821   0.25092   0.25347   0.26008
 Alpha virt. eigenvalues --    0.26173   0.26462   0.26542   0.26696   0.27050
 Alpha virt. eigenvalues --    0.27595   0.27963   0.28081   0.28413   0.28706
 Alpha virt. eigenvalues --    0.29111   0.29483   0.29872   0.30075   0.30770
 Alpha virt. eigenvalues --    0.31195   0.31377   0.31581   0.32170   0.32263
 Alpha virt. eigenvalues --    0.32700   0.33462   0.34000   0.34276   0.34593
 Alpha virt. eigenvalues --    0.34866   0.34984   0.35836   0.36139   0.36884
 Alpha virt. eigenvalues --    0.37246   0.37600   0.37863   0.38366   0.38907
 Alpha virt. eigenvalues --    0.39053   0.39381   0.39800   0.40262   0.40765
 Alpha virt. eigenvalues --    0.40981   0.41662   0.41968   0.42047   0.42786
 Alpha virt. eigenvalues --    0.43324   0.43723   0.43739   0.43946   0.44268
 Alpha virt. eigenvalues --    0.45072   0.45408   0.45850   0.46198   0.46397
 Alpha virt. eigenvalues --    0.47021   0.47536   0.47993   0.48032   0.48231
 Alpha virt. eigenvalues --    0.48649   0.48941   0.49792   0.49891   0.50001
 Alpha virt. eigenvalues --    0.50365   0.50653   0.51240   0.51782   0.52025
 Alpha virt. eigenvalues --    0.52352   0.52546   0.52691   0.53078   0.53546
 Alpha virt. eigenvalues --    0.53876   0.54092   0.54368   0.55206   0.55308
 Alpha virt. eigenvalues --    0.55374   0.55674   0.56093   0.56663   0.56850
 Alpha virt. eigenvalues --    0.56996   0.57129   0.57798   0.58294   0.58814
 Alpha virt. eigenvalues --    0.59179   0.59446   0.59741   0.60286   0.60440
 Alpha virt. eigenvalues --    0.60716   0.61304   0.61774   0.61888   0.62537
 Alpha virt. eigenvalues --    0.62779   0.63345   0.63741   0.64002   0.65079
 Alpha virt. eigenvalues --    0.65334   0.65706   0.66057   0.66469   0.66781
 Alpha virt. eigenvalues --    0.67034   0.67597   0.67912   0.68254   0.69139
 Alpha virt. eigenvalues --    0.69314   0.69710   0.69961   0.70458   0.70934
 Alpha virt. eigenvalues --    0.71716   0.71893   0.72018   0.73156   0.73541
 Alpha virt. eigenvalues --    0.73822   0.73966   0.74646   0.75253   0.75459
 Alpha virt. eigenvalues --    0.76694   0.77174   0.77411   0.77946   0.78243
 Alpha virt. eigenvalues --    0.78589   0.79447   0.79691   0.80314   0.80726
 Alpha virt. eigenvalues --    0.81097   0.81797   0.82005   0.82969   0.83300
 Alpha virt. eigenvalues --    0.84300   0.84412   0.85067   0.85635   0.85852
 Alpha virt. eigenvalues --    0.86516   0.87616   0.88213   0.88759   0.90025
 Alpha virt. eigenvalues --    0.90347   0.90766   0.91300   0.91692   0.92568
 Alpha virt. eigenvalues --    0.93110   0.93749   0.94395   0.95073   0.95572
 Alpha virt. eigenvalues --    0.96248   0.96515   0.97450   0.98509   0.99211
 Alpha virt. eigenvalues --    0.99719   0.99898   1.00688   1.01149   1.02148
 Alpha virt. eigenvalues --    1.02649   1.03392   1.04011   1.04486   1.05261
 Alpha virt. eigenvalues --    1.05440   1.06832   1.07740   1.08794   1.09425
 Alpha virt. eigenvalues --    1.10574   1.11188   1.11542   1.11891   1.13367
 Alpha virt. eigenvalues --    1.14036   1.14937   1.15164   1.15722   1.16052
 Alpha virt. eigenvalues --    1.16401   1.17216   1.18585   1.18801   1.19236
 Alpha virt. eigenvalues --    1.19446   1.20272   1.22195   1.23211   1.23305
 Alpha virt. eigenvalues --    1.24081   1.24345   1.24975   1.26727   1.27313
 Alpha virt. eigenvalues --    1.27836   1.28679   1.29732   1.30366   1.31740
 Alpha virt. eigenvalues --    1.32192   1.33359   1.34067   1.34291   1.35526
 Alpha virt. eigenvalues --    1.36098   1.36392   1.37486   1.39315   1.40014
 Alpha virt. eigenvalues --    1.40942   1.41623   1.42269   1.43196   1.43329
 Alpha virt. eigenvalues --    1.44416   1.45340   1.46236   1.46788   1.47768
 Alpha virt. eigenvalues --    1.48457   1.48605   1.49494   1.50443   1.51223
 Alpha virt. eigenvalues --    1.51687   1.52211   1.52906   1.53141   1.54886
 Alpha virt. eigenvalues --    1.56010   1.57085   1.57808   1.58572   1.58948
 Alpha virt. eigenvalues --    1.60206   1.60509   1.61668   1.61944   1.63748
 Alpha virt. eigenvalues --    1.64766   1.65895   1.66261   1.66747   1.67053
 Alpha virt. eigenvalues --    1.68205   1.68493   1.69020   1.70492   1.71432
 Alpha virt. eigenvalues --    1.71820   1.72061   1.73180   1.74158   1.74323
 Alpha virt. eigenvalues --    1.76233   1.77090   1.77289   1.77723   1.79294
 Alpha virt. eigenvalues --    1.79699   1.79993   1.81034   1.81313   1.81841
 Alpha virt. eigenvalues --    1.81950   1.83489   1.83626   1.84464   1.84685
 Alpha virt. eigenvalues --    1.85542   1.86174   1.87360   1.87652   1.88180
 Alpha virt. eigenvalues --    1.89108   1.89810   1.90440   1.91626   1.92126
 Alpha virt. eigenvalues --    1.93284   1.94377   1.94889   1.95501   1.96297
 Alpha virt. eigenvalues --    1.96411   1.97091   1.97657   1.98845   1.99137
 Alpha virt. eigenvalues --    2.00518   2.01444   2.02471   2.02578   2.03771
 Alpha virt. eigenvalues --    2.04350   2.04818   2.05838   2.06386   2.06569
 Alpha virt. eigenvalues --    2.08538   2.09315   2.10616   2.11228   2.11540
 Alpha virt. eigenvalues --    2.12377   2.13828   2.14974   2.15201   2.16544
 Alpha virt. eigenvalues --    2.18803   2.19272   2.20035   2.21309   2.21906
 Alpha virt. eigenvalues --    2.22296   2.22771   2.23437   2.24116   2.25290
 Alpha virt. eigenvalues --    2.25798   2.26525   2.26676   2.27923   2.28849
 Alpha virt. eigenvalues --    2.29779   2.30334   2.31007   2.32635   2.34136
 Alpha virt. eigenvalues --    2.34409   2.35572   2.36943   2.37911   2.38885
 Alpha virt. eigenvalues --    2.39343   2.42395   2.43041   2.43810   2.46215
 Alpha virt. eigenvalues --    2.47109   2.47956   2.48219   2.51165   2.52610
 Alpha virt. eigenvalues --    2.52889   2.53141   2.54391   2.55104   2.56723
 Alpha virt. eigenvalues --    2.57908   2.58734   2.59169   2.60585   2.61250
 Alpha virt. eigenvalues --    2.62508   2.63474   2.63839   2.64709   2.65352
 Alpha virt. eigenvalues --    2.66802   2.66965   2.67960   2.69435   2.71466
 Alpha virt. eigenvalues --    2.72359   2.73603   2.75039   2.75160   2.76252
 Alpha virt. eigenvalues --    2.77574   2.78879   2.80684   2.82080   2.83026
 Alpha virt. eigenvalues --    2.83181   2.84237   2.85903   2.86762   2.88187
 Alpha virt. eigenvalues --    2.90668   2.91438   2.92751   2.95217   2.97107
 Alpha virt. eigenvalues --    2.98520   2.99793   3.01610   3.06232   3.10788
 Alpha virt. eigenvalues --    3.13796   3.16432   3.17888   3.27537   3.29608
 Alpha virt. eigenvalues --    3.32792   3.35453   3.39097   3.40020   3.40444
 Alpha virt. eigenvalues --    3.41421   3.42750   3.44116   3.45883   3.48581
 Alpha virt. eigenvalues --    3.50008   3.52333   3.54095   3.55589   3.57806
 Alpha virt. eigenvalues --    3.58782   3.62975   3.70391   3.74195   3.80643
 Alpha virt. eigenvalues --    3.82582   3.84237   3.87183   3.92114   3.98333
 Alpha virt. eigenvalues --    4.00553   4.04431   4.05079   4.09758   4.16599
 Alpha virt. eigenvalues --    4.36740   4.40845
          Condensed to atoms (all electrons):
               1          2          3          4          5          6
     1  C   26.376964 -13.737006   0.772584  -0.533531   1.678897  -4.455811
     2  C  -13.737006  30.316573  -7.876336   0.090002  -1.164246   0.735812
     3  C    0.772584  -7.876336  21.505260  -1.092679  -2.473031   0.349882
     4  N   -0.533531   0.090002  -1.092679   8.076705   0.264609   0.174465
     5  C    1.678897  -1.164246  -2.473031   0.264609  11.723033  -3.369646
     6  C   -4.455811   0.735812   0.349882   0.174465  -3.369646  12.582145
     7  C   -2.098867  -7.195918  -3.888985   0.785207  -0.407172  -0.117570
     8  N   -0.498193   0.434801  -0.762359   0.027482   0.099193  -0.022882
     9  C   -0.052260  -0.114031  -0.162832   0.013782  -0.035308   0.042390
    10  C   -0.077952   0.040305   0.028068  -0.002406  -0.016496  -0.042185
    11  C   -0.528783   0.645729  -0.663265  -0.130351  -0.127855  -0.126333
    12  O    0.014011  -0.074215  -0.062015  -0.002311  -0.007196  -0.000675
    13  O   -0.017235   0.059928  -0.049610   0.001544   0.014148  -0.004439
    14  O    0.046183  -0.063410  -0.142547  -0.103341   0.072334  -0.010889
    15  O   -0.005385  -0.003708   0.038028  -0.003755   0.000337  -0.000425
    16  H    0.006142   0.011732  -0.020734   0.000820  -0.003066   0.003969
    17  H    0.001523   0.044302   0.011908  -0.001297   0.003169  -0.008645
    18  H    0.007594  -0.103214  -0.004733   0.003165  -0.002557   0.002089
    19  H    0.004993   0.370984  -0.348105  -0.053764   0.011361  -0.077931
    20  H   -0.062106   0.135582   0.290904  -0.010397   0.009932  -0.004663
    21  H    0.013339  -0.014172   0.037936  -0.001282   0.000098  -0.000307
    22  H    0.028625   1.830562   0.308453  -0.042749   0.005730   0.036642
    23  H    0.168922  -1.496999  -0.649544   0.081288  -0.078481   0.166481
    24  H    0.330397  -0.389607   0.519115  -0.264051  -0.645220   0.147848
    25  H    0.533636   0.207328  -0.158685  -0.046333   0.444216  -1.344924
    26  H   -2.896341   1.686639  -0.258068  -0.005985  -0.260545   0.791738
    27  C   -0.260252   0.299534  -0.069293   0.008846  -0.042948   0.152252
    28  H   -0.059332  -0.044021  -0.217086  -0.008578   0.009933  -0.063522
    29  H   -0.015450   0.007215   0.044222  -0.013820  -0.019781   0.012397
    30  H    0.004469   0.003770  -0.019155   0.010450   0.008213  -0.002014
    31  H   -0.006382   0.024428  -0.080054   0.165286   0.103528  -0.081864
    32  H   -0.008284   0.014878   0.029074  -0.008749  -0.014924   0.012675
    33  H    0.000743   0.024360  -0.015066   0.003054  -0.005966   0.002955
    34  H   -0.000326  -0.003039   0.008379  -0.000125   0.000603  -0.000271
    35  H   -0.015515   0.034779   0.035226  -0.011866  -0.009509  -0.000215
    36  H    0.002171  -0.012656   0.010160   0.001447  -0.000633   0.001080
    37  O    0.005571  -0.027729   0.037718   0.010063  -0.015070   0.009843
    38  H   -0.003182   0.004366   0.082680  -0.029118  -0.002845  -0.003392
    39  H   -0.001269   0.008537  -0.022469   0.002153   0.000259   0.000362
    40  H    0.110832   0.082415   0.058902  -0.003837   0.016568  -0.018599
    41  H   -0.015050   0.006110   0.043416  -0.000255  -0.003707   0.018987
    42  H   -0.108550   0.200623  -0.013783  -0.000545  -0.028996   0.006677
               7          8          9         10         11         12
     1  C   -2.098867  -0.498193  -0.052260  -0.077952  -0.528783   0.014011
     2  C   -7.195918   0.434801  -0.114031   0.040305   0.645729  -0.074215
     3  C   -3.888985  -0.762359  -0.162832   0.028068  -0.663265  -0.062015
     4  N    0.785207   0.027482   0.013782  -0.002406  -0.130351  -0.002311
     5  C   -0.407172   0.099193  -0.035308  -0.016496  -0.127855  -0.007196
     6  C   -0.117570  -0.022882   0.042390  -0.042185  -0.126333  -0.000675
     7  C   27.217418  -0.474346  -0.455789   0.291638  -2.572948   0.175890
     8  N   -0.474346  11.194856  -0.329911   0.044808  -1.252382  -0.263876
     9  C   -0.455789  -0.329911   5.921398  -0.396051   0.735156   0.010242
    10  C    0.291638   0.044808  -0.396051   6.872154  -1.281581   0.015397
    11  C   -2.572948  -1.252382   0.735156  -1.281581  10.654562  -0.080696
    12  O    0.175890  -0.263876   0.010242   0.015397  -0.080696   8.580632
    13  O   -0.027712   0.019256  -0.000514   0.001359   0.007820  -0.098829
    14  O    0.019726  -0.005021  -0.000521   0.001101  -0.003902   0.006894
    15  O    0.006915  -0.007723  -0.008490   0.036968  -0.047992  -0.088164
    16  H    0.082613   0.022578  -0.099823  -0.060174   0.176818  -0.025187
    17  H   -0.295421   0.076420   0.145592  -0.177510   0.240869  -0.001092
    18  H    0.357241  -0.206515   0.294615  -0.492270   0.058828   0.011694
    19  H   -1.037427  -0.261163   0.168504  -0.013486   0.550832  -0.014373
    20  H    0.376352   0.352484  -0.168484   0.267666  -1.373564   0.000652
    21  H   -0.047174  -0.614190  -0.344528   0.203703   0.081412   0.069772
    22  H   -4.775335  -0.355494   0.081869  -0.173738   0.739466   0.010136
    23  H   -0.748170  -0.086772  -0.031148  -0.033146  -0.251041  -0.092326
    24  H   -0.031861   0.001631  -0.001213   0.000026   0.005927  -0.000303
    25  H    0.056175  -0.003707   0.000309  -0.000207   0.006755   0.000104
    26  H    0.076230   0.003681   0.000217   0.004751  -0.074643  -0.000295
    27  C   -0.125965   0.927475  -0.122030  -0.097190  -0.256682  -0.057190
    28  H    0.135941   0.204889  -0.266591   0.221004  -0.205562   0.071762
    29  H   -0.036566  -0.034617   0.047828  -0.012843   0.049461   0.269198
    30  H    0.028861   0.085771  -0.030501   0.012393  -0.024670   0.239541
    31  H    0.002025   0.002568   0.000012  -0.000949  -0.009282   0.002673
    32  H   -0.002063  -0.000068   0.000072   0.000131   0.001164   0.000205
    33  H   -0.000383   0.016349  -0.009778   0.033089  -0.070221   0.009832
    34  H   -0.002761   0.002109   0.004482  -0.013888   0.023330  -0.004017
    35  H    0.003746   0.002641   0.002227  -0.000588   0.009178  -0.008153
    36  H    0.000035  -0.000765  -0.001528   0.000619  -0.003193   0.010312
    37  O   -0.056567   0.010439  -0.003668   0.015896  -0.032477   0.017465
    38  H    0.005392  -0.001706   0.001706  -0.003147   0.018576  -0.000661
    39  H    0.007660   0.000841  -0.000502   0.001421  -0.004705  -0.000172
    40  H   -0.250041  -0.294602   0.213927  -0.103110   0.103620  -0.017044
    41  H    0.000340  -0.133868   0.003553   0.042368  -0.110396   0.026677
    42  H   -0.017158  -0.007600  -0.144587  -0.012891   0.130523  -0.010033
              13         14         15         16         17         18
     1  C   -0.017235   0.046183  -0.005385   0.006142   0.001523   0.007594
     2  C    0.059928  -0.063410  -0.003708   0.011732   0.044302  -0.103214
     3  C   -0.049610  -0.142547   0.038028  -0.020734   0.011908  -0.004733
     4  N    0.001544  -0.103341  -0.003755   0.000820  -0.001297   0.003165
     5  C    0.014148   0.072334   0.000337  -0.003066   0.003169  -0.002557
     6  C   -0.004439  -0.010889  -0.000425   0.003969  -0.008645   0.002089
     7  C   -0.027712   0.019726   0.006915   0.082613  -0.295421   0.357241
     8  N    0.019256  -0.005021  -0.007723   0.022578   0.076420  -0.206515
     9  C   -0.000514  -0.000521  -0.008490  -0.099823   0.145592   0.294615
    10  C    0.001359   0.001101   0.036968  -0.060174  -0.177510  -0.492270
    11  C    0.007820  -0.003902  -0.047992   0.176818   0.240869   0.058828
    12  O   -0.098829   0.006894  -0.088164  -0.025187  -0.001092   0.011694
    13  O    7.792494  -0.037417   0.001217  -0.000457   0.000183  -0.000149
    14  O   -0.037417   8.281388   0.002284   0.000007   0.000036   0.000271
    15  O    0.001217   0.002284   7.965759  -0.002678  -0.003371   0.006553
    16  H   -0.000457   0.000007  -0.002678   2.241692  -0.370905   0.154348
    17  H    0.000183   0.000036  -0.003371  -0.370905   2.116327  -0.621825
    18  H   -0.000149   0.000271   0.006553   0.154348  -0.621825   2.164455
    19  H    0.005353  -0.005301  -0.019856  -0.037458   0.214482  -0.229295
    20  H   -0.000171  -0.000279   0.007980   0.025275  -0.229671   0.073201
    21  H    0.000680  -0.000311   0.014706  -0.708457   0.172431  -0.245002
    22  H   -0.000610   0.000445   0.000775  -0.039437   0.021584   0.001075
    23  H   -0.014815   0.159184  -0.015983  -0.008192  -0.005319   0.021628
    24  H   -0.000507   0.014430   0.000000  -0.000035   0.000053  -0.000019
    25  H    0.000028  -0.000778  -0.000024  -0.000319   0.000111  -0.000042
    26  H   -0.000565   0.000435  -0.000153   0.001425   0.000214  -0.000058
    27  C   -0.002131  -0.002004  -0.005344   0.107633  -0.019753   0.002530
    28  H    0.004291   0.012505   0.003993  -0.087695  -0.020241   0.011150
    29  H    0.010311  -0.015351   0.005409  -0.000754   0.001281  -0.001467
    30  H   -0.004627   0.000531   0.010182   0.003796  -0.005588   0.005693
    31  H   -0.006722   0.267773   0.000155  -0.000140   0.000281  -0.000796
    32  H    0.002326   0.264241  -0.000186   0.000020  -0.000017   0.000050
    33  H   -0.001859  -0.004958   0.298355  -0.000639  -0.000489   0.001689
    34  H    0.000966   0.000532   0.336662  -0.000098   0.000448  -0.002748
    35  H    0.311663   0.007112  -0.000330   0.000008   0.000081  -0.000194
    36  H    0.347800  -0.001963  -0.000038  -0.000020   0.000001   0.000027
    37  O   -0.001092  -0.048147  -0.063535   0.000012   0.000318   0.002129
    38  H   -0.000410   0.018395   0.005398   0.000236  -0.000229   0.000348
    39  H    0.000560  -0.007305  -0.000244  -0.000065   0.000111  -0.000389
    40  H    0.000429  -0.000116   0.000024   0.030049   0.013705  -0.011275
    41  H   -0.000687  -0.000028  -0.000137  -0.026429  -0.002313   0.003826
    42  H    0.000785  -0.000535  -0.000620   0.022927  -0.005396   0.002871
              19         20         21         22         23         24
     1  C    0.004993  -0.062106   0.013339   0.028625   0.168922   0.330397
     2  C    0.370984   0.135582  -0.014172   1.830562  -1.496999  -0.389607
     3  C   -0.348105   0.290904   0.037936   0.308453  -0.649544   0.519115
     4  N   -0.053764  -0.010397  -0.001282  -0.042749   0.081288  -0.264051
     5  C    0.011361   0.009932   0.000098   0.005730  -0.078481  -0.645220
     6  C   -0.077931  -0.004663  -0.000307   0.036642   0.166481   0.147848
     7  C   -1.037427   0.376352  -0.047174  -4.775335  -0.748170  -0.031861
     8  N   -0.261163   0.352484  -0.614190  -0.355494  -0.086772   0.001631
     9  C    0.168504  -0.168484  -0.344528   0.081869  -0.031148  -0.001213
    10  C   -0.013486   0.267666   0.203703  -0.173738  -0.033146   0.000026
    11  C    0.550832  -1.373564   0.081412   0.739466  -0.251041   0.005927
    12  O   -0.014373   0.000652   0.069772   0.010136  -0.092326  -0.000303
    13  O    0.005353  -0.000171   0.000680  -0.000610  -0.014815  -0.000507
    14  O   -0.005301  -0.000279  -0.000311   0.000445   0.159184   0.014430
    15  O   -0.019856   0.007980   0.014706   0.000775  -0.015983   0.000000
    16  H   -0.037458   0.025275  -0.708457  -0.039437  -0.008192  -0.000035
    17  H    0.214482  -0.229671   0.172431   0.021584  -0.005319   0.000053
    18  H   -0.229295   0.073201  -0.245002   0.001075   0.021628  -0.000019
    19  H    3.105231  -0.758768   0.090345   0.272590  -0.390816  -0.000090
    20  H   -0.758768   2.614666  -0.040895  -0.217874   0.067801   0.001149
    21  H    0.090345  -0.040895   2.783647   0.056615   0.004979  -0.000030
    22  H    0.272590  -0.217874   0.056615   4.369165   0.018364   0.000452
    23  H   -0.390816   0.067801   0.004979   0.018364   5.881364   0.025464
    24  H   -0.000090   0.001149  -0.000030   0.000452   0.025464   2.125353
    25  H    0.004039  -0.002714   0.000125  -0.000974  -0.031836  -0.125598
    26  H   -0.021412   0.011501  -0.001398  -0.128223  -0.018447  -0.003748
    27  C   -0.110784   0.063177  -0.225141  -0.111222   0.068132   0.000038
    28  H    0.030923   0.051860   0.163709   0.010433  -0.185510   0.002240
    29  H    0.035501  -0.008813   0.000597   0.003270  -0.042895  -0.001296
    30  H   -0.015047   0.012112  -0.008167  -0.000274  -0.022643   0.000144
    31  H    0.007838  -0.001519   0.000661  -0.000351  -0.180040  -0.081699
    32  H   -0.001002   0.000102  -0.000055   0.000034  -0.005121   0.005716
    33  H   -0.002522   0.004065  -0.002832  -0.000205   0.010647  -0.000478
    34  H    0.012226   0.000101   0.000434  -0.000209  -0.012721   0.000041
    35  H    0.004489  -0.000305   0.000260  -0.000244  -0.058968  -0.001281
    36  H   -0.001611   0.000063  -0.000327   0.000001   0.014021  -0.000064
    37  O   -0.034454   0.008976  -0.000546  -0.002282  -0.101780  -0.000141
    38  H    0.012339   0.000336  -0.000146   0.000160  -0.062934   0.002075
    39  H   -0.000143  -0.000091  -0.000052   0.000052   0.004777   0.000055
    40  H    0.006617   0.004164   0.019529   0.026138   0.012455   0.000112
    41  H   -0.027632   0.001159  -0.019652  -0.000109   0.043346   0.000301
    42  H    0.017394   0.001869  -0.020731   0.035546  -0.026684  -0.002717
              25         26         27         28         29         30
     1  C    0.533636  -2.896341  -0.260252  -0.059332  -0.015450   0.004469
     2  C    0.207328   1.686639   0.299534  -0.044021   0.007215   0.003770
     3  C   -0.158685  -0.258068  -0.069293  -0.217086   0.044222  -0.019155
     4  N   -0.046333  -0.005985   0.008846  -0.008578  -0.013820   0.010450
     5  C    0.444216  -0.260545  -0.042948   0.009933  -0.019781   0.008213
     6  C   -1.344924   0.791738   0.152252  -0.063522   0.012397  -0.002014
     7  C    0.056175   0.076230  -0.125965   0.135941  -0.036566   0.028861
     8  N   -0.003707   0.003681   0.927475   0.204889  -0.034617   0.085771
     9  C    0.000309   0.000217  -0.122030  -0.266591   0.047828  -0.030501
    10  C   -0.000207   0.004751  -0.097190   0.221004  -0.012843   0.012393
    11  C    0.006755  -0.074643  -0.256682  -0.205562   0.049461  -0.024670
    12  O    0.000104  -0.000295  -0.057190   0.071762   0.269198   0.239541
    13  O    0.000028  -0.000565  -0.002131   0.004291   0.010311  -0.004627
    14  O   -0.000778   0.000435  -0.002004   0.012505  -0.015351   0.000531
    15  O   -0.000024  -0.000153  -0.005344   0.003993   0.005409   0.010182
    16  H   -0.000319   0.001425   0.107633  -0.087695  -0.000754   0.003796
    17  H    0.000111   0.000214  -0.019753  -0.020241   0.001281  -0.005588
    18  H   -0.000042  -0.000058   0.002530   0.011150  -0.001467   0.005693
    19  H    0.004039  -0.021412  -0.110784   0.030923   0.035501  -0.015047
    20  H   -0.002714   0.011501   0.063177   0.051860  -0.008813   0.012112
    21  H    0.000125  -0.001398  -0.225141   0.163709   0.000597  -0.008167
    22  H   -0.000974  -0.128223  -0.111222   0.010433   0.003270  -0.000274
    23  H   -0.031836  -0.018447   0.068132  -0.185510  -0.042895  -0.022643
    24  H   -0.125598  -0.003748   0.000038   0.002240  -0.001296   0.000144
    25  H    2.209931  -0.129811  -0.007355   0.001392   0.000523   0.000024
    26  H   -0.129811   3.091027   0.071130   0.003564  -0.000849   0.000195
    27  C   -0.007355   0.071130   4.610745  -0.372199  -0.015373   0.020609
    28  H    0.001392   0.003564  -0.372199   1.619228  -0.041931  -0.015133
    29  H    0.000523  -0.000849  -0.015373  -0.041931   0.559684  -0.142436
    30  H    0.000024   0.000195   0.020609  -0.015133  -0.142436   0.555031
    31  H    0.011137  -0.002019  -0.002259  -0.007514   0.007525  -0.000732
    32  H   -0.000573  -0.000064   0.000278  -0.000247  -0.000044   0.000137
    33  H    0.000072   0.000323   0.002174   0.001046   0.001173  -0.007941
    34  H   -0.000011  -0.000038   0.000411  -0.001149   0.000123   0.003580
    35  H    0.000249  -0.000264  -0.000276  -0.001798   0.000617   0.000806
    36  H    0.000015   0.000058  -0.000545   0.007547  -0.014284   0.001515
    37  O    0.000127   0.000729   0.001211   0.003748   0.002653  -0.004049
    38  H    0.000016  -0.000241  -0.000712   0.001307   0.001653  -0.000064
    39  H   -0.000017   0.000065   0.000104   0.000931  -0.000360   0.000681
    40  H    0.001023   0.003291   0.134767  -0.174327   0.002817   0.000873
    41  H   -0.000835   0.006155   0.260083   0.039164  -0.006223  -0.001442
[...]
 .00003710,0.00019658,0.00012656,0.00006160,0.00140675,-0.00029859,-0.0
 0079603,0.00122532,0.00003801,0.00177296,-0.00354114,0.00108673,-0.004
 83435,-0.00353018,0.00095931,-0.00408189,0.00002061,-0.00002834,-0.000
 03710,-0.00000905,-0.00002535,-0.00002172,0.00011953,0.00003319,0.0000
 5442,0.00008642,0.00024730,0.00017539,0.00001378,0.00001475,-0.0000141
 5,0.00001269,-0.00000173,-0.00002182,0.00006510,-0.00003965,-0.0000699
 0,-0.00077625,-0.00053695,0.00038373,-0.00005618,-0.00005361,0.0000193
 2,0.00004465,0.00006094,0.00001017,0.00001038,0.00004480,0.00000805,-0
 .00003513,0.00005462,0.00003737,-0.00023267,-0.00027383,0.00011485,-0.
 00149761,-0.00019809,0.00001401,-0.00067343,0.00089155,0.00130642,-0.0
 0197866,-0.00523260,0.00071454,-0.00065543,0.00297929,0.00289527,0.005
 20577,-0.00257097,0.00621090,-0.00011373,-0.00020149,-0.00000791,-0.00
 062559,-0.00012617,-0.00324137,0.00002000,0.00022103,-0.00020925,0.151
 06519,-0.02249003,-0.15826934,-0.18398052,0.02617875,0.17915216,-0.000
 01459,-0.00003741,-0.00000235,0.00004528,-0.00008297,0.00004998,-0.000
 02290,0.00010160,-0.00008367,0.00001988,-0.00012715,-0.00007272,0.0000
 1010,0.00006698,0.00000913,-0.00004023,-0.00002024,0.00000082,0.000146
 66,0.00000405,-0.00005209,-0.00008140,-0.00000619,0.00007002,0.0000485
 0,-0.00001860,-0.00004441,-0.00000577,0.00003517,0.00002925,-0.0001344
 1,-0.00006969,0.00006081,-0.00014345,-0.00005159,-0.00005874,-0.000051
 28,-0.00000484,-0.00004278,-0.00239399,0.00008904,-0.00002075,-0.00260
 316,0.00155373,0.00016882,-0.00000599,0.00000710,0.00001388,-0.0000087
 6,-0.00002031,0.00000028,0.00001718,0.00002379,-0.00004544,0.00007740,
 0.00006147,-0.00026935,-0.00005262,-0.00008886,-0.00001123,-0.00000117
 ,0.00000810,0.00001776,-0.00001694,0.00001427,0.00002724,-0.00007284,0
 .00016621,0.00014773,0.00000244,0.00000416,0.00000859,-0.00000246,-0.0
 0000033,-0.00000079,0.00000045,-0.00001645,-0.00000507,0.00000476,-0.0
 0002069,-0.00000329,0.00009182,0.00014075,-0.00002674,0.00002484,0.000
 00702,0.00005884,0.00015629,-0.00006476,0.00008293,0.00008387,0.000076
 76,0.00006967,-0.00034996,0.00038359,0.00070057,0.00379215,-0.00294973
 ,-0.00201207,-0.00048015,0.00003046,-0.00043641,0.00006932,-0.00002109
 ,0.00001959,0.00000763,0.00000043,0.00001195,-0.08569797,-0.02556492,-
 0.15418703,0.01244599,0.00619473,0.03717586,0.07513524,-0.00007100,-0.
 00004786,0.00002224,0.00003973,-0.00026045,-0.00000026,-0.00060322,-0.
 00001021,-0.00043164,0.00016619,-0.00003054,0.00026072,0.00008621,-0.0
 0014068,0.00000865,0.00004216,-0.00000878,-0.00002124,0.00002520,0.000
 02988,-0.00011530,-0.00001364,-0.00003859,0.00006556,0.00000412,-0.000
 02379,0.00000159,0.00000274,0.00007391,0.00002003,-0.00004752,-0.00008
 414,0.00005389,0.00000694,-0.00013816,-0.00000810,0.00003038,-0.000057
 20,0.00009231,0.00020773,-0.00020875,0.00047880,0.00190799,-0.00069106
 ,0.00007859,-0.00000362,0.00000415,0.00000292,0.00001785,0.00000149,0.
 00000801,0.00001354,0.00000424,0.00000706,0.00001116,0.00014280,-0.000
 21111,-0.00009091,-0.00008292,-0.00000172,0.00000398,0.00000688,0.0000
 1925,-0.00000765,0.00001409,0.00002727,0.00026317,0.00025147,0.0002729
 1,0.00001615,-0.00001501,-0.00001190,0.00000354,-0.00000138,-0.0000156
 3,0.00001273,-0.00002139,-0.00000867,0.00000324,-0.00002911,-0.0000052
 4,0.00006177,0.00013703,-0.00003211,-0.00000777,-0.00000560,-0.0000174
 1,-0.00006021,0.00006787,0.00007251,-0.00004269,0.00019573,-0.00030250
 ,0.00012156,0.00020169,-0.00014027,-0.00234301,0.00099195,0.00109326,0
 .00025586,0.00008432,0.00032499,-0.00004269,0.00003521,-0.00012949,0.0
 0000082,0.00003921,0.00000249,-0.01743140,-0.01775946,-0.09002753,-0.0
 0272879,-0.00088450,-0.00288945,0.02018730,0.01824939,0.00002765,0.000
 00128,-0.00000518,0.00000166,0.00009819,-0.00002384,-0.00009481,0.0000
 0079,0.00009668,0.00001739,0.00027605,0.00003876,0.00013196,-0.0000751
 7,-0.00000300,-0.00001520,0.00006299,-0.00001119,-0.00005540,0.0000219
 5,0.00000499,0.00008153,0.00005248,-0.00003234,-0.00003592,0.00000254,
 0.00001793,0.00001836,-0.00000786,-0.00001568,-0.00001179,-0.00004791,
 0.00000834,0.00012371,0.00013593,0.00011330,0.00011951,0.00003630,0.00
 021900,0.00007712,0.00068111,0.00112209,0.00128865,0.00001655,0.000711
 16,0.00000194,0.00000722,-0.00000018,0.00002574,0.00001981,0.00000953,
 -0.00003856,-0.00001337,0.00001178,-0.00009501,-0.00008839,0.00005117,
 0.00004039,0.00006250,0.00001258,-0.00000472,-0.00000806,-0.00000555,0
 .00001276,0.00001465,0.00001346,-0.00007505,-0.00011186,-0.00014092,-0
 .00001976,0.00000038,0.00001140,0.00000598,0.00001479,0.00000800,0.000
 00786,0.00001659,0.00000640,-0.00000182,-0.00001501,-0.00002091,-0.000
 10025,-0.00015488,0.00001265,-0.00008977,-0.00000757,-0.00001991,-0.00
 002093,-0.00007928,-0.00015726,-0.00006037,-0.00056912,-0.00012222,0.0
 0025524,-0.00017156,-0.00023391,-0.00203804,0.00014884,-0.00157599,-0.
 00022133,-0.00001226,0.00000004,-0.00013282,0.00000767,-0.00030642,0.0
 0001433,-0.00000592,-0.00006067,-0.10391070,-0.08769159,-0.49174704,-0
 .01386706,-0.00407579,-0.02089132,0.11863838,0.09146495,0.51291893,-0.
 00003571,-0.00037043,0.00007294,-0.00008135,0.00012081,-0.00007741,-0.
 00010924,-0.00006476,-0.00003496,0.00021620,0.00005589,-0.00001656,0.0
 0000866,0.00004961,0.00000616,-0.00006238,0.00007708,0.00006248,-0.000
 18118,-0.00047094,0.00028887,0.00122273,0.00408512,-0.00045713,0.00168
 954,0.00170324,-0.00002530,-0.00001813,0.00000815,0.00007339,0.0001459
 1,0.00016224,-0.00014798,0.00003182,-0.00009578,-0.00012389,-0.0000465
 0,-0.00004848,-0.00005072,-0.00000498,0.00005605,-0.00004388,-0.000005
 05,-0.00000910,-0.00005183,0.00002790,-0.00024002,0.00016246,-0.000010
 32,-0.00003350,-0.00001155,-0.00004051,-0.00001556,-0.00001798,-0.0000
 8716,0.00008130,0.00003948,-0.00000780,-0.00002126,-0.00003639,-0.0000
 8644,0.00000708,0.00003344,0.00004857,0.00003017,-0.00052818,0.0000066
 2,0.00003094,0.00002423,0.00001066,0.00001371,-0.00000316,-0.00001175,
 -0.00000256,-0.00000701,0.00002442,0.00016903,-0.00017536,-0.13024978,
 -0.12554155,0.02024340,0.00042274,0.00110208,0.00060135,0.00001567,0.0
 0010904,0.00003450,-0.00001667,0.00000829,0.00007451,-0.00002176,-0.00
 007815,0.00001816,0.00000085,-0.00000117,0.00000332,0.00001868,-0.0000
 1454,0.00001897,0.00000074,0.00000327,0.00000167,0.00003351,-0.0000128
 9,0.00006274,0.00000190,0.00001140,-0.00000179,-0.00000693,0.00001987,
 -0.00001237,-0.00000150,-0.00000829,0.00000831,-0.00000041,-0.00000471
 ,0.00000185,0.13251764,-0.00006905,-0.00004232,-0.00003862,-0.00003554
 ,-0.00003013,-0.00006145,0.00008758,-0.00005876,0.00000007,-0.00004476
 ,0.00006094,-0.00000497,-0.00001252,-0.00002007,-0.00000947,0.00000475
 ,0.00001682,-0.00000995,0.00053058,0.00053878,0.00158450,-0.01087372,-
 0.02168098,-0.00143007,-0.00191415,0.00014519,0.00097425,0.00025558,0.
 00042992,0.00001075,0.00020210,0.00036821,0.00006349,-0.00064716,-0.00
 108085,0.00039266,-0.00014791,0.00001781,0.00001753,-0.00001949,0.0000
 1553,-0.00002278,0.00005014,-0.00005765,-0.00014267,0.00108557,0.00001
 182,-0.00041590,0.00000058,-0.00001988,-0.00009133,0.00003415,0.000057
 05,0.00017701,-0.00002929,0.00008478,0.00013172,0.00003741,-0.00004245
 ,-0.00004865,0.00007022,0.00002567,-0.00000917,-0.00013399,0.00058900,
 -0.00074561,0.00002239,0.00000786,0.00002336,-0.00000166,0.00000107,0.
 00000633,0.00000479,0.00000209,0.00000120,-0.00000017,0.00002416,0.000
 02891,-0.12083795,-0.23648513,0.03027485,0.00214807,0.00166764,-0.0034
 8410,0.00031373,-0.00013544,-0.00002938,-0.00010944,0.00018018,0.00019
 093,0.00000015,-0.00001937,0.00000427,0.00000501,0.00000291,0.00000098
 ,0.00002188,-0.00000683,0.00004014,-0.00001389,0.00000640,-0.00000068,
 0.00002570,-0.00001410,0.00003430,0.00000255,0.00000324,-0.00000896,-0
 .00000976,0.00000932,-0.00002838,0.00000653,-0.00000223,0.00000925,-0.
 00000550,-0.00000169,0.00000585,0.13376555,0.25772839,-0.00003285,-0.0
 0005574,0.00007635,0.00013357,0.00030636,-0.00014328,0.00000673,-0.000
 14730,0.00001914,0.00006991,0.00005636,0.00001778,-0.00001935,0.000023
 84,-0.00001240,-0.00000895,0.00004160,0.00001062,-0.00070581,-0.002471
 04,0.00240067,-0.01753987,-0.03269109,-0.00242456,-0.00232602,0.000218
 18,0.00084676,-0.00000826,0.00022451,0.00013647,0.00021107,0.00022526,
 -0.00000752,-0.00089858,-0.00102547,0.00089743,-0.00005957,0.00004729,
 0.00007576,0.00000879,0.00004326,0.00002027,-0.00001058,-0.00001015,-0
 .00001981,0.00056279,0.00039589,0.00018914,-0.00001183,0.00001912,-0.0
 0001089,-0.00002984,0.00005750,0.00004449,0.00000376,0.00011258,0.0000
 9389,0.00004747,0.00002324,-0.00002760,0.00026118,0.00006554,-0.000064
 70,0.00033551,0.00069343,-0.00043370,0.00003882,0.00001514,0.00000666,
 0.00000643,0.00000725,-0.00000309,0.00000074,0.00000056,0.00000387,-0.
 00003497,0.00005363,-0.00003848,0.02495278,0.03897795,-0.05498627,0.00
 215928,-0.00010071,-0.00517017,0.00017276,-0.00029623,-0.00011330,0.00
 004007,0.00006744,0.00002083,-0.00001738,-0.00005437,-0.00000567,-0.00
 000616,-0.00000428,-0.00000210,0.00002239,-0.00001050,0.00001271,-0.00
 000083,-0.00000070,-0.00000435,-0.00000640,-0.00000284,-0.00001812,-0.
 00001633,-0.00001816,-0.00001739,-0.00002043,0.00002180,0.00000567,0.0
 0001413,-0.00001420,-0.00001313,-0.00000007,-0.00000571,-0.00000402,-0
 .02283414,-0.02755597,0.05996535,-0.00004454,-0.00021470,-0.00002998,0
 .00012687,-0.00005706,-0.00010262,0.00028319,0.00021352,-0.00002787,-0
 .00014676,-0.00002988,0.00005796,0.00001807,-0.00004961,-0.00002414,0.
 00010623,-0.00001342,-0.00002620,-0.00036178,0.00052776,0.00061948,0.0
 0007385,-0.00231500,0.00480165,0.00077245,-0.00046978,0.00084074,-0.00
 003975,-0.00009602,-0.00001752,0.00028971,0.00017164,0.00028128,-0.000
 15115,0.00015495,0.00055991,0.00012858,0.00002460,0.00015958,0.0000033
 6,-0.00009878,0.00008210,-0.00005061,0.00004536,0.00013991,-0.00000155
 ,-0.00021285,-0.00001861,0.00000545,-0.00001198,0.00000394,0.00000452,
 0.00000224,-0.00004394,-0.00004209,0.00006397,0.00006873,0.00002176,-0
 .00000246,0.00005830,0.00018314,0.00029051,0.00007198,0.00001120,0.000
 22320,-0.00020711,-0.00001992,0.00000557,-0.00002872,-0.00000511,-0.00
 000093,0.00000206,-0.00000799,-0.00000017,0.00000174,-0.00003286,-0.00
 000529,0.00003284,-0.08325559,0.05174171,-0.07871996,0.00001649,0.0002
 0239,-0.00092522,-0.00014170,-0.00011582,-0.00017993,0.00016005,-0.000
 09936,-0.00019071,0.00004665,0.00013800,-0.00001998,0.00000181,0.00000
 060,-0.00000865,-0.00002404,0.00001461,-0.00003471,0.00001528,-0.00000
 096,-0.00000081,-0.00004681,0.00004901,-0.00012130,-0.00003091,-0.0000
 3183,-0.00002968,0.00000630,-0.00003591,0.00002374,0.00000505,0.000017
 04,-0.00001799,0.00000302,0.00000628,-0.00000291,0.00667129,-0.0087580
 6,0.01484147,0.08291830,-0.00007402,-0.00013453,0.00008002,0.00032421,
 0.00002806,0.00000484,-0.00013579,-0.00003745,0.00006160,0.00007237,-0
 .00000910,-0.00001698,-0.00003290,0.00004775,0.00001189,-0.00008761,0.
 00006693,0.00001017,0.00106134,-0.00329753,-0.00161529,-0.00898206,0.0
 1094725,-0.02344545,-0.00077751,0.00113425,-0.00031352,-0.00030557,0.0
 0007774,0.00012388,-0.00001186,0.00076679,-0.00129911,0.00009040,0.000
 03784,0.00040085,0.00009902,0.00000695,0.00000840,0.00001683,0.0000162
 5,0.00002903,-0.00002316,0.00002815,0.00011252,0.00014881,-0.00027647,
 0.00021320,0.00001573,-0.00000341,0.00003385,0.00003850,-0.00001599,-0
 .00000382,-0.00004853,0.00002186,-0.00000170,0.00007046,-0.00031438,-0
 .00031630,0.00010018,-0.00005408,0.00009613,0.00020481,0.00030565,-0.0
 0028938,0.00001016,0.00002157,-0.00002124,0.00000697,0.00000833,-0.000
 00248,-0.00001511,-0.00000006,0.00000331,-0.00001207,0.00008940,-0.000
 09327,0.05426694,-0.13071279,0.12196845,-0.00021089,0.00119245,-0.0001
 6288,-0.00013474,-0.00000236,0.00001459,0.00012452,-0.00006463,-0.0001
 6587,-0.00001075,-0.00002030,-0.00000757,-0.00000521,-0.00000345,-0.00
 000163,-0.00001415,0.00001609,-0.00002955,0.00000309,-0.00000408,-0.00
 000580,-0.00002022,0.00000571,-0.00003543,-0.00001255,-0.00000198,0.00
 000430,-0.00000681,-0.00000618,0.00003162,0.00000648,-0.00000616,-0.00
 001691,0.00000670,0.00000187,-0.00000645,0.01082518,-0.01058228,0.0188
 6318,-0.05661988,0.13366925,-0.00004921,-0.00004793,0.00010516,0.00051
 869,-0.00003044,0.00016558,-0.00015585,0.00000022,0.00006507,0.0000052
 2,-0.00005455,0.00001962,-0.00002449,0.00006476,-0.00003240,-0.0000960
 6,0.00001941,0.00004597,0.00180092,-0.00481149,-0.00096448,-0.01053128
 ,0.01320163,-0.02816411,-0.00109893,0.00123843,0.00079288,-0.00025465,
 -0.00008328,-0.00007774,-0.00049032,0.00091135,-0.00115404,0.00000254,
 -0.00017948,0.00037814,0.00008368,0.00000948,0.00000365,0.00000361,-0.
 00002256,0.00002943,0.00001623,0.00001036,0.00010805,0.00021818,0.0000
 4788,-0.00008580,0.00003824,-0.00000297,0.00009046,0.00005469,-0.00001
 384,0.00003185,0.00006051,-0.00007102,-0.00007413,0.00015365,-0.000373
 67,-0.00029240,0.00046881,-0.00054475,-0.00009431,0.00006187,-0.000071
 12,0.00019986,0.00000836,0.00002320,-0.00002660,0.00000157,0.00000328,
 -0.00000274,-0.00001347,0.00000295,-0.00000707,0.00003603,0.00001174,-
 0.00005251,-0.07383536,0.11051970,-0.21473912,0.00003192,0.00116905,-0
 .00032675,-0.00012475,-0.00007867,0.00000394,0.00005646,-0.00009086,-0
 .00010337,0.00001022,0.00003221,-0.00001009,-0.00000048,-0.00000030,-0
 .00000111,-0.00002701,0.00003634,-0.00003577,-0.00000717,-0.00000469,-
 0.00000383,-0.00001571,0.00001106,-0.00003769,-0.00000103,0.00000283,0
 .00001130,0.00000155,-0.00003265,0.00002337,0.00000455,0.00000455,-0.0
 0001033,0.00000617,0.00000825,-0.00000222,-0.00103979,0.00071604,-0.00
 066866,0.08205034,-0.11845311,0.23899001,-0.00021862,0.00013583,-0.000
 50256,-0.00000515,-0.00039822,-0.00094302,0.00039903,0.00009441,-0.000
 15141,-0.00023811,0.00010734,0.00006935,-0.00009973,-0.00018272,0.0000
 3969,0.00020393,0.00002680,-0.00005134,-0.00030035,0.00027962,-0.00041
 064,0.00085492,0.00013407,0.00029412,0.00096112,-0.00021299,0.00001316
 ,0.00006048,0.00006610,-0.00029105,-0.00012790,0.00004396,0.00007778,0
 .00007142,0.00017521,-0.00011465,-0.00000925,0.00002455,-0.00001410,0.
 00000059,-0.00000504,-0.00000071,0.00002922,0.00000256,-0.00001038,0.0
 0033837,0.00013510,-0.00013019,0.00001025,0.00000217,0.00001194,0.0000
 1573,0.00000366,0.00009022,0.00001617,-0.00000663,-0.00000563,0.000022
 13,-0.00001921,0.00001858,-0.00002674,-0.00004990,-0.00007610,-0.00008
 725,-0.00000523,0.00003381,-0.00000407,0.00000881,0.00000521,-0.000003
 51,-0.00000743,0.00000286,0.00001019,0.00000473,0.00000640,-0.00003483
 ,-0.00008966,0.00015288,-0.31324642,0.05961631,0.03918335,0.00005979,-
 0.00010248,0.00044997,0.00003832,0.00007329,0.00005682,-0.00003205,0.0
 0003578,0.00002232,0.00000452,0.00000758,-0.00001150,-0.00000098,-0.00
 000108,0.00000018,-0.00001894,0.00000765,-0.00000348,-0.00000348,-0.00
 000231,0.00000012,0.00000357,-0.00000344,-0.00000162,0.00000848,0.0000
 0267,0.00000961,0.00001179,-0.00000982,-0.00000148,-0.00000168,0.00000
 485,0.00000557,-0.00000239,0.00000049,0.00000017,-0.01203048,0.0049890
 4,0.00069857,-0.00746943,0.00004868,0.00207153,0.33084133,-0.00011464,
 0.00019516,0.00011598,-0.00009273,0.00008704,0.00014136,0.00019328,0.0
 0006332,0.00002342,-0.00029426,-0.00002427,0.00007579,-0.00000174,-0.0
 0008729,-0.00004259,0.00021051,-0.00004651,-0.00006265,0.00009384,0.00
 034902,0.00089020,0.02247651,-0.00824061,-0.00493352,-0.00226735,-0.00
 124352,-0.00312111,0.00128656,0.00019701,-0.00019443,0.00011610,-0.000
 14377,0.00017241,-0.00044697,0.00011172,0.00050303,0.00010104,0.000128
 34,0.00014009,0.00001648,-0.00006092,0.00010420,-0.00007738,0.00002500
 ,0.00013753,0.00033286,0.00019795,-0.00006249,-0.00005501,-0.00019700,
 -0.00036999,0.00004632,-0.00001079,-0.00000260,-0.00001851,0.00001800,
 -0.00002450,-0.00003500,0.00003060,-0.00000084,-0.00016846,0.00019343,
 0.00011305,-0.00015480,-0.00001276,-0.00018502,-0.00002186,-0.00004889
 ,-0.00004624,-0.00000465,-0.00001198,0.00000152,0.00001089,-0.00001093
 ,0.00001530,-0.00006855,-0.00010133,0.00011427,0.05270524,-0.06185424,
 -0.00864969,0.00118608,0.00057853,-0.00006882,0.00001004,-0.00030272,-
 0.00016668,0.00011501,-0.00005505,-0.00022484,0.00002650,0.00009793,-0
 .00003417,-0.00000550,-0.00000131,-0.00000973,0.00000853,0.00000727,-0
 .00002860,0.00001452,0.00000002,-0.00000465,-0.00006275,0.00003162,-0.
 00014104,-0.00001113,-0.00002530,0.00000556,-0.00002643,-0.00001273,0.
 00003973,0.00001923,-0.00000180,-0.00003858,0.00000788,0.00000810,-0.0
 0000735,-0.02546141,0.00828541,0.00390355,0.01534680,-0.00294293,-0.00
 307731,-0.06493509,0.06483118,-0.00043906,0.00040980,-0.00028972,-0.00
 004325,-0.00016919,-0.00089956,-0.00034500,-0.00034134,-0.00003832,0.0
 0019012,0.00015356,0.00000686,-0.00003286,-0.00007046,-0.00000476,0.00
 001451,0.00016032,0.00000023,0.00124802,-0.00005932,0.00119551,0.03227
 836,-0.00942493,-0.00839290,-0.00269075,-0.00191834,-0.00386795,0.0014
 7122,-0.00053790,-0.00015949,0.00016228,-0.00019950,0.00022531,-0.0002
 0273,-0.00026797,-0.00007372,-0.00008247,0.00000728,-0.00015933,0.0000
 2750,0.00022405,-0.00005936,-0.00008276,-0.00001133,-0.00004913,-0.000
 18010,0.00012528,-0.00011226,-0.00005424,-0.00020812,-0.00036033,0.000
 02177,-0.00001499,-0.00019985,-0.00004828,0.00000200,-0.00002230,-0.00
 003127,0.00004263,0.00001336,0.00024220,-0.00034918,-0.00002789,-0.000
 00632,0.00012264,-0.00018237,0.00004738,-0.00000659,0.00000708,0.00001
 807,0.00000424,0.00000224,0.00000888,-0.00000535,0.00001886,0.00002525
 ,0.00004083,-0.00002968,0.02866998,-0.00697363,-0.05308193,0.00039473,
 0.00096170,0.00060226,0.00008110,-0.00004156,0.00008930,0.00000822,0.0
 0001746,0.00003989,-0.00011996,-0.00029524,0.00001738,-0.00001186,-0.0
 0001217,0.00000786,0.00008519,-0.00004689,0.00003911,0.00000667,0.0000
 0247,-0.00000042,0.00004024,-0.00006283,0.00011496,0.00001732,0.000034
 47,0.00003330,-0.00006381,0.00009742,0.00002340,0.00001739,-0.00006038
 ,-0.00002376,0.00000671,-0.00001100,-0.00000843,0.00386512,-0.00055026
 ,-0.00065465,-0.02391915,0.00423189,0.00590291,-0.04059437,0.01500044,
 0.06035832\\-0.00000474,0.00000169,0.00000382,-0.00000006,-0.00000329,
 -0.00000594,0.00000543,0.00000320,0.00000658,-0.00000453,0.00000177,0.
 00000762,-0.00000523,-0.00001029,-0.00000086,0.00000085,0.00000467,-0.
 00000130,-0.00000137,0.00000233,-0.00000602,0.00001690,-0.00000157,-0.
 00000067,-0.00000621,0.00000438,0.00000121,0.00000841,-0.00000442,0.00
 000227,-0.00000327,0.00000742,-0.00000756,0.00000480,-0.00002450,-0.00
 000080,-0.00000666,0.00001071,-0.00000830,-0.00003987,0.00000235,-0.00
 000272,0.00001335,0.00000596,-0.00002629,-0.00000029,0.00000099,-0.000
 00154,0.00000025,-0.00000393,0.00000063,-0.00000752,-0.00000348,-0.000
 00135,0.00000401,-0.00000332,0.00000401,-0.00000091,-0.00000285,-0.000
 00049,0.00000391,0.00000191,-0.00000071,0.00000227,-0.00000358,0.00000
 565,-0.00000416,0.00000035,-0.00000295,0.00000036,0.00000013,0.0000021
 4,0.00000188,0.00000083,-0.00000192,0.00000012,0.00000036,0.00000008,-
 0.00000763,-0.00000564,0.00000331,-0.00001984,-0.00000121,0.00000033,0
 .00000515,0.00001931,0.00000125,-0.00000203,0.00000792,0.00000078,0.00
 002543,0.00000341,-0.00001443,0.00000077,0.00000337,-0.00000428,0.0000
 0165,0.00000475,0.00001123,-0.00000057,-0.00000813,0.00000964,0.000021
 77,-0.00001522,0.00001222,-0.00000099,0.00000096,0.00000121,-0.0000076
 3,-0.00000008,0.00000446,-0.00000138,-0.00000113,0.00000270,0.00000340
 ,0.00000071,0.00000345,-0.00000094,0.00000004,-0.00000046,0.00000364,0
 .00000425,0.00000262,0.00000152,-0.00000113,0.00000137\\\@


 BE LIKE A POSTAGE STAMP.  STICK TO ONE THING UNTIL
 YOU GET THERE -- JOSH BILLINGS
 Job cpu time:       1 days 22 hours 20 minutes 49.1 seconds.
 Elapsed time:       0 days  1 hours 39 minutes 27.1 seconds.
 File lengths (MBytes):  RWF=   1444 Int=      0 D2E=      0 Chk=     36 Scr=      8
 Normal termination of Gaussian 16 at Fri Sep  4 20:01:36 2020.
