 Entering Gaussian System, Link 0=g16
 Input=Nic5h3bMidA.gjf
 Output=Nic5h3bMidA.log
 Initial command:
 /sw/contrib/gaussian/g16/A03/g16/l1.exe "/gscratch/scrubbed/gds001/Gau-22692.inp" -scrdir="/gscratch/scrubbed/gds001/"
 Entering Link 1 = /sw/contrib/gaussian/g16/A03/g16/l1.exe PID=     22693.
  
 Copyright (c) 1988,1990,1992,1993,1995,1998,2003,2009,2016,
            Gaussian, Inc.  All Rights Reserved.
  
 This is part of the Gaussian(R) 16 program.  It is based on
 the Gaussian(R) 09 system (copyright 2009, Gaussian, Inc.),
 the Gaussian(R) 03 system (copyright 2003, Gaussian, Inc.),
 the Gaussian(R) 98 system (copyright 1998, Gaussian, Inc.),
 the Gaussian(R) 94 system (copyright 1995, Gaussian, Inc.),
 the Gaussian 92(TM) system (copyright 1992, Gaussian, Inc.),
 the Gaussian 90(TM) system (copyright 1990, Gaussian, Inc.),
 the Gaussian 88(TM) system (copyright 1988, Gaussian, Inc.),
 the Gaussian 86(TM) system (copyright 1986, Carnegie Mellon
 University), and the Gaussian 82(TM) system (copyright 1983,
 Carnegie Mellon University). Gaussian is a federally registered
 trademark of Gaussian, Inc.
  
 This software contains proprietary and confidential information,
 including trade secrets, belonging to Gaussian, Inc.
  
 This software is provided under written license and may be
 used, copied, transmitted, or stored only in accord with that
 written license.
  
 The following legend is applicable only to US Government
 contracts under FAR:
  
                    RESTRICTED RIGHTS LEGEND
  
 Use, reproduction and disclosure by the US Government is
 subject to restrictions as set forth in subparagraphs (a)
 and (c) of the Commercial Computer Software - Restricted
 Rights clause in FAR 52.227-19.
  
 Gaussian, Inc.
 340 Quinnipiac St., Bldg. 40, Wallingford CT 06492
  
  
 ---------------------------------------------------------------
 Warning -- This program may not be used in any manner that
 competes with the business of Gaussian, Inc. or will provide
 assistance to any competitor of Gaussian, Inc.  The licensee
 of this program is prohibited from giving any competitor of
 Gaussian, Inc. access to this program.  By using this program,
 the user acknowledges that Gaussian, Inc. is engaged in the
 business of creating and licensing software in the field of
 computational chemistry and represents and warrants to the
 licensee that it is not a competitor of Gaussian, Inc. and that
 it will not use this program in any manner prohibited above.
 ---------------------------------------------------------------
  

 Cite this work as:
 Gaussian 16, Revision A.03,
 M. J. Frisch, G. W. Trucks, H. B. Schlegel, G. E. Scuseria, 
 M. A. Robb, J. R. Cheeseman, G. Scalmani, V. Barone, 
 G. A. Petersson, H. Nakatsuji, X. Li, M. Caricato, A. V. Marenich, 
 J. Bloino, B. G. Janesko, R. Gomperts, B. Mennucci, H. P. Hratchian, 
 J. V. Ortiz, A. F. Izmaylov, J. L. Sonnenberg, D. Williams-Young, 
 F. Ding, F. Lipparini, F. Egidi, J. Goings, B. Peng, A. Petrone, 
 T. Henderson, D. Ranasinghe, V. G. Zakrzewski, J. Gao, N. Rega, 
 G. Zheng, W. Liang, M. Hada, M. Ehara, K. Toyota, R. Fukuda, 
 J. Hasegawa, M. Ishida, T. Nakajima, Y. Honda, O. Kitao, H. Nakai, 
 T. Vreven, K. Throssell, J. A. Montgomery, Jr., J. E. Peralta, 
 F. Ogliaro, M. J. Bearpark, J. J. Heyd, E. N. Brothers, K. N. Kudin, 
 V. N. Staroverov, T. A. Keith, R. Kobayashi, J. Normand, 
 K. Raghavachari, A. P. Rendell, J. C. Burant, S. S. Iyengar, 
 J. Tomasi, M. Cossi, J. M. Millam, M. Klene, C. Adamo, R. Cammi, 
 J. W. Ochterski, R. L. Martin, K. Morokuma, O. Farkas, 
 J. B. Foresman, and D. J. Fox, Gaussian, Inc., Wallingford CT, 2016.
 
 ******************************************
 Gaussian 16:  ES64L-G16RevA.03 25-Dec-2016
                 6-Dec-2022 
 ******************************************
 %nprocshared=28
 Will use up to   28 processors via shared memory.
 %mem=41GB
 -----------------------------
 # wB97XD/aug-cc-pVDZ opt freq
 -----------------------------
 1/18=20,19=15,26=3,38=1/1,3;
 2/9=110,12=2,17=6,18=5,40=1/2;
 3/5=16,7=10,11=2,25=1,30=1,71=1,74=-58/1,2,3;
 4//1;
 5/5=2,38=5/2;
 6/7=2,8=2,9=2,10=2,28=1/1;
 7//1,2,3,16;
 1/18=20,19=15,26=3/3(2);
 2/9=110/2;
 99//99;
 2/9=110/2;
 3/5=16,7=10,11=2,25=1,30=1,71=1,74=-58/1,2,3;
 4/5=5,16=3,69=1/1;
 5/5=2,38=5/2;
 7//1,2,3,16;
 1/18=20,19=15,26=3/3(-5);
 2/9=110/2;
 6/7=2,8=2,9=2,10=2,19=2,28=1/1;
 99/9=1/99;
 ----
 blah
 ----
 Symbolic Z-matrix:
 Charge =  1 Multiplicity = 1
 C                     1.51138   2.33669   0.91941 
 C                     1.20452   1.15499   0.24144 
 C                    -0.01349   1.10303  -0.42777 
 N                    -0.84925   2.14892  -0.4045 
 C                    -0.57113   3.29196   0.24022 
 C                     0.62771   3.41678   0.9158 
 C                     2.16115  -0.01293   0.2136 
 N                     1.52812  -1.29838   0.53138 
 C                     2.56358  -2.28475   0.18921 
 C                     3.13508  -1.78294  -1.14416 
 C                     2.80978  -0.2701   -1.15927 
 O                    -3.19322   1.50725  -1.38494 
 O                    -2.87826  -0.75361  -0.11354 
 O                    -0.60307  -1.92106  -1.1548 
 H                     2.12589  -3.28901   0.13449 
 H                     4.21028  -1.97601  -1.21159 
 H                     2.65719  -2.28657  -1.99147 
 H                     3.69319   0.36093  -1.30271 
 H                     2.09886  -0.03088  -1.95952 
 H                     3.34548  -2.30126   0.97049 
 H                     2.95737   0.19434   0.95581 
 H                    -0.35479   0.23279  -0.98608 
 H                    -1.3275    4.07174   0.19839 
 H                     0.8605    4.34001   1.44079 
 H                     2.45372   2.41524   1.46232 
 C                     1.06117  -1.40479   1.90842 
 H                    -1.78497   2.0197   -0.88897 
 H                     0.17536  -1.79948  -0.55674 
 H                    -0.5062   -2.77005  -1.59077 
 H                    -3.24128   0.59693  -0.99298 
 H                    -3.54552   1.46739  -2.27639 
 H                    -3.55969  -1.31531   0.29387 
 H                    -2.18447  -1.34188  -0.46025 
 O                    -4.81123  -2.3924    1.04748 
 H                    -5.08688  -2.31606   1.96468 
 H                    -5.58028  -2.71753   0.572 
 H                     0.64665  -2.40566   2.07438 
 H                     0.26418  -0.67422   2.09387 
 H                     1.87861  -1.23795   2.63331 
 O                    -7.18286  -3.17552  -0.08503 
 H                    -7.74724  -2.52166  -0.53312 
 H                    -7.57917  -4.02181  -0.35424 
 
 Add virtual bond connecting atoms H27        and O12        Dist= 2.98D+00.
 Add virtual bond connecting atoms H30        and O13        Dist= 3.12D+00.
 Add virtual bond connecting atoms O40        and H36        Dist= 3.39D+00.
 Add virtual bond connecting atoms O14        and H33        Dist= 3.44D+00.
 Add virtual bond connecting atoms H28        and N8         Dist= 3.41D+00.
 Add virtual bond connecting atoms O34        and H32        Dist= 3.43D+00.

 GradGradGradGradGradGradGradGradGradGradGradGradGradGradGradGradGradGrad
 Berny optimization.
 Initialization pass.
                           ----------------------------
                           !    Initial Parameters    !
                           ! (Angstroms and Degrees)  !
 --------------------------                            --------------------------
 ! Name  Definition              Value          Derivative Info.                !
 --------------------------------------------------------------------------------
 ! R1    R(1,2)                  1.3965         estimate D2E/DX2                !
 ! R2    R(1,6)                  1.3955         estimate D2E/DX2                !
 ! R3    R(1,25)                 1.0904         estimate D2E/DX2                !
 ! R4    R(2,3)                  1.3907         estimate D2E/DX2                !
 ! R5    R(2,7)                  1.51           estimate D2E/DX2                !
 ! R6    R(3,4)                  1.339          estimate D2E/DX2                !
 ! R7    R(3,22)                 1.0888         estimate D2E/DX2                !
 ! R8    R(4,5)                  1.3415         estimate D2E/DX2                !
 ! R9    R(4,27)                 1.0616         estimate D2E/DX2                !
 ! R10   R(5,6)                  1.3817         estimate D2E/DX2                !
 ! R11   R(5,23)                 1.0872         estimate D2E/DX2                !
 ! R12   R(6,24)                 1.0873         estimate D2E/DX2                !
 ! R13   R(7,8)                  1.4677         estimate D2E/DX2                !
 ! R14   R(7,11)                 1.54           estimate D2E/DX2                !
 ! R15   R(7,21)                 1.1081         estimate D2E/DX2                !
 ! R16   R(8,9)                  1.4704         estimate D2E/DX2                !
 ! R17   R(8,26)                 1.4579         estimate D2E/DX2                !
 ! R18   R(8,28)                 1.8069         estimate D2E/DX2                !
 ! R19   R(9,10)                 1.535          estimate D2E/DX2                !
 ! R20   R(9,15)                 1.0969         estimate D2E/DX2                !
 ! R21   R(9,20)                 1.1055         estimate D2E/DX2                !
 ! R22   R(10,11)                1.5475         estimate D2E/DX2                !
 ! R23   R(10,16)                1.0945         estimate D2E/DX2                !
 ! R24   R(10,17)                1.0954         estimate D2E/DX2                !
 ! R25   R(11,18)                1.0951         estimate D2E/DX2                !
 ! R26   R(11,19)                1.0968         estimate D2E/DX2                !
 ! R27   R(12,27)                1.5785         estimate D2E/DX2                !
 ! R28   R(12,30)                0.9923         estimate D2E/DX2                !
 ! R29   R(12,31)                0.9594         estimate D2E/DX2                !
 ! R30   R(13,30)                1.652          estimate D2E/DX2                !
 ! R31   R(13,32)                0.9725         estimate D2E/DX2                !
 ! R32   R(13,33)                0.9735         estimate D2E/DX2                !
 ! R33   R(14,28)                0.9891         estimate D2E/DX2                !
 ! R34   R(14,29)                0.9593         estimate D2E/DX2                !
 ! R35   R(14,33)                1.8217         estimate D2E/DX2                !
 ! R36   R(26,37)                1.096          estimate D2E/DX2                !
 ! R37   R(26,38)                1.097          estimate D2E/DX2                !
 ! R38   R(26,39)                1.1052         estimate D2E/DX2                !
 ! R39   R(32,34)                1.8151         estimate D2E/DX2                !
 ! R40   R(34,35)                0.9608         estimate D2E/DX2                !
 ! R41   R(34,36)                0.9609         estimate D2E/DX2                !
 ! R42   R(36,40)                1.7916         estimate D2E/DX2                !
 ! R43   R(40,41)                0.9731         estimate D2E/DX2                !
 ! R44   R(40,42)                0.9725         estimate D2E/DX2                !
 ! A1    A(2,1,6)              120.9655         estimate D2E/DX2                !
 ! A2    A(2,1,25)             119.5107         estimate D2E/DX2                !
 ! A3    A(6,1,25)             119.5235         estimate D2E/DX2                !
 ! A4    A(1,2,3)              117.237          estimate D2E/DX2                !
 ! A5    A(1,2,7)              121.6176         estimate D2E/DX2                !
 ! A6    A(3,2,7)              121.138          estimate D2E/DX2                !
 ! A7    A(2,3,4)              120.6047         estimate D2E/DX2                !
 ! A8    A(2,3,22)             123.4449         estimate D2E/DX2                !
 ! A9    A(4,3,22)             115.9482         estimate D2E/DX2                !
 ! A10   A(3,4,5)              122.9903         estimate D2E/DX2                !
 ! A11   A(3,4,27)             116.561          estimate D2E/DX2                !
 ! A12   A(5,4,27)             120.3841         estimate D2E/DX2                !
 ! A13   A(4,5,6)              119.4616         estimate D2E/DX2                !
 ! A14   A(4,5,23)             116.6426         estimate D2E/DX2                !
 ! A15   A(6,5,23)             123.8944         estimate D2E/DX2                !
 ! A16   A(1,6,5)              118.7345         estimate D2E/DX2                !
 ! A17   A(1,6,24)             121.3571         estimate D2E/DX2                !
 ! A18   A(5,6,24)             119.9042         estimate D2E/DX2                !
 ! A19   A(2,7,8)              113.5903         estimate D2E/DX2                !
 ! A20   A(2,7,11)             114.3585         estimate D2E/DX2                !
 ! A21   A(2,7,21)             107.3501         estimate D2E/DX2                !
 ! A22   A(8,7,11)             103.2047         estimate D2E/DX2                !
 ! A23   A(8,7,21)             109.1919         estimate D2E/DX2                !
 ! A24   A(11,7,21)            109.0086         estimate D2E/DX2                !
 ! A25   A(7,8,9)              103.4974         estimate D2E/DX2                !
 ! A26   A(7,8,26)             113.9893         estimate D2E/DX2                !
 ! A27   A(7,8,28)             115.8108         estimate D2E/DX2                !
 ! A28   A(9,8,26)             113.3511         estimate D2E/DX2                !
 ! A29   A(9,8,28)             101.5969         estimate D2E/DX2                !
 ! A30   A(26,8,28)            107.9845         estimate D2E/DX2                !
 ! A31   A(8,9,10)             104.1826         estimate D2E/DX2                !
 ! A32   A(8,9,15)             110.1679         estimate D2E/DX2                !
 ! A33   A(8,9,20)             110.0981         estimate D2E/DX2                !
 ! A34   A(10,9,15)            113.8626         estimate D2E/DX2                !
 ! A35   A(10,9,20)            110.8214         estimate D2E/DX2                !
 ! A36   A(15,9,20)            107.6878         estimate D2E/DX2                !
 ! A37   A(9,10,11)            104.4662         estimate D2E/DX2                !
 ! A38   A(9,10,16)            111.1985         estimate D2E/DX2                !
 ! A39   A(9,10,17)            111.0484         estimate D2E/DX2                !
 ! A40   A(11,10,16)           112.2318         estimate D2E/DX2                !
 ! A41   A(11,10,17)           110.4998         estimate D2E/DX2                !
 ! A42   A(16,10,17)           107.447          estimate D2E/DX2                !
 ! A43   A(7,11,10)            104.0686         estimate D2E/DX2                !
 ! A44   A(7,11,18)            111.1202         estimate D2E/DX2                !
 ! A45   A(7,11,19)            109.9375         estimate D2E/DX2                !
 ! A46   A(10,11,18)           113.2682         estimate D2E/DX2                !
 ! A47   A(10,11,19)           110.8908         estimate D2E/DX2                !
 ! A48   A(18,11,19)           107.5561         estimate D2E/DX2                !
 ! A49   A(27,12,30)           102.5284         estimate D2E/DX2                !
 ! A50   A(27,12,31)           129.2754         estimate D2E/DX2                !
 ! A51   A(30,12,31)           108.128          estimate D2E/DX2                !
 ! A52   A(30,13,32)           122.7648         estimate D2E/DX2                !
 ! A53   A(30,13,33)           117.454          estimate D2E/DX2                !
 ! A54   A(32,13,33)           107.4313         estimate D2E/DX2                !
 ! A55   A(28,14,29)           107.7036         estimate D2E/DX2                !
 ! A56   A(28,14,33)           114.4285         estimate D2E/DX2                !
 ! A57   A(29,14,33)           122.8406         estimate D2E/DX2                !
 ! A58   A(8,26,37)            109.3183         estimate D2E/DX2                !
 ! A59   A(8,26,38)            110.1065         estimate D2E/DX2                !
 ! A60   A(8,26,39)            111.8132         estimate D2E/DX2                !
 ! A61   A(37,26,38)           107.9276         estimate D2E/DX2                !
 ! A62   A(37,26,39)           108.5588         estimate D2E/DX2                !
 ! A63   A(38,26,39)           109.0236         estimate D2E/DX2                !
 ! A64   A(12,30,13)           161.7354         estimate D2E/DX2                !
 ! A65   A(13,33,14)           161.1933         estimate D2E/DX2                !
 ! A66   A(32,34,35)           123.1653         estimate D2E/DX2                !
 ! A67   A(32,34,36)           123.1767         estimate D2E/DX2                !
 ! A68   A(35,34,36)           105.6447         estimate D2E/DX2                !
 ! A69   A(36,40,41)           121.0594         estimate D2E/DX2                !
 ! A70   A(36,40,42)           133.5129         estimate D2E/DX2                !
 ! A71   A(41,40,42)           102.763          estimate D2E/DX2                !
 ! A72   L(4,27,12,14,-1)      169.5725         estimate D2E/DX2                !
 ! A73   L(8,28,14,3,-1)       170.8907         estimate D2E/DX2                !
 ! A74   L(13,32,34,37,-1)     179.2564         estimate D2E/DX2                !
 ! A75   L(34,36,40,31,-1)     182.3299         estimate D2E/DX2                !
 ! A76   L(4,27,12,14,-2)      170.2797         estimate D2E/DX2                !
 ! A77   L(8,28,14,3,-2)       180.5675         estimate D2E/DX2                !
 ! A78   L(13,32,34,37,-2)     180.9022         estimate D2E/DX2                !
 ! A79   L(34,36,40,31,-2)     190.5697         estimate D2E/DX2                !
 ! D1    D(6,1,2,3)             -0.2096         estimate D2E/DX2                !
 ! D2    D(6,1,2,7)            178.8141         estimate D2E/DX2                !
 ! D3    D(25,1,2,3)           179.5796         estimate D2E/DX2                !
 ! D4    D(25,1,2,7)            -1.3967         estimate D2E/DX2                !
 ! D5    D(2,1,6,5)              0.7993         estimate D2E/DX2                !
 ! D6    D(2,1,6,24)          -179.9511         estimate D2E/DX2                !
 ! D7    D(25,1,6,5)          -178.9899         estimate D2E/DX2                !
 ! D8    D(25,1,6,24)            0.2597         estimate D2E/DX2                !
 ! D9    D(1,2,3,4)             -0.4523         estimate D2E/DX2                !
 ! D10   D(1,2,3,22)          -179.8869         estimate D2E/DX2                !
 ! D11   D(7,2,3,4)           -179.481          estimate D2E/DX2                !
 ! D12   D(7,2,3,22)             1.0844         estimate D2E/DX2                !
 ! D13   D(1,2,7,8)            131.8804         estimate D2E/DX2                !
 ! D14   D(1,2,7,11)          -109.9992         estimate D2E/DX2                !
 ! D15   D(1,2,7,21)            11.0671         estimate D2E/DX2                !
 ! D16   D(3,2,7,8)            -49.1338         estimate D2E/DX2                !
 ! D17   D(3,2,7,11)            68.9867         estimate D2E/DX2                !
 ! D18   D(3,2,7,21)          -169.947          estimate D2E/DX2                !
 ! D19   D(2,3,4,5)              0.5308         estimate D2E/DX2                !
 ! D20   D(2,3,4,27)          -176.5523         estimate D2E/DX2                !
 ! D21   D(22,3,4,5)          -179.9939         estimate D2E/DX2                !
 ! D22   D(22,3,4,27)            2.9231         estimate D2E/DX2                !
 ! D23   D(3,4,5,6)              0.0843         estimate D2E/DX2                !
 ! D24   D(3,4,5,23)          -179.5084         estimate D2E/DX2                !
 ! D25   D(27,4,5,6)           177.0597         estimate D2E/DX2                !
 ! D26   D(27,4,5,23)           -2.533          estimate D2E/DX2                !
 ! D27   D(3,4,12,30)           38.686          estimate D2E/DX2                !
 ! D28   D(3,4,12,31)          -84.3477         estimate D2E/DX2                !
 ! D29   D(5,4,12,30)         -130.9584         estimate D2E/DX2                !
 ! D30   D(5,4,12,31)          106.0079         estimate D2E/DX2                !
 ! D31   D(4,5,6,1)             -0.7376         estimate D2E/DX2                !
 ! D32   D(4,5,6,24)          -179.9984         estimate D2E/DX2                !
 ! D33   D(23,5,6,1)           178.8237         estimate D2E/DX2                !
 ! D34   D(23,5,6,24)           -0.4371         estimate D2E/DX2                !
 ! D35   D(2,7,8,9)            169.3864         estimate D2E/DX2                !
 ! D36   D(2,7,8,26)           -67.0422         estimate D2E/DX2                !
 ! D37   D(2,7,8,28)            59.1596         estimate D2E/DX2                !
 ! D38   D(11,7,8,9)            45.0021         estimate D2E/DX2                !
 ! D39   D(11,7,8,26)          168.5736         estimate D2E/DX2                !
 ! D40   D(11,7,8,28)          -65.2246         estimate D2E/DX2                !
 ! D41   D(21,7,8,9)           -70.8414         estimate D2E/DX2                !
 ! D42   D(21,7,8,26)           52.7301         estimate D2E/DX2                !
 ! D43   D(21,7,8,28)          178.9319         estimate D2E/DX2                !
 ! D44   D(2,7,11,10)         -153.2234         estimate D2E/DX2                !
 ! D45   D(2,7,11,18)           84.5427         estimate D2E/DX2                !
 ! D46   D(2,7,11,19)          -34.4103         estimate D2E/DX2                !
 ! D47   D(8,7,11,10)          -29.343          estimate D2E/DX2                !
 ! D48   D(8,7,11,18)         -151.577          estimate D2E/DX2                !
 ! D49   D(8,7,11,19)           89.47           estimate D2E/DX2                !
 ! D50   D(21,7,11,10)          86.6311         estimate D2E/DX2                !
 ! D51   D(21,7,11,18)         -35.6029         estimate D2E/DX2                !
 ! D52   D(21,7,11,19)        -154.5558         estimate D2E/DX2                !
 ! D53   D(7,8,9,10)           -42.7604         estimate D2E/DX2                !
 ! D54   D(7,8,9,15)          -165.263          estimate D2E/DX2                !
 ! D55   D(7,8,9,20)            76.113          estimate D2E/DX2                !
 ! D56   D(26,8,9,10)         -166.75           estimate D2E/DX2                !
 ! D57   D(26,8,9,15)           70.7473         estimate D2E/DX2                !
 ! D58   D(26,8,9,20)          -47.8767         estimate D2E/DX2                !
 ! D59   D(28,8,9,10)           77.6611         estimate D2E/DX2                !
 ! D60   D(28,8,9,15)          -44.8416         estimate D2E/DX2                !
 ! D61   D(28,8,9,20)         -163.4656         estimate D2E/DX2                !
 ! D62   D(7,8,14,29)          124.4318         estimate D2E/DX2                !
 ! D63   D(7,8,14,33)          -92.3924         estimate D2E/DX2                !
 ! D64   D(9,8,14,29)           12.5995         estimate D2E/DX2                !
 ! D65   D(9,8,14,33)          155.7753         estimate D2E/DX2                !
 ! D66   D(26,8,14,29)        -108.314          estimate D2E/DX2                !
 ! D67   D(26,8,14,33)          34.8617         estimate D2E/DX2                !
 ! D68   D(7,8,26,37)         -177.3731         estimate D2E/DX2                !
 ! D69   D(7,8,26,38)           64.2232         estimate D2E/DX2                !
 ! D70   D(7,8,26,39)          -57.1358         estimate D2E/DX2                !
 ! D71   D(9,8,26,37)          -59.3142         estimate D2E/DX2                !
 ! D72   D(9,8,26,38)         -177.7179         estimate D2E/DX2                !
 ! D73   D(9,8,26,39)           60.9231         estimate D2E/DX2                !
 ! D74   D(28,8,26,37)          52.4233         estimate D2E/DX2                !
 ! D75   D(28,8,26,38)         -65.9803         estimate D2E/DX2                !
 ! D76   D(28,8,26,39)         172.6607         estimate D2E/DX2                !
 ! D77   D(8,9,10,11)           23.2198         estimate D2E/DX2                !
 ! D78   D(8,9,10,16)          144.4959         estimate D2E/DX2                !
 ! D79   D(8,9,10,17)          -95.9114         estimate D2E/DX2                !
 ! D80   D(15,9,10,11)         143.2623         estimate D2E/DX2                !
 ! D81   D(15,9,10,16)         -95.4616         estimate D2E/DX2                !
 ! D82   D(15,9,10,17)          24.1311         estimate D2E/DX2                !
 ! D83   D(20,9,10,11)         -95.1592         estimate D2E/DX2                !
 ! D84   D(20,9,10,16)          26.1169         estimate D2E/DX2                !
 ! D85   D(20,9,10,17)         145.7096         estimate D2E/DX2                !
 ! D86   D(9,10,11,7)            3.6934         estimate D2E/DX2                !
 ! D87   D(9,10,11,18)         124.4983         estimate D2E/DX2                !
 ! D88   D(9,10,11,19)        -114.4658         estimate D2E/DX2                !
 ! D89   D(16,10,11,7)        -116.896          estimate D2E/DX2                !
 ! D90   D(16,10,11,18)          3.9089         estimate D2E/DX2                !
 ! D91   D(16,10,11,19)        124.9448         estimate D2E/DX2                !
 ! D92   D(17,10,11,7)         123.1952         estimate D2E/DX2                !
 ! D93   D(17,10,11,18)       -115.9999         estimate D2E/DX2                !
 ! D94   D(17,10,11,19)          5.0359         estimate D2E/DX2                !
 ! D95   D(27,12,30,13)          6.6205         estimate D2E/DX2                !
 ! D96   D(31,12,30,13)        145.6556         estimate D2E/DX2                !
 ! D97   D(32,13,30,12)        144.7931         estimate D2E/DX2                !
 ! D98   D(33,13,30,12)        -77.8299         estimate D2E/DX2                !
 ! D99   D(30,13,34,35)        -96.4027         estimate D2E/DX2                !
 ! D100  D(30,13,34,36)         48.3879         estimate D2E/DX2                !
 ! D101  D(33,13,34,35)        122.8981         estimate D2E/DX2                !
 ! D102  D(33,13,34,36)        -92.3114         estimate D2E/DX2                !
 ! D103  D(30,13,33,14)         48.7239         estimate D2E/DX2                !
 ! D104  D(32,13,33,14)       -167.9202         estimate D2E/DX2                !
 ! D105  D(28,14,33,13)         65.823          estimate D2E/DX2                !
 ! D106  D(29,14,33,13)       -160.4911         estimate D2E/DX2                !
 ! D107  D(32,34,40,41)        -45.6274         estimate D2E/DX2                !
 ! D108  D(32,34,40,42)        117.2545         estimate D2E/DX2                !
 ! D109  D(35,34,40,41)         99.1279         estimate D2E/DX2                !
 ! D110  D(35,34,40,42)        -97.9902         estimate D2E/DX2                !
 --------------------------------------------------------------------------------
 Trust Radius=3.00D-01 FncErr=1.00D-07 GrdErr=1.00D-06 EigMax=2.50D+02 EigMin=1.00D-04
 Number of steps in this run=    243 maximum allowed number of steps=    252.
 GradGradGradGradGradGradGradGradGradGradGradGradGradGradGradGradGradGrad

                          Input orientation:                          
 ---------------------------------------------------------------------
 Center     Atomic      Atomic             Coordinates (Angstroms)
 Number     Number       Type             X           Y           Z
 ---------------------------------------------------------------------
      1          6           0        1.511380    2.336691    0.919407
      2          6           0        1.204518    1.154993    0.241439
      3          6           0       -0.013494    1.103034   -0.427770
      4          7           0       -0.849251    2.148918   -0.404504
      5          6           0       -0.571125    3.291959    0.240221
      6          6           0        0.627709    3.416776    0.915798
      7          6           0        2.161146   -0.012932    0.213598
      8          7           0        1.528115   -1.298379    0.531379
      9          6           0        2.563584   -2.284754    0.189206
     10          6           0        3.135082   -1.782940   -1.144161
     11          6           0        2.809784   -0.270097   -1.159272
     12          8           0       -3.193222    1.507246   -1.384940
     13          8           0       -2.878259   -0.753614   -0.113537
     14          8           0       -0.603070   -1.921059   -1.154804
     15          1           0        2.125890   -3.289005    0.134489
     16          1           0        4.210281   -1.976005   -1.211594
     17          1           0        2.657187   -2.286572   -1.991465
     18          1           0        3.693193    0.360925   -1.302712
     19          1           0        2.098864   -0.030883   -1.959515
     20          1           0        3.345478   -2.301262    0.970492
     21          1           0        2.957368    0.194343    0.955809
     22          1           0       -0.354789    0.232791   -0.986084
     23          1           0       -1.327497    4.071737    0.198386
     24          1           0        0.860499    4.340006    1.440792
     25          1           0        2.453720    2.415242    1.462318
     26          6           0        1.061167   -1.404786    1.908424
     27          1           0       -1.784970    2.019695   -0.888974
     28          1           0        0.175364   -1.799483   -0.556744
     29          1           0       -0.506204   -2.770053   -1.590773
     30          1           0       -3.241284    0.596930   -0.992983
     31          1           0       -3.545524    1.467388   -2.276391
     32          1           0       -3.559689   -1.315307    0.293867
     33          1           0       -2.184467   -1.341875   -0.460248
     34          8           0       -4.811229   -2.392401    1.047482
     35          1           0       -5.086879   -2.316062    1.964684
     36          1           0       -5.580281   -2.717526    0.571995
     37          1           0        0.646652   -2.405657    2.074384
     38          1           0        0.264177   -0.674223    2.093872
     39          1           0        1.878608   -1.237952    2.633311
     40          8           0       -7.182855   -3.175522   -0.085031
     41          1           0       -7.747242   -2.521664   -0.533118
     42          1           0       -7.579165   -4.021814   -0.354240
 ---------------------------------------------------------------------
                    Distance matrix (angstroms):
                    1          2          3          4          5
     1  C    0.000000
     2  C    1.396501   0.000000
     3  C    2.379503   1.390717   0.000000
     4  N    2.713038   2.371307   1.338994   0.000000
     5  C    2.389698   2.778405   2.355538   1.341479   0.000000
     6  C    1.395518   2.429636   2.751312   2.352036   1.381733
     7  C    2.537930   1.509954   2.527012   3.757411   4.288160
     8  N    3.655760   2.491549   3.010533   4.290874   5.055965
     9  C    4.795631   3.698871   4.301058   5.626489   6.397557
    10  C    4.885292   3.778679   4.330773   5.646371   6.434834
    11  C    3.578003   2.563153   3.223582   4.450825   5.106601
    12  O    5.303892   4.702054   3.345180   2.620534   3.563950
    13  O    5.466799   4.520825   3.428230   3.553340   4.670618
    14  O    5.186683   3.831314   3.165646   4.145874   5.396543
    15  H    5.713333   4.539767   4.917632   6.221976   7.112957
    16  H    5.515848   4.577015   5.285370   6.577632   7.260927
    17  H    5.582169   4.352066   4.589892   5.872574   6.820735
    18  H    3.688058   3.034543   3.880178   4.963617   5.399631
    19  H    3.773425   2.655250   2.845007   3.982584   4.796765
    20  H    4.987698   4.130487   4.982676   6.268211   6.867110
    21  H    2.584930   2.122653   3.400887   4.490118   4.749479
    22  H    3.397040   2.188312   1.088816   2.062588   3.302898
    23  H    3.404332   3.862687   3.306338   2.071094   1.087153
    24  H    2.169968   3.420688   3.838408   3.336050   2.142270
    25  H    1.090379   2.153898   3.373643   3.803363   3.378142
    26  C    3.896087   3.058081   3.591916   4.650607   5.244682
    27  H    3.773149   3.310979   2.047219   1.061593   2.089774
    28  H    4.590413   3.228805   2.911513   4.082020   5.207224
    29  H    6.037424   4.657205   4.073836   5.071606   6.332831
    30  H    5.410344   4.647622   3.315756   2.911494   3.989201
    31  H    6.044923   5.385161   4.003172   3.352362   4.302260
    32  H    6.280456   5.366824   4.352543   4.453656   5.491930
    33  H    5.393939   4.267544   3.269825   3.737853   4.956405
    34  O    7.896588   7.030144   6.116592   6.199122   7.137374
    35  H    8.141114   7.389146   6.569116   6.595952   7.403763
    36  H    8.715358   7.819154   6.825344   6.857002   7.830430
    37  H    4.956974   4.043406   4.359757   5.396922   6.108188
    38  H    3.464172   2.767992   3.097486   3.930869   4.456944
    39  H    3.981256   3.449875   4.293074   5.304755   5.678747
    40  O   10.343264   9.444997   8.356031   8.280475   9.254679
    41  H   10.556302   9.708334   8.541685   8.331456   9.267843
    42  H   11.166502  10.213092   9.138318   9.130838  10.146787
                    6          7          8          9         10
     6  C    0.000000
     7  C    3.821964   0.000000
     8  N    4.815724   1.467681   0.000000
     9  C    6.064898   2.307320   1.470447   0.000000
    10  C    6.129225   2.434130   2.371619   1.535023   0.000000
    11  C    4.760294   1.540012   2.357613   2.436770   1.547495
    12  O    4.851723   5.790986   5.816772   7.070927   7.136577
    13  O    5.544682   5.104041   4.486515   5.661245   6.187242
    14  O    5.856167   3.626894   2.787991   3.459239   3.740718
    15  H    6.915381   3.277218   2.115998   1.096855   2.218478
    16  H    6.814889   3.175497   3.269732   2.183845   1.094474
    17  H    6.715589   3.205901   2.935314   2.182680   1.095424
    18  H    4.863867   2.187723   3.287057   3.240595   2.220987
    19  H    4.724201   2.174079   2.852517   3.148476   2.192773
    20  H    6.331289   2.685514   2.121651   1.105459   2.187391
    21  H    3.976555   1.108066   2.109769   2.624627   2.889828
    22  H    3.836694   2.798133   2.862255   4.029422   4.033281
    23  H    2.183228   5.371721   6.091268   7.452890   7.482933
    24  H    1.087273   4.705928   5.750142   6.953734   7.024683
    25  H    2.153154   2.746075   3.938829   4.870611   4.988258
    26  C    4.941726   2.453497   1.457949   2.446898   3.709771
    27  H    3.321153   4.573737   4.899342   6.212944   6.223509
    28  H    5.438966   2.780022   1.806946   2.548632   3.017493
    29  H    6.770931   4.239366   3.287523   3.581541   3.799055
    30  H    5.154036   5.569023   5.353788   6.587728   6.807693
    31  H    5.604111   6.399803   6.424551   7.581487   7.515123
    32  H    6.349308   5.867757   5.093373   6.200424   6.863422
    33  H    5.696191   4.593965   3.842978   4.884138   5.381438
    34  O    7.959015   7.414260   6.453722   7.425368   8.265507
    35  H    8.162237   7.804138   6.844574   7.853845   8.806235
    36  H    8.734243   8.208104   7.248788   8.164334   8.931752
    37  H    5.936616   3.388414   2.093778   2.691309   4.115713
    38  H    4.272738   2.751586   2.104399   3.392467   4.467237
    39  H    5.116746   2.726814   2.131810   2.745658   4.018088
    40  O   10.269614   9.869221   8.932224   9.790902  10.465222
    41  H   10.368424  10.248291   9.416041  10.338811  10.924470
    42  H   11.148919  10.548329   9.546935  10.304760  10.974134
                   11         12         13         14         15
    11  C    0.000000
    12  O    6.264659   0.000000
    13  O    5.803549   2.612883   0.000000
    14  O    3.791209   4.302921   2.761096   0.000000
    15  H    3.354897   7.321587   5.615268   3.313725   0.000000
    16  H    2.207771   8.183822   7.276494   4.814000   2.807240
    17  H    2.186779   6.999158   6.042991   3.385687   2.409736
    18  H    1.095069   6.981656   6.770548   4.866950   4.224213
    19  H    1.096822   5.540952   5.357399   3.394226   3.873105
    20  H    2.991403   7.925111   6.504247   4.500274   1.778182
    21  H    2.170496   6.710632   6.008050   4.648261   3.674185
    22  H    3.208958   3.136881   2.846442   2.174668   4.451123
    23  H    6.149134   3.544639   5.078009   6.186236   8.130836
    24  H    5.640310   5.695783   6.506859   6.933981   7.842796
    25  H    3.769690   6.388997   6.399607   5.915809   5.865922
    26  C    3.708900   6.117680   4.475648   3.524144   2.798350
    27  H    5.140814   1.578531   3.080232   4.122753   6.672675
    28  H    3.105194   4.792467   3.258050   0.989149   2.549712
    29  H    4.175135   5.055464   3.445997   0.959293   3.189633
    30  H    6.115130   0.992278   1.652023   3.650565   6.721476
    31  H    6.682571   0.959370   3.171124   4.625750   7.784636
    32  H    6.616212   3.304466   0.972535   3.347713   6.020523
    33  H    5.155568   3.160717   0.973451   1.821724   4.766991
    34  O    8.213025   4.872563   2.787465   4.772927   7.054153
    35  H    8.735122   5.424353   3.411488   5.476475   7.504683
    36  H    8.909567   5.232241   3.409960   5.328116   7.739707
    37  H    4.438050   6.482466   4.465562   3.496326   2.594541
    38  H    4.150467   5.367918   3.841076   3.586170   3.760617
    39  H    4.023371   7.028934   5.514303   4.579866   3.242234
    40  O   10.461756   6.287707   4.939231   6.783190   9.312025
    41  H   10.812604   6.139773   5.197022   7.196277   9.925384
    42  H   11.074914   7.132275   5.730409   7.329391   9.744945
                   16         17         18         19         20
    16  H    0.000000
    17  H    1.765432   0.000000
    18  H    2.395188   2.925223   0.000000
    19  H    2.966642   2.323979   1.768273   0.000000
    20  H    2.369636   3.040913   3.517897   3.910704   0.000000
    21  H    3.313282   3.864126   2.381198   3.047437   2.525646
    22  H    5.076367   4.053391   4.062368   2.652830   4.893014
    23  H    8.320469   7.816729   6.421117   5.764371   7.940275
    24  H    7.625496   7.675937   5.602147   5.674531   7.106528
    25  H    5.433080   5.837557   3.660861   4.221184   4.825198
    26  C    4.469645   4.305109   4.511839   4.233837   2.627063
    27  H    7.211986   6.284280   5.738725   4.520519   6.960588
    28  H    4.091521   2.907770   4.195110   2.965732   3.554413
    29  H    4.797866   3.225112   5.246040   3.798079   4.649225
    30  H    7.886292   6.641047   6.945401   5.463105   7.459235
    31  H    8.552383   7.255827   7.387241   5.848448   8.498875
    32  H    7.942000   6.694449   7.613351   6.224685   7.007943
    33  H    6.469887   5.165142   6.177067   4.723709   5.792040
    34  O    9.309374   8.063723   9.242803   7.897353   8.157579
    35  H    9.830644   8.696122   9.743295   8.500370   8.490776
    36  H    9.979286   8.637877   9.949307   8.520320   8.944342
    37  H    4.866385   4.537352   5.323548   4.901103   2.917728
    38  H    5.309659   5.001614   4.936240   4.495543   3.661100
    39  H    4.556832   4.805657   4.619676   4.753901   2.459126
    40  O   11.511366  10.062363  11.501201   9.977613  10.617168
    41  H   11.989179  10.508767  11.823077  10.255944  11.196332
    42  H   11.996309  10.510684  12.131532  10.590972  11.138359
                   21         22         23         24         25
    21  H    0.000000
    22  H    3.839637   0.000000
    23  H    5.828202   4.133598   0.000000
    24  H    4.671037   4.922994   2.530389   0.000000
    25  H    2.332939   4.318042   4.317303   2.498706   0.000000
    26  C    2.657116   3.614522   6.214680   5.767286   4.090334
    27  H    5.406006   2.290824   2.366962   4.220208   4.863283
    28  H    3.742019   2.143719   6.107376   6.492525   5.199175
    29  H    5.221978   3.066863   7.119389   7.849280   6.705953
    30  H    6.510234   2.909381   4.142007   6.062879   6.462804
    31  H    7.372609   3.656489   4.222179   6.440685   7.132132
    32  H    6.722294   3.782362   5.831984   7.268842   7.172403
    33  H    5.550104   2.470587   5.520452   6.720829   6.270962
    34  O    8.188452   5.557597   7.392052   8.811838   8.721525
    35  H    8.487041   6.131587   7.619497   8.941421   8.916179
    36  H    9.028718   6.199818   8.019966   9.594124   9.575132
    37  H    3.653850   4.163022   7.026611   6.778727   5.184707
    38  H    3.050061   3.269850   5.352610   5.091621   3.838978
    39  H    2.455444   4.500130   6.663390   5.794158   3.879150
    40  O   10.736083   7.684464   9.321390  11.113364  11.247867
    41  H   11.143710   7.901934   9.231531  11.183561  11.507147
    42  H   11.424130   8.407883  10.241793  12.015411  12.057958
                   26         27         28         29         30
    26  C    0.000000
    27  H    5.258612   0.000000
    28  H    2.649054   4.305741   0.000000
    29  H    4.070011   5.006940   1.573454   0.000000
    30  H    5.562024   2.038609   4.196020   4.378880   0.000000
    31  H    6.854463   2.308575   5.241626   5.259605   1.580315
    32  H    4.895622   3.958659   3.861164   3.871941   2.326804
    33  H    4.018545   3.412266   2.405726   2.476761   2.271483
    34  O    6.016780   5.689877   5.271736   5.063225   3.945165
    35  H    6.215469   6.151809   5.857957   5.816353   4.543076
    36  H    6.900591   6.243403   5.936691   5.516030   4.348066
    37  H    1.095951   5.854743   2.740875   3.859435   5.791400
    38  H    1.096953   4.511493   2.880948   4.308433   4.840740
    39  H    1.105217   6.036602   3.659619   5.086998   6.536826
    40  O    8.664483   7.534837   7.500626   6.856336   5.530982
    41  H    9.208507   7.503283   7.955488   7.322087   5.499160
    42  H    9.307192   8.387996   8.069231   7.288532   6.368517
                   31         32         33         34         35
    31  H    0.000000
    32  H    3.788115   0.000000
    33  H    3.611483   1.568640   0.000000
    34  O    5.248630   1.815054   3.205734   0.000000
    35  H    5.888717   2.474965   3.905551   0.960765   0.000000
    36  H    5.455918   2.475150   3.806507   0.960851   1.531079
    37  H    7.176633   4.695999   3.946039   5.553663   5.735280
    38  H    6.180576   4.274688   3.600715   5.459562   5.598761
    39  H    7.800336   5.920647   5.107787   6.971479   7.080070
    40  O    6.291967   4.090391   5.337315   2.742349   3.055015
    41  H    6.050287   4.435628   5.686974   3.336941   3.654971
    42  H    7.077872   4.888907   6.024623   3.504466   3.807688
                   36         37         38         39         40
    36  H    0.000000
    37  H    6.413200   0.000000
    38  H    6.375648   1.773282   0.000000
    39  H    7.878654   1.787079   1.793090   0.000000
    40  O    1.791560   8.158244   8.152448   9.656794   0.000000
    41  H    2.440359   8.790334   8.631161  10.214263   0.973059
    42  H    2.560199   8.727786   8.872296  10.301690   0.972494
                   41         42
    41  H    0.000000
    42  H    1.520098   0.000000
 Stoichiometry    C10H25N2O5(1+)
 Framework group  C1[X(C10H25N2O5)]
 Deg. of freedom   120
 Full point group                 C1      NOp   1
 Largest Abelian subgroup         C1      NOp   1
 Largest concise Abelian subgroup C1      NOp   1
                         Standard orientation:                         
 ---------------------------------------------------------------------
 Center     Atomic      Atomic             Coordinates (Angstroms)
 Number     Number       Type             X           Y           Z
 ---------------------------------------------------------------------
      1          6           0        2.701855    1.867802    0.897747
      2          6           0        2.058284    0.824047    0.229461
      3          6           0        0.870994    1.125970   -0.428778
      4          7           0        0.375213    2.369558   -0.404388
      5          6           0        0.979729    3.384564    0.231135
      6          6           0        2.169888    3.157948    0.895480
      7          6           0        2.634239   -0.571438    0.200161
      8          7           0        1.658461   -1.616653    0.531026
      9          6           0        2.359410   -2.862286    0.185653
     10          6           0        3.038551   -2.552215   -1.155585
     11          6           0        3.166412   -1.010157   -1.176776
     12          8           0       -2.063829    2.433209   -1.360537
     13          8           0       -2.406140    0.182281   -0.078623
     14          8           0       -0.578559   -1.598817   -1.132799
     15          1           0        1.648446   -3.696311    0.140678
     16          1           0        4.010630   -3.049416   -1.231257
     17          1           0        2.426508   -2.897987   -1.995703
     18          1           0        4.193498   -0.663330   -1.331636
     19          1           0        2.547568   -0.577282   -1.972183
     20          1           0        3.110642   -3.102724    0.960171
     21          1           0        3.463767   -0.602021    0.934162
     22          1           0        0.286115    0.390617   -0.978953
     23          1           0        0.481985    4.350260    0.191305
     24          1           0        2.665993    3.975411    1.412971
     25          1           0        3.631816    1.670990    1.431943
     26          6           0        1.194613   -1.578587    1.912695
     27          1           0       -0.562538    2.516141   -0.879906
     28          1           0        0.207613   -1.706688   -0.542281
     29          1           0       -0.736778   -2.440703   -1.564584
     30          1           0       -2.370200    1.577306   -0.962815
     31          1           0       -2.421476    2.494610   -2.248629
     32          1           0       -3.217173   -0.156041    0.338016
     33          1           0       -1.916576   -0.583186   -0.427899
     34          8           0       -4.719895   -0.820908    1.108858
     35          1           0       -4.952260   -0.664957    2.027964
     36          1           0       -5.554961   -0.910157    0.642024
     37          1           0        0.509030   -2.415423    2.088164
     38          1           0        0.646000   -0.647483    2.100779
     39          1           0        2.032528   -1.654084    2.629427
     40          8           0       -7.228001   -0.885051    0.001717
     41          1           0       -7.582691   -0.096865   -0.445276
     42          1           0       -7.855659   -1.580610   -0.259030
 ---------------------------------------------------------------------
 Rotational constants (GHZ):           0.4350134           0.1992329           0.1555800
 Standard basis: Aug-CC-pVDZ (5D, 7F)
 There are   650 symmetry adapted cartesian basis functions of A   symmetry.
 There are   616 symmetry adapted basis functions of A   symmetry.
   616 basis functions,  1006 primitive gaussians,   650 cartesian basis functions
    69 alpha electrons       69 beta electrons
       nuclear repulsion energy      1327.1573314914 Hartrees.
 NAtoms=   42 NActive=   42 NUniq=   42 SFac= 1.00D+00 NAtFMM=   60 NAOKFM=F Big=F
 Integral buffers will be    131072 words long.
 Raffenetti 2 integral format.
 Two-electron integral symmetry is turned on.
 Nuclear repulsion after empirical dispersion term =     1327.1267461620 Hartrees.
 One-electron integrals computed using PRISM.
 NBasis=   616 RedAO= T EigKep=  1.90D-06  NBF=   616
 NBsUse=   616 1.00D-06 EigRej= -1.00D+00 NBFU=   616
 ExpMin= 2.97D-02 ExpMax= 1.17D+04 ExpMxC= 4.01D+02 IAcc=3 IRadAn=         5 AccDes= 0.00D+00
 Harris functional with IExCor= 4639 and IRadAn=       5 diagonalized for initial guess.
 HarFok:  IExCor= 4639 AccDes= 0.00D+00 IRadAn=         5 IDoV= 1 UseB2=F ITyADJ=14
 ICtDFT=  3500011 ScaDFX=  1.000000  1.000000  1.000000  1.000000
 FoFCou: FMM=F IPFlag=           0 FMFlag=      100000 FMFlg1=           0
         NFxFlg=           0 DoJE=T BraDBF=F KetDBF=T FulRan=T
         wScrn=  0.000000 ICntrl=       500 IOpCl=  0 I1Cent=   200000004 NGrid=           0
         NMat0=    1 NMatS0=      1 NMatT0=    0 NMatD0=    1 NMtDS0=    0 NMtDT0=    0
 Petite list used in FoFCou.
 Requested convergence on RMS density matrix=1.00D-08 within 128 cycles.
 Requested convergence on MAX density matrix=1.00D-06.
 Requested convergence on             energy=1.00D-06.
 No special actions if energy rises.
 SCF Done:  E(RwB97XD) =  -881.465245257     A.U. after   16 cycles
            NFock= 16  Conv=0.14D-08     -V/T= 2.0062

 **********************************************************************

            Population analysis using the SCF density.

 **********************************************************************

 Orbital symmetries:
       Occupied  (A) (A) (A) (A) (A) (A) (A) (A) (A) (A) (A) (A)
                 (A) (A) (A) (A) (A) (A) (A) (A) (A) (A) (A) (A)
                 (A) (A) (A) (A) (A) (A) (A) (A) (A) (A) (A) (A)
                 (A) (A) (A) (A) (A) (A) (A) (A) (A) (A) (A) (A)
                 (A) (A) (A) (A) (A) (A) (A) (A) (A) (A) (A) (A)
                 (A) (A) (A) (A) (A) (A) (A) (A) (A)
       Virtual   (A) (A) (A) (A) (A) (A) (A) (A) (A) (A) (A) (A)
                 (A) (A) (A) (A) (A) (A) (A) (A) (A) (A) (A) (A)
                 (A) (A) (A) (A) (A) (A) (A) (A) (A) (A) (A) (A)
                 (A) (A) (A) (A) (A) (A) (A) (A) (A) (A) (A) (A)
                 (A) (A) (A) (A) (A) (A) (A) (A) (A) (A) (A) (A)
                 (A) (A) (A) (A) (A) (A) (A) (A) (A) (A) (A) (A)
                 (A) (A) (A) (A) (A) (A) (A) (A) (A) (A) (A) (A)
                 (A) (A) (A) (A) (A) (A) (A) (A) (A) (A) (A) (A)
                 (A) (A) (A) (A) (A) (A) (A) (A) (A) (A) (A) (A)
                 (A) (A) (A) (A) (A) (A) (A) (A) (A) (A) (A) (A)
                 (A) (A) (A) (A) (A) (A) (A) (A) (A) (A) (A) (A)
                 (A) (A) (A) (A) (A) (A) (A) (A) (A) (A) (A) (A)
                 (A) (A) (A) (A) (A) (A) (A) (A) (A) (A) (A) (A)
                 (A) (A) (A) (A) (A) (A) (A) (A) (A) (A) (A) (A)
                 (A) (A) (A) (A) (A) (A) (A) (A) (A) (A) (A) (A)
                 (A) (A) (A) (A) (A) (A) (A) (A) (A) (A) (A) (A)
                 (A) (A) (A) (A) (A) (A) (A) (A) (A) (A) (A) (A)
                 (A) (A) (A) (A) (A) (A) (A) (A) (A) (A) (A) (A)
                 (A) (A) (A) (A) (A) (A) (A) (A) (A) (A) (A) (A)
                 (A) (A) (A) (A) (A) (A) (A) (A) (A) (A) (A) (A)
                 (A) (A) (A) (A) (A) (A) (A) (A) (A) (A) (A) (A)
                 (A) (A) (A) (A) (A) (A) (A) (A) (A) (A) (A) (A)
                 (A) (A) (A) (A) (A) (A) (A) (A) (A) (A) (A) (A)
                 (A) (A) (A) (A) (A) (A) (A) (A) (A) (A) (A) (A)
                 (A) (A) (A) (A) (A) (A) (A) (A) (A) (A) (A) (A)
                 (A) (A) (A) (A) (A) (A) (A) (A) (A) (A) (A) (A)
                 (A) (A) (A) (A) (A) (A) (A) (A) (A) (A) (A) (A)
                 (A) (A) (A) (A) (A) (A) (A) (A) (A) (A) (A) (A)
                 (A) (A) (A) (A) (A) (A) (A) (A) (A) (A) (A) (A)
                 (A) (A) (A) (A) (A) (A) (A) (A) (A) (A) (A) (A)
                 (A) (A) (A) (A) (A) (A) (A) (A) (A) (A) (A) (A)
                 (A) (A) (A) (A) (A) (A) (A) (A) (A) (A) (A) (A)
                 (A) (A) (A) (A) (A) (A) (A) (A) (A) (A) (A) (A)
                 (A) (A) (A) (A) (A) (A) (A) (A) (A) (A) (A) (A)
                 (A) (A) (A) (A) (A) (A) (A) (A) (A) (A) (A) (A)
                 (A) (A) (A) (A) (A) (A) (A) (A) (A) (A) (A) (A)
                 (A) (A) (A) (A) (A) (A) (A) (A) (A) (A) (A) (A)
                 (A) (A) (A) (A) (A) (A) (A) (A) (A) (A) (A) (A)
                 (A) (A) (A) (A) (A) (A) (A) (A) (A) (A) (A) (A)
                 (A) (A) (A) (A) (A) (A) (A) (A) (A) (A) (A) (A)
                 (A) (A) (A) (A) (A) (A) (A) (A) (A) (A) (A) (A)
                 (A) (A) (A) (A) (A) (A) (A) (A) (A) (A) (A) (A)
                 (A) (A) (A) (A) (A) (A) (A) (A) (A) (A) (A) (A)
                 (A) (A) (A) (A) (A) (A) (A) (A) (A) (A) (A) (A)
                 (A) (A) (A) (A) (A) (A) (A) (A) (A) (A) (A) (A)
                 (A) (A) (A) (A) (A) (A) (A)
 The electronic state is 1-A.
 Alpha  occ. eigenvalues --  -19.38530 -19.37834 -19.37450 -19.35113 -19.34742
 Alpha  occ. eigenvalues --  -14.66585 -14.57569 -10.50301 -10.49757 -10.47186
 Alpha  occ. eigenvalues --  -10.46640 -10.46224 -10.45957 -10.43036 -10.42555
 Alpha  occ. eigenvalues --  -10.41133 -10.40241  -1.25038  -1.22360  -1.22242
 Alpha  occ. eigenvalues --   -1.21744  -1.19774  -1.18493  -1.17034  -1.07644
 Alpha  occ. eigenvalues --   -1.03987  -1.00124  -0.95431  -0.89883  -0.89157
 Alpha  occ. eigenvalues --   -0.88210  -0.81907  -0.79316  -0.79067  -0.74188
 Alpha  occ. eigenvalues --   -0.74085  -0.73305  -0.72478  -0.72060  -0.71188
 Alpha  occ. eigenvalues --   -0.70843  -0.70337  -0.69139  -0.67983  -0.67157
 Alpha  occ. eigenvalues --   -0.65129  -0.63923  -0.63338  -0.61822  -0.61236
 Alpha  occ. eigenvalues --   -0.61068  -0.59616  -0.58291  -0.57596  -0.56895
 Alpha  occ. eigenvalues --   -0.56405  -0.55941  -0.55246  -0.53829  -0.53574
 Alpha  occ. eigenvalues --   -0.52679  -0.51675  -0.51562  -0.51211  -0.50925
 Alpha  occ. eigenvalues --   -0.48921  -0.48693  -0.48456  -0.43939
 Alpha virt. eigenvalues --   -0.13157  -0.10313  -0.05729  -0.04915  -0.04423
 Alpha virt. eigenvalues --   -0.04137  -0.03524  -0.03009  -0.02605  -0.02452
 Alpha virt. eigenvalues --   -0.01600  -0.01359  -0.01070  -0.00562  -0.00252
 Alpha virt. eigenvalues --   -0.00209  -0.00014   0.01044   0.01285   0.01599
 Alpha virt. eigenvalues --    0.01822   0.02186   0.02294   0.02896   0.03089
 Alpha virt. eigenvalues --    0.03306   0.03606   0.03940   0.04079   0.04232
 Alpha virt. eigenvalues --    0.04782   0.05390   0.05419   0.05696   0.05893
 Alpha virt. eigenvalues --    0.06068   0.06540   0.06898   0.07198   0.07242
 Alpha virt. eigenvalues --    0.07422   0.07665   0.07960   0.08245   0.08680
 Alpha virt. eigenvalues --    0.08858   0.09166   0.09420   0.09638   0.10023
 Alpha virt. eigenvalues --    0.10371   0.10789   0.11269   0.11336   0.11575
 Alpha virt. eigenvalues --    0.11721   0.12026   0.12497   0.12531   0.12733
 Alpha virt. eigenvalues --    0.13400   0.13589   0.13929   0.14109   0.14140
 Alpha virt. eigenvalues --    0.14577   0.14821   0.15128   0.15479   0.15611
 Alpha virt. eigenvalues --    0.15927   0.15968   0.16356   0.16574   0.16959
 Alpha virt. eigenvalues --    0.17263   0.17676   0.17755   0.18324   0.18444
 Alpha virt. eigenvalues --    0.18662   0.18914   0.19069   0.19236   0.19432
 Alpha virt. eigenvalues --    0.19693   0.20241   0.20328   0.20575   0.20672
 Alpha virt. eigenvalues --    0.21444   0.21530   0.22021   0.22187   0.22544
 Alpha virt. eigenvalues --    0.22629   0.22977   0.23257   0.23741   0.23950
 Alpha virt. eigenvalues --    0.23974   0.24558   0.25052   0.25325   0.25555
 Alpha virt. eigenvalues --    0.25923   0.26245   0.26446   0.26688   0.27184
 Alpha virt. eigenvalues --    0.27264   0.27610   0.27937   0.28281   0.28783
 Alpha virt. eigenvalues --    0.28888   0.29435   0.29803   0.29984   0.30430
 Alpha virt. eigenvalues --    0.30887   0.31067   0.31909   0.32095   0.32442
 Alpha virt. eigenvalues --    0.32553   0.32841   0.33288   0.33412   0.33759
 Alpha virt. eigenvalues --    0.34286   0.35004   0.35209   0.35491   0.36261
 Alpha virt. eigenvalues --    0.36333   0.36473   0.36895   0.37292   0.37742
 Alpha virt. eigenvalues --    0.37926   0.38525   0.39167   0.39446   0.39601
 Alpha virt. eigenvalues --    0.40006   0.40524   0.40585   0.41319   0.41789
 Alpha virt. eigenvalues --    0.42160   0.42353   0.42915   0.43353   0.43571
 Alpha virt. eigenvalues --    0.43918   0.44391   0.44789   0.45256   0.45533
 Alpha virt. eigenvalues --    0.45743   0.46156   0.46244   0.46699   0.46834
 Alpha virt. eigenvalues --    0.47184   0.47561   0.47853   0.48297   0.48756
 Alpha virt. eigenvalues --    0.49110   0.49504   0.49731   0.49989   0.50756
 Alpha virt. eigenvalues --    0.51128   0.51467   0.51494   0.51915   0.52334
 Alpha virt. eigenvalues --    0.52565   0.52958   0.53145   0.53527   0.53791
 Alpha virt. eigenvalues --    0.53888   0.54358   0.54629   0.54931   0.55449
 Alpha virt. eigenvalues --    0.55565   0.56088   0.56387   0.56757   0.57018
 Alpha virt. eigenvalues --    0.57894   0.58132   0.58575   0.58699   0.59176
 Alpha virt. eigenvalues --    0.59821   0.60296   0.60719   0.61171   0.61515
 Alpha virt. eigenvalues --    0.62096   0.62399   0.62754   0.63139   0.63778
 Alpha virt. eigenvalues --    0.64068   0.64689   0.64741   0.65808   0.66139
 Alpha virt. eigenvalues --    0.66710   0.67183   0.67397   0.67569   0.68371
 Alpha virt. eigenvalues --    0.68646   0.68670   0.69419   0.69672   0.69991
 Alpha virt. eigenvalues --    0.70258   0.70748   0.71435   0.71963   0.72348
 Alpha virt. eigenvalues --    0.72701   0.73152   0.73893   0.74231   0.74666
 Alpha virt. eigenvalues --    0.74785   0.75069   0.75584   0.76289   0.76709
 Alpha virt. eigenvalues --    0.76993   0.77237   0.78219   0.78720   0.78863
 Alpha virt. eigenvalues --    0.79887   0.80429   0.80685   0.81247   0.81467
 Alpha virt. eigenvalues --    0.82256   0.82826   0.83055   0.83906   0.84447
 Alpha virt. eigenvalues --    0.84614   0.85000   0.85799   0.86103   0.86955
 Alpha virt. eigenvalues --    0.87390   0.88554   0.89139   0.89579   0.90061
 Alpha virt. eigenvalues --    0.90574   0.91231   0.91499   0.92867   0.93383
 Alpha virt. eigenvalues --    0.93617   0.94449   0.95578   0.95745   0.96407
 Alpha virt. eigenvalues --    0.96989   0.97639   0.98916   0.99380   1.00253
 Alpha virt. eigenvalues --    1.01062   1.01620   1.02588   1.03481   1.03792
 Alpha virt. eigenvalues --    1.04500   1.05314   1.05692   1.06666   1.07630
 Alpha virt. eigenvalues --    1.08534   1.09405   1.09648   1.10057   1.11186
 Alpha virt. eigenvalues --    1.11529   1.12133   1.12431   1.13071   1.13634
 Alpha virt. eigenvalues --    1.14294   1.14841   1.15122   1.17229   1.17790
 Alpha virt. eigenvalues --    1.18474   1.18894   1.19741   1.19994   1.20851
 Alpha virt. eigenvalues --    1.22101   1.22473   1.22895   1.23275   1.25115
 Alpha virt. eigenvalues --    1.26247   1.26445   1.27040   1.28134   1.29125
 Alpha virt. eigenvalues --    1.30033   1.30426   1.30654   1.31259   1.32413
 Alpha virt. eigenvalues --    1.32978   1.34163   1.34346   1.35767   1.36712
 Alpha virt. eigenvalues --    1.37105   1.37656   1.39130   1.39365   1.40508
 Alpha virt. eigenvalues --    1.41491   1.42496   1.43264   1.44471   1.46027
 Alpha virt. eigenvalues --    1.46607   1.46938   1.47359   1.48477   1.49090
 Alpha virt. eigenvalues --    1.49849   1.50962   1.52110   1.52310   1.53719
 Alpha virt. eigenvalues --    1.54788   1.55630   1.55899   1.57020   1.58498
 Alpha virt. eigenvalues --    1.59273   1.60607   1.61184   1.61984   1.62711
 Alpha virt. eigenvalues --    1.63109   1.64153   1.64649   1.65348   1.66325
 Alpha virt. eigenvalues --    1.67019   1.67590   1.67916   1.68185   1.69947
 Alpha virt. eigenvalues --    1.70945   1.71583   1.72006   1.72337   1.73020
 Alpha virt. eigenvalues --    1.73566   1.74130   1.75175   1.76378   1.77024
 Alpha virt. eigenvalues --    1.77650   1.78973   1.79494   1.80647   1.80972
 Alpha virt. eigenvalues --    1.81521   1.82362   1.82889   1.83529   1.83851
 Alpha virt. eigenvalues --    1.84780   1.85413   1.85895   1.87223   1.87627
 Alpha virt. eigenvalues --    1.87946   1.88543   1.88875   1.89879   1.90369
 Alpha virt. eigenvalues --    1.91014   1.92414   1.93519   1.94049   1.94468
 Alpha virt. eigenvalues --    1.94993   1.95731   1.96878   1.97080   1.98380
 Alpha virt. eigenvalues --    1.99186   1.99862   2.00463   2.01358   2.01462
 Alpha virt. eigenvalues --    2.03256   2.04677   2.05148   2.05819   2.05849
 Alpha virt. eigenvalues --    2.06194   2.08853   2.09973   2.10329   2.11605
 Alpha virt. eigenvalues --    2.11756   2.12488   2.13161   2.13610   2.14047
 Alpha virt. eigenvalues --    2.14373   2.15678   2.16925   2.17066   2.18611
 Alpha virt. eigenvalues --    2.19854   2.20229   2.21258   2.23201   2.23927
 Alpha virt. eigenvalues --    2.24472   2.24825   2.26256   2.26628   2.26797
 Alpha virt. eigenvalues --    2.27776   2.29167   2.30039   2.30428   2.32467
 Alpha virt. eigenvalues --    2.33089   2.34779   2.35940   2.36320   2.38281
 Alpha virt. eigenvalues --    2.39062   2.40081   2.40192   2.41888   2.43560
 Alpha virt. eigenvalues --    2.44060   2.45488   2.45681   2.46429   2.48273
 Alpha virt. eigenvalues --    2.49630   2.51398   2.52191   2.53016   2.54405
 Alpha virt. eigenvalues --    2.55582   2.55927   2.56905   2.57140   2.58811
 Alpha virt. eigenvalues --    2.60490   2.61510   2.62046   2.63537   2.64372
 Alpha virt. eigenvalues --    2.64805   2.65985   2.67679   2.68777   2.70025
 Alpha virt. eigenvalues --    2.71273   2.72225   2.73489   2.73748   2.75790
 Alpha virt. eigenvalues --    2.76280   2.77067   2.78359   2.79275   2.79977
 Alpha virt. eigenvalues --    2.80560   2.83398   2.83927   2.85008   2.86509
 Alpha virt. eigenvalues --    2.87862   2.89577   2.90389   2.92310   2.92833
 Alpha virt. eigenvalues --    2.95909   2.97070   3.00197   3.04149   3.06237
 Alpha virt. eigenvalues --    3.07183   3.12268   3.16747   3.20445   3.25042
 Alpha virt. eigenvalues --    3.28681   3.29881   3.35006   3.36797   3.40474
 Alpha virt. eigenvalues --    3.41100   3.41444   3.43422   3.45168   3.46059
 Alpha virt. eigenvalues --    3.47211   3.48643   3.49007   3.53041   3.54466
 Alpha virt. eigenvalues --    3.57059   3.61093   3.64564   3.66695   3.70576
 Alpha virt. eigenvalues --    3.72755   3.79667   3.84141   3.89981   3.93259
 Alpha virt. eigenvalues --    3.99195   4.03345   4.06964   4.10678   4.15977
 Alpha virt. eigenvalues --    4.37312   4.97822
          Condensed to atoms (all electrons):
               1          2          3          4          5          6
     1  C   24.177902  -9.880800  -2.937850  -0.286131   1.509885  -4.381055
     2  C   -9.880800  25.331981  -3.668152  -0.287793  -0.417835   0.205606
     3  C   -2.937850  -3.668152  17.047044  -1.275463  -1.860911   0.561425
     4  N   -0.286131  -0.287793  -1.275463   7.843460   0.265863   0.036519
     5  C    1.509885  -0.417835  -1.860911   0.265863   9.864171  -2.283882
     6  C   -4.381055   0.205606   0.561425   0.036519  -2.283882  11.569668
     7  C   -0.652066  -9.925161  -1.959221   1.016429  -0.699297   0.264747
     8  N   -0.382560   1.958546   0.810572  -0.155243   0.107188  -0.215249
     9  C    0.031954  -0.475873  -0.183405   0.048215  -0.009391  -0.057187
    10  C   -0.000824   0.421579  -0.069000   0.020036   0.015101  -0.018867
    11  C   -0.319529   0.016452  -0.780494   0.029504  -0.104702   0.091901
    12  O    0.027530  -0.079346  -0.016485  -0.126373   0.039910  -0.016100
    13  O   -0.012183   0.043251  -0.066979  -0.003188   0.019203  -0.005016
    14  O   -0.014426  -0.036828  -0.081113   0.007922  -0.014608   0.011082
    15  H    0.026768  -0.178097  -0.017219   0.002113   0.000814  -0.002184
    16  H    0.006594   0.044550   0.035717  -0.003343   0.002850  -0.003656
    17  H   -0.002579  -0.114049  -0.036804   0.006060  -0.001747   0.000421
    18  H   -0.099881   0.450696   0.211236  -0.009416  -0.000253  -0.001692
    19  H    0.098596   0.003079  -0.054180   0.001733   0.009447  -0.012311
    20  H    0.015700   0.120643   0.017888   0.000243  -0.002135   0.002199
    21  H    0.035140   1.139640  -0.242679  -0.000286   0.038374  -0.011968
    22  H   -0.179848  -0.909815  -1.062304   0.119007  -0.169510   0.073678
    23  H    0.251258  -0.120448   0.226227  -0.110562  -0.503493   0.055435
    24  H    0.594141  -0.011625  -0.170518  -0.008514   0.342722  -1.075743
    25  H   -2.609489   1.238793   0.346717  -0.093350  -0.211228   0.754254
    26  C   -0.215352   0.805979  -0.000053  -0.053272   0.008738   0.011912
    27  H   -0.023723  -0.442063   0.660754  -0.008237  -0.603058  -0.009385
    28  H    0.018151  -0.151687  -0.067885   0.015412  -0.013366   0.013636
    29  H   -0.000572   0.007316   0.018618  -0.001199   0.002165  -0.001124
    30  H    0.006950   0.001585  -0.040127   0.009161  -0.003210   0.001073
    31  H   -0.000752  -0.002144   0.011788  -0.009361  -0.009561   0.003772
    32  H   -0.009369   0.007211   0.006113   0.004627  -0.000763   0.001030
    33  H   -0.003624  -0.010203   0.010091   0.000979   0.000361   0.002083
    34  O    0.000720   0.000518  -0.000436   0.000200   0.000252  -0.000143
    35  H   -0.000019  -0.000085  -0.000577   0.000188   0.000012  -0.000074
    36  H    0.000430   0.000239  -0.000158  -0.000142   0.000053   0.000024
    37  H   -0.015699   0.043642  -0.100113   0.002852  -0.000819   0.004037
    38  H    0.018692  -0.107397   0.129014  -0.002569  -0.040505   0.068029
    39  H   -0.001820   0.213946   0.024193  -0.007459   0.017869  -0.019813
    40  O    0.000004  -0.000010  -0.000004   0.000001  -0.000013  -0.000004
    41  H   -0.000002   0.000000   0.000003   0.000023  -0.000010  -0.000001
    42  H   -0.000002  -0.000012   0.000005  -0.000004  -0.000000  -0.000001
               7          8          9         10         11         12
     1  C   -0.652066  -0.382560   0.031954  -0.000824  -0.319529   0.027530
     2  C   -9.925161   1.958546  -0.475873   0.421579   0.016452  -0.079346
     3  C   -1.959221   0.810572  -0.183405  -0.069000  -0.780494  -0.016485
     4  N    1.016429  -0.155243   0.048215   0.020036   0.029504  -0.126373
     5  C   -0.699297   0.107188  -0.009391   0.015101  -0.104702   0.039910
     6  C    0.264747  -0.215249  -0.057187  -0.018867   0.091901  -0.016100
     7  C   27.639478  -6.477027  -0.227416  -0.055265  -1.012314   0.010386
     8  N   -6.477027  15.488822  -0.165277  -0.372724  -1.044885   0.001803
     9  C   -0.227416  -0.165277   5.896743   0.011765   0.732388   0.000135
    10  C   -0.055265  -0.372724   0.011765   6.272317  -0.975302  -0.001089
    11  C   -1.012314  -1.044885   0.732388  -0.975302   8.303814  -0.002319
    12  O    0.010386   0.001803   0.000135  -0.001089  -0.002319   8.011280
    13  O    0.001790   0.001121   0.001820   0.001114  -0.004359  -0.064939
    14  O    0.085376  -0.068679   0.038318  -0.011868   0.028700   0.003865
    15  H    0.645586  -1.129023  -0.166437   0.144119   0.073286  -0.000037
    16  H   -0.120346  -0.132600   0.152829  -0.226706   0.224710  -0.000046
    17  H    0.236030   0.136043  -0.029600  -0.397117   0.261121  -0.000332
    18  H   -0.061058   0.455797  -0.206775   0.194637  -1.053473   0.000043
    19  H   -0.201918  -0.127688   0.020483   0.304650  -0.168964   0.000594
    20  H    0.099084  -0.256069  -0.298049  -0.000156   0.025668   0.000019
    21  H   -2.796171  -0.444131  -0.007870  -0.067597   0.725645   0.000284
    22  H    0.068692  -0.066549   0.040611  -0.010520   0.094068   0.011647
    23  H   -0.025175   0.006263  -0.000525   0.000682   0.003785   0.014753
    24  H    0.089379  -0.001239   0.000487   0.000040  -0.006401  -0.000417
    25  H   -0.304537   0.035235  -0.012042  -0.008357   0.005153   0.000160
    26  C   -1.419790   1.233500  -0.279092  -0.012482  -0.173841   0.000702
    27  H   -0.016800  -0.001334  -0.005664  -0.001858  -0.029286  -0.000732
    28  H    0.517939  -0.217465  -0.147135   0.015668  -0.045839   0.001536
    29  H   -0.031249  -0.028398   0.024578  -0.007577   0.019819   0.001171
    30  H    0.018421  -0.004526  -0.000523  -0.000532  -0.000731   0.293116
    31  H   -0.002625   0.000896   0.000267  -0.000041   0.000997   0.375225
    32  H   -0.011885   0.011200  -0.000333  -0.000476  -0.001662   0.005585
    33  H    0.055331  -0.055172   0.003861   0.009012   0.006798  -0.014191
    34  O    0.000503   0.000043   0.000171   0.000013   0.000029  -0.000947
    35  H    0.000601  -0.000151   0.000043   0.000009  -0.000017  -0.000017
    36  H   -0.000529   0.000039  -0.000048  -0.000025   0.000084  -0.000036
    37  H    0.143360  -0.234262  -0.021612   0.074445  -0.069123  -0.000098
    38  H    0.007867   0.087319  -0.079214  -0.044160   0.081385   0.000928
    39  H   -0.321339  -0.516035   0.110987  -0.003401   0.049383  -0.000030
    40  O    0.000016   0.000001  -0.000001   0.000001  -0.000002   0.000021
    41  H    0.000008   0.000000  -0.000000   0.000000  -0.000000   0.000086
    42  H    0.000005  -0.000000   0.000001   0.000001  -0.000002  -0.000010
              13         14         15         16         17         18
     1  C   -0.012183  -0.014426   0.026768   0.006594  -0.002579  -0.099881
     2  C    0.043251  -0.036828  -0.178097   0.044550  -0.114049   0.450696
     3  C   -0.066979  -0.081113  -0.017219   0.035717  -0.036804   0.211236
     4  N   -0.003188   0.007922   0.002113  -0.003343   0.006060  -0.009416
     5  C    0.019203  -0.014608   0.000814   0.002850  -0.001747  -0.000253
     6  C   -0.005016   0.011082  -0.002184  -0.003656   0.000421  -0.001692
     7  C    0.001790   0.085376   0.645586  -0.120346   0.236030  -0.061058
     8  N    0.001121  -0.068679  -1.129023  -0.132600   0.136043   0.455797
     9  C    0.001820   0.038318  -0.166437   0.152829  -0.029600  -0.206775
    10  C    0.001114  -0.011868   0.144119  -0.226706  -0.397117   0.194637
    11  C   -0.004359   0.028700   0.073286   0.224710   0.261121  -1.053473
    12  O   -0.064939   0.003865  -0.000037  -0.000046  -0.000332   0.000043
    13  O    7.947054  -0.046457  -0.000627  -0.000078   0.000694   0.000029
    14  O   -0.046457   7.976322   0.024630  -0.004202   0.009550   0.001734
    15  H   -0.000627   0.024630   2.906225   0.132326  -0.320948  -0.041420
    16  H   -0.000078  -0.004202   0.132326   2.100618  -0.610246  -0.311935
    17  H    0.000694   0.009550  -0.320948  -0.610246   2.211132   0.177070
    18  H    0.000029   0.001734  -0.041420  -0.311935   0.177070   2.585743
    19  H   -0.002055  -0.020451   0.054204   0.200560  -0.429522  -0.646872
    20  H   -0.000120   0.003821  -0.571193  -0.253857   0.192768   0.059520
    21  H    0.000087  -0.001669   0.092693   0.065361  -0.058433  -0.337232
    22  H    0.027691   0.040891  -0.024259  -0.006022   0.023363   0.065634
    23  H    0.000795  -0.000557   0.000034   0.000107  -0.000078   0.000725
    24  H    0.000027   0.000316   0.000059  -0.000135   0.000086  -0.001770
    25  H   -0.000473  -0.001245  -0.002164   0.003451  -0.001918   0.009028
    26  C    0.006012  -0.012358  -0.180902  -0.025274   0.016903   0.082169
    27  H   -0.014832  -0.001969  -0.000203  -0.000075   0.000125   0.000058
    28  H    0.000515   0.112164   0.063332   0.000101   0.010969  -0.017869
    29  H    0.008599   0.369310   0.001030   0.000694   0.000291   0.001186
    30  H    0.053547   0.001234   0.000470   0.000036  -0.000322  -0.000277
    31  H   -0.006394  -0.000385  -0.000009   0.000002  -0.000036  -0.000022
    32  H    0.289739  -0.002198  -0.001446  -0.000012   0.000272   0.000174
    33  H    0.323793   0.035286   0.006287   0.000047  -0.000420  -0.001402
    34  O   -0.063785  -0.000072   0.000256   0.000001  -0.000015   0.000004
    35  H    0.003642  -0.000007   0.000058   0.000002  -0.000009  -0.000003
    36  H    0.005592   0.000298  -0.000057  -0.000005   0.000009   0.000006
    37  H    0.005389   0.001245  -0.012376  -0.005605   0.013575   0.002649
    38  H   -0.010105   0.011147   0.008429  -0.000237  -0.006672  -0.001378
    39  H   -0.000107  -0.005703   0.031792   0.006677  -0.006148   0.007613
    40  O    0.000327   0.000073   0.000002   0.000000  -0.000002  -0.000000
    41  H    0.000208  -0.000009   0.000000  -0.000000  -0.000000  -0.000000
    42  H   -0.000051   0.000009   0.000001   0.000000  -0.000000  -0.000000
              19         20         21         22         23         24
     1  C    0.098596   0.015700   0.035140  -0.179848   0.251258   0.594141
     2  C    0.003079   0.120643   1.139640  -0.909815  -0.120448  -0.011625
     3  C   -0.054180   0.017888  -0.242679  -1.062304   0.226227  -0.170518
     4  N    0.001733   0.000243  -0.000286   0.119007  -0.110562  -0.008514
     5  C    0.009447  -0.002135   0.038374  -0.169510  -0.503493   0.342722
     6  C   -0.012311   0.002199  -0.011968   0.073678   0.055435  -1.075743
     7  C   -0.201918   0.099084  -2.796171   0.068692  -0.025175   0.089379
     8  N   -0.127688  -0.256069  -0.444131  -0.066549   0.006263  -0.001239
     9  C    0.020483  -0.298049  -0.007870   0.040611  -0.000525   0.000487
    10  C    0.304650  -0.000156  -0.067597  -0.010520   0.000682   0.000040
    11  C   -0.168964   0.025668   0.725645   0.094068   0.003785  -0.006401
    12  O    0.000594   0.000019   0.000284   0.011647   0.014753  -0.000417
    13  O   -0.002055  -0.000120   0.000087   0.027691   0.000795   0.000027
    14  O   -0.020451   0.003821  -0.001669   0.040891  -0.000557   0.000316
    15  H    0.054204  -0.571193   0.092693  -0.024259   0.000034   0.000059
    16  H    0.200560  -0.253857   0.065361  -0.006022   0.000107  -0.000135
    17  H   -0.429522   0.192768  -0.058433   0.023363  -0.000078   0.000086
    18  H   -0.646872   0.059520  -0.337232   0.065634   0.000725  -0.001770
    19  H    2.261506  -0.057261   0.217862  -0.162619  -0.000357  -0.000228
    20  H   -0.057261   2.501565  -0.092872   0.011273  -0.000063  -0.000084
    21  H    0.217862  -0.092872   3.684256  -0.043590   0.002102  -0.000042
    22  H   -0.162619   0.011273  -0.043590   4.403892   0.014692  -0.006446
    23  H   -0.000357  -0.000063   0.002102   0.014692   2.096978  -0.104343
    24  H   -0.000228  -0.000084  -0.000042  -0.006446  -0.104343   2.040985
    25  H    0.005150   0.000115  -0.162633  -0.011958  -0.009299  -0.122409
    26  C   -0.034092  -0.021610  -0.027683   0.058706   0.003151  -0.005129
    27  H   -0.001988   0.000457  -0.002833  -0.090028  -0.184799   0.010249
    28  H    0.015436   0.014381   0.007414  -0.064880   0.000363   0.000049
    29  H    0.006560   0.000053   0.000570  -0.002206  -0.000022  -0.000040
    30  H    0.000927  -0.000164   0.000824   0.001915  -0.000582  -0.000295
    31  H    0.000691   0.000004  -0.000052  -0.002389   0.003633  -0.000165
    32  H   -0.000887  -0.000149  -0.000923  -0.000997   0.000633   0.000045
    33  H    0.002475   0.000995   0.003673  -0.031152  -0.002057   0.000566
    34  O    0.000064  -0.000005  -0.000017  -0.000361   0.000023   0.000000
    35  H    0.000013  -0.000008   0.000035  -0.000578  -0.000039   0.000003
    36  H    0.000008   0.000019  -0.000037   0.000502   0.000015  -0.000002
    37  H   -0.007512   0.010235   0.012469  -0.000310   0.000339  -0.000587
    38  H    0.010904   0.006133   0.035103  -0.000456  -0.002208  -0.000899
    39  H    0.004113   0.034009   0.100161   0.004029   0.000569  -0.000399
    40  O    0.000003  -0.000001   0.000002  -0.000122  -0.000001  -0.000000
    41  H    0.000000   0.000000   0.000000  -0.000006  -0.000002   0.000000
    42  H   -0.000000  -0.000000   0.000001   0.000007   0.000000  -0.000000
              25         26         27         28         29         30
     1  C   -2.609489  -0.215352  -0.023723   0.018151  -0.000572   0.006950
     2  C    1.238793   0.805979  -0.442063  -0.151687   0.007316   0.001585
     3  C    0.346717  -0.000053   0.660754  -0.067885   0.018618  -0.040127
     4  N   -0.093350  -0.053272  -0.008237   0.015412  -0.001199   0.009161
     5  C   -0.211228   0.008738  -0.603058  -0.013366   0.002165  -0.003210
     6  C    0.754254   0.011912  -0.009385   0.013636  -0.001124   0.001073
     7  C   -0.304537  -1.419790  -0.016800   0.517939  -0.031249   0.018421
     8  N    0.035235   1.233500  -0.001334  -0.217465  -0.028398  -0.004526
     9  C   -0.012042  -0.279092  -0.005664  -0.147135   0.024578  -0.000523
    10  C   -0.008357  -0.012482  -0.001858   0.015668  -0.007577  -0.000532
    11  C    0.005153  -0.173841  -0.029286  -0.045839   0.019819  -0.000731
    12  O    0.000160   0.000702  -0.000732   0.001536   0.001171   0.293116
    13  O   -0.000473   0.006012  -0.014832   0.000515   0.008599   0.053547
    14  O   -0.001245  -0.012358  -0.001969   0.112164   0.369310   0.001234
    15  H   -0.002164  -0.180902  -0.000203   0.063332   0.001030   0.000470
    16  H    0.003451  -0.025274  -0.000075   0.000101   0.000694   0.000036
    17  H   -0.001918   0.016903   0.000125   0.010969   0.000291  -0.000322
    18  H    0.009028   0.082169   0.000058  -0.017869   0.001186  -0.000277
    19  H    0.005150  -0.034092  -0.001988   0.015436   0.006560   0.000927
    20  H    0.000115  -0.021610   0.000457   0.014381   0.000053  -0.000164
    21  H   -0.162633  -0.027683  -0.002833   0.007414   0.000570   0.000824
    22  H   -0.011958   0.058706  -0.090028  -0.064880  -0.002206   0.001915
    23  H   -0.009299   0.003151  -0.184799   0.000363  -0.000022  -0.000582
    24  H   -0.122409  -0.005129   0.010249   0.000049  -0.000040  -0.000295
    25  H    3.023064   0.023158   0.008777  -0.004263   0.000235  -0.000940
    26  C    0.023158   4.910074  -0.003389  -0.122208   0.016615  -0.001415
    27  H    0.008777  -0.003389   1.663824   0.001174   0.000204  -0.007585
    28  H   -0.004263  -0.122208   0.001174   0.705105  -0.194616   0.004566
    29  H    0.000235   0.016615   0.000204  -0.194616   0.627931   0.000158
    30  H   -0.000940  -0.001415  -0.007585   0.004566   0.000158   0.518439
    31  H    0.000138   0.000123   0.006177  -0.000318  -0.000027  -0.101543
    32  H    0.000383   0.001967  -0.000022   0.001636  -0.002124  -0.006233
    33  H   -0.001164  -0.026207   0.002024  -0.005106  -0.000422  -0.011308
    34  O    0.000031   0.000346   0.000436  -0.003028   0.000435   0.004529
    35  H   -0.000008  -0.000457   0.000281   0.000145  -0.000103  -0.000672
    36  H    0.000014   0.000329  -0.000091   0.000080   0.000149  -0.000156
    37  H   -0.000142   0.218598  -0.001961   0.047600   0.000207   0.000476
    38  H    0.001503   0.056991   0.001627  -0.003682  -0.001107   0.000384
    39  H    0.004705   0.227723   0.000482  -0.036765   0.005660  -0.000266
    40  O    0.000000  -0.000017   0.000174   0.000173  -0.000061   0.000179
    41  H   -0.000000  -0.000008   0.000044   0.000008  -0.000018   0.000079
    42  H   -0.000000  -0.000000  -0.000006   0.000011   0.000001  -0.000020
              31         32         33         34         35         36
     1  C   -0.000752  -0.009369  -0.003624   0.000720  -0.000019   0.000430
     2  C   -0.002144   0.007211  -0.010203   0.000518  -0.000085   0.000239
     3  C    0.011788   0.006113   0.010091  -0.000436  -0.000577  -0.000158
     4  N   -0.009361   0.004627   0.000979   0.000200   0.000188  -0.000142
     5  C   -0.009561  -0.000763   0.000361   0.000252   0.000012   0.000053
     6  C    0.003772   0.001030   0.002083  -0.000143  -0.000074   0.000024
     7  C   -0.002625  -0.011885   0.055331   0.000503   0.000601  -0.000529
     8  N    0.000896   0.011200  -0.055172   0.000043  -0.000151   0.000039
     9  C    0.000267  -0.000333   0.003861   0.000171   0.000043  -0.000048
    10  C   -0.000041  -0.000476   0.009012   0.000013   0.000009  -0.000025
    11  C    0.000997  -0.001662   0.006798   0.000029  -0.000017   0.000084
    12  O    0.375225   0.005585  -0.014191  -0.000947  -0.000017  -0.000036
    13  O   -0.006394   0.289739   0.323793  -0.063785   0.003642   0.005592
    14  O   -0.000385  -0.002198   0.035286  -0.000072  -0.000007   0.000298
    15  H   -0.000009  -0.001446   0.006287   0.000256   0.000058  -0.000057
[...]
 -0.00037835,-0.00002181,0.00007663,-0.00008214,0.00007614,0.00039433,0
 .00003960,0.00016721,-0.00053977,0.00010098,-0.00003360,-0.00021837,-0
 .00002788,0.00002768,0.00016424,0.00018413,-0.00055025,0.00004899,0.00
 000130,-0.00008648,-0.00004530,0.00004451,0.00005741,-0.00001656,0.000
 06067,-0.00002768,0.00045652,-0.00002119,0.00011121,0.00005211,0.00034
 358,-0.00020484,0.00004342,-0.00007142,-0.00011409,-0.00000665,-0.0000
 0058,-0.00000022,0.00000080,-0.00000647,0.00000258,-0.00004922,-0.0000
 2960,0.00000295,0.01970149,-0.01755194,-0.05190594,-0.00009196,0.00001
 191,-0.00005397,0.00094315,-0.00004960,0.00028557,0.00000670,-0.000017
 11,0.00002278,-0.00005265,0.00012960,-0.00008508,-0.00000757,0.0000087
 9,-0.00001860,-0.00015797,-0.00008532,0.00011793,-0.00007008,-0.000133
 09,-0.00023878,0.00006023,0.00004944,-0.00006187,0.00002127,0.00001181
 ,0.00002470,-0.00001682,-0.00000914,-0.00001173,-0.00292500,0.00163425
 ,0.00013974,-0.03250984,0.02499294,0.06214896,-0.00010753,-0.00020236,
 -0.00017038,-0.00011997,0.00004489,-0.00004892,-0.00021931,0.00003739,
 -0.00006893,0.00016181,-0.00017068,0.00000533,0.00004791,0.00004297,0.
 00007736,-0.00011723,0.00008141,0.00001285,0.00262871,0.00136346,0.001
 83255,0.01014668,0.00236844,0.00983608,0.00359020,-0.00087896,0.002200
 07,-0.00000171,-0.00004170,-0.00003639,0.00006795,0.00003749,0.0000107
 2,-0.00001024,0.00016844,-0.00007402,-0.00036647,0.00012881,-0.0002754
 3,0.00008573,0.00002348,-0.00033263,-0.00037354,0.00000607,-0.00008476
 ,-0.00000692,-0.00001784,-0.00006928,-0.00003686,-0.00002743,-0.000001
 63,-0.00003897,0.00001991,-0.00007562,-0.00008069,0.00005421,0.0000379
 3,0.00018384,-0.00076620,-0.00157514,-0.00002796,0.00097626,-0.0014488
 8,0.00000195,-0.00010324,0.00008791,0.00001078,0.00000271,-0.00000143,
 -0.00000696,0.00001385,-0.00001135,0.00008478,0.00006811,-0.00004645,-
 0.18383832,-0.02668780,-0.11937872,-0.00004466,-0.00004151,-0.00001177
 ,0.00001406,0.00009922,0.00084311,-0.00002396,0.00004472,0.00007899,0.
 00004779,-0.00022328,0.00013474,0.00001791,-0.00001423,0.00001635,0.00
 020440,0.00006869,-0.00002239,0.00015701,-0.00001359,0.00020345,-0.000
 13423,-0.00005329,0.00000930,0.00003353,0.00000145,-0.00001880,0.00006
 444,0.00002453,0.00003996,-0.00804038,0.00026247,-0.00706823,-0.014706
 53,-0.00551998,-0.01443251,0.19078459,0.00006426,0.00013196,0.00002810
 ,-0.00011792,-0.00022929,-0.00020014,0.00017388,-0.00003598,0.00002605
 ,-0.00017851,0.00017443,-0.00002095,-0.00004605,-0.00004863,-0.0000567
 6,0.00006998,-0.00005569,-0.00000764,0.00270942,0.00163938,0.00203064,
 0.00221190,0.00067310,0.00297930,-0.00163731,0.00030548,-0.00120751,0.
 00022346,0.00000790,0.00002143,-0.00019936,-0.00004178,0.00002900,-0.0
 0003340,-0.00001439,-0.00000233,0.00005588,0.00006615,0.00008328,0.000
 13984,0.00008213,-0.00009194,-0.00013224,-0.00002923,0.00006716,0.0000
 4389,0.00001977,-0.00002928,0.00002996,-0.00008250,0.00007726,-0.00004
 159,-0.00001087,-0.00001277,-0.00002096,-0.00007250,-0.00006097,0.0002
 3336,0.00000212,0.00007943,-0.00022059,0.00034448,-0.00072777,-0.00000
 406,0.00001774,-0.00005769,-0.00000612,-0.00000316,-0.00000069,-0.0000
 0218,-0.00000545,0.00000691,-0.00003964,-0.00005698,0.00000588,-0.0261
 2440,-0.05560966,-0.02373585,0.00005671,0.00003050,0.00001612,-0.00014
 262,-0.00009052,0.00017117,-0.00004136,-0.00000255,0.00008524,0.000003
 06,0.00001566,-0.00001633,0.00000141,-0.00000409,0.00000266,-0.0000077
 1,-0.00003487,0.00000699,0.00003594,-0.00008908,-0.00003855,-0.0000226
 2,0.00002026,-0.00000850,0.00000954,-0.00001043,-0.00000362,0.00001266
 ,0.00000447,0.00000644,-0.02101612,-0.00242772,-0.01953673,0.01513032,
 0.00387520,0.01457730,0.02883433,0.05154517,-0.00018652,0.00004775,-0.
 00011443,0.00037949,0.00019384,0.00008298,-0.00008392,-0.00016707,-0.0
 0010117,0.00006535,0.00005742,0.00006336,-0.00001430,0.00006138,-0.000
 01673,-0.00002581,0.00004097,0.00005371,-0.00278158,-0.00383885,0.0008
 4076,-0.01615958,-0.00290326,-0.04004336,-0.00378510,0.00258529,0.0007
 6847,0.00027677,0.00010428,0.00064329,0.00040710,-0.00007098,0.0005619
 7,-0.00003568,0.00001649,0.00002072,-0.00010919,0.00006387,0.00025557,
 -0.00194317,-0.00054906,-0.00085969,0.00026290,-0.00021134,0.00005257,
 0.00012462,0.00007268,-0.00007492,-0.00007689,-0.00005454,0.00023754,0
 .00016140,0.00001798,-0.00006575,-0.00008126,0.00000408,0.00028322,0.0
 0166277,-0.00068900,0.00062783,0.00146433,0.00134466,0.00053911,0.0001
 2261,-0.00014664,0.00001626,0.00000632,0.00000742,0.00000704,-0.000006
 21,0.00001560,-0.00000810,0.00004183,0.00005763,-0.00001950,-0.1180388
 0,-0.02383177,-0.15349130,0.00002188,-0.00000649,-0.00001242,0.0029230
 3,0.00115037,0.00111784,-0.00008617,0.00008985,-0.00001242,0.00001936,
 -0.00000460,-0.00002135,0.00001722,-0.00001110,-0.00000090,0.00001573,
 0.00004191,-0.00006836,0.00026199,-0.00014362,-0.00027127,0.00001715,-
 0.00001689,0.00005040,-0.00002718,0.00000016,-0.00000915,-0.00000660,-
 0.00000345,-0.00001356,0.00235222,0.00041389,0.00301314,0.00299546,0.0
 0074067,0.00379361,0.12984341,0.02551856,0.18217064,0.00000177,0.00005
 632,0.00001997,-0.00004866,-0.00006631,-0.00004932,0.00010165,0.000006
 65,0.00003764,-0.00011109,-0.00000812,-0.00003459,-0.00002977,0.000050
 29,-0.00000592,0.00003292,-0.00001955,0.00001086,0.00004978,0.00007471
 ,0.00000018,-0.00018343,-0.00004781,-0.00005700,0.00007868,-0.00004225
 ,0.00000720,0.00000508,0.00000066,0.00000595,0.00000753,0.00000236,0.0
 0000171,0.00001022,-0.00055409,0.00026525,-0.00114219,-0.00103542,0.00
 095540,-0.00045316,-0.00006893,0.00010187,0.00000987,-0.00001295,0.000
 00226,-0.00001658,-0.00000320,-0.00000169,0.00001332,-0.00000183,-0.00
 000719,-0.00001316,-0.00000701,-0.00000209,0.00000746,0.00000881,-0.00
 000645,-0.00002143,-0.00000305,-0.00001508,-0.00002139,-0.00001567,-0.
 00001524,0.00005797,0.00006298,-0.00001731,0.00000067,0.00001339,-0.00
 000395,-0.00000043,0.00000405,-0.00000269,0.00000078,0.00000616,-0.000
 00267,0.00005513,0.00000553,0.00000215,0.00016834,0.00011711,0.0000415
 4,0.00022670,0.00009411,0.00012226,0.00009346,0.00000812,-0.00007469,-
 0.00010580,0.00075297,-0.00044719,-0.00006381,0.00006208,-0.00006395,0
 .00153726,0.00132317,-0.00120943,0.00046143,-0.00012428,-0.00018363,-0
 .00956875,-0.00562019,-0.00682899,-0.00145567,-0.00027424,0.00044366,-
 0.00335248,0.00278274,-0.00112292,0.00003659,-0.00003763,0.00001456,0.
 00001956,0.00004910,0.00001604,-0.00004634,-0.00001033,0.00000109,0.50
 794647,0.00000574,0.00000583,0.00000166,0.00001241,-0.00003576,-0.0000
 1272,0.00004390,-0.00003420,-0.00000193,-0.00016829,-0.00003207,-0.000
 08306,0.00001757,0.00005943,0.00002811,-0.00002841,0.00000795,-0.00000
 897,0.00001986,-0.00002831,0.00002083,-0.00005616,0.00004435,-0.000010
 87,0.00003016,-0.00004742,-0.00000888,-0.00000797,-0.00000477,0.000003
 97,0.00000911,0.00001341,-0.00000805,-0.00038333,-0.00014535,0.0000431
 8,-0.00057608,-0.00001389,0.00020168,-0.00011644,0.00013432,0.00007555
 ,0.00000484,0.00000921,0.00000123,-0.00000718,0.00000265,0.00000022,0.
 00000445,0.00000158,0.00000318,-0.00000154,0.00000087,-0.00000140,-0.0
 0000033,0.00000083,-0.00000830,-0.00000981,0.00000287,-0.00000513,-0.0
 0000618,0.00000557,-0.00000394,0.00003474,-0.00001856,-0.00000981,0.00
 001495,0.00001183,-0.00000116,0.00000109,0.00000295,-0.00000191,-0.000
 00129,-0.00000104,-0.00000270,0.00002136,-0.00002869,0.00000548,0.0003
 2656,0.00010321,0.00013455,0.00002857,-0.00000684,0.00000672,-0.000050
 68,-0.00005548,-0.00000920,0.00020340,0.00008917,-0.00007911,0.0001220
 4,0.00003383,-0.00008140,0.00057794,0.00016737,-0.00020783,0.00023523,
 -0.00018780,-0.00013459,-0.00492944,0.00343838,-0.00210561,-0.00012693
 ,-0.00034763,0.00031066,0.00192023,-0.00951996,-0.00112266,0.00000978,
 -0.00000289,0.00000261,0.00000116,0.00001894,0.00000851,-0.00001410,-0
 .00000007,0.00000062,-0.08894647,0.68507651,0.00000366,0.00000596,0.00
 000281,0.00000313,-0.00000983,0.00000193,0.00000438,0.00001479,-0.0000
 0541,0.00004785,0.00000969,0.00004526,-0.00000157,-0.00000275,-0.00001
 403,0.00000638,-0.00000091,0.00001048,0.00001036,0.00003173,0.,-0.0000
 3637,0.00000318,0.00006073,0.00001594,-0.00002788,-0.00000488,-0.00000
 681,-0.00000539,-0.00000854,-0.00000686,-0.00000052,-0.00000725,0.0001
 8430,-0.00019132,0.00031390,-0.00066433,-0.00060333,0.00110090,-0.0000
 4175,0.00006433,0.00023962,0.00000102,-0.00000222,-0.00000885,-0.00000
 523,-0.00000045,0.00000347,0.00000266,0.00000430,0.00000689,-0.0000043
 6,-0.00000176,0.00000286,0.00000532,-0.00000301,0.00000095,0.00000060,
 0.00000350,0.00000217,0.00000037,-0.00000196,0.00000068,0.00001087,0.0
 0000138,-0.00003419,0.00000132,0.00000635,-0.00001544,0.00000491,0.000
 00449,-0.00000522,0.00000469,0.00000291,-0.00000443,0.00004943,0.00000
 426,-0.00005564,-0.00011740,-0.00001304,-0.00010152,-0.00001630,-0.000
 00918,-0.00007242,-0.00007076,-0.00001101,-0.00009553,-0.00014964,0.00
 038086,-0.00038884,-0.00010887,-0.00008280,-0.00005849,0.00118583,0.00
 098833,-0.00131967,0.00013855,-0.00015123,-0.00024109,-0.00643121,-0.0
 0249453,0.00017975,0.00063391,0.00035182,0.00074241,-0.00102878,-0.000
 53253,-0.00517518,0.00002120,-0.00002804,-0.00000490,0.00000812,0.0000
 3730,-0.00000149,-0.00000950,-0.00000180,0.00001543,0.06407277,0.04818
 262,0.01806237,-0.00000056,-0.00001003,-0.00000380,0.00000990,0.000015
 36,0.00001170,-0.00002518,0.00001013,-0.00000605,0.00006279,0.00001065
 ,0.00003168,0.00000375,-0.00002175,-0.00000625,-0.00000074,0.00000216,
 0.00000049,-0.00001117,-0.00000672,-0.00000231,0.00003639,0.00000623,0
 .00001691,-0.00001618,0.00000732,-0.00000103,-0.00000158,0.00000007,-0
 .00000262,-0.00000339,-0.00000256,-0.00000010,0.00013547,0.00009195,-0
 .00000521,0.00015490,-0.00000040,0.00004082,0.00008324,0.00000715,0.00
 000645,-0.00000173,0.00000143,-0.00000122,0.00000345,0.00000005,0.0000
 0078,-0.00000252,0.00000043,0.00000180,0.00000246,0.00000143,0.0000009
 7,-0.00000107,-0.00000216,0.00000231,0.00000479,0.00000071,0.00000382,
 0.00000505,0.00000180,0.00000365,-0.00001402,-0.00000803,-0.00000147,-
 0.00000300,-0.00000500,-0.00000066,0.00000073,-0.00000101,0.00000062,0
 .00000043,-0.00000132,0.00000064,-0.00000741,0.00000055,-0.00000747,-0
 .00012105,-0.00004510,-0.00005328,-0.00004432,-0.00001738,-0.00003088,
 -0.00001878,0.00000056,0.00000101,-0.00008352,-0.00005949,0.00002047,-
 0.00003751,-0.00004097,0.00002870,-0.00011560,0.00004364,-0.00008396,-
 0.00007922,0.00002081,0.00001724,0.00010247,-0.00072632,-0.00061533,-0
 .00038128,-0.00006525,-0.00014811,-0.00025848,0.00201581,0.00141164,-0
 .00000394,0.00000336,-0.00000258,-0.00000154,-0.00000509,-0.00000345,0
 .00000799,0.00000168,0.00000187,-0.41081471,0.24528563,-0.03253781,0.4
 0409711,-0.00000412,0.00000960,0.00000327,-0.00001501,0.00000380,-0.00
 000344,-0.00000128,0.00002268,0.00000940,0.00007375,0.00001818,0.00004
 339,-0.00001921,-0.00001989,-0.00001854,0.00002474,-0.00001040,0.00000
 742,-0.00000171,0.00002909,-0.00001038,-0.00000443,-0.00002775,-0.0000
 0111,-0.00000224,0.00000962,0.00000465,0.00000357,0.00000278,-0.000001
 76,-0.00000352,-0.00000682,0.00000436,0.00024968,-0.00008342,0.0000503
 2,-0.00003683,-0.00029262,0.00017118,-0.00002854,-0.00005558,-0.000001
 96,-0.00000032,-0.00000556,-0.00000051,0.00000078,-0.00000202,0.000000
 14,-0.00000008,-0.00000140,-0.00000186,-0.00000163,-0.00000127,0.00000
 059,0.00000143,0.00000101,0.00000324,0.00000137,-0.00000102,0.00000038
 ,-0.00000013,-0.00000552,-0.00000034,-0.00000492,0.00001990,-0.0000008
 7,-0.00001003,-0.00000415,-0.00000050,-0.00000115,-0.00000061,0.000000
 20,0.00000108,0.00000132,0.00000067,0.00000240,0.00001117,-0.00000568,
 -0.00015587,-0.00003085,-0.00007171,0.00002244,0.00001815,0.00001207,0
 .00002523,0.00001755,-0.00000808,-0.00014704,0.00018587,-0.00008543,-0
 .00009724,0.00000454,0.00003338,0.00017884,0.00032252,-0.00023054,0.00
 000465,0.00003520,0.00000871,-0.00186124,-0.00171970,-0.00135198,-0.00
 021242,0.00012832,-0.00004099,0.00274924,0.00293732,0.00248592,0.00000
 390,-0.00000740,0.00000050,0.00000485,0.00000411,-0.00000111,-0.000003
 10,-0.00000085,0.00000033,0.18859312,-0.17759228,0.00737814,-0.2319143
 5,0.19801741,-0.00000152,0.00000640,0.00000121,-0.00000711,-0.00000700
 ,-0.00000828,0.00001537,-0.00000889,0.00000733,-0.00005005,-0.00000756
 ,-0.00003048,-0.00000338,0.00001421,0.00000670,0.00000029,-0.00000208,
 -0.00000390,0.00000230,-0.00000635,0.00000246,-0.00000752,-0.00000216,
 -0.00002732,0.00000337,0.00000188,0.00000227,0.00000213,0.00000144,0.0
 0000325,0.00000407,0.00000083,0.00000282,-0.00011133,-0.00000832,-0.00
 010062,-0.00001428,0.00003533,-0.00014308,-0.00003047,-0.00000490,-0.0
 0005452,0.00000091,0.00000044,0.00000294,-0.00000008,0.00000011,-0.000
 00100,0.00000023,-0.00000186,-0.00000246,0.00000040,0.00000021,-0.0000
 0100,-0.00000148,0.00000175,-0.00000151,-0.00000278,-0.00000106,-0.000
 00277,-0.00000267,-0.00000014,-0.00000232,0.00000640,0.00000218,0.0000
 0914,-0.00000022,-0.00000090,0.00000814,-0.00000286,-0.00000149,0.0000
 0215,-0.00000205,-0.00000062,0.00000176,-0.00000924,-0.00000160,0.0000
 1929,0.00010171,0.00003142,0.00006333,0.00002584,0.00001085,0.00003142
 ,0.00001315,-0.00000410,0.00002393,0.00004696,-0.00004876,0.00009403,0
 .00006454,0.00003471,0.00001676,-0.00007287,-0.00005506,0.00010117,0.0
 0001028,-0.00000211,0.00003044,-0.00079573,-0.00115038,-0.00080205,-0.
 00043752,0.00015421,-0.00003746,0.00079325,0.00214682,0.00081412,-0.00
 000144,0.00000434,0.00000323,-0.00000009,-0.00000527,0.00000386,-0.000
 00383,-0.00000063,-0.00000474,-0.03599392,0.01395000,-0.00442081,0.031
 90130,-0.01174925,0.00410621,0.00000032,-0.00001028,-0.00000498,0.0000
 1745,0.00000479,0.00001018,-0.00001373,-0.00000504,-0.00000900,-0.0000
 0046,-0.00000108,-0.00000071,0.00000828,0.00000226,0.00000569,-0.00001
 214,0.00000499,-0.00000426,-0.00000883,-0.00002545,0.00000532,0.000035
 75,0.00003046,0.00002280,-0.00001445,-0.00000938,-0.00000610,-0.000005
 41,-0.00000151,-0.00000144,-0.00000061,0.00000215,-0.00000383,-0.00003
 268,0.00004231,-0.00000249,-0.00006942,0.00007621,0.00007399,0.0000852
 8,0.00009262,0.00003850,-0.00000184,0.00000673,-0.00000147,0.00000261,
 0.00000160,0.00000116,-0.00000269,0.00000107,0.00000438,0.00000309,0.0
 0000279,0.00000078,-0.00000193,-0.00000291,-0.00000009,0.00000397,0.00
 000315,0.00000409,0.00000514,0.00000600,0.00000390,-0.00000229,-0.0000
 2382,-0.00000553,0.00000139,-0.00000087,-0.00000023,0.00000010,-0.0000
 0002,-0.00000009,-0.00000005,-0.00000228,-0.00000021,-0.00000309,-0.00
 001345,-0.00000797,0.00000752,-0.00000595,0.00000180,-0.00006313,-0.00
 003268,-0.00004779,-0.00006821,-0.00003243,0.00000969,0.00002959,-0.00
 005277,0.00001242,0.00001603,-0.00001653,-0.00000494,0.00010575,-0.000
 00134,-0.00009398,-0.00000751,-0.00007714,-0.00003726,-0.00200338,0.00
 064766,-0.00123949,-0.00020389,-0.00013536,-0.00005392,0.00350984,-0.0
 0228211,0.00226396,-0.00000384,0.00000466,-0.00000440,-0.00000236,-0.0
 0000055,-0.00000133,0.00000670,0.00000360,0.00000209,-0.08347378,-0.15
 350011,-0.02518002,0.00733755,0.04258536,0.00455994,0.07481933,-0.0000
 0188,-0.00000306,-0.00000102,-0.00000492,0.00001528,0.00000508,-0.0000
 1653,0.00000995,-0.00000086,0.00005745,0.00001020,0.00002802,-0.000005
 69,-0.00002039,-0.00000997,0.00000971,-0.00000242,0.00000342,-0.000007
 60,0.00000969,-0.00000787,0.00002660,-0.00001727,0.00000906,-0.0000134
 6,0.00002206,0.00000352,0.00000313,0.00000124,-0.00000205,-0.00000420,
 -0.00000483,0.00000238,0.00010791,0.00005939,-0.00000700,0.00022341,0.
 00005976,-0.00006849,0.00006265,-0.00004285,-0.00001290,-0.00000276,-0
 .00000368,-0.00000116,0.00000324,-0.00000067,0.00000014,-0.00000235,0.
 00000014,-0.00000117,0.00000066,-0.00000057,0.00000070,0.00000045,-0.0
 0000086,0.00000340,0.00000463,-0.00000117,0.00000261,0.00000258,-0.000
 00150,0.00000177,-0.00001344,0.00000427,0.00000205,-0.00000488,-0.0000
 0358,0.00000026,-0.00000055,-0.00000104,0.00000063,0.00000049,0.000000
 71,0.00000106,-0.00000729,0.00001191,-0.00000474,-0.00010846,-0.000035
 68,-0.00004523,-0.00002009,-0.00000067,-0.00001237,0.00000505,0.000024
 26,-0.00000041,-0.00004358,-0.00004994,0.00002630,-0.00003455,-0.00001
 452,0.00001565,-0.00021117,-0.00011060,0.00009443,-0.00010552,0.000054
 53,0.00002903,0.00155595,0.00024088,0.00056592,-0.00015081,0.00005227,
 -0.00007641,-0.00224889,-0.00072871,-0.00086469,-0.00000453,0.00000155
 ,-0.00000146,-0.00000035,-0.00000794,-0.00000284,0.00000599,0.00000039
 ,0.00000097,-0.09717510,-0.50112803,-0.05330048,-0.01459598,-0.0219310
 2,-0.00332665,0.11271465,0.52353250,-0.00000071,0.00000463,0.00000095,
 -0.00000545,-0.00000435,-0.00000636,0.00000996,-0.00000125,0.00000695,
 -0.00001830,-0.00000148,-0.00001335,-0.00000194,0.00000348,0.00000335,
 0.00000219,-0.00000155,-0.00000189,0.00000208,-0.00000416,0.00000075,-
 0.00000923,-0.00000447,-0.00003487,0.00000319,0.00000378,0.00000361,0.
 00000317,0.00000314,0.00000497,0.00000377,0.00000078,0.00000294,-0.000
 01674,0.00000440,-0.00006101,0.00007583,0.00002148,-0.00015942,-0.0000
 4159,-0.00003151,-0.00008441,0.00000138,-0.00000011,0.00000512,0.00000
 025,-0.00000031,-0.00000136,0.00000014,-0.00000210,-0.00000380,0.00000
 034,-0.00000005,-0.00000136,-0.00000142,0.00000280,-0.00000112,-0.0000
 0340,-0.00000201,-0.00000349,-0.00000264,-0.00000136,-0.00000236,0.000
 00203,0.00000823,0.00001033,-0.00000083,-0.00000108,0.00000437,-0.0000
 0149,-0.00000128,0.00000194,-0.00000167,-0.00000064,0.00000180,-0.0000
 1238,-0.00000631,0.00002403,0.00003442,0.00001098,0.00002676,0.0000373
 3,0.00001396,0.00004609,0.00003834,0.00000761,0.00003581,0.00000354,-0
 .00003185,0.00005538,0.00000685,0.00002116,0.00002324,-0.00017564,-0.0
 0006786,0.00014049,-0.00000154,0.00003626,0.00006019,-0.00106846,0.000
 63641,-0.00071951,-0.00012385,-0.00039388,0.00002258,0.00154575,-0.001
 46752,0.00065302,-0.00000304,0.00000616,0.00000510,-0.00000021,-0.0000
 0666,0.00000232,-0.00000317,-0.00000047,-0.00000633,-0.01997643,-0.059
 07216,-0.00874879,0.00000874,0.00336778,0.00028635,0.01969085,0.056951
 39,0.00842100\\-0.00000011,-0.00000107,-0.00000034,0.00000255,0.000003
 06,0.00000255,-0.00000013,-0.00000050,-0.00000119,-0.00000653,-0.00000
 083,-0.00000437,0.00000039,0.00000009,-0.00000110,-0.00000026,-0.00000
 151,-0.00000115,-0.00000076,-0.00000248,0.00000144,0.00000215,0.000003
 75,0.00000078,-0.00000164,-0.00000103,-0.00000019,-0.00000024,-0.00000
 026,0.00000002,0.00000118,-0.00000104,-0.00000072,-0.00000520,0.000010
 75,-0.00000833,0.00000398,0.00001357,-0.00000167,0.00000562,0.00000194
 ,0.00000096,-0.00000059,-0.00000017,0.00000069,-0.00000021,-0.00000105
 ,0.00000054,0.00000005,-0.00000091,0.00000026,-0.00000008,-0.00000082,
 -0.00000003,0.00000037,-0.00000041,-0.00000025,-0.00000025,-0.00000056
 ,0.00000053,-0.00000003,-0.00000012,-0.00000049,-0.00000085,0.00000127
 ,0.00000009,0.00000049,-0.00000023,-0.00000016,0.00000050,0.00000032,-
 0.00000091,0.00000043,0.00000004,-0.00000053,-0.00000045,-0.00000048,-
 0.00000075,0.00001406,0.00000241,0.00000761,-0.00000573,-0.00000598,0.
 ,0.00000038,0.00000111,0.00000048,-0.00000002,-0.00002299,0.00000513,0
 .00000174,0.00000070,-0.00000017,-0.00000480,-0.00000435,0.00001090,-0
 .00000435,0.00000069,-0.00000619,-0.00000899,-0.00000411,-0.00001191,0
 .00000061,0.00000407,0.00000167,0.00000721,0.00000188,0.00000362,-0.00
 000007,0.00000012,0.00000051,-0.00000028,0.00000023,0.00000013,-0.0000
 0030,0.00000012,0.00000007,0.00002489,0.00001405,0.00000788,-0.0000156
 5,0.00000172,-0.00000350,-0.00000909,-0.00001096,-0.00000193\\\@


 EVERYTHING'S GOT A MORAL, IF ONLY YOU CAN FIND IT.

                                    -- LEWIS CARROL, ALICE IN WONDERLAND
 Job cpu time:       1 days 12 hours 58 minutes  9.1 seconds.
 Elapsed time:       0 days  1 hours 19 minutes 22.0 seconds.
 File lengths (MBytes):  RWF=   1440 Int=      0 D2E=      0 Chk=     36 Scr=      8
 Normal termination of Gaussian 16 at Tue Dec  6 16:26:43 2022.
