 Entering Gaussian System, Link 0=g16
 Input=NicPyrNa5h23wB97XD130K.gjf
 Output=NicPyrNa5h23wB97XD130K.log
 Initial command:
 /sw/contrib/gaussian/g16/A03/g16/l1.exe "/gscratch/scrubbed/gds001/Gau-19766.inp" -scrdir="/gscratch/scrubbed/gds001/"
 Entering Link 1 = /sw/contrib/gaussian/g16/A03/g16/l1.exe PID=     19767.
  
 Copyright (c) 1988,1990,1992,1993,1995,1998,2003,2009,2016,
            Gaussian, Inc.  All Rights Reserved.
  
 This is part of the Gaussian(R) 16 program.  It is based on
 the Gaussian(R) 09 system (copyright 2009, Gaussian, Inc.),
 the Gaussian(R) 03 system (copyright 2003, Gaussian, Inc.),
 the Gaussian(R) 98 system (copyright 1998, Gaussian, Inc.),
 the Gaussian(R) 94 system (copyright 1995, Gaussian, Inc.),
 the Gaussian 92(TM) system (copyright 1992, Gaussian, Inc.),
 the Gaussian 90(TM) system (copyright 1990, Gaussian, Inc.),
 the Gaussian 88(TM) system (copyright 1988, Gaussian, Inc.),
 the Gaussian 86(TM) system (copyright 1986, Carnegie Mellon
 University), and the Gaussian 82(TM) system (copyright 1983,
 Carnegie Mellon University). Gaussian is a federally registered
 trademark of Gaussian, Inc.
  
 This software contains proprietary and confidential information,
 including trade secrets, belonging to Gaussian, Inc.
  
 This software is provided under written license and may be
 used, copied, transmitted, or stored only in accord with that
 written license.
  
 The following legend is applicable only to US Government
 contracts under FAR:
  
                    RESTRICTED RIGHTS LEGEND
  
 Use, reproduction and disclosure by the US Government is
 subject to restrictions as set forth in subparagraphs (a)
 and (c) of the Commercial Computer Software - Restricted
 Rights clause in FAR 52.227-19.
  
 Gaussian, Inc.
 340 Quinnipiac St., Bldg. 40, Wallingford CT 06492
  
  
 ---------------------------------------------------------------
 Warning -- This program may not be used in any manner that
 competes with the business of Gaussian, Inc. or will provide
 assistance to any competitor of Gaussian, Inc.  The licensee
 of this program is prohibited from giving any competitor of
 Gaussian, Inc. access to this program.  By using this program,
 the user acknowledges that Gaussian, Inc. is engaged in the
 business of creating and licensing software in the field of
 computational chemistry and represents and warrants to the
 licensee that it is not a competitor of Gaussian, Inc. and that
 it will not use this program in any manner prohibited above.
 ---------------------------------------------------------------
  

 Cite this work as:
 Gaussian 16, Revision A.03,
 M. J. Frisch, G. W. Trucks, H. B. Schlegel, G. E. Scuseria, 
 M. A. Robb, J. R. Cheeseman, G. Scalmani, V. Barone, 
 G. A. Petersson, H. Nakatsuji, X. Li, M. Caricato, A. V. Marenich, 
 J. Bloino, B. G. Janesko, R. Gomperts, B. Mennucci, H. P. Hratchian, 
 J. V. Ortiz, A. F. Izmaylov, J. L. Sonnenberg, D. Williams-Young, 
 F. Ding, F. Lipparini, F. Egidi, J. Goings, B. Peng, A. Petrone, 
 T. Henderson, D. Ranasinghe, V. G. Zakrzewski, J. Gao, N. Rega, 
 G. Zheng, W. Liang, M. Hada, M. Ehara, K. Toyota, R. Fukuda, 
 J. Hasegawa, M. Ishida, T. Nakajima, Y. Honda, O. Kitao, H. Nakai, 
 T. Vreven, K. Throssell, J. A. Montgomery, Jr., J. E. Peralta, 
 F. Ogliaro, M. J. Bearpark, J. J. Heyd, E. N. Brothers, K. N. Kudin, 
 V. N. Staroverov, T. A. Keith, R. Kobayashi, J. Normand, 
 K. Raghavachari, A. P. Rendell, J. C. Burant, S. S. Iyengar, 
 J. Tomasi, M. Cossi, J. M. Millam, M. Klene, C. Adamo, R. Cammi, 
 J. W. Ochterski, R. L. Martin, K. Morokuma, O. Farkas, 
 J. B. Foresman, and D. J. Fox, Gaussian, Inc., Wallingford CT, 2016.
 
 ******************************************
 Gaussian 16:  ES64L-G16RevA.03 25-Dec-2016
                15-Jul-2021 
 ******************************************
 %nprocshared=28
 Will use up to   28 processors via shared memory.
 %mem=41GB
 %chk=NicPyrNa5h23.chk
 ---------------------------------------------
 # wB97XD/aug-cc-pVDZ opt freq temperature=130
 ---------------------------------------------
 1/18=20,19=15,26=3,38=1,112=130000/1,3;
 2/9=110,12=2,17=6,18=5,40=1/2;
 3/5=16,7=10,11=2,25=1,30=1,71=1,74=-58/1,2,3;
 4//1;
 5/5=2,38=5/2;
 6/7=2,8=2,9=2,10=2,28=1/1;
 7//1,2,3,16;
 1/18=20,19=15,26=3/3(2);
 2/9=110/2;
 99//99;
 2/9=110/2;
 3/5=16,7=10,11=2,25=1,30=1,71=1,74=-58/1,2,3;
 4/5=5,16=3,69=1/1;
 5/5=2,38=5/2;
 7//1,2,3,16;
 1/18=20,19=15,26=3/3(-5);
 2/9=110/2;
 6/7=2,8=2,9=2,10=2,19=2,28=1/1;
 99/9=1/99;
 --------
 Nicotine
 --------
 Symbolic Z-matrix:
 Charge =  1 Multiplicity = 1
 C                     1.18085   2.74025   0.1845 
 C                     1.12561   1.40025  -0.20151 
 C                    -0.13101   0.85747  -0.47367 
 N                    -1.27005   1.5422   -0.36092 
 C                    -1.20321   2.82272   0.01567 
 C                    -0.00016   3.46738   0.28998 
 C                     2.37814   0.56712  -0.29892 
 N                     2.51043  -0.38485   0.86415 
 C                     3.56532  -1.39294   0.4991 
 C                     3.67498  -1.31668  -1.03856 
 C                     2.53004  -0.39204  -1.47793 
 O                     0.43318  -1.93734   1.21513 
 O                    -1.78615  -0.88997   2.32836 
 O                    -2.96797  -0.64322  -0.15667 
 O                    -1.02252  -2.3413   -1.06283 
 H                     4.50029  -1.12783   1.00118 
 H                     4.64283  -0.88946  -1.32471 
 H                     3.60183  -2.30807  -1.49465 
 H                     1.60268  -0.96005  -1.62619 
 H                     2.74647   0.15076  -2.40278 
 H                     3.2273   -2.36594   0.86637 
 H                     3.25452   1.22848  -0.25436 
 H                    -0.23365  -0.17851  -0.79531 
 H                    -2.15161   3.35384   0.09957 
 H                     0.00677   4.51517   0.58362 
 H                     2.13913   3.21788   0.39564 
 C                     2.80929   0.29952   2.1345 
 H                     1.58864  -0.92416   1.01154 
 H                    -0.31635  -1.60939   1.761 
 H                    -0.009    -2.26138   0.40432 
 H                    -2.61243   0.25256  -0.34407 
 H                    -3.9122   -0.63823  -0.3948 
 H                    -1.84283  -1.85146  -0.83958 
 H                    -1.29613  -3.16302  -1.4762 
 H                    -2.37992  -0.83397   1.55341 
 H                    -2.30298  -1.26735   3.04351 
 O                    -5.65137  -0.65195  -0.83247 
 H                    -6.02148  -0.75465  -1.71276 
 H                    -6.40126  -0.60082  -0.23458 
 H                     3.75334   0.88286   2.06252 
 H                     2.91032  -0.44453   2.95452 
 H                     1.98318   0.99065   2.407 
 
 Add virtual bond connecting atoms H28        and O12        Dist= 2.93D+00.
 Add virtual bond connecting atoms H29        and O13        Dist= 3.27D+00.
 Add virtual bond connecting atoms H30        and O15        Dist= 3.37D+00.
 Add virtual bond connecting atoms N4         and H31        Dist= 3.52D+00.
 Add virtual bond connecting atoms H33        and O14        Dist= 3.38D+00.
 Add virtual bond connecting atoms H35        and O14        Dist= 3.44D+00.
 Add virtual bond connecting atoms O37        and H32        Dist= 3.39D+00.

 GradGradGradGradGradGradGradGradGradGradGradGradGradGradGradGradGradGrad
 Berny optimization.
 Initialization pass.
                           ----------------------------
                           !    Initial Parameters    !
                           ! (Angstroms and Degrees)  !
 --------------------------                            --------------------------
 ! Name  Definition              Value          Derivative Info.                !
 --------------------------------------------------------------------------------
 ! R1    R(1,2)                  1.3956         estimate D2E/DX2                !
 ! R2    R(1,6)                  1.3909         estimate D2E/DX2                !
 ! R3    R(1,26)                 1.0913         estimate D2E/DX2                !
 ! R4    R(2,3)                  1.3956         estimate D2E/DX2                !
 ! R5    R(2,7)                  1.5075         estimate D2E/DX2                !
 ! R6    R(3,4)                  1.3338         estimate D2E/DX2                !
 ! R7    R(3,23)                 1.0896         estimate D2E/DX2                !
 ! R8    R(4,5)                  1.3364         estimate D2E/DX2                !
 ! R9    R(4,31)                 1.8616         estimate D2E/DX2                !
 ! R10   R(5,6)                  1.3922         estimate D2E/DX2                !
 ! R11   R(5,24)                 1.0902         estimate D2E/DX2                !
 ! R12   R(6,25)                 1.0882         estimate D2E/DX2                !
 ! R13   R(7,8)                  1.5088         estimate D2E/DX2                !
 ! R14   R(7,11)                 1.5275         estimate D2E/DX2                !
 ! R15   R(7,22)                 1.0988         estimate D2E/DX2                !
 ! R16   R(8,9)                  1.5041         estimate D2E/DX2                !
 ! R17   R(8,27)                 1.4736         estimate D2E/DX2                !
 ! R18   R(8,28)                 1.0781         estimate D2E/DX2                !
 ! R19   R(9,10)                 1.5435         estimate D2E/DX2                !
 ! R20   R(9,16)                 1.0939         estimate D2E/DX2                !
 ! R21   R(9,21)                 1.0936         estimate D2E/DX2                !
 ! R22   R(10,11)                1.5359         estimate D2E/DX2                !
 ! R23   R(10,17)                1.096          estimate D2E/DX2                !
 ! R24   R(10,18)                1.0937         estimate D2E/DX2                !
 ! R25   R(11,19)                1.0975         estimate D2E/DX2                !
 ! R26   R(11,20)                1.094          estimate D2E/DX2                !
 ! R27   R(12,28)                1.5502         estimate D2E/DX2                !
 ! R28   R(12,29)                0.9835         estimate D2E/DX2                !
 ! R29   R(12,30)                0.9787         estimate D2E/DX2                !
 ! R30   R(13,29)                1.732          estimate D2E/DX2                !
 ! R31   R(13,35)                0.9779         estimate D2E/DX2                !
 ! R32   R(13,36)                0.9597         estimate D2E/DX2                !
 ! R33   R(14,31)                0.9818         estimate D2E/DX2                !
 ! R34   R(14,32)                0.9738         estimate D2E/DX2                !
 ! R35   R(14,33)                1.7867         estimate D2E/DX2                !
 ! R36   R(14,35)                1.8184         estimate D2E/DX2                !
 ! R37   R(15,30)                1.785          estimate D2E/DX2                !
 ! R38   R(15,33)                0.9812         estimate D2E/DX2                !
 ! R39   R(15,34)                0.9597         estimate D2E/DX2                !
 ! R40   R(27,40)                1.1121         estimate D2E/DX2                !
 ! R41   R(27,41)                1.1119         estimate D2E/DX2                !
 ! R42   R(27,42)                1.111          estimate D2E/DX2                !
 ! R43   R(32,37)                1.7935         estimate D2E/DX2                !
 ! R44   R(37,38)                0.9604         estimate D2E/DX2                !
 ! R45   R(37,39)                0.9604         estimate D2E/DX2                !
 ! A1    A(2,1,6)              119.2959         estimate D2E/DX2                !
 ! A2    A(2,1,26)             120.5635         estimate D2E/DX2                !
 ! A3    A(6,1,26)             120.1394         estimate D2E/DX2                !
 ! A4    A(1,2,3)              117.5811         estimate D2E/DX2                !
 ! A5    A(1,2,7)              121.0406         estimate D2E/DX2                !
 ! A6    A(3,2,7)              121.3716         estimate D2E/DX2                !
 ! A7    A(2,3,4)              123.5588         estimate D2E/DX2                !
 ! A8    A(2,3,23)             120.8079         estimate D2E/DX2                !
 ! A9    A(4,3,23)             115.633          estimate D2E/DX2                !
 ! A10   A(3,4,5)              118.2295         estimate D2E/DX2                !
 ! A11   A(3,4,31)             105.1254         estimate D2E/DX2                !
 ! A12   A(5,4,31)             134.2115         estimate D2E/DX2                !
 ! A13   A(4,5,6)              122.8494         estimate D2E/DX2                !
 ! A14   A(4,5,24)             116.4207         estimate D2E/DX2                !
 ! A15   A(6,5,24)             120.7298         estimate D2E/DX2                !
 ! A16   A(1,6,5)              118.4716         estimate D2E/DX2                !
 ! A17   A(1,6,25)             121.2269         estimate D2E/DX2                !
 ! A18   A(5,6,25)             120.301          estimate D2E/DX2                !
 ! A19   A(2,7,8)              111.8234         estimate D2E/DX2                !
 ! A20   A(2,7,11)             118.656          estimate D2E/DX2                !
 ! A21   A(2,7,22)             109.1119         estimate D2E/DX2                !
 ! A22   A(8,7,11)             100.9582         estimate D2E/DX2                !
 ! A23   A(8,7,22)             106.1749         estimate D2E/DX2                !
 ! A24   A(11,7,22)            109.2648         estimate D2E/DX2                !
 ! A25   A(7,8,9)              107.2943         estimate D2E/DX2                !
 ! A26   A(7,8,27)             112.9106         estimate D2E/DX2                !
 ! A27   A(7,8,28)             110.2458         estimate D2E/DX2                !
 ! A28   A(9,8,27)             112.2263         estimate D2E/DX2                !
 ! A29   A(9,8,28)             107.3112         estimate D2E/DX2                !
 ! A30   A(27,8,28)            106.731          estimate D2E/DX2                !
 ! A31   A(8,9,10)             104.9816         estimate D2E/DX2                !
 ! A32   A(8,9,16)             109.0034         estimate D2E/DX2                !
 ! A33   A(8,9,21)             107.3403         estimate D2E/DX2                !
 ! A34   A(10,9,16)            112.6171         estimate D2E/DX2                !
 ! A35   A(10,9,21)            113.6102         estimate D2E/DX2                !
 ! A36   A(16,9,21)            109.0075         estimate D2E/DX2                !
 ! A37   A(9,10,11)            105.1756         estimate D2E/DX2                !
 ! A38   A(9,10,17)            110.0061         estimate D2E/DX2                !
 ! A39   A(9,10,18)            111.4632         estimate D2E/DX2                !
 ! A40   A(11,10,17)           110.4234         estimate D2E/DX2                !
 ! A41   A(11,10,18)           112.1204         estimate D2E/DX2                !
 ! A42   A(17,10,18)           107.6696         estimate D2E/DX2                !
 ! A43   A(7,11,10)            103.3773         estimate D2E/DX2                !
 ! A44   A(7,11,19)            110.1954         estimate D2E/DX2                !
 ! A45   A(7,11,20)            111.1401         estimate D2E/DX2                !
 ! A46   A(10,11,19)           110.9131         estimate D2E/DX2                !
 ! A47   A(10,11,20)           113.1455         estimate D2E/DX2                !
 ! A48   A(19,11,20)           108.0433         estimate D2E/DX2                !
 ! A49   A(28,12,29)           115.0239         estimate D2E/DX2                !
 ! A50   A(28,12,30)           116.3808         estimate D2E/DX2                !
 ! A51   A(29,12,30)           103.0549         estimate D2E/DX2                !
 ! A52   A(29,13,35)           106.229          estimate D2E/DX2                !
 ! A53   A(29,13,36)           122.5341         estimate D2E/DX2                !
 ! A54   A(35,13,36)           106.6228         estimate D2E/DX2                !
 ! A55   A(31,14,32)           107.4443         estimate D2E/DX2                !
 ! A56   A(31,14,33)           108.4206         estimate D2E/DX2                !
 ! A57   A(31,14,35)            99.0969         estimate D2E/DX2                !
 ! A58   A(32,14,33)           121.3733         estimate D2E/DX2                !
 ! A59   A(32,14,35)           122.9616         estimate D2E/DX2                !
 ! A60   A(33,14,35)            94.8686         estimate D2E/DX2                !
 ! A61   A(30,15,33)           105.3877         estimate D2E/DX2                !
 ! A62   A(30,15,34)           123.6601         estimate D2E/DX2                !
 ! A63   A(33,15,34)           106.6852         estimate D2E/DX2                !
 ! A64   A(8,27,40)            111.0991         estimate D2E/DX2                !
 ! A65   A(8,27,41)            110.0861         estimate D2E/DX2                !
 ! A66   A(8,27,42)            110.4594         estimate D2E/DX2                !
 ! A67   A(40,27,41)           108.7608         estimate D2E/DX2                !
 ! A68   A(40,27,42)           108.7108         estimate D2E/DX2                !
 ! A69   A(41,27,42)           107.6355         estimate D2E/DX2                !
 ! A70   A(12,30,15)           162.2246         estimate D2E/DX2                !
 ! A71   A(4,31,14)            153.4992         estimate D2E/DX2                !
 ! A72   A(14,33,15)           162.0049         estimate D2E/DX2                !
 ! A73   A(13,35,14)           161.3777         estimate D2E/DX2                !
 ! A74   A(32,37,38)           126.7396         estimate D2E/DX2                !
 ! A75   A(32,37,39)           127.2162         estimate D2E/DX2                !
 ! A76   A(38,37,39)           105.9859         estimate D2E/DX2                !
 ! A77   L(8,28,12,3,-1)       189.0255         estimate D2E/DX2                !
 ! A78   L(12,29,13,1,-1)      173.0881         estimate D2E/DX2                !
 ! A79   L(14,32,37,24,-1)     180.7317         estimate D2E/DX2                !
 ! A80   L(8,28,12,3,-2)       174.0161         estimate D2E/DX2                !
 ! A81   L(12,29,13,1,-2)      166.9386         estimate D2E/DX2                !
 ! A82   L(14,32,37,24,-2)     180.0424         estimate D2E/DX2                !
 ! D1    D(6,1,2,3)              0.4359         estimate D2E/DX2                !
 ! D2    D(6,1,2,7)           -178.6351         estimate D2E/DX2                !
 ! D3    D(26,1,2,3)          -179.1525         estimate D2E/DX2                !
 ! D4    D(26,1,2,7)             1.7765         estimate D2E/DX2                !
 ! D5    D(2,1,6,5)              0.5574         estimate D2E/DX2                !
 ! D6    D(2,1,6,25)          -179.6999         estimate D2E/DX2                !
 ! D7    D(26,1,6,5)          -179.8524         estimate D2E/DX2                !
 ! D8    D(26,1,6,25)           -0.1097         estimate D2E/DX2                !
 ! D9    D(1,2,3,4)             -1.2354         estimate D2E/DX2                !
 ! D10   D(1,2,3,23)           178.9686         estimate D2E/DX2                !
 ! D11   D(7,2,3,4)            177.8323         estimate D2E/DX2                !
 ! D12   D(7,2,3,23)            -1.9637         estimate D2E/DX2                !
 ! D13   D(1,2,7,8)            104.3726         estimate D2E/DX2                !
 ! D14   D(1,2,7,11)          -138.7432         estimate D2E/DX2                !
 ! D15   D(1,2,7,22)           -12.7786         estimate D2E/DX2                !
 ! D16   D(3,2,7,8)            -74.663          estimate D2E/DX2                !
 ! D17   D(3,2,7,11)            42.2212         estimate D2E/DX2                !
 ! D18   D(3,2,7,22)           168.1858         estimate D2E/DX2                !
 ! D19   D(2,3,4,5)              0.9375         estimate D2E/DX2                !
 ! D20   D(2,3,4,31)          -163.8491         estimate D2E/DX2                !
 ! D21   D(23,3,4,5)          -179.2569         estimate D2E/DX2                !
 ! D22   D(23,3,4,31)           15.9565         estimate D2E/DX2                !
 ! D23   D(3,4,5,6)              0.1645         estimate D2E/DX2                !
 ! D24   D(3,4,5,24)          -179.9249         estimate D2E/DX2                !
 ! D25   D(31,4,5,6)           159.4676         estimate D2E/DX2                !
 ! D26   D(31,4,5,24)          -20.6218         estimate D2E/DX2                !
 ! D27   D(3,4,31,14)           29.0649         estimate D2E/DX2                !
 ! D28   D(5,4,31,14)         -132.1172         estimate D2E/DX2                !
 ! D29   D(4,5,6,1)             -0.9006         estimate D2E/DX2                !
 ! D30   D(4,5,6,25)           179.3542         estimate D2E/DX2                !
 ! D31   D(24,5,6,1)           179.1926         estimate D2E/DX2                !
 ! D32   D(24,5,6,25)           -0.5526         estimate D2E/DX2                !
 ! D33   D(2,7,8,9)            165.5508         estimate D2E/DX2                !
 ! D34   D(2,7,8,27)           -70.2761         estimate D2E/DX2                !
 ! D35   D(2,7,8,28)            48.9986         estimate D2E/DX2                !
 ! D36   D(11,7,8,9)            38.4154         estimate D2E/DX2                !
 ! D37   D(11,7,8,27)          162.5885         estimate D2E/DX2                !
 ! D38   D(11,7,8,28)          -78.1368         estimate D2E/DX2                !
 ! D39   D(22,7,8,9)           -75.543          estimate D2E/DX2                !
 ! D40   D(22,7,8,27)           48.6301         estimate D2E/DX2                !
 ! D41   D(22,7,8,28)          167.9047         estimate D2E/DX2                !
 ! D42   D(2,7,11,10)         -164.5092         estimate D2E/DX2                !
 ! D43   D(2,7,11,19)          -45.9271         estimate D2E/DX2                !
 ! D44   D(2,7,11,20)           73.8132         estimate D2E/DX2                !
 ! D45   D(8,7,11,10)          -42.008          estimate D2E/DX2                !
 ! D46   D(8,7,11,19)           76.5741         estimate D2E/DX2                !
 ! D47   D(8,7,11,20)         -163.6856         estimate D2E/DX2                !
 ! D48   D(22,7,11,10)          69.5996         estimate D2E/DX2                !
 ! D49   D(22,7,11,19)        -171.8183         estimate D2E/DX2                !
 ! D50   D(22,7,11,20)         -52.078          estimate D2E/DX2                !
 ! D51   D(7,8,9,10)           -19.4388         estimate D2E/DX2                !
 ! D52   D(7,8,9,16)           101.4392         estimate D2E/DX2                !
 ! D53   D(7,8,9,21)          -140.6303         estimate D2E/DX2                !
 ! D54   D(27,8,9,10)         -144.0275         estimate D2E/DX2                !
 ! D55   D(27,8,9,16)          -23.1496         estimate D2E/DX2                !
 ! D56   D(27,8,9,21)           94.7809         estimate D2E/DX2                !
 ! D57   D(28,8,9,10)           99.0296         estimate D2E/DX2                !
 ! D58   D(28,8,9,16)         -140.0924         estimate D2E/DX2                !
 ! D59   D(28,8,9,21)          -22.1619         estimate D2E/DX2                !
 ! D60   D(7,8,12,29)          -86.7125         estimate D2E/DX2                !
 ! D61   D(7,8,12,30)           37.3314         estimate D2E/DX2                !
 ! D62   D(9,8,12,29)          158.5119         estimate D2E/DX2                !
 ! D63   D(9,8,12,30)          -77.4442         estimate D2E/DX2                !
 ! D64   D(27,8,12,29)          40.2773         estimate D2E/DX2                !
 ! D65   D(27,8,12,30)         164.3212         estimate D2E/DX2                !
 ! D66   D(7,8,27,40)          -58.6915         estimate D2E/DX2                !
 ! D67   D(7,8,27,41)         -179.2321         estimate D2E/DX2                !
 ! D68   D(7,8,27,42)           62.0353         estimate D2E/DX2                !
 ! D69   D(9,8,27,40)           62.731          estimate D2E/DX2                !
 ! D70   D(9,8,27,41)          -57.8095         estimate D2E/DX2                !
 ! D71   D(9,8,27,42)         -176.5422         estimate D2E/DX2                !
 ! D72   D(28,8,27,40)        -179.9793         estimate D2E/DX2                !
 ! D73   D(28,8,27,41)          59.4801         estimate D2E/DX2                !
 ! D74   D(28,8,27,42)         -59.2525         estimate D2E/DX2                !
 ! D75   D(8,9,10,11)           -7.3934         estimate D2E/DX2                !
 ! D76   D(8,9,10,17)          111.5234         estimate D2E/DX2                !
 ! D77   D(8,9,10,18)         -129.1204         estimate D2E/DX2                !
 ! D78   D(16,9,10,11)        -125.8603         estimate D2E/DX2                !
 ! D79   D(16,9,10,17)          -6.9436         estimate D2E/DX2                !
 ! D80   D(16,9,10,18)         112.4126         estimate D2E/DX2                !
 ! D81   D(21,9,10,11)         109.5873         estimate D2E/DX2                !
 ! D82   D(21,9,10,17)        -131.496          estimate D2E/DX2                !
 ! D83   D(21,9,10,18)         -12.1397         estimate D2E/DX2                !
 ! D84   D(9,10,11,7)           30.9101         estimate D2E/DX2                !
 ! D85   D(9,10,11,19)         -87.1729         estimate D2E/DX2                !
 ! D86   D(9,10,11,20)         151.2294         estimate D2E/DX2                !
 ! D87   D(17,10,11,7)         -87.7268         estimate D2E/DX2                !
 ! D88   D(17,10,11,19)        154.1902         estimate D2E/DX2                !
 ! D89   D(17,10,11,20)         32.5924         estimate D2E/DX2                !
 ! D90   D(18,10,11,7)         152.2086         estimate D2E/DX2                !
 ! D91   D(18,10,11,19)         34.1256         estimate D2E/DX2                !
 ! D92   D(18,10,11,20)        -87.4721         estimate D2E/DX2                !
 ! D93   D(28,12,13,35)        104.9527         estimate D2E/DX2                !
 ! D94   D(28,12,13,36)       -134.2097         estimate D2E/DX2                !
 ! D95   D(30,12,13,35)        -17.4416         estimate D2E/DX2                !
 ! D96   D(30,12,13,36)        103.396          estimate D2E/DX2                !
 ! D97   D(28,12,30,15)        -73.3012         estimate D2E/DX2                !
 ! D98   D(29,12,30,15)         53.5475         estimate D2E/DX2                !
 ! D99   D(29,13,35,14)        -33.7598         estimate D2E/DX2                !
 ! D100  D(36,13,35,14)       -165.9388         estimate D2E/DX2                !
 ! D101  D(32,14,31,4)         177.1238         estimate D2E/DX2                !
 ! D102  D(33,14,31,4)         -50.0454         estimate D2E/DX2                !
 ! D103  D(35,14,31,4)          48.2295         estimate D2E/DX2                !
 ! D104  D(31,14,37,38)         80.8245         estimate D2E/DX2                !
 ! D105  D(31,14,37,39)       -102.7351         estimate D2E/DX2                !
 ! D106  D(33,14,37,38)        -44.7421         estimate D2E/DX2                !
 ! D107  D(33,14,37,39)        131.6984         estimate D2E/DX2                !
 ! D108  D(35,14,37,38)       -165.1761         estimate D2E/DX2                !
 ! D109  D(35,14,37,39)         11.2643         estimate D2E/DX2                !
 ! D110  D(31,14,33,15)         49.2737         estimate D2E/DX2                !
 ! D111  D(32,14,33,15)        174.2446         estimate D2E/DX2                !
 ! D112  D(35,14,33,15)        -52.007          estimate D2E/DX2                !
 ! D113  D(31,14,35,13)        -58.1901         estimate D2E/DX2                !
 ! D114  D(32,14,35,13)       -175.9437         estimate D2E/DX2                !
 ! D115  D(33,14,35,13)         51.3711         estimate D2E/DX2                !
 ! D116  D(33,15,30,12)        -39.0002         estimate D2E/DX2                !
 ! D117  D(34,15,30,12)       -161.7548         estimate D2E/DX2                !
 ! D118  D(30,15,33,14)         36.5617         estimate D2E/DX2                !
 ! D119  D(34,15,33,14)        169.6114         estimate D2E/DX2                !
 --------------------------------------------------------------------------------
 Trust Radius=3.00D-01 FncErr=1.00D-07 GrdErr=1.00D-06 EigMax=2.50D+02 EigMin=1.00D-04
 Number of steps in this run=    252 maximum allowed number of steps=    252.
 GradGradGradGradGradGradGradGradGradGradGradGradGradGradGradGradGradGrad

                          Input orientation:                          
 ---------------------------------------------------------------------
 Center     Atomic      Atomic             Coordinates (Angstroms)
 Number     Number       Type             X           Y           Z
 ---------------------------------------------------------------------
      1          6           0        1.180850    2.740250    0.184498
      2          6           0        1.125609    1.400252   -0.201513
      3          6           0       -0.131006    0.857473   -0.473668
      4          7           0       -1.270048    1.542197   -0.360921
      5          6           0       -1.203207    2.822722    0.015674
      6          6           0       -0.000159    3.467382    0.289979
      7          6           0        2.378144    0.567116   -0.298918
      8          7           0        2.510430   -0.384850    0.864148
      9          6           0        3.565315   -1.392941    0.499098
     10          6           0        3.674978   -1.316679   -1.038563
     11          6           0        2.530041   -0.392039   -1.477929
     12          8           0        0.433180   -1.937336    1.215128
     13          8           0       -1.786149   -0.889971    2.328355
     14          8           0       -2.967969   -0.643220   -0.156668
     15          8           0       -1.022516   -2.341297   -1.062830
     16          1           0        4.500288   -1.127825    1.001181
     17          1           0        4.642834   -0.889457   -1.324714
     18          1           0        3.601828   -2.308069   -1.494651
     19          1           0        1.602682   -0.960047   -1.626193
     20          1           0        2.746472    0.150759   -2.402777
     21          1           0        3.227298   -2.365936    0.866365
     22          1           0        3.254518    1.228481   -0.254362
     23          1           0       -0.233654   -0.178510   -0.795310
     24          1           0       -2.151612    3.353838    0.099568
     25          1           0        0.006770    4.515172    0.583615
     26          1           0        2.139130    3.217876    0.395638
     27          6           0        2.809287    0.299525    2.134500
     28          1           0        1.588640   -0.924163    1.011535
     29          1           0       -0.316349   -1.609386    1.760995
     30          1           0       -0.008999   -2.261383    0.404317
     31          1           0       -2.612425    0.252556   -0.344071
     32          1           0       -3.912200   -0.638227   -0.394804
     33          1           0       -1.842834   -1.851459   -0.839583
     34          1           0       -1.296125   -3.163016   -1.476195
     35          1           0       -2.379924   -0.833970    1.553405
     36          1           0       -2.302983   -1.267348    3.043514
     37          8           0       -5.651373   -0.651948   -0.832473
     38          1           0       -6.021477   -0.754652   -1.712763
     39          1           0       -6.401257   -0.600824   -0.234577
     40          1           0        3.753341    0.882858    2.062520
     41          1           0        2.910324   -0.444528    2.954516
     42          1           0        1.983177    0.990653    2.406998
 ---------------------------------------------------------------------
                    Distance matrix (angstroms):
                    1          2          3          4          5
     1  C    0.000000
     2  C    1.395583   0.000000
     3  C    2.387257   1.395621   0.000000
     4  N    2.782034   2.405147   1.333782   0.000000
     5  C    2.391450   2.737513   2.291566   1.336426   0.000000
     6  C    1.390910   2.404567   2.722481   2.396378   1.392176
     7  C    2.527789   1.507464   2.531932   3.776762   4.244149
     8  N    3.463518   2.497990   3.210966   4.416596   4.979912
     9  C    4.782041   3.774248   4.435474   5.721486   6.383127
    10  C    4.916831   3.818593   4.419452   5.752013   6.484038
    11  C    3.794103   2.610359   3.106605   4.407908   5.148075
    12  O    4.847785   3.691317   3.313804   4.182352   5.174418
    13  O    5.155357   4.485943   3.693832   3.662514   4.412755
    14  O    5.364416   4.575497   3.225047   2.775014   3.893179
    15  O    5.677391   4.399488   3.372541   3.954172   5.278533
    16  H    5.162136   4.384758   5.250283   6.502393   7.007703
    17  H    5.238113   4.344562   5.154182   6.465602   7.053588
    18  H    5.845186   4.642791   4.999711   6.312295   7.189886
    19  H    4.141104   2.797914   2.763579   4.014314   4.987793
    20  H    3.981285   3.005660   3.535645   4.715687   5.346799
    21  H    5.543106   4.443156   4.843992   6.083244   6.875698
    22  H    2.603487   2.136481   3.412846   4.536681   4.741923
    23  H    3.388216   2.166260   1.089610   2.055149   3.256551
    24  H    3.389544   3.827182   3.262405   2.066700   1.090227
    25  H    2.165204   3.401610   3.809933   3.370607   2.156615
    26  H    1.091333   2.165080   3.388320   3.873342   3.386995
    27  C    3.522989   3.082747   3.969782   4.940884   5.191922
    28  H    3.778651   2.662478   2.887427   4.017296   4.777583
    29  H    4.862744   3.871512   3.333686   3.917211   4.845229
    30  H    5.145910   3.880971   3.242377   4.079590   5.236917
    31  H    4.566940   3.912854   2.557374   1.861568   2.953145
    32  H    6.139125   5.438040   4.067034   3.425838   4.414216
    33  H    5.592423   4.448866   3.225300   3.474781   4.794638
    34  H    6.613763   5.320998   4.304288   4.835654   6.169552
    35  H    5.227625   4.512233   3.468088   3.246943   4.137714
    36  H    6.030913   5.422318   4.647894   4.533285   5.206342
    37  O    7.695486   7.108947   5.734243   4.922666   5.707790
    38  H    8.227239   7.616320   6.231529   5.447850   6.245064
    39  H    8.296189   7.788396   6.442037   5.562177   6.229207
    40  H    3.687083   3.506924   4.639078   5.616247   5.702633
    41  H    4.561457   4.068038   4.764172   5.693391   6.019373
    42  H    2.940124   2.776243   3.575716   4.306861   4.384969
                    6          7          8          9         10
     6  C    0.000000
     7  C    3.796665   0.000000
     8  N    4.633834   1.508795   0.000000
     9  C    6.031507   2.426526   1.504092   0.000000
    10  C    6.177289   2.403651   2.417599   1.543452   0.000000
    11  C    4.941917   1.527455   2.342170   2.445860   1.535865
    12  O    5.500424   3.513901   2.616939   3.258732   3.996698
    13  O    5.131400   5.134881   4.567236   5.677792   6.429784
    14  O    5.089640   5.483254   5.578680   6.608775   6.734986
    15  O    6.051120   4.539484   4.474666   4.938339   4.808002
    16  H    6.471148   3.011076   2.128456   1.093869   2.208474
    17  H    6.568612   2.881438   3.097239   2.177346   1.095968
    18  H    7.036693   3.345724   3.233242   2.194044   1.093719
    19  H    5.083595   2.166847   2.712316   2.925096   2.183325
    20  H    5.078868   2.176061   3.318944   3.387387   2.208297
    21  H    6.691509   3.268293   2.106800   1.093554   2.220385
    22  H    3.987720   1.098827   2.099421   2.745205   2.696219
    23  H    3.811155   2.761132   3.213468   4.193149   4.078236
    24  H    2.162845   5.333226   6.024700   7.441424   7.553689
    25  H    1.088179   4.689288   5.509739   6.897549   7.077973
    26  H    2.156380   2.750648   3.651986   4.827457   4.997795
    27  C    4.618502   2.485762   1.473594   2.471954   3.664678
    28  H    4.725526   2.136473   1.078090   2.095134   2.951233
    29  H    5.295039   4.029975   3.208505   4.087364   4.884045
    30  H    5.729913   3.767413   3.174956   3.679524   4.067684
    31  H    4.190592   5.000677   5.301860   6.448493   6.517381
    32  H    5.712182   6.405503   6.549758   7.568480   7.644605
    33  H    5.741205   4.894740   4.899444   5.590204   5.547236
    34  H    6.982913   5.366574   5.261680   5.537919   5.320935
    35  H    5.075545   5.294653   4.959067   6.063817   6.604025
    36  H    5.941601   6.037388   5.356994   6.397402   7.238909
    37  O    7.082725   8.139038   8.340557   9.341814   9.352281
    38  H    7.621864   8.619725   8.920239   9.859327   9.736101
    39  H    7.602599   8.856981   8.981760  10.024883  10.133576
    40  H    4.889829   2.750864   2.141963   2.767472   3.802739
    41  H    5.556411   3.448401   2.129111   2.712485   4.158127
    42  H    3.814391   2.767194   2.133164   3.438715   4.478600
                   11         12         13         14         15
    11  C    0.000000
    12  O    3.746642   0.000000
    13  O    5.776264   2.694748   0.000000
    14  O    5.660118   3.889007   2.762775   0.000000
    15  O    4.073398   2.733373   3.766911   2.736674   0.000000
    16  H    3.251037   4.152403   6.429406   7.572999   6.019470
    17  H    2.175958   5.026931   7.394372   7.703849   5.854282
    18  H    2.195490   4.185771   6.756972   6.908267   4.644581
    19  H    1.097547   3.224273   5.208410   4.811521   3.019419
    20  H    1.093991   4.775008   6.634107   6.191142   4.712862
    21  H    3.142953   2.848233   5.426835   6.511197   4.667260
    22  H    2.155938   4.487956   6.047031   6.498627   5.629383
    23  H    2.854746   2.753180   3.560014   2.846102   2.317654
    24  H    6.199836   5.993509   4.807387   4.087612   5.921198
    25  H    5.890465   6.497345   5.956026   6.000508   7.126105
    26  H    4.085897   5.491634   6.001468   6.426162   6.559538
    27  C    3.688615   3.390380   4.750843   6.286088   5.646200
    28  H    2.714189   1.550180   3.622759   4.712357   3.623451
    29  H    4.480457   0.983522   1.731984   3.412037   3.001392
    30  H    3.672060   0.978746   2.956511   3.418868   1.784972
    31  H    5.305289   4.062319   3.021582   0.981808   3.126100
    32  H    6.537296   4.812680   3.463966   0.973810   3.420085
    33  H    4.653969   3.067483   3.311118   1.786657   0.981174
    34  H    4.724179   3.425786   4.458863   3.299331   0.959664
    35  H    5.787231   3.040625   0.977882   1.818387   3.310480
    36  H    6.675907   3.358343   0.959679   3.327598   4.433399
    37  O    8.210950   6.547265   4.998744   2.767209   4.932878
    38  H    8.562423   7.185672   5.855506   3.428959   5.284834
    39  H    9.019845   7.113188   5.286913   3.434434   5.713677
    40  H    3.956843   4.437909   5.822331   7.240837   6.555288
    41  H    4.449038   3.374935   4.758923   6.653816   5.933298
    42  H    4.159754   3.520818   4.213164   5.809972   5.672370
                   16         17         18         19         20
    16  H    0.000000
    17  H    2.342419   0.000000
    18  H    2.903340   1.767776   0.000000
    19  H    3.915018   3.055879   2.414757   0.000000
    20  H    4.037026   2.416704   2.757202   1.773479   0.000000
    21  H    1.780898   2.997425   2.391238   3.290706   4.153581
    22  H    2.946270   2.749316   3.763792   3.065964   2.456681
    23  H    5.151581   4.956395   4.442412   2.161781   3.401988
    24  H    8.071306   8.136254   8.228049   5.973490   6.364957
    25  H    7.225613   7.371894   7.987506   6.116225   5.955888
    26  H    4.982657   5.108652   6.020693   4.672325   4.196093
    27  C    2.486207   4.091666   4.538546   4.145507   4.540150
    28  H    2.918780   3.845434   3.499870   2.638009   3.762122
    29  H    4.899919   5.885014   5.141935   3.946817   5.460401
    30  H    4.687736   5.148911   4.079992   2.900683   4.614198
    31  H    7.369250   7.409766   6.818913   4.569614   5.741638
    32  H    8.541571   8.609091   7.775516   5.659842   6.999455
    33  H    6.644340   6.574549   5.502904   3.644853   5.245396
    34  H    6.624032   6.361073   4.972044   3.643989   5.308696
    35  H    6.908590   7.589847   6.873498   5.097734   6.549886
    36  H    7.104582   8.213927   7.519630   6.095475   7.561092
    37  O   10.326905  10.308706   9.423531   7.303850   8.581025
    38  H   10.872547  10.672220   9.750317   7.627416   8.841539
    39  H   10.984012  11.101516  10.225663   8.131954   9.431167
    40  H    2.393160   3.925004   4.781050   4.650617   4.635583
    41  H    2.609674   4.638034   4.872992   4.791511   5.392754
    42  H    3.577725   4.953207   5.359521   4.496291   4.941860
                   21         22         23         24         25
    21  H    0.000000
    22  H    3.765183   0.000000
    23  H    4.418618   3.799946   0.000000
    24  H    7.889009   5.819678   4.117870   0.000000
    25  H    7.602723   4.695999   4.897947   2.498322   0.000000
    26  H    5.708297   2.371557   4.310905   4.303093   2.503052
    27  C    2.981205   2.601509   4.251093   6.170923   5.294433
    28  H    2.187461   3.001920   2.672348   5.755212   5.680827
    29  H    3.732314   4.986606   2.930689   5.546361   6.245065
    30  H    3.270786   4.823230   2.414112   6.017838   6.778945
    31  H    6.513372   5.948235   2.459265   3.166562   5.088288
    32  H    7.453050   7.407170   3.728732   4.390974   6.547759
    33  H    5.374122   5.984272   2.321676   5.298346   6.780894
    34  H    5.155995   6.440999   3.240328   6.759014   8.055739
    35  H    5.853194   6.266471   3.248471   4.438863   5.937181
    36  H    6.044078   6.927551   4.494915   5.481340   6.695043
    37  O    9.200794   9.120588   5.438493   5.400310   7.792241
    38  H    9.735912   9.597074   5.888341   5.927908   8.329715
    39  H    9.850724   9.827550   6.207423   5.814679   8.240489
    40  H    3.501738   2.395041   5.018947   6.695326   5.423805
    41  H    2.855285   3.635151   4.900669   6.942730   6.216946
    42  H    3.897188   2.959005   4.066455   5.292009   4.433187
                   26         27         28         29         30
    26  H    0.000000
    27  C    3.462589   0.000000
    28  H    4.223607   2.061175   0.000000
    29  H    5.585341   3.681446   2.158751   0.000000
    30  H    5.885305   4.182645   2.170097   1.536274   0.000000
    31  H    5.649563   5.961584   4.568510   3.629063   3.695646
    32  H    7.218928   7.242592   5.684962   4.303576   4.302117
    33  H    6.563533   5.925718   4.007684   3.025188   2.253503
    34  H    7.484686   6.471531   4.418499   3.721979   2.450706
    35  H    6.178975   5.343257   4.006402   2.214205   2.996531
    36  H    6.845498   5.423717   4.403572   2.389259   3.635358
    37  O    8.784972   9.016152   7.476112   6.008764   5.996358
    38  H    9.317824   9.689949   8.084826   6.733948   6.549974
    39  H    9.376452   9.552867   8.092947   6.482716   6.635255
    40  H    3.291881   1.112068   3.009290   4.781692   5.176011
    41  H    4.533850   1.111867   2.398348   3.632190   4.280995
    42  H    3.005065   1.111022   2.401977   3.530629   4.307578
                   31         32         33         34         35
    31  H    0.000000
    32  H    1.576542   0.000000
    33  H    2.294489   2.439679   0.000000
    34  H    3.831512   3.793127   1.557032   0.000000
    35  H    2.198866   2.486303   2.655210   3.972097   0.000000
    36  H    3.725801   3.848039   3.953652   5.003508   1.553757
    37  O    3.208094   1.793451   3.992975   5.068336   4.053138
    38  H    3.809123   2.489904   4.407549   5.308967   4.892346
    39  H    3.885292   2.494489   4.765432   5.845410   4.407080
    40  H    6.834613   8.192232   6.871380   7.374870   6.389338
    41  H    6.470499   7.602782   6.242367   6.686971   5.486483
    42  H    5.406730   6.727467   5.766823   6.563991   4.805676
                   36         37         38         39         40
    36  H    0.000000
    37  O    5.158848   0.000000
    38  H    6.059061   0.960435   0.000000
    39  H    5.290178   0.960427   1.533926   0.000000
    40  H    6.501138   9.959180  10.605719  10.516360   0.000000
    41  H    5.278591   9.364131  10.082496   9.843794   1.807841
    42  H    4.886193   8.454505   9.170224   8.933613   1.806589
                   41         42
    41  H    0.000000
    42  H    1.794191   0.000000
 Stoichiometry    C10H25N2O5(1+)
 Framework group  C1[X(C10H25N2O5)]
 Deg. of freedom   120
 Full point group                 C1      NOp   1
 Largest Abelian subgroup         C1      NOp   1
 Largest concise Abelian subgroup C1      NOp   1
                         Standard orientation:                         
 ---------------------------------------------------------------------
 Center     Atomic      Atomic             Coordinates (Angstroms)
 Number     Number       Type             X           Y           Z
 ---------------------------------------------------------------------
      1          6           0        1.059743    2.700615   -0.082561
      2          6           0        0.959545    1.352650   -0.429835
      3          6           0       -0.319998    0.824691   -0.608131
      4          7           0       -1.438940    1.531172   -0.441308
      5          6           0       -1.328678    2.819263   -0.102636
      6          6           0       -0.100888    3.450016    0.078574
      7          6           0        2.190435    0.496280   -0.584710
      8          7           0        2.381716   -0.428874    0.591711
      9          6           0        3.395694   -1.463362    0.186773
     10          6           0        3.408617   -1.426839   -1.356192
     11          6           0        2.252402   -0.494039   -1.745979
     12          8           0        0.307386   -1.936855    1.112783
     13          8           0       -1.820419   -0.824978    2.336648
     14          8           0       -3.153781   -0.619493   -0.074337
     15          8           0       -1.296095   -2.372057   -1.057649
     16          1           0        4.364628   -1.201837    0.621882
     17          1           0        4.362781   -1.023239   -1.713718
     18          1           0        3.291445   -2.427774   -1.781187
     19          1           0        1.308894   -1.049741   -1.820805
     20          1           0        2.417949    0.022087   -2.696254
     21          1           0        3.066803   -2.421159    0.599466
     22          1           0        3.077911    1.143607   -0.612525
     23          1           0       -0.458749   -0.217008   -0.895987
     24          1           0       -2.261579    3.368265    0.027307
     25          1           0       -0.059249    4.504449    0.344228
     26          1           0        2.036713    3.166999    0.055361
     27          6           0        2.771127    0.281404    1.822704
     28          1           0        1.462985   -0.948710    0.810761
     29          1           0       -0.400836   -1.582924    1.696282
     30          1           0       -0.190322   -2.273228    0.340072
     31          1           0       -2.797160    0.265251   -0.306710
     32          1           0       -4.111044   -0.604375   -0.252452
     33          1           0       -2.092964   -1.863053   -0.795703
     34          1           0       -1.607981   -3.198951   -1.431718
     35          1           0       -2.461292   -0.778023    1.599539
     36          1           0       -2.296509   -1.175833    3.092440
     37          8           0       -5.874511   -0.599415   -0.578983
     38          1           0       -6.301317   -0.717474   -1.431236
     39          1           0       -6.584029   -0.520900    0.063543
     40          1           0        3.717539    0.846720    1.676352
     41          1           0        2.912623   -0.443844    2.653513
     42          1           0        1.974694    0.992918    2.128991
 ---------------------------------------------------------------------
 Rotational constants (GHZ):           0.5006594           0.2552664           0.2119038
 Standard basis: Aug-CC-pVDZ (5D, 7F)
 There are   650 symmetry adapted cartesian basis functions of A   symmetry.
 There are   616 symmetry adapted basis functions of A   symmetry.
   616 basis functions,  1006 primitive gaussians,   650 cartesian basis functions
    69 alpha electrons       69 beta electrons
       nuclear repulsion energy      1391.4679080791 Hartrees.
 NAtoms=   42 NActive=   42 NUniq=   42 SFac= 1.00D+00 NAtFMM=   60 NAOKFM=F Big=F
 Integral buffers will be    131072 words long.
 Raffenetti 2 integral format.
 Two-electron integral symmetry is turned on.
 Nuclear repulsion after empirical dispersion term =     1391.4338042256 Hartrees.
 One-electron integrals computed using PRISM.
 NBasis=   616 RedAO= T EigKep=  1.92D-06  NBF=   616
 NBsUse=   616 1.00D-06 EigRej= -1.00D+00 NBFU=   616
 ExpMin= 2.97D-02 ExpMax= 1.17D+04 ExpMxC= 4.01D+02 IAcc=3 IRadAn=         5 AccDes= 0.00D+00
 Harris functional with IExCor= 4639 and IRadAn=       5 diagonalized for initial guess.
 HarFok:  IExCor= 4639 AccDes= 0.00D+00 IRadAn=         5 IDoV= 1 UseB2=F ITyADJ=14
 ICtDFT=  3500011 ScaDFX=  1.000000  1.000000  1.000000  1.000000
 FoFCou: FMM=F IPFlag=           0 FMFlag=      100000 FMFlg1=           0
         NFxFlg=           0 DoJE=T BraDBF=F KetDBF=T FulRan=T
         wScrn=  0.000000 ICntrl=       500 IOpCl=  0 I1Cent=   200000004 NGrid=           0
         NMat0=    1 NMatS0=      1 NMatT0=    0 NMatD0=    1 NMtDS0=    0 NMtDT0=    0
 Petite list used in FoFCou.
 Requested convergence on RMS density matrix=1.00D-08 within 128 cycles.
 Requested convergence on MAX density matrix=1.00D-06.
 Requested convergence on             energy=1.00D-06.
 No special actions if energy rises.
 SCF Done:  E(RwB97XD) =  -881.478274503     A.U. after   15 cycles
            NFock= 15  Conv=0.26D-08     -V/T= 2.0063

 **********************************************************************

            Population analysis using the SCF density.

 **********************************************************************

 Orbital symmetries:
       Occupied  (A) (A) (A) (A) (A) (A) (A) (A) (A) (A) (A) (A)
                 (A) (A) (A) (A) (A) (A) (A) (A) (A) (A) (A) (A)
                 (A) (A) (A) (A) (A) (A) (A) (A) (A) (A) (A) (A)
                 (A) (A) (A) (A) (A) (A) (A) (A) (A) (A) (A) (A)
                 (A) (A) (A) (A) (A) (A) (A) (A) (A) (A) (A) (A)
                 (A) (A) (A) (A) (A) (A) (A) (A) (A)
       Virtual   (A) (A) (A) (A) (A) (A) (A) (A) (A) (A) (A) (A)
                 (A) (A) (A) (A) (A) (A) (A) (A) (A) (A) (A) (A)
                 (A) (A) (A) (A) (A) (A) (A) (A) (A) (A) (A) (A)
                 (A) (A) (A) (A) (A) (A) (A) (A) (A) (A) (A) (A)
                 (A) (A) (A) (A) (A) (A) (A) (A) (A) (A) (A) (A)
                 (A) (A) (A) (A) (A) (A) (A) (A) (A) (A) (A) (A)
                 (A) (A) (A) (A) (A) (A) (A) (A) (A) (A) (A) (A)
                 (A) (A) (A) (A) (A) (A) (A) (A) (A) (A) (A) (A)
                 (A) (A) (A) (A) (A) (A) (A) (A) (A) (A) (A) (A)
                 (A) (A) (A) (A) (A) (A) (A) (A) (A) (A) (A) (A)
                 (A) (A) (A) (A) (A) (A) (A) (A) (A) (A) (A) (A)
                 (A) (A) (A) (A) (A) (A) (A) (A) (A) (A) (A) (A)
                 (A) (A) (A) (A) (A) (A) (A) (A) (A) (A) (A) (A)
                 (A) (A) (A) (A) (A) (A) (A) (A) (A) (A) (A) (A)
                 (A) (A) (A) (A) (A) (A) (A) (A) (A) (A) (A) (A)
                 (A) (A) (A) (A) (A) (A) (A) (A) (A) (A) (A) (A)
                 (A) (A) (A) (A) (A) (A) (A) (A) (A) (A) (A) (A)
                 (A) (A) (A) (A) (A) (A) (A) (A) (A) (A) (A) (A)
                 (A) (A) (A) (A) (A) (A) (A) (A) (A) (A) (A) (A)
                 (A) (A) (A) (A) (A) (A) (A) (A) (A) (A) (A) (A)
                 (A) (A) (A) (A) (A) (A) (A) (A) (A) (A) (A) (A)
                 (A) (A) (A) (A) (A) (A) (A) (A) (A) (A) (A) (A)
                 (A) (A) (A) (A) (A) (A) (A) (A) (A) (A) (A) (A)
                 (A) (A) (A) (A) (A) (A) (A) (A) (A) (A) (A) (A)
                 (A) (A) (A) (A) (A) (A) (A) (A) (A) (A) (A) (A)
                 (A) (A) (A) (A) (A) (A) (A) (A) (A) (A) (A) (A)
                 (A) (A) (A) (A) (A) (A) (A) (A) (A) (A) (A) (A)
                 (A) (A) (A) (A) (A) (A) (A) (A) (A) (A) (A) (A)
                 (A) (A) (A) (A) (A) (A) (A) (A) (A) (A) (A) (A)
                 (A) (A) (A) (A) (A) (A) (A) (A) (A) (A) (A) (A)
                 (A) (A) (A) (A) (A) (A) (A) (A) (A) (A) (A) (A)
                 (A) (A) (A) (A) (A) (A) (A) (A) (A) (A) (A) (A)
                 (A) (A) (A) (A) (A) (A) (A) (A) (A) (A) (A) (A)
                 (A) (A) (A) (A) (A) (A) (A) (A) (A) (A) (A) (A)
                 (A) (A) (A) (A) (A) (A) (A) (A) (A) (A) (A) (A)
                 (A) (A) (A) (A) (A) (A) (A) (A) (A) (A) (A) (A)
                 (A) (A) (A) (A) (A) (A) (A) (A) (A) (A) (A) (A)
                 (A) (A) (A) (A) (A) (A) (A) (A) (A) (A) (A) (A)
                 (A) (A) (A) (A) (A) (A) (A) (A) (A) (A) (A) (A)
                 (A) (A) (A) (A) (A) (A) (A) (A) (A) (A) (A) (A)
                 (A) (A) (A) (A) (A) (A) (A) (A) (A) (A) (A) (A)
                 (A) (A) (A) (A) (A) (A) (A) (A) (A) (A) (A) (A)
                 (A) (A) (A) (A) (A) (A) (A) (A) (A) (A) (A) (A)
                 (A) (A) (A) (A) (A) (A) (A) (A) (A) (A) (A) (A)
                 (A) (A) (A) (A) (A) (A) (A) (A) (A) (A) (A) (A)
                 (A) (A) (A) (A) (A) (A) (A)
 The electronic state is 1-A.
 Alpha  occ. eigenvalues --  -19.39442 -19.37754 -19.37119 -19.36926 -19.36897
 Alpha  occ. eigenvalues --  -14.66610 -14.57636 -10.48461 -10.47018 -10.46818
 Alpha  occ. eigenvalues --  -10.45548 -10.45487 -10.44308 -10.44232 -10.42755
 Alpha  occ. eigenvalues --  -10.42707 -10.42608  -1.23862  -1.23745  -1.22668
 Alpha  occ. eigenvalues --   -1.21619  -1.21092  -1.20006  -1.17351  -1.05356
 Alpha  occ. eigenvalues --   -1.03282  -1.00326  -0.95823  -0.92599  -0.87407
 Alpha  occ. eigenvalues --   -0.84989  -0.83498  -0.82178  -0.76808  -0.74427
 Alpha  occ. eigenvalues --   -0.74251  -0.73670  -0.72967  -0.72506  -0.71870
 Alpha  occ. eigenvalues --   -0.71606  -0.70572  -0.69283  -0.67137  -0.65490
 Alpha  occ. eigenvalues --   -0.64451  -0.64061  -0.62841  -0.61939  -0.61484
 Alpha  occ. eigenvalues --   -0.60939  -0.60570  -0.59919  -0.59122  -0.58367
 Alpha  occ. eigenvalues --   -0.57712  -0.57361  -0.56457  -0.55549  -0.55265
 Alpha  occ. eigenvalues --   -0.54251  -0.52417  -0.51350  -0.50859  -0.50576
 Alpha  occ. eigenvalues --   -0.50162  -0.49016  -0.47076  -0.45888
 Alpha virt. eigenvalues --   -0.08859  -0.07742  -0.05892  -0.05388  -0.04434
 Alpha virt. eigenvalues --   -0.04219  -0.03743  -0.02996  -0.02734  -0.02311
 Alpha virt. eigenvalues --   -0.01825  -0.01615  -0.01063  -0.00797  -0.00489
 Alpha virt. eigenvalues --   -0.00013   0.00201   0.01044   0.01224   0.01520
 Alpha virt. eigenvalues --    0.01693   0.02034   0.02154   0.02942   0.03109
 Alpha virt. eigenvalues --    0.03376   0.03879   0.04239   0.04607   0.04797
 Alpha virt. eigenvalues --    0.04851   0.05232   0.05713   0.05897   0.06043
 Alpha virt. eigenvalues --    0.06281   0.06530   0.06773   0.06888   0.07206
 Alpha virt. eigenvalues --    0.07362   0.07515   0.07978   0.08072   0.08260
 Alpha virt. eigenvalues --    0.08639   0.08873   0.09123   0.09378   0.09823
 Alpha virt. eigenvalues --    0.10494   0.10637   0.10910   0.11052   0.11467
 Alpha virt. eigenvalues --    0.11681   0.11895   0.12266   0.12430   0.12570
 Alpha virt. eigenvalues --    0.12901   0.13393   0.13570   0.13816   0.14242
 Alpha virt. eigenvalues --    0.14730   0.14920   0.15027   0.15299   0.15647
 Alpha virt. eigenvalues --    0.15945   0.16095   0.16611   0.17011   0.17412
 Alpha virt. eigenvalues --    0.17627   0.17759   0.18302   0.18574   0.18637
 Alpha virt. eigenvalues --    0.18941   0.19601   0.19769   0.19970   0.20304
 Alpha virt. eigenvalues --    0.20342   0.20733   0.20828   0.21002   0.21168
 Alpha virt. eigenvalues --    0.21550   0.21901   0.22007   0.22629   0.22782
 Alpha virt. eigenvalues --    0.23000   0.23185   0.23408   0.23985   0.24142
 Alpha virt. eigenvalues --    0.24737   0.25158   0.25315   0.25446   0.25718
 Alpha virt. eigenvalues --    0.26356   0.26495   0.26616   0.26880   0.27305
 Alpha virt. eigenvalues --    0.27877   0.27963   0.28145   0.28441   0.28650
 Alpha virt. eigenvalues --    0.29424   0.29708   0.30173   0.30393   0.30626
 Alpha virt. eigenvalues --    0.30764   0.31208   0.31875   0.32056   0.32225
 Alpha virt. eigenvalues --    0.32474   0.33259   0.33507   0.34323   0.34619
 Alpha virt. eigenvalues --    0.34775   0.35204   0.35662   0.35987   0.36454
 Alpha virt. eigenvalues --    0.36662   0.37390   0.37600   0.38313   0.38651
 Alpha virt. eigenvalues --    0.38956   0.39465   0.40153   0.40422   0.40908
 Alpha virt. eigenvalues --    0.41416   0.41705   0.42057   0.42190   0.42393
 Alpha virt. eigenvalues --    0.43080   0.43347   0.43482   0.43915   0.44476
 Alpha virt. eigenvalues --    0.44772   0.45048   0.45364   0.45443   0.45826
 Alpha virt. eigenvalues --    0.46111   0.46614   0.47243   0.47533   0.48157
 Alpha virt. eigenvalues --    0.48357   0.48763   0.48996   0.49703   0.49847
 Alpha virt. eigenvalues --    0.50003   0.50198   0.50845   0.50992   0.51248
 Alpha virt. eigenvalues --    0.51842   0.52209   0.52718   0.52799   0.52908
 Alpha virt. eigenvalues --    0.53453   0.53669   0.53946   0.54265   0.54729
 Alpha virt. eigenvalues --    0.55415   0.55550   0.55965   0.56326   0.56682
 Alpha virt. eigenvalues --    0.57054   0.57383   0.57669   0.57881   0.58683
 Alpha virt. eigenvalues --    0.59141   0.59427   0.60046   0.60302   0.60615
 Alpha virt. eigenvalues --    0.60814   0.61047   0.61330   0.61706   0.62117
 Alpha virt. eigenvalues --    0.62292   0.63024   0.63804   0.64210   0.64879
 Alpha virt. eigenvalues --    0.65217   0.65899   0.66204   0.66687   0.67089
 Alpha virt. eigenvalues --    0.67405   0.68081   0.68364   0.68725   0.68953
 Alpha virt. eigenvalues --    0.69361   0.69782   0.70487   0.70570   0.70939
 Alpha virt. eigenvalues --    0.71195   0.71503   0.72172   0.72895   0.73025
 Alpha virt. eigenvalues --    0.73342   0.73838   0.74203   0.75000   0.75362
 Alpha virt. eigenvalues --    0.76152   0.76634   0.77096   0.77918   0.78158
 Alpha virt. eigenvalues --    0.78781   0.79016   0.79150   0.79857   0.80485
 Alpha virt. eigenvalues --    0.81071   0.81349   0.82153   0.82855   0.83322
 Alpha virt. eigenvalues --    0.83781   0.84318   0.84529   0.85138   0.85454
 Alpha virt. eigenvalues --    0.86878   0.87055   0.87934   0.88432   0.88847
 Alpha virt. eigenvalues --    0.89879   0.90338   0.91632   0.91757   0.92326
 Alpha virt. eigenvalues --    0.92729   0.93168   0.93644   0.94281   0.94880
 Alpha virt. eigenvalues --    0.95725   0.96008   0.97140   0.97842   0.98424
 Alpha virt. eigenvalues --    0.98904   0.99358   0.99879   1.00740   1.01691
 Alpha virt. eigenvalues --    1.02182   1.02610   1.02990   1.04302   1.04796
 Alpha virt. eigenvalues --    1.05310   1.06596   1.07305   1.07897   1.08330
 Alpha virt. eigenvalues --    1.08945   1.09649   1.10995   1.12308   1.12671
 Alpha virt. eigenvalues --    1.13254   1.13644   1.14161   1.14655   1.15112
 Alpha virt. eigenvalues --    1.15640   1.16557   1.17806   1.18124   1.18540
 Alpha virt. eigenvalues --    1.19726   1.19833   1.20742   1.21387   1.22030
 Alpha virt. eigenvalues --    1.22598   1.23899   1.24498   1.25094   1.26084
 Alpha virt. eigenvalues --    1.26210   1.27449   1.29486   1.30643   1.30988
 Alpha virt. eigenvalues --    1.32759   1.33341   1.33561   1.35323   1.36195
 Alpha virt. eigenvalues --    1.36407   1.36714   1.38043   1.38189   1.39362
 Alpha virt. eigenvalues --    1.39902   1.40608   1.41816   1.42960   1.43525
 Alpha virt. eigenvalues --    1.43565   1.44014   1.45368   1.46123   1.46604
 Alpha virt. eigenvalues --    1.47018   1.48394   1.49012   1.49661   1.50528
 Alpha virt. eigenvalues --    1.51952   1.52984   1.53485   1.54490   1.55014
 Alpha virt. eigenvalues --    1.56378   1.56759   1.57307   1.57981   1.58480
 Alpha virt. eigenvalues --    1.60097   1.60602   1.61100   1.61387   1.63691
 Alpha virt. eigenvalues --    1.63897   1.65080   1.65730   1.66618   1.67136
 Alpha virt. eigenvalues --    1.67484   1.68396   1.69778   1.70496   1.71115
 Alpha virt. eigenvalues --    1.71905   1.72772   1.73369   1.74807   1.75210
 Alpha virt. eigenvalues --    1.75618   1.76110   1.76602   1.77282   1.77789
 Alpha virt. eigenvalues --    1.78685   1.79455   1.79996   1.80839   1.81580
 Alpha virt. eigenvalues --    1.81764   1.82296   1.83154   1.83953   1.84993
 Alpha virt. eigenvalues --    1.85547   1.86065   1.86640   1.86931   1.88332
 Alpha virt. eigenvalues --    1.88449   1.89355   1.89516   1.90817   1.91294
 Alpha virt. eigenvalues --    1.91648   1.92554   1.93582   1.94529   1.95472
 Alpha virt. eigenvalues --    1.95633   1.96594   1.96783   1.98070   1.98934
 Alpha virt. eigenvalues --    1.99902   2.00524   2.00988   2.01507   2.02812
 Alpha virt. eigenvalues --    2.03212   2.04794   2.05083   2.05778   2.06770
 Alpha virt. eigenvalues --    2.07727   2.09077   2.09359   2.10474   2.10840
 Alpha virt. eigenvalues --    2.12283   2.13442   2.13810   2.15386   2.15774
 Alpha virt. eigenvalues --    2.16471   2.18485   2.19497   2.19676   2.19966
 Alpha virt. eigenvalues --    2.20632   2.21340   2.22303   2.23305   2.24581
 Alpha virt. eigenvalues --    2.24995   2.25661   2.27128   2.28606   2.29393
 Alpha virt. eigenvalues --    2.29665   2.30212   2.31461   2.32650   2.33323
 Alpha virt. eigenvalues --    2.34214   2.34973   2.35700   2.37593   2.38092
 Alpha virt. eigenvalues --    2.40898   2.41999   2.42682   2.44552   2.45229
 Alpha virt. eigenvalues --    2.46068   2.47054   2.48053   2.50347   2.52254
 Alpha virt. eigenvalues --    2.52682   2.53204   2.54270   2.54925   2.56342
 Alpha virt. eigenvalues --    2.57077   2.57623   2.58678   2.58949   2.60000
 Alpha virt. eigenvalues --    2.60452   2.61215   2.62530   2.63621   2.64895
 Alpha virt. eigenvalues --    2.66127   2.67852   2.68029   2.68850   2.70625
 Alpha virt. eigenvalues --    2.70851   2.71723   2.74068   2.74652   2.75580
 Alpha virt. eigenvalues --    2.76342   2.76510   2.78488   2.80065   2.81180
 Alpha virt. eigenvalues --    2.81801   2.82877   2.84812   2.85143   2.86932
 Alpha virt. eigenvalues --    2.87110   2.88305   2.91189   2.92674   2.94536
 Alpha virt. eigenvalues --    2.95282   2.97714   3.00204   3.05014   3.10470
 Alpha virt. eigenvalues --    3.13343   3.17899   3.20344   3.26245   3.28662
 Alpha virt. eigenvalues --    3.29402   3.34439   3.36489   3.37582   3.38931
 Alpha virt. eigenvalues --    3.42028   3.42739   3.45084   3.45887   3.47116
 Alpha virt. eigenvalues --    3.49549   3.51162   3.53091   3.55478   3.58437
 Alpha virt. eigenvalues --    3.59468   3.66737   3.68946   3.70689   3.72602
 Alpha virt. eigenvalues --    3.84378   3.86729   3.88987   3.92267   3.93941
 Alpha virt. eigenvalues --    3.97328   4.03853   4.05280   4.11800   4.13905
 Alpha virt. eigenvalues --    4.23760   4.36474
          Condensed to atoms (all electrons):
               1          2          3          4          5          6
     1  C   26.305284 -13.007335  -0.880232  -0.587204   1.664227  -4.464940
     2  C  -13.007335  27.162281  -5.378852   0.248720  -1.488160   1.128674
     3  C   -0.880232  -5.378852  18.366103  -0.786247  -1.712209  -0.088804
     4  N   -0.587204   0.248720  -0.786247   7.759103   0.340932   0.235870
     5  C    1.664227  -1.488160  -1.712209   0.340932  11.399328  -3.360494
     6  C   -4.464940   1.128674  -0.088804   0.235870  -3.360494  12.413923
     7  C   -0.782966  -8.714149  -2.064017   0.527124  -0.645579   0.040968
     8  N   -0.593572   0.985746  -0.809688   0.020123   0.099157   0.053703
     9  C   -0.078444   0.015504  -0.067029   0.008758  -0.041210   0.050192
    10  C   -0.041462   0.135670  -0.021095   0.007131  -0.012487  -0.026382
    11  C   -0.494742   0.762513  -0.233041  -0.100366  -0.088584  -0.115915
    12  O    0.068997  -0.148341  -0.097837  -0.003227  -0.000260  -0.010245
    13  O   -0.031937   0.099516  -0.131693   0.027369   0.008762  -0.001160
    14  O    0.013574  -0.072208  -0.078317  -0.061274   0.013721   0.014498
    15  O    0.001758   0.015970  -0.001989  -0.006256  -0.002478   0.001015
    16  H    0.007607  -0.038077  -0.020233   0.000532  -0.004037   0.003520
    17  H   -0.008089   0.039157   0.019637  -0.000163   0.003495  -0.008141
    18  H    0.013651  -0.094103  -0.021889   0.001143  -0.003099   0.003092
    19  H    0.027728   0.285552  -0.076004  -0.000801   0.023963  -0.069905
    20  H   -0.050146   0.082201   0.170375  -0.010923   0.012106  -0.008154
    21  H    0.008882   0.029462   0.045577  -0.000600   0.000106   0.000457
    22  H   -0.070611   1.841601   0.187641  -0.025035   0.002188   0.008631
    23  H   -0.164763  -0.483268  -1.312759  -0.050380  -0.197127   0.228105
    24  H    0.304894  -0.296911   0.438740  -0.261945  -0.666288   0.168653
    25  H    0.627361   0.004571  -0.016554  -0.075687   0.480345  -1.343298
    26  H   -2.883028   1.563464  -0.021383  -0.009310  -0.270104   0.756850
    27  C   -0.238536   0.333253  -0.022246  -0.000464  -0.025299   0.094054
    28  H    0.021746  -0.204263  -0.295970   0.008917   0.009725  -0.053092
    29  H   -0.025579   0.008966   0.054836  -0.007235  -0.013997   0.014310
    30  H    0.014326   0.004657  -0.003688   0.009082   0.010521  -0.002194
    31  H    0.020551   0.082513  -0.269078   0.187869   0.204346  -0.156799
    32  H    0.003664  -0.022207   0.072448  -0.033496  -0.017658   0.012950
    33  H    0.002992   0.015359  -0.057699  -0.003553   0.006544  -0.016050
    34  H   -0.003000   0.005852   0.022170   0.001673  -0.000735   0.001522
    35  H   -0.041697   0.071030  -0.054757   0.020721  -0.020720   0.018891
    36  H    0.005835  -0.017884   0.027089  -0.004912   0.002821  -0.002743
    37  O   -0.000887   0.000999   0.003530  -0.000166  -0.001741   0.001774
    38  H   -0.000322   0.000378   0.000301  -0.000092  -0.000372   0.000216
    39  H    0.000002   0.000271  -0.000866   0.000369   0.000118  -0.000059
    40  H    0.092556   0.020482   0.040185  -0.003005   0.012317  -0.015527
    41  H   -0.041104   0.060898   0.052386  -0.001989  -0.001474   0.015361
    42  H   -0.015775   0.081742  -0.081635   0.006885  -0.011786  -0.029633
               7          8          9         10         11         12
     1  C   -0.782966  -0.593572  -0.078444  -0.041462  -0.494742   0.068997
     2  C   -8.714149   0.985746   0.015504   0.135670   0.762513  -0.148341
     3  C   -2.064017  -0.809688  -0.067029  -0.021095  -0.233041  -0.097837
     4  N    0.527124   0.020123   0.008758   0.007131  -0.100366  -0.003227
     5  C   -0.645579   0.099157  -0.041210  -0.012487  -0.088584  -0.000260
     6  C    0.040968   0.053703   0.050192  -0.026382  -0.115915  -0.010245
     7  C   25.905006  -1.719214  -0.372243  -0.138655  -1.923615   0.281787
     8  N   -1.719214  10.992127  -0.229125   0.119704  -1.011507  -0.424163
     9  C   -0.372243  -0.229125   5.898433  -0.332679   0.421793  -0.028368
    10  C   -0.138655   0.119704  -0.332679   6.305661  -0.510806  -0.001515
    11  C   -1.923615  -1.011507   0.421793  -0.510806   8.411014  -0.058187
    12  O    0.281787  -0.424163  -0.028368  -0.001515  -0.058187   8.722727
    13  O   -0.043022   0.042544   0.000181   0.000719   0.008234  -0.133597
    14  O    0.011077  -0.009211  -0.000531  -0.000161  -0.012356   0.013787
    15  O   -0.066287   0.011710   0.009252   0.010214  -0.012426  -0.134030
    16  H    0.049577   0.050799  -0.072485   0.045564   0.133300  -0.016753
    17  H   -0.133641  -0.003507   0.165390  -0.152808   0.065631  -0.003030
    18  H    0.271811  -0.150090   0.267207  -0.445758   0.114446   0.013433
    19  H   -0.714577  -0.167287   0.093336   0.016948   0.037557   0.012297
    20  H    0.173729   0.361226  -0.120735   0.165718  -0.853570  -0.002296
    21  H    0.025967  -0.565611  -0.323844   0.075453   0.090208   0.058027
    22  H   -4.325696  -0.216616   0.065974  -0.155758   0.571281   0.012534
    23  H   -0.640454   0.095912   0.002719   0.053704   0.159086  -0.044657
    24  H   -0.020983   0.001982  -0.000964   0.000143   0.003227  -0.000787
    25  H    0.015703  -0.006028  -0.000136  -0.000153   0.009215  -0.000003
    26  H    0.018645  -0.017393   0.006629   0.004694  -0.047201   0.000564
    27  C   -0.344058   0.882353  -0.075555  -0.017684  -0.180562  -0.096329
    28  H    0.271859   0.077493  -0.374017   0.095285  -0.123312   0.201214
    29  H   -0.038112   0.007301   0.041146  -0.008324   0.022860   0.243085
    30  H   -0.004321   0.077299  -0.006061   0.001983  -0.007149   0.175992
    31  H    0.026561   0.011493  -0.003939   0.001678  -0.002776  -0.009699
    32  H    0.001366  -0.002805   0.000843  -0.001021  -0.000741   0.006149
    33  H   -0.015371   0.004738  -0.006507   0.005312   0.016269   0.011039
    34  H    0.007087   0.008118   0.001488  -0.000798  -0.001839  -0.001153
    35  H   -0.017499   0.009387   0.001964  -0.000227   0.007662  -0.011690
    36  H    0.003534  -0.000748  -0.000956   0.000347  -0.001409   0.009699
    37  O    0.000160  -0.000030  -0.000006  -0.000000   0.000040   0.000057
    38  H   -0.000117   0.000018   0.000007  -0.000001   0.000086  -0.000028
    39  H    0.000058  -0.000018  -0.000011   0.000008  -0.000013   0.000015
    40  H   -0.090612  -0.314231   0.240140  -0.096139   0.058842  -0.022373
    41  H   -0.000111  -0.161844  -0.014062   0.044027  -0.084271   0.022583
    42  H    0.029336   0.046006  -0.128336   0.007252   0.112313   0.007624
              13         14         15         16         17         18
     1  C   -0.031937   0.013574   0.001758   0.007607  -0.008089   0.013651
     2  C    0.099516  -0.072208   0.015970  -0.038077   0.039157  -0.094103
     3  C   -0.131693  -0.078317  -0.001989  -0.020233   0.019637  -0.021889
     4  N    0.027369  -0.061274  -0.006256   0.000532  -0.000163   0.001143
     5  C    0.008762   0.013721  -0.002478  -0.004037   0.003495  -0.003099
     6  C   -0.001160   0.014498   0.001015   0.003520  -0.008141   0.003092
     7  C   -0.043022   0.011077  -0.066287   0.049577  -0.133641   0.271811
     8  N    0.042544  -0.009211   0.011710   0.050799  -0.003507  -0.150090
     9  C    0.000181  -0.000531   0.009252  -0.072485   0.165390   0.267207
    10  C    0.000719  -0.000161   0.010214   0.045564  -0.152808  -0.445758
    11  C    0.008234  -0.012356  -0.012426   0.133300   0.065631   0.114446
    12  O   -0.133597   0.013787  -0.134030  -0.016753  -0.003030   0.013433
    13  O    7.829793  -0.040275  -0.001488  -0.000834   0.000255  -0.000338
    14  O   -0.040275   8.433134  -0.063278   0.000009  -0.000111   0.000518
    15  O   -0.001488  -0.063278   7.966053  -0.000382   0.000992  -0.000511
    16  H   -0.000834   0.000009  -0.000382   2.077991  -0.350885   0.145925
    17  H    0.000255  -0.000111   0.000992  -0.350885   2.107559  -0.559089
    18  H   -0.000338   0.000518  -0.000511   0.145925  -0.559089   2.093231
    19  H    0.004624  -0.020388   0.030990  -0.030070   0.182506  -0.203312
    20  H   -0.000082   0.000359   0.000211   0.015360  -0.222661   0.059378
    21  H    0.001271  -0.000215   0.004751  -0.602217   0.169422  -0.235786
    22  H   -0.001580   0.000505  -0.000779  -0.018904   0.033170   0.003217
    23  H    0.001154   0.161938   0.001777  -0.011485   0.006906  -0.010361
    24  H   -0.002083   0.008671   0.000238  -0.000088   0.000051  -0.000009
    25  H    0.000128   0.000123   0.000065  -0.000171   0.000106  -0.000022
    26  H   -0.000767   0.000202  -0.000138  -0.001210   0.000903  -0.000430
    27  C    0.001385   0.000113   0.000579   0.082287  -0.006909  -0.001111
    28  H   -0.005290  -0.001572  -0.028063  -0.102482  -0.041336   0.041620
    29  H    0.016848  -0.003242   0.017861   0.000922   0.000438  -0.001561
    30  H    0.005063   0.007320   0.033481   0.000441   0.000304  -0.000886
    31  H    0.009213   0.266899  -0.002160  -0.000210   0.000280  -0.000419
    32  H   -0.000637   0.244571   0.008416   0.000101  -0.000086   0.000031
    33  H    0.005253  -0.044630   0.319155  -0.000065  -0.000397   0.001397
    34  H    0.000650   0.004249   0.309462  -0.000018   0.000193  -0.000807
    35  H    0.290291   0.021085   0.000305  -0.000411   0.000191  -0.000320
    36  H    0.344417  -0.000801   0.000534   0.000030  -0.000007   0.000034
    37  O    0.000148  -0.052287  -0.000350  -0.000000  -0.000000   0.000002
    38  H   -0.000023   0.009458   0.000220  -0.000000   0.000000  -0.000001
    39  H    0.000145   0.007002  -0.000267  -0.000000   0.000000   0.000001
    40  H    0.000427  -0.000036   0.000059   0.033984   0.015441  -0.010434
    41  H    0.001673   0.000440   0.000238  -0.033912   0.003957  -0.000239
    42  H   -0.003252  -0.000926   0.000262   0.018518  -0.007084   0.004707
              19         20         21         22         23         24
     1  C    0.027728  -0.050146   0.008882  -0.070611  -0.164763   0.304894
     2  C    0.285552   0.082201   0.029462   1.841601  -0.483268  -0.296911
     3  C   -0.076004   0.170375   0.045577   0.187641  -1.312759   0.438740
     4  N   -0.000801  -0.010923  -0.000600  -0.025035  -0.050380  -0.261945
     5  C    0.023963   0.012106   0.000106   0.002188  -0.197127  -0.666288
     6  C   -0.069905  -0.008154   0.000457   0.008631   0.228105   0.168653
     7  C   -0.714577   0.173729   0.025967  -4.325696  -0.640454  -0.020983
     8  N   -0.167287   0.361226  -0.565611  -0.216616   0.095912   0.001982
     9  C    0.093336  -0.120735  -0.323844   0.065974   0.002719  -0.000964
    10  C    0.016948   0.165718   0.075453  -0.155758   0.053704   0.000143
    11  C    0.037557  -0.853570   0.090208   0.571281   0.159086   0.003227
    12  O    0.012297  -0.002296   0.058027   0.012534  -0.044657  -0.000787
    13  O    0.004624  -0.000082   0.001271  -0.001580   0.001154  -0.002083
    14  O   -0.020388   0.000359  -0.000215   0.000505   0.161938   0.008671
    15  O    0.030990   0.000211   0.004751  -0.000779   0.001777   0.000238
    16  H   -0.030070   0.015360  -0.602217  -0.018904  -0.011485  -0.000088
    17  H    0.182506  -0.222661   0.169422   0.033170   0.006906   0.000051
    18  H   -0.203312   0.059378  -0.235786   0.003217  -0.010361  -0.000009
    19  H    2.597823  -0.579026   0.055405   0.185775  -0.229414  -0.003940
    20  H   -0.579026   2.359307  -0.027775  -0.196511   0.007395   0.001071
    21  H    0.055405  -0.027775   2.526581   0.034581   0.031544   0.000075
    22  H    0.185775  -0.196511   0.034581   4.134138   0.015334   0.001370
    23  H   -0.229414   0.007395   0.031544   0.015334   4.967193   0.062758
    24  H   -0.003940   0.001071   0.000075   0.001370   0.062758   2.085946
    25  H    0.004073  -0.001875   0.000048  -0.002856  -0.031462  -0.120470
    26  H   -0.004391   0.005944   0.000342  -0.124423  -0.021369  -0.004739
    27  C   -0.066153   0.060278  -0.145002  -0.050063   0.012576   0.001804
    28  H    0.044289   0.035272   0.169555   0.011723  -0.107552  -0.003406
    29  H    0.012220  -0.003673   0.000063   0.000902  -0.000449  -0.000334
    30  H   -0.003117   0.003966  -0.000962   0.002385  -0.027761   0.000173
    31  H    0.016551  -0.000073  -0.000967  -0.004056  -0.181465  -0.084269
    32  H   -0.001490   0.000048   0.000086   0.000566   0.015374   0.008679
    33  H    0.013536   0.000511  -0.001989  -0.000392  -0.033545  -0.000740
    34  H   -0.003833   0.000551   0.000332  -0.000168  -0.008244  -0.000151
    35  H    0.002187   0.000032   0.000710  -0.000626  -0.018046  -0.001362
    36  H   -0.000701   0.000013  -0.000287   0.000034   0.011552   0.000088
    37  O   -0.000101   0.000011  -0.000008   0.000014  -0.002917  -0.000223
    38  H    0.000061   0.000004   0.000002  -0.000005   0.000863  -0.000088
    39  H    0.000004  -0.000003  -0.000005  -0.000000  -0.000937   0.000155
    40  H    0.002700   0.004330   0.021888   0.012525   0.008477   0.000184
    41  H   -0.013443   0.000385  -0.014805   0.006630   0.014052   0.000516
    42  H    0.005294   0.002138  -0.014781   0.022500  -0.013322  -0.002536
              25         26         27         28         29         30
     1  C    0.627361  -2.883028  -0.238536   0.021746  -0.025579   0.014326
     2  C    0.004571   1.563464   0.333253  -0.204263   0.008966   0.004657
     3  C   -0.016554  -0.021383  -0.022246  -0.295970   0.054836  -0.003688
     4  N   -0.075687  -0.009310  -0.000464   0.008917  -0.007235   0.009082
     5  C    0.480345  -0.270104  -0.025299   0.009725  -0.013997   0.010521
     6  C   -1.343298   0.756850   0.094054  -0.053092   0.014310  -0.002194
     7  C    0.015703   0.018645  -0.344058   0.271859  -0.038112  -0.004321
     8  N   -0.006028  -0.017393   0.882353   0.077493   0.007301   0.077299
     9  C   -0.000136   0.006629  -0.075555  -0.374017   0.041146  -0.006061
    10  C   -0.000153   0.004694  -0.017684   0.095285  -0.008324   0.001983
    11  C    0.009215  -0.047201  -0.180562  -0.123312   0.022860  -0.007149
    12  O   -0.000003   0.000564  -0.096329   0.201214   0.243085   0.175992
    13  O    0.000128  -0.000767   0.001385  -0.005290   0.016848   0.005063
    14  O    0.000123   0.000202   0.000113  -0.001572  -0.003242   0.007320
    15  O    0.000065  -0.000138   0.000579  -0.028063   0.017861   0.033481
    16  H   -0.000171  -0.001210   0.082287  -0.102482   0.000922   0.000441
    17  H    0.000106   0.000903  -0.006909  -0.041336   0.000438   0.000304
    18  H   -0.000022  -0.000430  -0.001111   0.041620  -0.001561  -0.000886
    19  H    0.004073  -0.004391  -0.066153   0.044289   0.012220  -0.003117
    20  H   -0.001875   0.005944   0.060278   0.035272  -0.003673   0.003966
    21  H    0.000048   0.000342  -0.145002   0.169555   0.000063  -0.000962
    22  H   -0.002856  -0.124423  -0.050063   0.011723   0.000902   0.002385
    23  H   -0.031462  -0.021369   0.012576  -0.107552  -0.000449  -0.027761
    24  H   -0.120470  -0.004739   0.001804  -0.003406  -0.000334   0.000173
    25  H    2.205267  -0.135494  -0.009399   0.005138  -0.000193   0.000159
    26  H   -0.135494   3.102649   0.038161   0.003875  -0.000158  -0.000681
    27  C   -0.009399   0.038161   4.528943  -0.394440   0.001489   0.012957
    28  H    0.005138   0.003875  -0.394440   1.837377  -0.053843  -0.039538
    29  H   -0.000193  -0.000158   0.001489  -0.053843   0.461282  -0.068690
    30  H    0.000159  -0.000681   0.012957  -0.039538  -0.068690   0.560448
    31  H    0.011641  -0.001522  -0.001978   0.005647  -0.005457   0.002691
    32  H   -0.000389  -0.000064   0.000305  -0.002017   0.003093  -0.000397
    33  H    0.000371  -0.000291  -0.004257   0.032147  -0.008947  -0.007351
    34  H   -0.000007  -0.000033   0.001680  -0.008298   0.002855   0.002822
    35  H   -0.001186   0.000666   0.001234   0.000267  -0.009162   0.002064
    36  H    0.000168  -0.000103  -0.000841   0.004940  -0.005951   0.001156
    37  O    0.000095  -0.000027  -0.000013   0.000605  -0.000701  -0.000142
    38  H   -0.000003  -0.000003  -0.000004  -0.000021   0.000143  -0.000148
    39  H   -0.000004   0.000001  -0.000003   0.000133  -0.000253   0.000104
    40  H    0.000612   0.006669   0.224928  -0.187113   0.004149   0.002521
    41  H   -0.001219   0.003399   0.239171   0.029912  -0.004297  -0.000259
    42  H    0.000118  -0.028135   0.147734   0.015483  -0.003709  -0.002223
[...]
 0009191,-0.00001152,-0.00007665,0.00015811,-0.00004518,0.00006549,0.00
 219373,0.00003171,-0.00014666,0.00010705,-0.00007507,-0.00024428,0.000
 00164,-0.00000030,-0.00000178,0.00000298,0.00000087,-0.00000073,-0.000
 00123,-0.00000198,0.00000417,-0.00000295,-0.00000282,0.00001159,0.0000
 0774,0.00000464,0.00000046,-0.00000180,-0.00000015,-0.00000199,0.00000
 379,-0.00000026,-0.00000169,-0.00002094,-0.00000269,0.00001955,-0.0000
 1381,-0.00001174,0.00001533,0.00000235,0.00000168,0.00000648,0.0000030
 4,0.00000058,0.00000299,-0.00000358,0.00000526,0.00000359,-0.00005459,
 -0.00003772,0.00000860,-0.00011320,0.00004205,0.00005830,-0.00000336,0
 .00001450,0.00004867,-0.00020937,-0.00022979,0.00014099,-0.00326196,-0
 .00002920,-0.00001711,-0.00020159,0.00018035,0.00025147,0.00002529,-0.
 00003612,0.00009318,-0.00008885,0.00003710,-0.00012403,-0.00003523,0.0
 0000486,-0.00002537,-0.16576998,-0.05274230,-0.44044054,0.18774409,0.0
 5629567,0.46607703,-0.00000065,0.00000255,0.00000232,0.00001837,0.0000
 0092,0.00000087,-0.00001160,0.00002051,0.00000100,0.00003880,-0.000035
 42,-0.00001019,-0.00005226,-0.00001378,0.00000062,0.00001746,-0.000017
 39,-0.00000466,-0.00001534,0.00000714,0.00000217,0.00003762,0.00000994
 ,-0.00000038,-0.00001610,0.00000664,0.00000612,-0.00000115,-0.00000103
 ,-0.00000203,-0.00000227,-0.00000501,0.00000448,0.00009451,-0.00000130
 ,-0.00004490,0.00018947,-0.00002377,-0.00010750,-0.00130623,-0.0001296
 6,-0.00134360,0.00004901,0.00001365,-0.00002192,0.00000208,0.00000202,
 -0.00000055,0.00000362,0.00000077,-0.00000075,-0.00000260,0.00000015,0
 .00000210,0.00000065,0.00000041,0.00000403,0.00000076,0.00000136,-0.00
 000024,-0.00000282,-0.00000089,-0.00000096,0.00000395,0.00000162,0.000
 00094,0.00000677,-0.00000144,0.00000045,-0.00001005,-0.00002786,0.0000
 0628,-0.00000080,-0.00000043,0.00000059,0.00000486,-0.00000148,0.00000
 112,-0.00000500,-0.00000078,-0.00000472,-0.00005227,-0.00003761,0.0000
 0462,-0.00010378,0.00003845,0.00005954,-0.00001482,-0.00000167,0.00000
 703,-0.00017114,0.00013923,-0.00001947,0.00171037,0.00013024,0.0032520
 2,-0.00002095,-0.00004368,-0.00000487,-0.00002831,0.00000725,0.0000209
 4,-0.00018158,-0.00001361,0.00023441,-0.00010808,0.00003438,-0.0000923
 8,-0.33073168,0.01774157,0.27182215,0.01181988,-0.00184959,-0.02069330
 ,0.31884656,-0.00001539,0.00003259,0.00000836,0.00000753,-0.00004072,-
 0.00000806,0.00001994,0.00005690,0.00001539,0.00003807,-0.00010404,-0.
 00002578,-0.00014698,0.00005078,0.00000358,0.00006875,-0.00003973,-0.0
 0000577,-0.00003218,0.00003707,-0.00002269,-0.00001518,-0.00004762,0.0
 0000477,-0.00000681,0.00000597,0.00000557,0.00000224,0.00000432,-0.000
 00527,0.00001106,-0.00000497,0.00001400,-0.00007218,-0.00008924,0.0000
 0949,-0.00004870,-0.00018529,-0.00003122,-0.00021341,-0.00000916,-0.00
 027246,-0.00004450,-0.00010278,0.00002718,-0.00000172,-0.00000159,-0.0
 0000047,0.00000103,-0.00000223,0.00000013,0.00000322,-0.00000561,-0.00
 000049,0.00000008,0.00000739,-0.00000054,-0.00000285,0.00000024,0.0000
 0142,0.00000607,-0.00000115,0.00000205,0.00000249,-0.00000412,0.000001
 70,0.00001604,0.00001007,-0.00000451,-0.00001962,-0.00003969,0.0000073
 1,-0.00001125,-0.00000524,-0.00000060,0.00000668,-0.00000018,-0.000000
 26,-0.00000495,0.00000439,0.00000489,0.00006772,0.00007190,-0.00000695
 ,0.00003669,0.00002605,-0.00001402,0.00003902,0.00003657,0.00001689,0.
 00009818,0.00023480,0.00024359,0.00031183,-0.00049336,0.00010558,-0.00
 001496,0.00009535,-0.00002247,0.00003497,0.00002957,-0.00003645,0.0000
 4078,0.00017500,0.00001211,0.00004391,0.00009962,0.00004914,0.01147777
 ,-0.00173286,-0.01786670,0.00426155,-0.00012090,-0.00352261,-0.0159480
 2,0.00204687,-0.00001124,-0.00000124,-0.00000015,-0.00001150,-0.000014
 14,-0.00000383,0.00003346,-0.00001014,0.00000179,-0.00009586,-0.000115
 44,-0.00004693,-0.00004142,0.00005135,0.00001156,-0.00001070,-0.000020
 83,-0.00001216,0.00000977,-0.00002468,0.00002316,0.00000350,0.00000706
 ,-0.00001566,-0.00000186,0.00000234,0.00000096,0.00000085,-0.00000024,
 0.00000279,0.00000763,0.00000602,-0.00000306,0.00002918,-0.00001463,-0
 .00014831,0.00013638,-0.00001723,-0.00036183,-0.00276405,-0.00021808,-
 0.00148476,-0.00017110,0.00009608,-0.00006299,-0.00000088,-0.00000172,
 -0.00000046,-0.00000153,0.00000046,-0.00000170,0.00000128,-0.00000104,
 0.00000057,0.00000041,-0.00000101,0.00000157,0.00000152,0.00000011,-0.
 00000213,-0.00000068,0.00000251,-0.00000015,-0.00000502,0.00000045,-0.
 00000355,0.00003583,0.00000355,0.00000918,0.00000961,-0.00000303,0.000
 02881,-0.00000702,-0.00000591,0.00000562,-0.00000290,-0.00000270,0.000
 00239,-0.00000103,0.00001240,0.00001772,-0.00000760,-0.00001105,0.0000
 1039,-0.00010733,0.00003782,0.00010723,0.00007035,-0.00000221,0.000115
 67,0.00014077,0.00026188,0.00001560,0.00406737,0.00033708,0.00258526,0
 .00015452,-0.00013732,-0.00004056,0.00003409,-0.00002538,0.00002464,-0
 .00002339,-0.00007389,0.00055459,-0.00016353,0.00005441,-0.00002142,0.
 21541387,-0.02004409,-0.26101574,0.03636162,-0.00144131,-0.02567779,-0
 .25307584,0.02131871,0.28537542,-0.00016496,-0.00028649,-0.00001259,-0
 .00005814,0.00011111,-0.00005290,-0.00010828,-0.00003524,-0.00004369,0
 .00020475,-0.00000938,-0.00000797,0.00002255,0.00003379,0.00001527,-0.
 00004455,0.00008573,0.00006690,0.00004624,-0.00017138,0.00061841,-0.00
 155047,-0.00038040,-0.00096799,0.00156870,0.00099151,0.00055360,0.0000
 9360,0.00007245,0.00007452,0.00028121,0.00018397,-0.00006734,-0.000263
 54,-0.00026567,-0.00008392,-0.00015862,-0.00001840,-0.00006290,-0.0000
 1977,0.00006714,-0.00007622,-0.00003801,0.00001728,-0.00007988,0.00023
 338,-0.00036928,-0.00007132,-0.00001217,-0.00002663,-0.00004347,-0.000
 01393,0.00000670,0.00003098,-0.00005627,0.00011249,0.00009648,-0.00000
 604,-0.00002977,-0.00005486,-0.00007404,0.00003475,0.00004438,0.000091
 70,0.00027964,-0.00066040,0.00002200,0.00001577,0.00002024,0.00001455,
 0.00000759,0.00000079,-0.00000796,0.00000449,-0.00000746,0.00010450,0.
 00015414,-0.00010789,-0.23017848,-0.13209301,-0.00735902,0.00149936,0.
 00109113,0.00003069,0.00012178,0.00010539,0.00003034,0.00005484,0.0000
 0711,0.00014375,-0.00004627,-0.00007465,0.00002394,0.00002370,0.000001
 10,0.00000426,0.00001342,-0.00002002,0.00001744,-0.00000298,0.00000579
 ,0.00000543,0.00004349,-0.00004767,0.00011203,0.00000713,0.00000048,-0
 .00001920,-0.00001245,0.00000799,-0.00000836,0.00000035,-0.00000358,0.
 00000315,0.00000310,-0.00000420,0.00000250,0.24126986,0.00000195,0.000
 11715,-0.00006118,-0.00008613,-0.00007823,-0.00005602,0.00013023,-0.00
 005522,-0.00000167,-0.00012240,0.00008291,0.00000826,-0.00002683,-0.00
 003764,-0.00001216,0.00003224,-0.00002562,-0.00003938,0.00091136,0.000
 57431,0.00114321,-0.01247086,-0.01155018,-0.00370560,-0.00209598,0.000
 13340,0.00056802,0.00035010,0.00023274,0.00004600,0.00017244,0.0001637
 2,0.00016096,-0.00068398,-0.00046952,0.00021461,-0.00005140,0.00011467
 ,0.00005617,-0.00002997,0.00000132,0.00000885,-0.00005075,-0.00000433,
 -0.00008423,0.00087884,-0.00025037,-0.00041941,0.00001006,0.00000548,-
 0.00007585,0.00006235,0.00000939,0.00016359,0.00000818,0.00001470,0.00
 010587,0.00002156,-0.00003714,-0.00003039,0.00005588,0.00000902,0.0000
 0564,0.00000488,0.00051960,-0.00034163,0.00001084,-0.00000626,0.000013
 58,-0.00001005,-0.00000209,0.00000406,0.00000846,-0.00000084,0.0000056
 4,-0.00003342,-0.00006329,0.00009795,-0.12822821,-0.14290177,-0.005271
 27,0.00191699,0.00079144,-0.00231563,0.00017205,-0.00023240,-0.0000884
 5,0.00006533,0.00007846,0.00014759,0.00001566,0.00001317,-0.00000507,0
 .00001919,0.00000218,0.00000317,0.00002428,-0.00001582,0.00000087,-0.0
 0001020,0.00000959,0.00000508,0.00000552,-0.00000950,-0.00001428,0.000
 01124,-0.00000449,-0.00000085,-0.00001072,-0.00000026,-0.00000106,0.00
 000161,0.00000020,0.00000117,0.00000130,-0.00000024,-0.00000140,0.1431
 3325,0.15180226,-0.00008223,-0.00005239,0.00003740,0.00022914,0.000246
 59,-0.00009252,-0.00004665,-0.00016633,-0.00002319,0.00007903,0.000030
 45,0.00002703,-0.00001431,0.00003385,-0.00001217,0.00000660,0.00004453
 ,0.00001995,-0.00164523,-0.00228294,0.00218282,-0.03055697,-0.02554238
 ,-0.00970518,-0.00239212,0.00110251,0.00095059,0.00013078,0.00022721,0
 .00019981,0.00032788,0.00015619,0.00003519,-0.00126527,-0.00077989,0.0
 0090110,0.00001802,0.00008940,0.00016603,0.00002680,0.00003682,0.00004
 910,-0.00004094,0.00002818,-0.00001984,0.00081744,0.00004994,0.0002249
 1,-0.00000524,0.00001035,-0.00002890,-0.00001006,0.00006242,0.00008763
 ,0.00005038,0.00010933,0.00013716,0.00006394,0.00000678,-0.00002991,0.
 00027550,-0.00002939,-0.00004604,0.00063678,0.00066771,-0.00041109,0.0
 0004557,0.00000132,0.00001552,0.00001023,0.00000406,0.00000053,0.00000
 202,-0.00000150,0.00000477,-0.00000579,0.00007465,-0.00001989,0.000961
 75,0.00083646,-0.04860298,0.00289276,0.00005085,-0.00565847,-0.0000567
 0,-0.00037187,-0.00031983,0.00005000,0.00002081,0.00006425,-0.00002505
 ,-0.00003261,-0.00000711,-0.00002355,-0.00000236,-0.00000432,0.0000260
 9,-0.00003525,-0.00001654,-0.00000170,0.00000005,-0.00000196,0.0000001
 7,0.00000318,-0.00007125,-0.00003804,-0.00000133,-0.00001150,0.0000133
 5,0.00000329,0.00000585,-0.00000116,-0.00000171,-0.00000239,-0.0000033
 0,-0.00000076,-0.00000113,0.00834846,0.01054761,0.05687912,-0.00015290
 ,-0.00021031,-0.00005736,0.00015919,-0.00009244,-0.00016660,0.00027608
 ,0.00008732,0.00003901,-0.00011347,0.00000353,0.00004059,-0.00000747,-
 0.00002928,-0.00001479,0.00007343,-0.00001733,-0.00002177,-0.00023091,
 -0.00016703,0.00009130,-0.00172798,0.00169829,-0.00130550,0.00041963,-
 0.00040463,0.00058739,-0.00014402,-0.00001059,0.00000880,0.00043684,0.
 00020991,-0.00003993,0.00003853,0.00001514,0.00073323,0.00024153,-0.00
 008732,0.00026175,0.00001628,-0.00009812,0.00012240,0.00006006,-0.0000
 2830,0.00015256,-0.00009797,-0.00030667,0.00001106,0.00000112,-0.00001
 847,-0.00000116,0.00000335,-0.00000901,-0.00005184,-0.00003319,0.00008
 046,0.00008322,0.00000185,-0.00007819,-0.00004208,0.00025350,0.0001776
 3,0.00016085,0.00022287,0.00030534,-0.00026045,0.00000058,0.00002764,-
 0.00002677,0.00000045,0.00000302,0.00000113,-0.00001090,0.00000293,0.0
 0000322,-0.00001583,0.00003992,0.00000493,-0.05024018,0.01441242,-0.01
 441312,0.00021649,0.00067069,-0.00075793,-0.00029769,-0.00006469,-0.00
 029697,-0.00005195,-0.00000022,-0.00026883,0.00007856,0.00010892,-0.00
 002557,-0.00002612,-0.00000330,-0.00000755,-0.00001120,0.00003229,-0.0
 0002530,0.00001385,-0.00001353,-0.00001157,-0.00004521,0.00008828,-0.0
 0020199,-0.00009206,-0.00000984,-0.00002870,0.00001528,-0.00000956,0.0
 0001461,0.00000002,0.00000394,-0.00000590,-0.00000475,0.00000505,-0.00
 000633,0.00347373,-0.01811109,0.01811840,0.04726634,-0.00004506,-0.000
 01653,0.00006618,0.00016563,-0.00002530,0.00008676,-0.00024086,-0.0000
 3722,0.00002961,0.00011992,-0.00003312,-0.00001996,-0.00001049,0.00006
 237,0.00001442,-0.00008572,0.00009515,0.00002843,0.00001986,-0.0022815
 7,-0.00195322,-0.00134371,0.01343377,-0.01669354,-0.00026787,0.0013739
 5,-0.00056180,-0.00016308,0.00017001,0.00015169,0.00022328,0.00065697,
 -0.00101557,0.00008835,-0.00007044,0.00009571,-0.00000913,-0.00002093,
 -0.00011454,0.00003370,0.00004567,-0.00002810,0.00001297,0.00001532,0.
 00002930,-0.00000186,-0.00023870,0.00017465,0.00000568,-0.00000348,0.0
 0001865,0.00001296,-0.00002309,0.00000433,-0.00003121,0.00002332,0.000
 00485,-0.00003531,-0.00018778,-0.00030194,-0.00012406,-0.00003768,0.00
 008016,0.00024559,0.00015559,-0.00017536,0.00001220,0.00000461,-0.0000
 0874,0.00000925,0.00000286,0.00000090,-0.00000700,0.00000286,0.0000020
 1,0.00003554,0.00009252,-0.00007792,0.01567785,-0.20730896,0.14528494,
 0.00007768,0.00075057,0.00040698,-0.00000732,0.00010127,0.00010544,0.0
 0004077,-0.00000566,-0.00006215,-0.00004926,-0.00005846,0.00000593,-0.
 00001897,0.00000026,-0.00000294,-0.00001005,-0.00000805,-0.00000036,0.
 00000371,-0.00000169,-0.00000293,0.00000129,-0.00002368,0.00004808,0.0
 0002109,0.00001675,0.00002561,0.00001120,0.00000430,-0.00000217,-0.000
 00225,-0.00000188,-0.00000026,-0.00000108,-0.00000142,0.00000369,0.003
 77701,-0.01090027,0.01070389,-0.01668801,0.21418923,-0.00009142,-0.000
 06381,0.00011399,0.00051784,-0.00030626,0.00017423,-0.00016923,0.00005
 714,0.00008683,-0.00000970,-0.00006193,0.00000250,0.00000041,0.0000843
 3,-0.00001255,-0.00009747,0.00006457,0.00005090,-0.00007182,-0.0054212
 6,-0.00212121,-0.00309961,0.02349412,-0.02887802,-0.00069208,0.0016186
 7,0.00096870,-0.00030363,0.00005088,-0.00006852,0.00007458,0.00137655,
 -0.00121816,-0.00004914,-0.00025908,0.00050195,0.00011312,-0.00003146,
 -0.00001668,0.00001451,-0.00003185,0.00003377,0.00004748,-0.00002598,0
 .00010883,0.00023902,-0.00007973,-0.00003185,0.00002807,-0.00002785,0.
 00009908,0.00005657,-0.00004241,0.00002723,0.00001860,-0.00006065,-0.0
 0005723,0.00003035,-0.00041816,-0.00041694,0.00024300,-0.00065824,-0.0
 0017790,0.00007676,-0.00006621,0.00013721,0.00002826,0.00003173,-0.000
 03361,0.00000396,0.00000462,-0.00000336,-0.00001385,0.00000929,-0.0000
 0394,0.00004583,0.00001858,-0.00005675,-0.01363129,0.13275974,-0.17077
 420,0.00057634,0.00130419,-0.00015123,-0.00024226,-0.00001370,-0.00002
 333,-0.00004525,-0.00004926,-0.00017599,0.00001988,0.00003258,-0.00001
 190,-0.00001285,-0.00000270,-0.00000179,-0.00001447,0.00001879,-0.0000
 0822,0.00000478,-0.00000219,-0.00000503,-0.00001982,0.00002367,-0.0000
 5068,0.00000575,0.00000369,0.00002771,0.00000751,-0.00000416,0.0000032
 6,0.00000002,0.00000184,-0.00000150,-0.00000131,0.00000168,-0.00000022
 ,0.00025056,-0.00222783,0.00278475,0.01608687,-0.14633067,0.19376461,-
 0.00009836,0.00027022,-0.00041323,-0.00008195,-0.00011453,-0.00082335,
 0.00048794,-0.00004662,-0.00013914,-0.00029975,0.00018952,0.00013237,-
 0.00016699,-0.00014278,-0.00000279,0.00026427,-0.00009840,-0.00006898,
 -0.00017416,0.00048456,-0.00002784,0.00502674,-0.00400422,-0.00103278,
 0.00014519,-0.00043587,-0.00095772,0.00046887,0.00005199,-0.00025459,-
 0.00007670,0.00003595,0.00009446,0.00001071,0.00022008,0.00013404,0.00
 011076,0.00016688,0.00006983,0.00000574,-0.00004793,0.00009045,0.00000
 637,-0.00001516,0.00004218,0.00046663,0.00001479,-0.00007142,-0.000016
 32,-0.00002950,-0.00010689,0.00002151,-0.00001978,0.00008912,0.0000063
 5,-0.00000120,-0.00000398,0.00000188,-0.00001796,0.00000951,-0.0000637
 5,0.00010060,-0.00001315,-0.00011377,0.00003931,-0.00003532,0.00000658
 ,0.00000561,0.00001465,-0.00001065,-0.00000929,-0.00000091,0.00000694,
 -0.00000648,0.00001110,-0.00012387,-0.00012579,0.00018287,-0.24828304,
 0.12534335,0.03911521,0.00047186,-0.00017059,0.00030383,0.00009052,-0.
 00009984,-0.00002681,-0.00002373,0.00003972,-0.00007135,0.00004352,0.0
 0006527,-0.00003767,-0.00001780,-0.00000263,-0.00000600,0.00000723,0.0
 0000810,-0.00002163,-0.00000035,-0.00000322,-0.00000366,-0.00005520,0.
 00001064,-0.00012662,0.00000300,-0.00001378,0.00002820,0.00001073,-0.0
 0000480,0.00000906,-0.00000005,0.00000247,-0.00000253,-0.00000360,0.00
 000224,-0.00000374,-0.01637704,0.01399620,0.00308317,0.00003427,-0.001
 45326,0.00007516,0.25828947,0.00001993,-0.00005522,0.00034392,-0.00003
 344,0.00019846,0.00068771,0.00014962,0.00003834,0.00010296,-0.00023970
 ,-0.00000961,0.00002627,0.00004665,-0.00001420,-0.00005272,0.00008773,
 -0.00011699,-0.00006698,-0.00002008,0.00006076,0.00073377,0.01187626,-
 0.01046760,-0.00410545,-0.00179776,0.00044676,-0.00239410,0.00089374,-
 0.00012450,0.00002518,0.00007020,-0.00015054,0.00009559,-0.00020806,0.
 00014402,0.00055982,0.00031801,0.00007999,0.00025540,0.00001732,-0.000
 11578,0.00017651,0.00002646,-0.00002025,0.00013790,0.00021649,0.000009
 66,0.00003753,-0.00005741,-0.00006988,-0.00029176,0.00001812,-0.000030
 67,-0.00002855,-0.00000321,0.00002318,-0.00001741,-0.00002451,0.000040
 65,-0.00000915,-0.00007867,0.00027041,0.00018164,-0.00009305,0.0000375
 4,-0.00013926,-0.00003943,-0.00002529,-0.00006731,-0.00000663,-0.00000
 420,0.00000386,-0.00000101,-0.00001632,0.00000458,-0.00008570,-0.00004
 351,0.00003810,0.12024933,-0.12577717,-0.02475778,0.00116812,0.0000593
 2,-0.00025913,-0.00020347,-0.00042035,-0.00029448,-0.00009258,0.000026
 87,-0.00019956,0.00010015,0.00014275,-0.00004180,-0.00003013,-0.000001
 33,-0.00000896,0.00000149,0.00001458,-0.00004131,0.00001474,-0.0000075
 5,-0.00001172,-0.00007078,0.00009500,-0.00025599,-0.00003232,-0.000007
 29,0.00001142,0.00001730,-0.00001293,0.00001661,0.00000156,0.00000508,
 -0.00000594,-0.00000462,0.00000668,-0.00000717,-0.01647203,0.01196975,
 0.00415226,0.01848522,-0.00991145,-0.00477127,-0.13418386,0.13373284,-
 0.00024507,0.00064549,-0.00016612,-0.00003201,0.00004672,-0.00088278,-
 0.00038516,-0.00020144,-0.00010658,0.00013641,0.00009437,0.00003525,-0
 .00008112,-0.00007462,-0.00002626,0.00013018,0.00010795,0.00000843,0.0
 0106189,-0.00070303,0.00126988,0.03026534,-0.02151071,-0.01040261,-0.0
 0310534,-0.00003726,-0.00474289,0.00132813,-0.00103739,-0.00026684,0.0
 0006204,-0.00032504,0.00021022,-0.00031745,-0.00007070,-0.00004240,-0.
 00006432,0.00004473,-0.00026470,0.00009931,0.00017609,-0.00007804,-0.0
 0004502,0.00010259,-0.00000186,-0.00002255,0.00020464,-0.00010758,-0.0
 0008881,-0.00012102,-0.00042962,0.00001726,-0.00000336,-0.00022544,-0.
 00004035,0.00002640,-0.00003267,-0.00001953,0.00005720,0.00001645,0.00
 008145,-0.00035404,-0.00008071,0.00001755,0.00014837,-0.00020136,0.000
 02818,-0.00002567,-0.00000415,0.00001570,-0.00000907,0.00000088,0.0000
 0526,-0.00001601,0.00002270,0.00002109,0.00001288,-0.00000810,0.028695
 34,-0.01897093,-0.05490260,0.00099212,0.00058372,0.00076850,-0.0000241
 5,-0.00009778,0.00010787,0.00003952,-0.00004571,0.00006583,-0.00017524
 ,-0.00019179,0.00002323,-0.00004904,-0.00000488,-0.00000184,0.00000851
 ,-0.00007648,-0.00001066,0.00001636,-0.00000641,-0.00000610,0.00000701
 ,-0.00008960,0.00013708,0.00006668,0.00005663,0.00005049,0.00002789,0.
 00001591,-0.00000748,-0.00000394,-0.00000749,0.00000100,-0.00000096,-0
 .00000543,0.00000958,-0.00070678,0.00144545,0.00031269,-0.01848329,0.0
 0997996,0.00541525,-0.03923307,0.03023675,0.06454408\\0.00000139,-0.00
 000094,-0.00000083,-0.00000162,0.00000007,-0.00000277,0.00000142,0.000
 00109,-0.00000141,0.00000129,-0.00000031,-0.00001202,-0.00000093,-0.00
 000052,0.00000587,-0.00000020,-0.00000003,-0.00000030,0.00000447,-0.00
 000831,0.00002501,-0.00000656,-0.00000284,-0.00003421,-0.00000247,0.00
 000315,0.00000600,0.00000399,-0.00000150,-0.00000283,-0.00000123,0.000
 00048,-0.00000731,-0.00000925,-0.00000374,0.00000843,-0.00000245,-0.00
 000271,0.00000049,-0.00000674,-0.00000642,-0.00000471,-0.00000028,-0.0
 0000308,0.00000354,-0.00000144,0.00000133,-0.00000001,-0.00000052,-0.0
 0000271,0.00000066,-0.00000123,0.00000057,-0.00000199,0.00000002,-0.00
 000101,0.00000099,-0.00000116,-0.00000230,-0.00000042,0.00000084,0.000
 00213,0.00000229,-0.00000052,0.00000154,-0.00000198,-0.00000121,-0.000
 00010,0.00000116,0.00000078,0.00000106,-0.00000486,0.00000095,-0.00000
 027,0.00000059,0.00000051,-0.00000017,-0.00000030,0.00000208,0.0000008
 7,0.00000897,0.00001180,0.00000419,0.00000528,-0.00000015,-0.00000459,
 -0.00000238,0.00000674,0.00000894,-0.00000042,0.00000489,-0.00000013,0
 .00000730,-0.00000004,0.00000432,0.00000495,-0.00000046,-0.00000051,-0
 .00000109,-0.00000148,0.00000173,-0.00000096,0.00000176,0.00000530,-0.
 00000140,-0.00000062,0.00000188,0.00000006,-0.00000210,0.00000220,-0.0
 0000234,0.00000009,0.00000082,-0.00000010,0.00000104,-0.00000005,0.000
 00076,0.00000335,-0.00000158,0.00000065,-0.00000463,-0.00000191,0.0000
 0200,-0.00000013,0.00000407,-0.00000032\\\@


 A MAN THINKING OR WORKING IS ALWAYS ALONE, 
 LET HIM BE WHERE HE WILL.

                                    -- THOREAU
 Job cpu time:       1 days 18 hours 43 minutes 47.4 seconds.
 Elapsed time:       0 days  1 hours 31 minutes 44.5 seconds.
 File lengths (MBytes):  RWF=   1444 Int=      0 D2E=      0 Chk=     36 Scr=      8
 Normal termination of Gaussian 16 at Thu Jul 15 16:48:35 2021.
