 Entering Gaussian System, Link 0=g16
 Input=NicPy5hdCCWPy.gjf
 Output=NicPy5hdCCWPy.log
 Initial command:
 /sw/contrib/gaussian/g16/A03/g16/l1.exe "/gscratch/scrubbed/gds001/Gau-661.inp" -scrdir="/gscratch/scrubbed/gds001/"
 Entering Link 1 = /sw/contrib/gaussian/g16/A03/g16/l1.exe PID=       662.
  
 Copyright (c) 1988,1990,1992,1993,1995,1998,2003,2009,2016,
            Gaussian, Inc.  All Rights Reserved.
  
 This is part of the Gaussian(R) 16 program.  It is based on
 the Gaussian(R) 09 system (copyright 2009, Gaussian, Inc.),
 the Gaussian(R) 03 system (copyright 2003, Gaussian, Inc.),
 the Gaussian(R) 98 system (copyright 1998, Gaussian, Inc.),
 the Gaussian(R) 94 system (copyright 1995, Gaussian, Inc.),
 the Gaussian 92(TM) system (copyright 1992, Gaussian, Inc.),
 the Gaussian 90(TM) system (copyright 1990, Gaussian, Inc.),
 the Gaussian 88(TM) system (copyright 1988, Gaussian, Inc.),
 the Gaussian 86(TM) system (copyright 1986, Carnegie Mellon
 University), and the Gaussian 82(TM) system (copyright 1983,
 Carnegie Mellon University). Gaussian is a federally registered
 trademark of Gaussian, Inc.
  
 This software contains proprietary and confidential information,
 including trade secrets, belonging to Gaussian, Inc.
  
 This software is provided under written license and may be
 used, copied, transmitted, or stored only in accord with that
 written license.
  
 The following legend is applicable only to US Government
 contracts under FAR:
  
                    RESTRICTED RIGHTS LEGEND
  
 Use, reproduction and disclosure by the US Government is
 subject to restrictions as set forth in subparagraphs (a)
 and (c) of the Commercial Computer Software - Restricted
 Rights clause in FAR 52.227-19.
  
 Gaussian, Inc.
 340 Quinnipiac St., Bldg. 40, Wallingford CT 06492
  
  
 ---------------------------------------------------------------
 Warning -- This program may not be used in any manner that
 competes with the business of Gaussian, Inc. or will provide
 assistance to any competitor of Gaussian, Inc.  The licensee
 of this program is prohibited from giving any competitor of
 Gaussian, Inc. access to this program.  By using this program,
 the user acknowledges that Gaussian, Inc. is engaged in the
 business of creating and licensing software in the field of
 computational chemistry and represents and warrants to the
 licensee that it is not a competitor of Gaussian, Inc. and that
 it will not use this program in any manner prohibited above.
 ---------------------------------------------------------------
  

 Cite this work as:
 Gaussian 16, Revision A.03,
 M. J. Frisch, G. W. Trucks, H. B. Schlegel, G. E. Scuseria, 
 M. A. Robb, J. R. Cheeseman, G. Scalmani, V. Barone, 
 G. A. Petersson, H. Nakatsuji, X. Li, M. Caricato, A. V. Marenich, 
 J. Bloino, B. G. Janesko, R. Gomperts, B. Mennucci, H. P. Hratchian, 
 J. V. Ortiz, A. F. Izmaylov, J. L. Sonnenberg, D. Williams-Young, 
 F. Ding, F. Lipparini, F. Egidi, J. Goings, B. Peng, A. Petrone, 
 T. Henderson, D. Ranasinghe, V. G. Zakrzewski, J. Gao, N. Rega, 
 G. Zheng, W. Liang, M. Hada, M. Ehara, K. Toyota, R. Fukuda, 
 J. Hasegawa, M. Ishida, T. Nakajima, Y. Honda, O. Kitao, H. Nakai, 
 T. Vreven, K. Throssell, J. A. Montgomery, Jr., J. E. Peralta, 
 F. Ogliaro, M. J. Bearpark, J. J. Heyd, E. N. Brothers, K. N. Kudin, 
 V. N. Staroverov, T. A. Keith, R. Kobayashi, J. Normand, 
 K. Raghavachari, A. P. Rendell, J. C. Burant, S. S. Iyengar, 
 J. Tomasi, M. Cossi, J. M. Millam, M. Klene, C. Adamo, R. Cammi, 
 J. W. Ochterski, R. L. Martin, K. Morokuma, O. Farkas, 
 J. B. Foresman, and D. J. Fox, Gaussian, Inc., Wallingford CT, 2016.
 
 ******************************************
 Gaussian 16:  ES64L-G16RevA.03 25-Dec-2016
                 8-Dec-2022 
 ******************************************
 %nprocshared=28
 Will use up to   28 processors via shared memory.
 %mem=41GB
 -----------------------------
 # wB97XD/aug-cc-pVDZ opt freq
 -----------------------------
 1/18=20,19=15,26=3,38=1/1,3;
 2/9=110,12=2,17=6,18=5,40=1/2;
 3/5=16,7=10,11=2,25=1,30=1,71=1,74=-58/1,2,3;
 4//1;
 5/5=2,38=5/2;
 6/7=2,8=2,9=2,10=2,28=1/1;
 7//1,2,3,16;
 1/18=20,19=15,26=3/3(2);
 2/9=110/2;
 99//99;
 2/9=110/2;
 3/5=16,7=10,11=2,25=1,30=1,71=1,74=-58/1,2,3;
 4/5=5,16=3,69=1/1;
 5/5=2,38=5/2;
 7//1,2,3,16;
 1/18=20,19=15,26=3/3(-5);
 2/9=110/2;
 6/7=2,8=2,9=2,10=2,19=2,28=1/1;
 99/9=1/99;
 ----
 blah
 ----
 Symbolic Z-matrix:
 Charge =  1 Multiplicity = 1
 C                     0.02655   2.70919  -0.11183 
 C                     0.37356   1.39198  -0.41073 
 C                    -0.66229   0.50513  -0.67702 
 N                    -1.93681   0.90917  -0.62231 
 C                    -2.29434   2.1694   -0.32258 
 C                    -1.31302   3.10657  -0.07214 
 C                     1.80141   0.89394  -0.40028 
 N                     1.99925  -0.04431   0.71745 
 C                     3.11801  -0.90752   0.32004 
 C                     2.79408  -1.22484  -1.13368 
 C                     2.2342    0.10815  -1.66731 
 O                    -3.34281  -1.42724  -0.64797 
 O                    -2.44103  -0.78629   1.96091 
 O                     0.00592  -2.00924   1.22333 
 H                     3.15749  -1.79054   0.96861 
 H                     3.66816  -1.56785  -1.69582 
 H                     2.02957  -2.01057  -1.1797 
 H                     3.00269   0.67691  -2.20158 
 H                     1.40552  -0.04228  -2.36832 
 H                     4.08163  -0.37051   0.40444 
 H                     2.46104   1.77163  -0.27201 
 H                    -0.50706  -0.54189  -0.93045 
 H                    -3.35913   2.38336  -0.28988 
 H                    -1.59237   4.13032   0.16458 
 H                     0.81103   3.43611   0.10077 
 C                     2.18408   0.61386   2.00358 
 H                    -2.65532   0.17096  -0.75837 
 H                     0.66717  -1.29752   1.07516 
 H                    -0.74361  -1.5937    1.68204 
 H                    -4.15339  -1.75433  -1.04533 
 H                    -2.61986  -2.06317  -0.88202 
 H                    -2.87059  -0.97396   2.79954 
 H                    -3.00985  -1.16686   1.27378 
 O                    -1.08566  -2.74079  -1.05714 
 H                    -0.61478  -2.64221  -0.18921 
 H                    -0.93714  -3.63655  -1.36787 
 H                     2.32494  -0.14343   2.7833 
 H                     1.29077   1.19887   2.25923 
 H                     3.0611    1.2865    2.00175 
 O                    -5.54347  -2.35638  -2.02664 
 H                    -5.60231  -1.9708   -2.91788 
 H                    -6.40161  -2.80093  -1.92471 
 
 Add virtual bond connecting atoms H35        and O14        Dist= 3.15D+00.
 Add virtual bond connecting atoms O34        and H31        Dist= 3.19D+00.
 Add virtual bond connecting atoms N8         and H28        Dist= 3.52D+00.
 Add virtual bond connecting atoms H27        and O12        Dist= 3.29D+00.
 Add virtual bond connecting atoms O40        and H30        Dist= 3.41D+00.
 Add virtual bond connecting atoms O12        and H33        Dist= 3.72D+00.
 Add virtual bond connecting atoms H29        and O13        Dist= 3.59D+00.

 GradGradGradGradGradGradGradGradGradGradGradGradGradGradGradGradGradGrad
 Berny optimization.
 Initialization pass.
                           ----------------------------
                           !    Initial Parameters    !
                           ! (Angstroms and Degrees)  !
 --------------------------                            --------------------------
 ! Name  Definition              Value          Derivative Info.                !
 --------------------------------------------------------------------------------
 ! R1    R(1,2)                  1.3946         estimate D2E/DX2                !
 ! R2    R(1,6)                  1.3978         estimate D2E/DX2                !
 ! R3    R(1,25)                 1.0904         estimate D2E/DX2                !
 ! R4    R(2,3)                  1.3894         estimate D2E/DX2                !
 ! R5    R(2,7)                  1.5123         estimate D2E/DX2                !
 ! R6    R(3,4)                  1.3381         estimate D2E/DX2                !
 ! R7    R(3,22)                 1.0884         estimate D2E/DX2                !
 ! R8    R(4,5)                  1.3438         estimate D2E/DX2                !
 ! R9    R(4,27)                 1.0391         estimate D2E/DX2                !
 ! R10   R(5,6)                  1.3799         estimate D2E/DX2                !
 ! R11   R(5,23)                 1.0866         estimate D2E/DX2                !
 ! R12   R(6,24)                 1.0873         estimate D2E/DX2                !
 ! R13   R(7,8)                  1.4727         estimate D2E/DX2                !
 ! R14   R(7,11)                 1.5525         estimate D2E/DX2                !
 ! R15   R(7,21)                 1.1054         estimate D2E/DX2                !
 ! R16   R(8,9)                  1.4679         estimate D2E/DX2                !
 ! R17   R(8,26)                 1.4565         estimate D2E/DX2                !
 ! R18   R(8,28)                 1.8636         estimate D2E/DX2                !
 ! R19   R(9,10)                 1.5228         estimate D2E/DX2                !
 ! R20   R(9,15)                 1.0963         estimate D2E/DX2                !
 ! R21   R(9,20)                 1.1064         estimate D2E/DX2                !
 ! R22   R(10,11)                1.5411         estimate D2E/DX2                !
 ! R23   R(10,16)                1.0944         estimate D2E/DX2                !
 ! R24   R(10,17)                1.0973         estimate D2E/DX2                !
 ! R25   R(11,18)                1.0952         estimate D2E/DX2                !
 ! R26   R(11,19)                1.0958         estimate D2E/DX2                !
 ! R27   R(12,27)                1.7433         estimate D2E/DX2                !
 ! R28   R(12,30)                0.9602         estimate D2E/DX2                !
 ! R29   R(12,31)                0.9909         estimate D2E/DX2                !
 ! R30   R(12,33)                1.9677         estimate D2E/DX2                !
 ! R31   R(13,29)                1.9002         estimate D2E/DX2                !
 ! R32   R(13,32)                0.9607         estimate D2E/DX2                !
 ! R33   R(13,33)                0.9698         estimate D2E/DX2                !
 ! R34   R(14,28)                0.9827         estimate D2E/DX2                !
 ! R35   R(14,29)                0.972          estimate D2E/DX2                !
 ! R36   R(14,35)                1.6677         estimate D2E/DX2                !
 ! R37   R(26,37)                1.096          estimate D2E/DX2                !
 ! R38   R(26,38)                1.098          estimate D2E/DX2                !
 ! R39   R(26,39)                1.1053         estimate D2E/DX2                !
 ! R40   R(30,40)                1.8049         estimate D2E/DX2                !
 ! R41   R(31,34)                1.6863         estimate D2E/DX2                !
 ! R42   R(34,35)                0.9924         estimate D2E/DX2                !
 ! R43   R(34,36)                0.9597         estimate D2E/DX2                !
 ! R44   R(40,41)                0.9729         estimate D2E/DX2                !
 ! R45   R(40,42)                0.9718         estimate D2E/DX2                !
 ! A1    A(2,1,6)              120.8679         estimate D2E/DX2                !
 ! A2    A(2,1,25)             119.5008         estimate D2E/DX2                !
 ! A3    A(6,1,25)             119.6298         estimate D2E/DX2                !
 ! A4    A(1,2,3)              117.2878         estimate D2E/DX2                !
 ! A5    A(1,2,7)              122.9927         estimate D2E/DX2                !
 ! A6    A(3,2,7)              119.6727         estimate D2E/DX2                !
 ! A7    A(2,3,4)              120.6324         estimate D2E/DX2                !
 ! A8    A(2,3,22)             123.5273         estimate D2E/DX2                !
 ! A9    A(4,3,22)             115.8385         estimate D2E/DX2                !
 ! A10   A(3,4,5)              123.0717         estimate D2E/DX2                !
 ! A11   A(3,4,27)             116.0228         estimate D2E/DX2                !
 ! A12   A(5,4,27)             120.7623         estimate D2E/DX2                !
 ! A13   A(4,5,6)              119.2222         estimate D2E/DX2                !
 ! A14   A(4,5,23)             116.8785         estimate D2E/DX2                !
 ! A15   A(6,5,23)             123.8989         estimate D2E/DX2                !
 ! A16   A(1,6,5)              118.9015         estimate D2E/DX2                !
 ! A17   A(1,6,24)             121.3378         estimate D2E/DX2                !
 ! A18   A(5,6,24)             119.7551         estimate D2E/DX2                !
 ! A19   A(2,7,8)              109.9928         estimate D2E/DX2                !
 ! A20   A(2,7,11)             115.1049         estimate D2E/DX2                !
 ! A21   A(2,7,21)             107.6218         estimate D2E/DX2                !
 ! A22   A(8,7,11)             105.0409         estimate D2E/DX2                !
 ! A23   A(8,7,21)             109.7321         estimate D2E/DX2                !
 ! A24   A(11,7,21)            109.2842         estimate D2E/DX2                !
 ! A25   A(7,8,9)              105.7571         estimate D2E/DX2                !
 ! A26   A(7,8,26)             113.537          estimate D2E/DX2                !
 ! A27   A(7,8,28)             118.5611         estimate D2E/DX2                !
 ! A28   A(9,8,26)             114.0844         estimate D2E/DX2                !
 ! A29   A(9,8,28)             101.6129         estimate D2E/DX2                !
 ! A30   A(26,8,28)            103.0081         estimate D2E/DX2                !
 ! A31   A(8,9,10)             102.6428         estimate D2E/DX2                !
 ! A32   A(8,9,15)             109.9334         estimate D2E/DX2                !
 ! A33   A(8,9,20)             110.9604         estimate D2E/DX2                !
 ! A34   A(10,9,15)            113.8648         estimate D2E/DX2                !
 ! A35   A(10,9,20)            111.0534         estimate D2E/DX2                !
 ! A36   A(15,9,20)            108.3275         estimate D2E/DX2                !
 ! A37   A(9,10,11)            103.1554         estimate D2E/DX2                !
 ! A38   A(9,10,16)            112.6917         estimate D2E/DX2                !
 ! A39   A(9,10,17)            109.7223         estimate D2E/DX2                !
 ! A40   A(11,10,16)           112.5447         estimate D2E/DX2                !
 ! A41   A(11,10,17)           110.593          estimate D2E/DX2                !
 ! A42   A(16,10,17)           108.0898         estimate D2E/DX2                !
 ! A43   A(7,11,10)            104.8616         estimate D2E/DX2                !
 ! A44   A(7,11,18)            109.3226         estimate D2E/DX2                !
 ! A45   A(7,11,19)            112.3818         estimate D2E/DX2                !
 ! A46   A(10,11,18)           111.2947         estimate D2E/DX2                !
 ! A47   A(10,11,19)           112.1795         estimate D2E/DX2                !
 ! A48   A(18,11,19)           106.8491         estimate D2E/DX2                !
 ! A49   A(27,12,30)           128.2441         estimate D2E/DX2                !
 ! A50   A(27,12,31)           106.5995         estimate D2E/DX2                !
 ! A51   A(27,12,33)            82.75           estimate D2E/DX2                !
 ! A52   A(30,12,31)           107.4314         estimate D2E/DX2                !
 ! A53   A(30,12,33)           126.307          estimate D2E/DX2                !
 ! A54   A(31,12,33)           101.079          estimate D2E/DX2                !
 ! A55   A(29,13,32)           116.3911         estimate D2E/DX2                !
 ! A56   A(29,13,33)           104.6673         estimate D2E/DX2                !
 ! A57   A(32,13,33)           106.234          estimate D2E/DX2                !
 ! A58   A(28,14,29)           106.2834         estimate D2E/DX2                !
 ! A59   A(28,14,35)           113.4287         estimate D2E/DX2                !
 ! A60   A(29,14,35)           105.9597         estimate D2E/DX2                !
 ! A61   A(8,26,37)            109.406          estimate D2E/DX2                !
 ! A62   A(8,26,38)            110.0661         estimate D2E/DX2                !
 ! A63   A(8,26,39)            111.9768         estimate D2E/DX2                !
 ! A64   A(37,26,38)           107.8813         estimate D2E/DX2                !
 ! A65   A(37,26,39)           108.6443         estimate D2E/DX2                !
 ! A66   A(38,26,39)           108.767          estimate D2E/DX2                !
 ! A67   A(4,27,12)            156.306          estimate D2E/DX2                !
 ! A68   A(13,29,14)           159.9969         estimate D2E/DX2                !
 ! A69   A(12,31,34)           161.1235         estimate D2E/DX2                !
 ! A70   A(12,33,13)           147.4749         estimate D2E/DX2                !
 ! A71   A(31,34,35)           107.516          estimate D2E/DX2                !
 ! A72   A(31,34,36)           123.3325         estimate D2E/DX2                !
 ! A73   A(35,34,36)           107.6062         estimate D2E/DX2                !
 ! A74   A(14,35,34)           162.7704         estimate D2E/DX2                !
 ! A75   A(30,40,41)           114.3586         estimate D2E/DX2                !
 ! A76   A(30,40,42)           140.8624         estimate D2E/DX2                !
 ! A77   A(41,40,42)           102.9435         estimate D2E/DX2                !
 ! A78   L(8,28,14,3,-1)       181.5898         estimate D2E/DX2                !
 ! A79   L(12,30,40,36,-1)     175.3314         estimate D2E/DX2                !
 ! A80   L(8,28,14,3,-2)       175.6935         estimate D2E/DX2                !
 ! A81   L(12,30,40,36,-2)     188.2324         estimate D2E/DX2                !
 ! D1    D(6,1,2,3)              0.5938         estimate D2E/DX2                !
 ! D2    D(6,1,2,7)           -176.9049         estimate D2E/DX2                !
 ! D3    D(25,1,2,3)          -179.8619         estimate D2E/DX2                !
 ! D4    D(25,1,2,7)             2.6394         estimate D2E/DX2                !
 ! D5    D(2,1,6,5)              0.573          estimate D2E/DX2                !
 ! D6    D(2,1,6,24)           179.7113         estimate D2E/DX2                !
 ! D7    D(25,1,6,5)          -178.9707         estimate D2E/DX2                !
 ! D8    D(25,1,6,24)            0.1676         estimate D2E/DX2                !
 ! D9    D(1,2,3,4)             -1.1057         estimate D2E/DX2                !
 ! D10   D(1,2,3,22)           179.4069         estimate D2E/DX2                !
 ! D11   D(7,2,3,4)            176.4797         estimate D2E/DX2                !
 ! D12   D(7,2,3,22)            -3.0076         estimate D2E/DX2                !
 ! D13   D(1,2,7,8)            111.3029         estimate D2E/DX2                !
 ! D14   D(1,2,7,11)          -130.3101         estimate D2E/DX2                !
 ! D15   D(1,2,7,21)            -8.204          estimate D2E/DX2                !
 ! D16   D(3,2,7,8)            -66.1387         estimate D2E/DX2                !
 ! D17   D(3,2,7,11)            52.2484         estimate D2E/DX2                !
 ! D18   D(3,2,7,21)           174.3544         estimate D2E/DX2                !
 ! D19   D(2,3,4,5)              0.4376         estimate D2E/DX2                !
 ! D20   D(2,3,4,27)          -175.2349         estimate D2E/DX2                !
 ! D21   D(22,3,4,5)           179.9628         estimate D2E/DX2                !
 ! D22   D(22,3,4,27)            4.2903         estimate D2E/DX2                !
 ! D23   D(3,4,5,6)              0.7836         estimate D2E/DX2                !
 ! D24   D(3,4,5,23)          -178.9885         estimate D2E/DX2                !
 ! D25   D(27,4,5,6)           176.2577         estimate D2E/DX2                !
 ! D26   D(27,4,5,23)           -3.5144         estimate D2E/DX2                !
 ! D27   D(3,4,27,12)           33.7193         estimate D2E/DX2                !
 ! D28   D(5,4,27,12)         -142.0607         estimate D2E/DX2                !
 ! D29   D(4,5,6,1)             -1.2616         estimate D2E/DX2                !
 ! D30   D(4,5,6,24)           179.5862         estimate D2E/DX2                !
 ! D31   D(23,5,6,1)           178.4935         estimate D2E/DX2                !
 ! D32   D(23,5,6,24)           -0.6587         estimate D2E/DX2                !
 ! D33   D(2,7,8,9)            154.8337         estimate D2E/DX2                !
 ! D34   D(2,7,8,26)           -79.3352         estimate D2E/DX2                !
 ! D35   D(2,7,8,28)            41.7716         estimate D2E/DX2                !
 ! D36   D(11,7,8,9)            30.413          estimate D2E/DX2                !
 ! D37   D(11,7,8,26)          156.244          estimate D2E/DX2                !
 ! D38   D(11,7,8,28)          -82.6492         estimate D2E/DX2                !
 ! D39   D(21,7,8,9)           -86.9539         estimate D2E/DX2                !
 ! D40   D(21,7,8,26)           38.8772         estimate D2E/DX2                !
 ! D41   D(21,7,8,28)          159.984          estimate D2E/DX2                !
 ! D42   D(2,7,11,10)         -126.5678         estimate D2E/DX2                !
 ! D43   D(2,7,11,18)          114.0122         estimate D2E/DX2                !
 ! D44   D(2,7,11,19)           -4.4494         estimate D2E/DX2                !
 ! D45   D(8,7,11,10)           -5.4455         estimate D2E/DX2                !
 ! D46   D(8,7,11,18)         -124.8655         estimate D2E/DX2                !
 ! D47   D(8,7,11,19)          116.6729         estimate D2E/DX2                !
 ! D48   D(21,7,11,10)         112.2259         estimate D2E/DX2                !
 ! D49   D(21,7,11,18)          -7.1941         estimate D2E/DX2                !
 ! D50   D(21,7,11,19)        -125.6557         estimate D2E/DX2                !
 ! D51   D(7,8,9,10)           -43.6225         estimate D2E/DX2                !
 ! D52   D(7,8,9,15)          -165.1161         estimate D2E/DX2                !
 ! D53   D(7,8,9,20)            75.0748         estimate D2E/DX2                !
 ! D54   D(26,8,9,10)         -169.1169         estimate D2E/DX2                !
 ! D55   D(26,8,9,15)           69.3894         estimate D2E/DX2                !
 ! D56   D(26,8,9,20)          -50.4197         estimate D2E/DX2                !
 ! D57   D(28,8,9,10)           80.7888         estimate D2E/DX2                !
 ! D58   D(28,8,9,15)          -40.7048         estimate D2E/DX2                !
 ! D59   D(28,8,9,20)         -160.5139         estimate D2E/DX2                !
 ! D60   D(7,8,14,29)          -77.7255         estimate D2E/DX2                !
 ! D61   D(7,8,14,35)           39.2445         estimate D2E/DX2                !
 ! D62   D(9,8,14,29)          167.8967         estimate D2E/DX2                !
 ! D63   D(9,8,14,35)          -75.1333         estimate D2E/DX2                !
 ! D64   D(26,8,14,29)          49.7011         estimate D2E/DX2                !
 ! D65   D(26,8,14,35)         166.6711         estimate D2E/DX2                !
 ! D66   D(7,8,26,37)         -179.983          estimate D2E/DX2                !
 ! D67   D(7,8,26,38)           61.6409         estimate D2E/DX2                !
 ! D68   D(7,8,26,39)          -59.4742         estimate D2E/DX2                !
 ! D69   D(9,8,26,37)          -58.7078         estimate D2E/DX2                !
 ! D70   D(9,8,26,38)         -177.0839         estimate D2E/DX2                !
 ! D71   D(9,8,26,39)           61.8009         estimate D2E/DX2                !
 ! D72   D(28,8,26,37)          50.5346         estimate D2E/DX2                !
 ! D73   D(28,8,26,38)         -67.8415         estimate D2E/DX2                !
 ! D74   D(28,8,26,39)         171.0433         estimate D2E/DX2                !
 ! D75   D(8,9,10,11)           38.6927         estimate D2E/DX2                !
 ! D76   D(8,9,10,16)          160.3275         estimate D2E/DX2                !
 ! D77   D(8,9,10,17)          -79.1797         estimate D2E/DX2                !
 ! D78   D(15,9,10,11)         157.4631         estimate D2E/DX2                !
 ! D79   D(15,9,10,16)         -80.9022         estimate D2E/DX2                !
 ! D80   D(15,9,10,17)          39.5907         estimate D2E/DX2                !
 ! D81   D(20,9,10,11)         -79.9392         estimate D2E/DX2                !
 ! D82   D(20,9,10,16)          41.6956         estimate D2E/DX2                !
 ! D83   D(20,9,10,17)         162.1885         estimate D2E/DX2                !
 ! D84   D(9,10,11,7)          -20.1345         estimate D2E/DX2                !
 ! D85   D(9,10,11,18)          97.9553         estimate D2E/DX2                !
 ! D86   D(9,10,11,19)        -142.3846         estimate D2E/DX2                !
 ! D87   D(16,10,11,7)        -141.8685         estimate D2E/DX2                !
 ! D88   D(16,10,11,18)        -23.7786         estimate D2E/DX2                !
 ! D89   D(16,10,11,19)         95.8814         estimate D2E/DX2                !
 ! D90   D(17,10,11,7)          97.1256         estimate D2E/DX2                !
 ! D91   D(17,10,11,18)       -144.7845         estimate D2E/DX2                !
 ! D92   D(17,10,11,19)        -25.1245         estimate D2E/DX2                !
 ! D93   D(30,12,27,4)        -172.795          estimate D2E/DX2                !
 ! D94   D(31,12,27,4)         -43.5254         estimate D2E/DX2                !
 ! D95   D(33,12,27,4)          55.926          estimate D2E/DX2                !
 ! D96   D(27,12,40,41)         34.2766         estimate D2E/DX2                !
 ! D97   D(27,12,40,42)       -128.5354         estimate D2E/DX2                !
 ! D98   D(31,12,40,41)        -89.3449         estimate D2E/DX2                !
 ! D99   D(31,12,40,42)        107.843          estimate D2E/DX2                !
 ! D100  D(33,12,40,41)        150.9177         estimate D2E/DX2                !
 ! D101  D(33,12,40,42)        -11.8943         estimate D2E/DX2                !
 ! D102  D(27,12,31,34)         30.4467         estimate D2E/DX2                !
 ! D103  D(30,12,31,34)        170.8566         estimate D2E/DX2                !
 ! D104  D(33,12,31,34)        -55.2053         estimate D2E/DX2                !
 ! D105  D(27,12,33,13)        -34.4592         estimate D2E/DX2                !
 ! D106  D(30,12,33,13)       -167.3702         estimate D2E/DX2                !
 ! D107  D(31,12,33,13)         71.1183         estimate D2E/DX2                !
 ! D108  D(32,13,29,14)        146.4903         estimate D2E/DX2                !
 ! D109  D(33,13,29,14)         29.5878         estimate D2E/DX2                !
 ! D110  D(29,13,33,12)        -59.7675         estimate D2E/DX2                !
 ! D111  D(32,13,33,12)        176.5384         estimate D2E/DX2                !
 ! D112  D(28,14,29,13)         99.108          estimate D2E/DX2                !
 ! D113  D(35,14,29,13)        -21.8472         estimate D2E/DX2                !
 ! D114  D(28,14,35,34)        -63.7037         estimate D2E/DX2                !
 ! D115  D(29,14,35,34)         52.5125         estimate D2E/DX2                !
 ! D116  D(12,31,34,35)         47.3786         estimate D2E/DX2                !
 ! D117  D(12,31,34,36)        173.3372         estimate D2E/DX2                !
 ! D118  D(31,34,35,14)        -47.9143         estimate D2E/DX2                !
 ! D119  D(36,34,35,14)        177.2816         estimate D2E/DX2                !
 --------------------------------------------------------------------------------
 Trust Radius=3.00D-01 FncErr=1.00D-07 GrdErr=1.00D-06 EigMax=2.50D+02 EigMin=1.00D-04
 Number of steps in this run=    252 maximum allowed number of steps=    252.
 GradGradGradGradGradGradGradGradGradGradGradGradGradGradGradGradGradGrad

                          Input orientation:                          
 ---------------------------------------------------------------------
 Center     Atomic      Atomic             Coordinates (Angstroms)
 Number     Number       Type             X           Y           Z
 ---------------------------------------------------------------------
      1          6           0        0.026548    2.709193   -0.111833
      2          6           0        0.373560    1.391975   -0.410725
      3          6           0       -0.662292    0.505129   -0.677017
      4          7           0       -1.936805    0.909174   -0.622313
      5          6           0       -2.294340    2.169403   -0.322575
      6          6           0       -1.313017    3.106571   -0.072142
      7          6           0        1.801414    0.893937   -0.400284
      8          7           0        1.999252   -0.044312    0.717451
      9          6           0        3.118010   -0.907523    0.320037
     10          6           0        2.794083   -1.224839   -1.133684
     11          6           0        2.234197    0.108146   -1.667305
     12          8           0       -3.342806   -1.427244   -0.647973
     13          8           0       -2.441028   -0.786288    1.960913
     14          8           0        0.005920   -2.009242    1.223334
     15          1           0        3.157491   -1.790544    0.968614
     16          1           0        3.668160   -1.567849   -1.695823
     17          1           0        2.029572   -2.010569   -1.179700
     18          1           0        3.002693    0.676907   -2.201581
     19          1           0        1.405515   -0.042284   -2.368316
     20          1           0        4.081630   -0.370506    0.404439
     21          1           0        2.461040    1.771634   -0.272005
     22          1           0       -0.507056   -0.541888   -0.930449
     23          1           0       -3.359129    2.383359   -0.289884
     24          1           0       -1.592370    4.130317    0.164576
     25          1           0        0.811032    3.436112    0.100774
     26          6           0        2.184084    0.613864    2.003583
     27          1           0       -2.655316    0.170960   -0.758374
     28          1           0        0.667170   -1.297516    1.075163
     29          1           0       -0.743610   -1.593704    1.682041
     30          1           0       -4.153390   -1.754325   -1.045333
     31          1           0       -2.619863   -2.063167   -0.882022
     32          1           0       -2.870594   -0.973957    2.799536
     33          1           0       -3.009851   -1.166856    1.273777
     34          8           0       -1.085664   -2.740785   -1.057140
     35          1           0       -0.614776   -2.642205   -0.189207
     36          1           0       -0.937141   -3.636551   -1.367871
     37          1           0        2.324937   -0.143429    2.783304
     38          1           0        1.290770    1.198867    2.259228
     39          1           0        3.061105    1.286497    2.001751
     40          8           0       -5.543475   -2.356384   -2.026644
     41          1           0       -5.602310   -1.970804   -2.917884
     42          1           0       -6.401605   -2.800929   -1.924711
 ---------------------------------------------------------------------
                    Distance matrix (angstroms):
                    1          2          3          4          5
     1  C    0.000000
     2  C    1.394567   0.000000
     3  C    2.377358   1.389387   0.000000
     4  N    2.712087   2.369737   1.338144   0.000000
     5  C    2.392134   2.780262   2.357757   1.343820   0.000000
     6  C    1.397827   2.428790   2.748967   2.349543   1.379853
     7  C    2.555094   1.512256   2.509502   3.744838   4.290461
     8  N    3.487272   2.445113   3.054545   4.265753   4.941368
     9  C    4.777477   3.654273   4.156968   5.453400   6.258910
    10  C    4.917320   3.637213   3.892025   5.215056   6.170156
    11  C    3.749487   2.586345   3.086732   4.373890   5.154098
    12  O    5.361912   4.670724   3.304552   2.726967   3.760457
    13  O    4.754324   4.276845   3.433706   3.130797   3.737906
    14  O    4.903746   3.791251   3.221786   3.962038   5.014190
    15  H    5.587289   4.447615   4.750680   5.980918   6.860817
    16  H    5.836390   4.611553   4.907955   6.221230   7.169677
    17  H    5.237232   3.861477   3.718543   4.956584   6.074788
    18  H    4.165894   3.260495   3.973150   5.191019   5.815219
    19  H    3.816267   2.637080   2.726899   3.889075   4.771325
    20  H    5.118083   4.185763   4.943792   6.238057   6.901643
    21  H    2.613699   2.126254   3.394595   4.495286   4.772255
    22  H    3.394760   2.187561   1.088380   2.060270   3.303785
    23  H    3.405977   3.863989   3.309161   2.075268   1.086564
    24  H    2.171840   3.419703   3.836054   3.333705   2.138986
    25  H    1.090426   2.152094   3.371395   3.802483   3.380401
    26  C    3.677003   3.116462   3.911431   4.895331   5.280814
    27  H    3.748738   3.284178   2.022482   1.039101   2.077017
    28  H    4.227656   3.086654   2.843788   3.812032   4.769040
    29  H    4.725045   3.813400   3.158618   3.605296   4.536984
    30  H    6.185976   5.549343   4.174752   3.490906   4.401601
    31  H    5.511089   4.595727   3.235777   3.060854   4.281775
    32  H    5.516801   5.140812   4.376153   4.015868   4.467702
    33  H    5.115016   4.564278   3.480253   3.009400   3.767084
    34  O    5.642064   4.430225   3.295405   3.773025   5.109837
    35  H    5.390245   4.159385   3.185267   3.814136   5.098068
    36  H    6.540244   5.283951   4.207890   4.713682   6.053407
    37  H    4.669246   4.045635   4.617140   5.555956   6.027719
    38  H    3.082413   2.829702   3.594059   4.336409   4.523346
    39  H    3.962302   3.613041   4.652958   5.657490   5.904473
    40  O    7.768637   7.188372   5.816846   5.063998   5.826103
    41  H    7.839665   7.301038   5.962844   5.196138   5.900814
    42  H    8.658471   8.110207   6.739917   5.949416   6.643844
                    6          7          8          9         10
     6  C    0.000000
     7  C    3.834463   0.000000
     8  N    4.639251   1.472679   0.000000
     9  C    5.991724   2.344685   1.467886   0.000000
    10  C    6.062694   2.452036   2.334973   1.522801   0.000000
    11  C    4.910990   1.552453   2.401146   2.400466   1.541127
    12  O    5.000710   5.649091   5.684582   6.553571   6.159407
    13  O    4.534322   5.137774   4.670419   5.797420   6.097151
    14  O    5.439614   3.779998   2.844335   3.422694   3.734257
    15  H    6.711956   3.304431   2.110433   1.096329   2.207203
    16  H    7.021301   3.350157   3.306102   2.191435   1.094380
    17  H    6.211659   3.015908   2.732447   2.156529   1.097254
    18  H    5.391023   2.175970   3.169826   2.980314   2.191018
    19  H    4.751644   2.215039   3.142369   3.302805   2.202470
    20  H    6.435791   2.728696   2.130886   1.106379   2.180249
    21  H    4.008180   1.105402   2.118946   2.821348   3.135643
    22  H    3.833734   2.769784   3.040516   3.852078   3.377165
    23  H    2.181060   5.372315   5.968296   7.290764   7.182834
    24  H    1.087258   4.723451   5.534704   6.898672   7.043021
    25  H    2.156405   2.773909   3.729009   4.923148   5.213525
    26  C    4.769899   2.450195   1.456535   2.453806   3.687190
    27  H    3.300075   4.529168   4.887679   5.971381   5.637824
    28  H    4.963208   2.875051   1.863577   2.594017   3.067254
    29  H    5.049155   4.123298   3.294593   4.151868   4.536479
    30  H    5.713417   6.548975   6.624693   7.446782   6.968181
    31  H    5.393509   5.340808   5.288697   5.975253   5.484245
    32  H    5.227168   5.962846   5.377241   6.481952   6.900850
    33  H    4.790921   5.495236   5.163402   6.207057   6.283700
    34  O    5.934095   4.688058   4.465070   4.788355   4.166100
    35  H    5.792208   4.287986   3.795289   4.147547   3.810680
    36  H    6.876765   5.381564   5.086762   5.171158   4.448958
    37  H    5.652502   3.389017   2.093715   2.698238   4.090518
    38  H    3.981749   2.725205   2.103454   3.396490   4.432398
    39  H    5.171716   2.740565   2.132607   2.764982   4.026048
    40  O    7.180580   8.194939   8.352752   9.089963   8.461243
    41  H    7.230216   8.328276   8.643540   9.362622   8.616220
    42  H    8.014006   9.124990   9.227912   9.962277   9.363251
                   11         12         13         14         15
    11  C    0.000000
    12  O    5.873621   0.000000
    13  O    5.985124   2.833781   0.000000
    14  O    4.219519   3.880010   2.833230   0.000000
    15  H    3.377213   6.708144   5.773786   3.169402   0.000000
    16  H    2.205906   7.090233   7.162732   4.704073   2.722058
    17  H    2.183709   5.430050   5.598980   3.141614   2.436363
    18  H    1.095229   6.863418   7.007239   5.284514   4.020250
    19  H    1.095792   5.236816   5.838806   4.327556   4.154628
    20  H    2.816778   7.572748   6.718672   4.468496   1.785731
    21  H    2.183005   6.637680   5.963150   4.749597   3.835791
    22  H    2.912039   2.984146   3.487112   2.656135   4.312133
    23  H    6.193479   3.827426   3.994453   5.736578   7.840384
    24  H    5.846047   5.883090   5.302834   6.431927   7.633102
    25  H    4.028258   6.439505   5.644880   5.617849   5.794562
    26  C    3.705898   6.460912   4.832588   3.497695   2.792823
    27  H    4.973675   1.743298   2.890807   3.970217   6.373281
    28  H    3.457252   4.366456   3.272125   0.982731   2.540891
    29  H    4.793928   3.494638   1.900242   0.972049   3.970682
    30  H    6.682583   0.960168   3.592603   4.744649   7.583289
    31  H    5.375237   0.990870   3.121647   3.366032   6.072643
    32  H    6.868952   3.509098   0.960747   3.439558   6.352708
    33  H    6.146188   1.967685   0.969818   3.131618   6.206305
    34  O    4.417034   2.643388   3.842618   2.631971   4.796978
    35  H    4.226802   3.021381   3.376780   1.667686   4.036815
    36  H    4.916279   3.344625   4.633193   3.201850   5.062896
    37  H    4.458637   6.748715   4.878936   3.360447   2.588288
    38  H    4.182988   6.067809   4.237470   3.607753   3.753253
    39  H    3.941353   7.442816   5.879760   4.560919   3.247283
    40  O    8.166713   2.758075   5.290651   6.440392   9.219466
    41  H    8.203464   3.248586   5.932912   6.971615   9.584961
    42  H    9.116252   3.587942   5.902798   7.182850  10.038353
                   16         17         18         19         20
    16  H    0.000000
    17  H    1.774079   0.000000
    18  H    2.395322   3.035413   0.000000
    19  H    2.810544   2.382520   1.759549   0.000000
    20  H    2.452690   3.067612   3.008740   3.867492   0.000000
    21  H    3.825774   3.913456   2.283655   2.966303   2.769955
    22  H    4.367015   2.941706   3.926777   2.444380   4.781980
    23  H    8.183612   7.009741   6.858523   5.736328   7.964342
    24  H    7.975171   7.255069   6.216055   5.728303   7.246324
    25  H    6.035774   5.726324   4.209208   4.306861   5.027859
    26  C    4.544002   4.128536   4.284565   4.488897   2.669630
    27  H    6.624848   5.185052   5.861049   4.373527   6.857971
    28  H    4.093578   2.729284   4.482194   3.738758   3.601077
    29  H    5.556469   4.006729   5.854313   4.840561   5.139204
    30  H    7.850768   6.189728   7.645739   5.965131   8.475397
    31  H    6.359783   4.659252   6.392369   4.743069   7.030654
    32  H    7.957152   6.396914   7.888728   6.771988   7.377944
    33  H    7.319505   5.668085   7.185281   5.833092   7.188812
    34  O    4.937868   3.202020   5.450232   3.899623   5.869869
    35  H    4.665584   2.893547   5.305868   3.948377   5.250644
    36  H    5.059237   3.388305   5.901126   4.405415   6.244693
    37  H    4.888333   4.390769   5.097194   5.234000   2.965895
    38  H    5.380439   4.761568   4.806448   4.792472   3.700280
    39  H    4.710399   4.696417   4.247707   4.858407   2.517645
    40  O    9.251240   7.628102   9.070195   7.332138  10.124056
    41  H    9.359350   7.827419   9.031586   7.289090  10.362311
    42  H   10.147564   8.500851  10.030595   8.292047  11.010455
                   21         22         23         24         25
    21  H    0.000000
    22  H    3.820409   0.000000
    23  H    5.852255   4.135422   0.000000
    24  H    4.710002   4.920009   2.525833   0.000000
    25  H    2.373179   4.315699   4.318697   2.502465   0.000000
    26  C    2.568158   4.145665   6.254464   5.478046   3.670291
    27  H    5.382918   2.269974   2.368448   4.202166   4.838897
    28  H    3.801646   2.443821   5.623458   5.949459   4.835014
    29  H    5.041188   2.826195   5.152325   5.982266   5.496942
    30  H    7.535324   3.844340   4.280419   6.530828   7.273217
    31  H    6.394794   2.603956   4.546288   6.364774   6.555837
    32  H    6.737875   4.436866   4.588546   5.884767   6.347156
    33  H    6.399595   3.393108   3.895004   5.594606   6.096097
    34  O    5.792881   2.277276   5.658107   6.997241   6.564471
    35  H    5.380472   2.229882   5.726945   6.851854   6.250036
    36  H    6.480511   3.154877   6.577796   7.943674   7.432065
    37  H    3.608449   4.687314   6.938137   6.361441   4.722392
    38  H    2.846882   4.054189   5.433466   4.614484   3.145527
    39  H    2.401125   4.967148   6.904643   5.754768   3.646558
    40  O    9.175595   5.464389   5.500260   7.905059   8.857690
    41  H    9.274920   5.652726   5.558505   7.924952   8.915043
    42  H   10.108722   6.390425   6.229459   8.691147   9.748098
                   26         27         28         29         30
    26  C    0.000000
    27  H    5.589666   0.000000
    28  H    2.610817   4.069053   0.000000
    29  H    3.680780   3.567111   1.564074   0.000000
    30  H    7.420767   2.456276   5.286112   4.369321   0.000000
    31  H    6.210565   2.237827   3.901459   3.211719   1.572819
    32  H    5.357657   3.743782   3.948915   2.481319   4.127658
    33  H    5.539002   2.458675   3.684698   2.341949   2.651617
    34  O    5.595797   3.321344   3.114830   2.989299   3.222450
    35  H    4.821196   3.521598   2.247266   2.148842   3.747409
    36  H    6.258976   4.221463   3.743436   3.675954   3.740463
    37  H    1.096037   6.119252   2.645346   3.568201   7.695594
    38  H    1.097995   5.072880   2.832457   3.502899   7.019996
    39  H    1.105262   6.445167   3.642336   4.782638   8.401206
    40  O    9.207620   4.041959   7.022429   6.113487   1.804933
    41  H    9.567094   4.235022   7.463520   6.701379   2.377536
    42  H   10.040238   4.922108   7.824774   6.817548   2.631190
                   31         32         33         34         35
    31  H    0.000000
    32  H    3.847481   0.000000
    33  H    2.367052   1.544197   0.000000
    34  O    1.686297   4.602348   3.407774   0.000000
    35  H    2.199011   4.099311   3.170704   0.992351   0.000000
    36  H    2.354387   5.309890   4.168192   0.959692   1.575402
    37  H    6.447562   5.261519   5.637911   5.755647   4.870484
    38  H    5.983424   4.725468   5.006306   5.671560   4.937588
    39  H    7.197902   6.397747   6.588277   6.539993   5.809225
    40  O    3.153354   5.687478   4.327471   4.578185   5.267821
    41  H    3.612237   6.414426   4.993716   4.945233   5.724679
    42  H    3.991625   6.174494   4.940093   5.386607   6.043556
                   36         37         38         39         40
    36  H    0.000000
    37  H    6.330506   0.000000
    38  H    6.442104   1.773673   0.000000
    39  H    7.181694   1.788143   1.791106   0.000000
    40  O    4.826088   9.483916   8.815634  10.175330   0.000000
    41  H    5.190478   9.933987   9.184980  10.481774   0.972852
    42  H    5.555961  10.265489   9.626856  11.030279   0.971802
                   41         42
    41  H    0.000000
    42  H    1.521306   0.000000
 Stoichiometry    C10H25N2O5(1+)
 Framework group  C1[X(C10H25N2O5)]
 Deg. of freedom   120
 Full point group                 C1      NOp   1
 Largest Abelian subgroup         C1      NOp   1
 Largest concise Abelian subgroup C1      NOp   1
                         Standard orientation:                         
 ---------------------------------------------------------------------
 Center     Atomic      Atomic             Coordinates (Angstroms)
 Number     Number       Type             X           Y           Z
 ---------------------------------------------------------------------
      1          6           0        1.144813    2.651986   -0.366040
      2          6           0        1.094415    1.270444   -0.549392
      3          6           0       -0.160839    0.674993   -0.562515
      4          7           0       -1.265383    1.408561   -0.382266
      5          6           0       -1.239259    2.738269   -0.189795
      6          6           0       -0.025912    3.395371   -0.190821
      7          6           0        2.332162    0.410774   -0.675355
      8          7           0        2.467401   -0.453798    0.509132
      9          6           0        3.251370   -1.613916    0.068441
     10          6           0        2.624029   -1.947981   -1.278320
     11          6           0        2.338886   -0.560802   -1.886184
     12          8           0       -3.199885   -0.460404    0.066085
     13          8           0       -1.750405    0.121964    2.430439
     14          8           0        0.153666   -1.766357    1.516138
     15          1           0        3.172595   -2.420534    0.806749
     16          1           0        3.278886   -2.556262   -1.909844
     17          1           0        1.689171   -2.501399   -1.124256
     18          1           0        3.127653   -0.263130   -2.585300
     19          1           0        1.395708   -0.539358   -2.443602
     20          1           0        4.319657   -1.349550   -0.045352
     21          1           0        3.203686    1.087149   -0.745179
     22          1           0       -0.318503   -0.392131   -0.707285
     23          1           0       -2.195365    3.231407   -0.037158
     24          1           0        0.004775    4.472048   -0.042650
     25          1           0        2.111197    3.156894   -0.351988
     26          6           0        3.020608    0.231407    1.669282
     27          1           0       -2.159150    0.881258   -0.328758
     28          1           0        0.939537   -1.271859    1.194207
     29          1           0       -0.381078   -1.130046    2.020158
     30          1           0       -4.120580   -0.589167   -0.174049
     31          1           0       -2.709259   -1.283260   -0.186931
     32          1           0       -2.069900    0.123770    3.336505
     33          1           0       -2.501552   -0.146032    1.878621
     34          8           0       -1.445827   -2.358653   -0.488376
     35          1           0       -0.829573   -2.320750    0.288512
     36          1           0       -1.581129   -3.283329   -0.706725
     37          1           0        3.091731   -0.471157    2.507520
     38          1           0        2.358200    1.052712    1.973037
     39          1           0        4.026383    0.642287    1.466307
     40          8           0       -5.759046   -0.873442   -0.875760
     41          1           0       -5.864017   -0.558654   -1.790271
     42          1           0       -6.672849   -1.062379   -0.604344
 ---------------------------------------------------------------------
 Rotational constants (GHZ):           0.4978378           0.2613507           0.2190273
 Standard basis: Aug-CC-pVDZ (5D, 7F)
 There are   650 symmetry adapted cartesian basis functions of A   symmetry.
 There are   616 symmetry adapted basis functions of A   symmetry.
   616 basis functions,  1006 primitive gaussians,   650 cartesian basis functions
    69 alpha electrons       69 beta electrons
       nuclear repulsion energy      1400.0473030049 Hartrees.
 NAtoms=   42 NActive=   42 NUniq=   42 SFac= 1.00D+00 NAtFMM=   60 NAOKFM=F Big=F
 Integral buffers will be    131072 words long.
 Raffenetti 2 integral format.
 Two-electron integral symmetry is turned on.
 Nuclear repulsion after empirical dispersion term =     1400.0127162435 Hartrees.
 One-electron integrals computed using PRISM.
 NBasis=   616 RedAO= T EigKep=  1.69D-06  NBF=   616
 NBsUse=   616 1.00D-06 EigRej= -1.00D+00 NBFU=   616
 ExpMin= 2.97D-02 ExpMax= 1.17D+04 ExpMxC= 4.01D+02 IAcc=3 IRadAn=         5 AccDes= 0.00D+00
 Harris functional with IExCor= 4639 and IRadAn=       5 diagonalized for initial guess.
 HarFok:  IExCor= 4639 AccDes= 0.00D+00 IRadAn=         5 IDoV= 1 UseB2=F ITyADJ=14
 ICtDFT=  3500011 ScaDFX=  1.000000  1.000000  1.000000  1.000000
 FoFCou: FMM=F IPFlag=           0 FMFlag=      100000 FMFlg1=           0
         NFxFlg=           0 DoJE=T BraDBF=F KetDBF=T FulRan=T
         wScrn=  0.000000 ICntrl=       500 IOpCl=  0 I1Cent=   200000004 NGrid=           0
         NMat0=    1 NMatS0=      1 NMatT0=    0 NMatD0=    1 NMtDS0=    0 NMtDT0=    0
 Petite list used in FoFCou.
 Requested convergence on RMS density matrix=1.00D-08 within 128 cycles.
 Requested convergence on MAX density matrix=1.00D-06.
 Requested convergence on             energy=1.00D-06.
 No special actions if energy rises.
 SCF Done:  E(RwB97XD) =  -881.470470470     A.U. after   15 cycles
            NFock= 15  Conv=0.36D-08     -V/T= 2.0062

 **********************************************************************

            Population analysis using the SCF density.

 **********************************************************************

 Orbital symmetries:
       Occupied  (A) (A) (A) (A) (A) (A) (A) (A) (A) (A) (A) (A)
                 (A) (A) (A) (A) (A) (A) (A) (A) (A) (A) (A) (A)
                 (A) (A) (A) (A) (A) (A) (A) (A) (A) (A) (A) (A)
                 (A) (A) (A) (A) (A) (A) (A) (A) (A) (A) (A) (A)
                 (A) (A) (A) (A) (A) (A) (A) (A) (A) (A) (A) (A)
                 (A) (A) (A) (A) (A) (A) (A) (A) (A)
       Virtual   (A) (A) (A) (A) (A) (A) (A) (A) (A) (A) (A) (A)
                 (A) (A) (A) (A) (A) (A) (A) (A) (A) (A) (A) (A)
                 (A) (A) (A) (A) (A) (A) (A) (A) (A) (A) (A) (A)
                 (A) (A) (A) (A) (A) (A) (A) (A) (A) (A) (A) (A)
                 (A) (A) (A) (A) (A) (A) (A) (A) (A) (A) (A) (A)
                 (A) (A) (A) (A) (A) (A) (A) (A) (A) (A) (A) (A)
                 (A) (A) (A) (A) (A) (A) (A) (A) (A) (A) (A) (A)
                 (A) (A) (A) (A) (A) (A) (A) (A) (A) (A) (A) (A)
                 (A) (A) (A) (A) (A) (A) (A) (A) (A) (A) (A) (A)
                 (A) (A) (A) (A) (A) (A) (A) (A) (A) (A) (A) (A)
                 (A) (A) (A) (A) (A) (A) (A) (A) (A) (A) (A) (A)
                 (A) (A) (A) (A) (A) (A) (A) (A) (A) (A) (A) (A)
                 (A) (A) (A) (A) (A) (A) (A) (A) (A) (A) (A) (A)
                 (A) (A) (A) (A) (A) (A) (A) (A) (A) (A) (A) (A)
                 (A) (A) (A) (A) (A) (A) (A) (A) (A) (A) (A) (A)
                 (A) (A) (A) (A) (A) (A) (A) (A) (A) (A) (A) (A)
                 (A) (A) (A) (A) (A) (A) (A) (A) (A) (A) (A) (A)
                 (A) (A) (A) (A) (A) (A) (A) (A) (A) (A) (A) (A)
                 (A) (A) (A) (A) (A) (A) (A) (A) (A) (A) (A) (A)
                 (A) (A) (A) (A) (A) (A) (A) (A) (A) (A) (A) (A)
                 (A) (A) (A) (A) (A) (A) (A) (A) (A) (A) (A) (A)
                 (A) (A) (A) (A) (A) (A) (A) (A) (A) (A) (A) (A)
                 (A) (A) (A) (A) (A) (A) (A) (A) (A) (A) (A) (A)
                 (A) (A) (A) (A) (A) (A) (A) (A) (A) (A) (A) (A)
                 (A) (A) (A) (A) (A) (A) (A) (A) (A) (A) (A) (A)
                 (A) (A) (A) (A) (A) (A) (A) (A) (A) (A) (A) (A)
                 (A) (A) (A) (A) (A) (A) (A) (A) (A) (A) (A) (A)
                 (A) (A) (A) (A) (A) (A) (A) (A) (A) (A) (A) (A)
                 (A) (A) (A) (A) (A) (A) (A) (A) (A) (A) (A) (A)
                 (A) (A) (A) (A) (A) (A) (A) (A) (A) (A) (A) (A)
                 (A) (A) (A) (A) (A) (A) (A) (A) (A) (A) (A) (A)
                 (A) (A) (A) (A) (A) (A) (A) (A) (A) (A) (A) (A)
                 (A) (A) (A) (A) (A) (A) (A) (A) (A) (A) (A) (A)
                 (A) (A) (A) (A) (A) (A) (A) (A) (A) (A) (A) (A)
                 (A) (A) (A) (A) (A) (A) (A) (A) (A) (A) (A) (A)
                 (A) (A) (A) (A) (A) (A) (A) (A) (A) (A) (A) (A)
                 (A) (A) (A) (A) (A) (A) (A) (A) (A) (A) (A) (A)
                 (A) (A) (A) (A) (A) (A) (A) (A) (A) (A) (A) (A)
                 (A) (A) (A) (A) (A) (A) (A) (A) (A) (A) (A) (A)
                 (A) (A) (A) (A) (A) (A) (A) (A) (A) (A) (A) (A)
                 (A) (A) (A) (A) (A) (A) (A) (A) (A) (A) (A) (A)
                 (A) (A) (A) (A) (A) (A) (A) (A) (A) (A) (A) (A)
                 (A) (A) (A) (A) (A) (A) (A) (A) (A) (A) (A) (A)
                 (A) (A) (A) (A) (A) (A) (A) (A) (A) (A) (A) (A)
                 (A) (A) (A) (A) (A) (A) (A) (A) (A) (A) (A) (A)
                 (A) (A) (A) (A) (A) (A) (A)
 The electronic state is 1-A.
 Alpha  occ. eigenvalues --  -19.40224 -19.38415 -19.37830 -19.37713 -19.35717
 Alpha  occ. eigenvalues --  -14.67696 -14.57060 -10.50892 -10.50319 -10.47539
 Alpha  occ. eigenvalues --  -10.46769 -10.46666 -10.45862 -10.42422 -10.42419
 Alpha  occ. eigenvalues --  -10.40998 -10.39862  -1.25855  -1.24126  -1.23146
 Alpha  occ. eigenvalues --   -1.22386  -1.21423  -1.19622  -1.16550  -1.08025
 Alpha  occ. eigenvalues --   -1.04515  -0.99959  -0.95544  -0.90484  -0.89355
 Alpha  occ. eigenvalues --   -0.88168  -0.82324  -0.79260  -0.78747  -0.75185
 Alpha  occ. eigenvalues --   -0.74552  -0.74019  -0.73728  -0.73076  -0.72559
 Alpha  occ. eigenvalues --   -0.71991  -0.69927  -0.68808  -0.68638  -0.67832
 Alpha  occ. eigenvalues --   -0.64950  -0.64283  -0.63962  -0.63140  -0.61448
 Alpha  occ. eigenvalues --   -0.60611  -0.60160  -0.59115  -0.58414  -0.57906
 Alpha  occ. eigenvalues --   -0.56310  -0.55874  -0.55522  -0.55152  -0.53185
 Alpha  occ. eigenvalues --   -0.53036  -0.52915  -0.52307  -0.52020  -0.51571
 Alpha  occ. eigenvalues --   -0.51031  -0.49745  -0.48744  -0.43176
 Alpha virt. eigenvalues --   -0.13624  -0.10714  -0.06511  -0.05310  -0.04409
 Alpha virt. eigenvalues --   -0.04303  -0.03809  -0.03107  -0.02916  -0.02566
 Alpha virt. eigenvalues --   -0.01838  -0.01283  -0.00957  -0.00643  -0.00327
 Alpha virt. eigenvalues --    0.00144   0.00471   0.01031   0.01204   0.01499
 Alpha virt. eigenvalues --    0.02081   0.02155   0.02458   0.02799   0.03248
 Alpha virt. eigenvalues --    0.03431   0.03606   0.03928   0.04265   0.04416
 Alpha virt. eigenvalues --    0.04875   0.04912   0.05089   0.05420   0.05789
 Alpha virt. eigenvalues --    0.06027   0.06147   0.06640   0.06953   0.07224
 Alpha virt. eigenvalues --    0.07581   0.07667   0.07795   0.08567   0.08882
 Alpha virt. eigenvalues --    0.09076   0.09297   0.09468   0.09799   0.09963
 Alpha virt. eigenvalues --    0.10143   0.10532   0.10708   0.11180   0.11528
 Alpha virt. eigenvalues --    0.11769   0.11883   0.12141   0.12573   0.12776
 Alpha virt. eigenvalues --    0.13243   0.13317   0.13400   0.13854   0.14126
 Alpha virt. eigenvalues --    0.14787   0.14977   0.15076   0.15478   0.15637
 Alpha virt. eigenvalues --    0.15833   0.16304   0.16529   0.16939   0.17133
 Alpha virt. eigenvalues --    0.17232   0.17534   0.18008   0.18320   0.18594
 Alpha virt. eigenvalues --    0.18896   0.19053   0.19355   0.19595   0.19755
 Alpha virt. eigenvalues --    0.19945   0.20007   0.20624   0.20999   0.21107
 Alpha virt. eigenvalues --    0.21177   0.21717   0.21827   0.22452   0.22724
 Alpha virt. eigenvalues --    0.23254   0.23385   0.23512   0.23995   0.24227
 Alpha virt. eigenvalues --    0.24626   0.25193   0.25231   0.25551   0.26026
 Alpha virt. eigenvalues --    0.26194   0.26291   0.26724   0.27229   0.27489
 Alpha virt. eigenvalues --    0.27651   0.28011   0.28244   0.28380   0.28907
 Alpha virt. eigenvalues --    0.29094   0.29411   0.29819   0.30260   0.30559
 Alpha virt. eigenvalues --    0.30824   0.31131   0.32123   0.32206   0.32603
 Alpha virt. eigenvalues --    0.33165   0.33281   0.33585   0.34175   0.34636
 Alpha virt. eigenvalues --    0.34942   0.35488   0.35680   0.36136   0.36459
 Alpha virt. eigenvalues --    0.36569   0.36933   0.37696   0.38049   0.38355
 Alpha virt. eigenvalues --    0.38716   0.38938   0.39509   0.39616   0.40512
 Alpha virt. eigenvalues --    0.40700   0.41579   0.41702   0.42060   0.42452
 Alpha virt. eigenvalues --    0.42768   0.43109   0.43529   0.43961   0.44394
 Alpha virt. eigenvalues --    0.44916   0.44995   0.45396   0.45822   0.45910
 Alpha virt. eigenvalues --    0.46203   0.47103   0.47204   0.47360   0.47660
 Alpha virt. eigenvalues --    0.48256   0.48819   0.48984   0.49638   0.49762
 Alpha virt. eigenvalues --    0.50032   0.50321   0.50564   0.51270   0.51588
 Alpha virt. eigenvalues --    0.51999   0.52158   0.52493   0.52913   0.53436
 Alpha virt. eigenvalues --    0.53600   0.53872   0.54226   0.54404   0.54760
 Alpha virt. eigenvalues --    0.55115   0.55558   0.55867   0.56287   0.57018
 Alpha virt. eigenvalues --    0.57419   0.57635   0.57929   0.58676   0.59147
 Alpha virt. eigenvalues --    0.59360   0.59425   0.59538   0.60067   0.60685
 Alpha virt. eigenvalues --    0.61197   0.61394   0.61883   0.62109   0.62631
 Alpha virt. eigenvalues --    0.62789   0.63591   0.64016   0.64187   0.64337
 Alpha virt. eigenvalues --    0.64782   0.65094   0.65600   0.66327   0.66781
 Alpha virt. eigenvalues --    0.67099   0.67878   0.68012   0.68239   0.68724
 Alpha virt. eigenvalues --    0.69418   0.69780   0.70696   0.70762   0.70928
 Alpha virt. eigenvalues --    0.71917   0.72249   0.72287   0.73044   0.73659
 Alpha virt. eigenvalues --    0.74022   0.74447   0.74790   0.74974   0.75496
 Alpha virt. eigenvalues --    0.75858   0.76332   0.76629   0.77051   0.77539
 Alpha virt. eigenvalues --    0.78250   0.78840   0.79345   0.79608   0.79994
 Alpha virt. eigenvalues --    0.80838   0.81095   0.81735   0.82044   0.82922
 Alpha virt. eigenvalues --    0.83935   0.84311   0.84933   0.85587   0.86427
 Alpha virt. eigenvalues --    0.86907   0.87177   0.88239   0.88893   0.89238
 Alpha virt. eigenvalues --    0.89532   0.89900   0.90493   0.90919   0.91745
 Alpha virt. eigenvalues --    0.92443   0.92878   0.93300   0.94119   0.94622
 Alpha virt. eigenvalues --    0.96347   0.96957   0.97562   0.97654   0.97837
 Alpha virt. eigenvalues --    0.98635   0.99413   0.99715   1.00695   1.01244
 Alpha virt. eigenvalues --    1.01595   1.02307   1.03243   1.03662   1.04689
 Alpha virt. eigenvalues --    1.05066   1.05730   1.06159   1.07316   1.08899
 Alpha virt. eigenvalues --    1.09214   1.10067   1.10452   1.11836   1.12531
 Alpha virt. eigenvalues --    1.12899   1.13297   1.14042   1.14945   1.15811
 Alpha virt. eigenvalues --    1.16731   1.17686   1.17749   1.18383   1.18715
 Alpha virt. eigenvalues --    1.19306   1.20127   1.20752   1.20910   1.21533
 Alpha virt. eigenvalues --    1.21932   1.23321   1.24453   1.25832   1.26228
 Alpha virt. eigenvalues --    1.27295   1.28329   1.29572   1.29753   1.30315
 Alpha virt. eigenvalues --    1.31303   1.31723   1.33224   1.33792   1.34195
 Alpha virt. eigenvalues --    1.35093   1.35930   1.36480   1.37223   1.37540
 Alpha virt. eigenvalues --    1.38594   1.39965   1.40522   1.40920   1.41622
 Alpha virt. eigenvalues --    1.43535   1.45187   1.45871   1.46560   1.47116
 Alpha virt. eigenvalues --    1.47697   1.48294   1.49429   1.49998   1.50651
 Alpha virt. eigenvalues --    1.50975   1.52550   1.53944   1.54206   1.55529
 Alpha virt. eigenvalues --    1.56710   1.57685   1.58775   1.59158   1.59817
 Alpha virt. eigenvalues --    1.60762   1.61666   1.62014   1.63456   1.64327
 Alpha virt. eigenvalues --    1.65365   1.65693   1.66258   1.67093   1.68174
 Alpha virt. eigenvalues --    1.69541   1.70279   1.70791   1.71441   1.71748
 Alpha virt. eigenvalues --    1.72554   1.72908   1.73856   1.74666   1.75608
 Alpha virt. eigenvalues --    1.76532   1.77146   1.77739   1.78080   1.79052
 Alpha virt. eigenvalues --    1.79629   1.79887   1.81345   1.81981   1.82344
 Alpha virt. eigenvalues --    1.82882   1.83511   1.84067   1.85155   1.85555
 Alpha virt. eigenvalues --    1.85894   1.86377   1.87336   1.87826   1.88810
 Alpha virt. eigenvalues --    1.89238   1.89785   1.90856   1.91236   1.92044
 Alpha virt. eigenvalues --    1.92376   1.93379   1.94202   1.94937   1.95449
 Alpha virt. eigenvalues --    1.95634   1.97018   1.97546   1.98252   1.98531
 Alpha virt. eigenvalues --    1.99569   2.00376   2.00806   2.00968   2.02919
 Alpha virt. eigenvalues --    2.03177   2.04356   2.05294   2.06952   2.08813
 Alpha virt. eigenvalues --    2.09038   2.09703   2.10488   2.11993   2.12309
 Alpha virt. eigenvalues --    2.12845   2.13264   2.13451   2.13665   2.15689
 Alpha virt. eigenvalues --    2.16461   2.17581   2.18280   2.20048   2.20543
 Alpha virt. eigenvalues --    2.22023   2.22441   2.23054   2.24057   2.24545
 Alpha virt. eigenvalues --    2.25756   2.26484   2.28169   2.28465   2.28938
 Alpha virt. eigenvalues --    2.30260   2.30978   2.32170   2.32421   2.33314
 Alpha virt. eigenvalues --    2.34031   2.34934   2.36218   2.37333   2.37511
 Alpha virt. eigenvalues --    2.39853   2.41505   2.42840   2.43649   2.44207
 Alpha virt. eigenvalues --    2.44985   2.46554   2.46899   2.48251   2.48923
 Alpha virt. eigenvalues --    2.49677   2.51050   2.52315   2.53350   2.53950
 Alpha virt. eigenvalues --    2.55203   2.55492   2.56032   2.58910   2.59082
 Alpha virt. eigenvalues --    2.61670   2.62362   2.62784   2.64176   2.65499
 Alpha virt. eigenvalues --    2.66193   2.66788   2.68034   2.70648   2.70868
 Alpha virt. eigenvalues --    2.71551   2.71814   2.74106   2.75402   2.76465
 Alpha virt. eigenvalues --    2.76584   2.79131   2.81050   2.81757   2.83633
 Alpha virt. eigenvalues --    2.84011   2.85129   2.86965   2.88172   2.89492
 Alpha virt. eigenvalues --    2.90499   2.91528   2.91994   2.96127   2.98015
 Alpha virt. eigenvalues --    2.99764   3.01969   3.02629   3.03414   3.10697
 Alpha virt. eigenvalues --    3.15817   3.16996   3.21230   3.25019   3.27385
 Alpha virt. eigenvalues --    3.28647   3.35019   3.35285   3.38796   3.40614
 Alpha virt. eigenvalues --    3.42770   3.43272   3.45438   3.46754   3.49188
 Alpha virt. eigenvalues --    3.51066   3.52444   3.54457   3.54904   3.58648
 Alpha virt. eigenvalues --    3.60723   3.63662   3.65606   3.66315   3.70154
 Alpha virt. eigenvalues --    3.71165   3.79947   3.87548   3.89873   3.95057
 Alpha virt. eigenvalues --    3.96682   4.01554   4.07114   4.11773   4.16501
 Alpha virt. eigenvalues --    4.36009   4.79170
          Condensed to atoms (all electrons):
               1          2          3          4          5          6
     1  C   26.842763 -13.491730  -0.283861  -0.623073   1.661000  -4.931541
     2  C  -13.491730  28.036374  -6.987617   0.622078  -1.305607   1.311239
     3  C   -0.283861  -6.987617  18.604335  -1.646130  -1.911546   0.304875
     4  N   -0.623073   0.622078  -1.646130   8.135056   0.597944  -0.212777
     5  C    1.661000  -1.305607  -1.911546   0.597944  10.658171  -2.902411
     6  C   -4.931541   1.311239   0.304875  -0.212777  -2.902411  12.369932
     7  C   -0.893156  -7.016295  -1.196766   0.465065  -0.211287  -0.072624
     8  N   -1.015400   2.657528  -0.297780  -0.010888   0.026034   0.121789
     9  C   -0.051802  -0.324196  -0.198861   0.024946  -0.065222  -0.014058
    10  C   -0.174146   0.402602  -0.252050   0.035645   0.030575   0.030415
    11  C   -0.289556   0.778173  -0.498002  -0.028619  -0.168068  -0.156278
    12  O    0.059623  -0.217898   0.230880  -0.301719   0.020669  -0.029844
    13  O   -0.044544   0.095284  -0.109519  -0.026368  -0.027892   0.025395
    14  O    0.026317  -0.054526  -0.031429  -0.019293   0.025394  -0.029134
    15  H    0.020783  -0.205264  -0.003141  -0.000182  -0.005089  -0.000460
    16  H    0.022577  -0.071967   0.036761   0.000229   0.000874   0.003374
    17  H   -0.037588   0.136632  -0.037809   0.003338   0.003266  -0.001319
    18  H   -0.000663   0.396806   0.124676  -0.016384  -0.001249   0.002091
    19  H   -0.006784  -0.289728  -0.193479   0.062879   0.005586  -0.026153
    20  H    0.008946   0.052662  -0.001445   0.001100  -0.000121  -0.007843
    21  H    0.002518   0.721489  -0.032512  -0.004170   0.025199  -0.000721
    22  H   -0.058389  -1.426382  -0.610538  -0.098892  -0.190660   0.049849
    23  H    0.255581  -0.109411   0.331658  -0.257917  -0.744354   0.247711
    24  H    0.607164   0.080310  -0.209303   0.019664   0.442053  -1.277686
    25  H   -2.705289   1.245515   0.038832  -0.051915  -0.329870   0.881725
    26  C   -0.193770   0.448287  -0.019498  -0.006518  -0.023368   0.110176
    27  H   -0.058633  -0.275459   0.232620   0.076425  -0.512911  -0.065380
    28  H    0.028732  -0.156046  -0.149148   0.009994   0.052655  -0.044462
    29  H   -0.020806   0.001303   0.063635   0.004938  -0.016730   0.011965
    30  H    0.009200  -0.017230   0.046296  -0.033325  -0.002345   0.006261
    31  H   -0.016999   0.068496  -0.107208   0.060194   0.012950  -0.006411
    32  H    0.002102  -0.010647   0.002900   0.024284   0.004297  -0.001256
    33  H   -0.017822   0.036296  -0.018731  -0.018292  -0.007043   0.007324
    34  O   -0.004763  -0.006181  -0.059927   0.027300  -0.008667   0.007856
    35  H    0.017387  -0.016525   0.035152  -0.003006   0.003104  -0.001034
    36  H   -0.002253   0.005950   0.024870  -0.004007  -0.002422   0.000606
    37  H   -0.076026   0.078915  -0.016288  -0.000422  -0.008326   0.021539
    38  H    0.106194  -0.056969  -0.064633   0.016353   0.012476  -0.046971
    39  H    0.118713  -0.066045   0.080888  -0.003282   0.005688  -0.007299
    40  O   -0.000786   0.002418   0.002802  -0.000818   0.001110   0.001526
    41  H   -0.000152  -0.000221   0.000462  -0.000626   0.000222   0.000549
    42  H   -0.000171   0.000550  -0.000494   0.000391  -0.000213   0.000016
               7          8          9         10         11         12
     1  C   -0.893156  -1.015400  -0.051802  -0.174146  -0.289556   0.059623
     2  C   -7.016295   2.657528  -0.324196   0.402602   0.778173  -0.217898
     3  C   -1.196766  -0.297780  -0.198861  -0.252050  -0.498002   0.230880
     4  N    0.465065  -0.010888   0.024946   0.035645  -0.028619  -0.301719
     5  C   -0.211287   0.026034  -0.065222   0.030575  -0.168068   0.020669
     6  C   -0.072624   0.121789  -0.014058   0.030415  -0.156278  -0.029844
     7  C   24.617113  -6.219313  -0.607099   0.390207  -2.936970  -0.025356
     8  N   -6.219313  15.397848  -0.176973  -0.835940  -0.222172   0.000740
     9  C   -0.607099  -0.176973   6.357632  -0.137747   0.786572  -0.000101
    10  C    0.390207  -0.835940  -0.137747   6.767459  -1.048800  -0.003108
    11  C   -2.936970  -0.222172   0.786572  -1.048800   9.463847  -0.002402
    12  O   -0.025356   0.000740  -0.000101  -0.003108  -0.002402   8.511192
    13  O   -0.014616   0.019751  -0.002616   0.004043  -0.006140  -0.015286
    14  O    0.068127  -0.269155   0.010643  -0.009795   0.056823   0.009152
    15  H    0.611870  -0.834579  -0.383123   0.189662   0.029102   0.000160
    16  H    0.267044  -0.025307   0.085382  -0.370523   0.111812  -0.000015
    17  H   -0.248883   0.213618  -0.117160  -0.269694   0.281728  -0.004777
    18  H    0.044499   0.366566  -0.288725   0.161052  -0.928100   0.000016
    19  H    0.167979   0.026193   0.146014   0.296482  -0.424947  -0.000381
    20  H    0.168089  -0.412465  -0.136152  -0.009514  -0.035473   0.000001
    21  H   -2.253428   0.032597  -0.091525   0.112641   0.408646  -0.000413
    22  H    0.040622  -0.422817   0.058222  -0.059833  -0.179516   0.107744
    23  H   -0.014777   0.006433  -0.000635  -0.000502   0.005948  -0.003730
    24  H    0.052217  -0.001674  -0.000625   0.002240   0.002854  -0.000763
    25  H    0.097781   0.006713   0.016937  -0.020507  -0.015159   0.001417
    26  C   -0.921951   1.218966  -0.199569  -0.114347  -0.161122   0.000405
    27  H    0.042962   0.005419  -0.017213   0.010820  -0.056515  -0.050187
    28  H    0.473871  -0.242183  -0.162837   0.026079   0.050054  -0.014849
    29  H   -0.015119  -0.042839   0.026069   0.015927  -0.005310   0.010217
    30  H   -0.003710  -0.001928   0.002109  -0.002090   0.003715   0.239161
    31  H    0.020970   0.012703  -0.011638   0.008647  -0.007763   0.334261
    32  H    0.004094   0.000878  -0.000525  -0.000476   0.000234  -0.001116
    33  H   -0.005336   0.004945  -0.001259   0.002308  -0.002565   0.007556
    34  O   -0.005711  -0.021037  -0.004566   0.007160  -0.017171  -0.119846
    35  H   -0.037924  -0.005550   0.005268  -0.009545   0.011454   0.017181
    36  H   -0.001524   0.003595   0.006464  -0.003136   0.003673   0.015305
    37  H    0.107230  -0.410703  -0.037107   0.069633  -0.075570  -0.000240
    38  H    0.074615   0.297271  -0.027376  -0.064183   0.094903  -0.000468
    39  H    0.093708  -0.669601   0.106279   0.025447  -0.052895   0.000059
    40  O   -0.000154  -0.000018   0.000016   0.000019   0.000036  -0.054146
    41  H    0.000065  -0.000030  -0.000004   0.000008   0.000020   0.009522
    42  H    0.000013   0.000003   0.000000   0.000006  -0.000007   0.004779
              13         14         15         16         17         18
     1  C   -0.044544   0.026317   0.020783   0.022577  -0.037588  -0.000663
     2  C    0.095284  -0.054526  -0.205264  -0.071967   0.136632   0.396806
     3  C   -0.109519  -0.031429  -0.003141   0.036761  -0.037809   0.124676
     4  N   -0.026368  -0.019293  -0.000182   0.000229   0.003338  -0.016384
     5  C   -0.027892   0.025394  -0.005089   0.000874   0.003266  -0.001249
     6  C    0.025395  -0.029134  -0.000460   0.003374  -0.001319   0.002091
     7  C   -0.014616   0.068127   0.611870   0.267044  -0.248883   0.044499
     8  N    0.019751  -0.269155  -0.834579  -0.025307   0.213618   0.366566
     9  C   -0.002616   0.010643  -0.383123   0.085382  -0.117160  -0.288725
    10  C    0.004043  -0.009795   0.189662  -0.370523  -0.269694   0.161052
    11  C   -0.006140   0.056823   0.029102   0.111812   0.281728  -0.928100
    12  O   -0.015286   0.009152   0.000160  -0.000015  -0.004777   0.000016
    13  O    7.859856  -0.101857  -0.000610  -0.000149   0.003258  -0.000141
    14  O   -0.101857   8.431827   0.033948  -0.003017  -0.000994   0.000957
    15  H   -0.000610   0.033948   2.686053   0.038324  -0.213633  -0.021281
    16  H   -0.000149  -0.003017   0.038324   2.119705  -0.596742  -0.293161
    17  H    0.003258  -0.000994  -0.213633  -0.596742   2.165834   0.220137
    18  H   -0.000141   0.000957  -0.021281  -0.293161   0.220137   2.586243
    19  H    0.000051   0.001991   0.014654   0.102048  -0.314456  -0.646587
    20  H    0.000041  -0.003964  -0.483613  -0.174026   0.169525   0.024197
    21  H   -0.000667   0.002789   0.044803   0.058323  -0.083284  -0.369197
    22  H    0.016305   0.140218  -0.001485   0.043468  -0.056490   0.050348
    23  H   -0.002603   0.001026  -0.000102   0.000030  -0.000211   0.000872
    24  H    0.000348  -0.000657   0.000081   0.000075   0.000134  -0.001012
    25  H   -0.000887   0.000561  -0.002428   0.000025   0.001011   0.007119
    26  C    0.007295  -0.076550  -0.154006  -0.006653   0.039281   0.031307
    27  H    0.011843  -0.027915  -0.000954   0.000255   0.008682   0.003755
    28  H    0.001084   0.131911   0.126084   0.012625  -0.014812  -0.002731
    29  H    0.024012   0.290608  -0.011319  -0.001845   0.003761  -0.000334
    30  H    0.004437   0.007882   0.000123   0.000008  -0.001942  -0.000041
    31  H    0.002223  -0.026328   0.000019  -0.000367   0.009178   0.000415
    32  H    0.287640   0.006722   0.000217   0.000022  -0.000408  -0.000006
    33  H    0.347166  -0.009154  -0.000229  -0.000133   0.001577   0.000076
    34  O   -0.002102  -0.046274  -0.000726   0.002601   0.005961  -0.000591
    35  H   -0.001582   0.049658  -0.003337   0.002987  -0.009181  -0.002409
    36  H    0.001022  -0.015153   0.000851  -0.000591   0.001699  -0.000039
    37  H    0.004450   0.009177  -0.015538  -0.001127   0.013992  -0.002351
    38  H   -0.004044   0.018156  -0.005928   0.001578  -0.012783  -0.008866
    39  H   -0.000432  -0.007108   0.033232  -0.002213   0.003350   0.019955
    40  O    0.000161  -0.000011  -0.000004   0.000003  -0.000073  -0.000008
    41  H    0.000204   0.000035   0.000000  -0.000004   0.000004   0.000001
    42  H   -0.000109  -0.000054  -0.000001   0.000001   0.000007  -0.000002
              19         20         21         22         23         24
     1  C   -0.006784   0.008946   0.002518  -0.058389   0.255581   0.607164
     2  C   -0.289728   0.052662   0.721489  -1.426382  -0.109411   0.080310
     3  C   -0.193479  -0.001445  -0.032512  -0.610538   0.331658  -0.209303
     4  N    0.062879   0.001100  -0.004170  -0.098892  -0.257917   0.019664
     5  C    0.005586  -0.000121   0.025199  -0.190660  -0.744354   0.442053
     6  C   -0.026153  -0.007843  -0.000721   0.049849   0.247711  -1.277686
     7  C    0.167979   0.168089  -2.253428   0.040622  -0.014777   0.052217
     8  N    0.026193  -0.412465   0.032597  -0.422817   0.006433  -0.001674
     9  C    0.146014  -0.136152  -0.091525   0.058222  -0.000635  -0.000625
    10  C    0.296482  -0.009514   0.112641  -0.059833  -0.000502   0.002240
    11  C   -0.424947  -0.035473   0.408646  -0.179516   0.005948   0.002854
    12  O   -0.000381   0.000001  -0.000413   0.107744  -0.003730  -0.000763
    13  O    0.000051   0.000041  -0.000667   0.016305  -0.002603   0.000348
    14  O    0.001991  -0.003964   0.002789   0.140218   0.001026  -0.000657
    15  H    0.014654  -0.483613   0.044803  -0.001485  -0.000102   0.000081
    16  H    0.102048  -0.174026   0.058323   0.043468   0.000030   0.000075
    17  H   -0.314456   0.169525  -0.083284  -0.056490  -0.000211   0.000134
    18  H   -0.646587   0.024197  -0.369197   0.050348   0.000872  -0.001012
    19  H    2.488820  -0.020260   0.191286  -0.093870  -0.000010   0.001181
    20  H   -0.020260   2.281849  -0.049850  -0.004854   0.000077  -0.000331
    21  H    0.191286  -0.049850   3.173648  -0.022537  -0.001230   0.002914
    22  H   -0.093870  -0.004854  -0.022537   5.264958   0.062883  -0.023322
    23  H   -0.000010   0.000077  -0.001230   0.062883   2.332653  -0.116604
    24  H    0.001181  -0.000331   0.002914  -0.023322  -0.116604   2.132236
    25  H   -0.008608   0.003113  -0.151459  -0.008739  -0.008086  -0.138024
    26  C   -0.002567   0.008727   0.025992  -0.075495   0.002389  -0.007512
    27  H   -0.018841  -0.000198  -0.001473  -0.193817  -0.285508   0.018246
    28  H   -0.007165  -0.004387   0.005408   0.071626  -0.003261   0.001396
    29  H    0.002104   0.005408  -0.000595  -0.025112   0.001191  -0.000075
    30  H    0.000879   0.000027  -0.000085   0.020572   0.007957  -0.000201
    31  H   -0.001131   0.000032  -0.000016  -0.075544  -0.003206   0.000583
    32  H   -0.000074  -0.000104   0.000178   0.004083   0.000701   0.000121
    33  H    0.000073  -0.000022  -0.000353  -0.003185   0.000747  -0.000228
    34  O   -0.000611   0.000234   0.000443   0.046151   0.000606   0.000170
    35  H    0.003027  -0.001621   0.002485  -0.013055   0.000433  -0.000106
    36  H    0.001333   0.000097  -0.000155  -0.015037  -0.000371   0.000019
    37  H   -0.002174   0.017490   0.022124  -0.006752   0.000168  -0.000847
    38  H    0.011980  -0.002371   0.009195   0.008811  -0.002162   0.000160
    39  H   -0.009162   0.078873   0.001937   0.016810   0.000251  -0.000436
    40  O    0.000200   0.000002  -0.000004  -0.001856   0.000455   0.000034
    41  H    0.000038   0.000001   0.000001   0.001092   0.000311  -0.000011
    42  H    0.000012   0.000000   0.000001  -0.000598  -0.000124   0.000003
              25         26         27         28         29         30
     1  C   -2.705289  -0.193770  -0.058633   0.028732  -0.020806   0.009200
     2  C    1.245515   0.448287  -0.275459  -0.156046   0.001303  -0.017230
     3  C    0.038832  -0.019498   0.232620  -0.149148   0.063635   0.046296
     4  N   -0.051915  -0.006518   0.076425   0.009994   0.004938  -0.033325
     5  C   -0.329870  -0.023368  -0.512911   0.052655  -0.016730  -0.002345
     6  C    0.881725   0.110176  -0.065380  -0.044462   0.011965   0.006261
     7  C    0.097781  -0.921951   0.042962   0.473871  -0.015119  -0.003710
     8  N    0.006713   1.218966   0.005419  -0.242183  -0.042839  -0.001928
     9  C    0.016937  -0.199569  -0.017213  -0.162837   0.026069   0.002109
    10  C   -0.020507  -0.114347   0.010820   0.026079   0.015927  -0.002090
    11  C   -0.015159  -0.161122  -0.056515   0.050054  -0.005310   0.003715
    12  O    0.001417   0.000405  -0.050187  -0.014849   0.010217   0.239161
    13  O   -0.000887   0.007295   0.011843   0.001084   0.024012   0.004437
    14  O    0.000561  -0.076550  -0.027915   0.131911   0.290608   0.007882
    15  H   -0.002428  -0.154006  -0.000954   0.126084  -0.011319   0.000123
    16  H    0.000025  -0.006653   0.000255   0.012625  -0.001845   0.000008
    17  H    0.001011   0.039281   0.008682  -0.014812   0.003761  -0.001942
    18  H    0.007119   0.031307   0.003755  -0.002731  -0.000334  -0.000041
    19  H   -0.008608  -0.002567  -0.018841  -0.007165   0.002104   0.000879
    20  H    0.003113   0.008727  -0.000198  -0.004387   0.005408   0.000027
    21  H   -0.151459   0.025992  -0.001473   0.005408  -0.000595  -0.000085
    22  H   -0.008739  -0.075495  -0.193817   0.071626  -0.025112   0.020572
    23  H   -0.008086   0.002389  -0.285508  -0.003261   0.001191   0.007957
    24  H   -0.138024  -0.007512   0.018246   0.001396  -0.000075  -0.000201
    25  H    3.025328   0.044482  -0.000268  -0.006491   0.001687   0.000428
    26  C    0.044482   4.716750   0.002475  -0.161379   0.002547  -0.000730
    27  H   -0.000268   0.002475   2.078762   0.003712  -0.006571  -0.014045
    28  H   -0.006491  -0.161379   0.003712   0.907125  -0.205291  -0.000556
    29  H    0.001687   0.002547  -0.006571  -0.205291   0.561143   0.000067
    30  H    0.000428  -0.000730  -0.014045  -0.000556   0.000067   0.684587
    31  H   -0.001548   0.002454   0.016477   0.014574  -0.005951  -0.223034
    32  H   -0.000092  -0.000504  -0.006110   0.004654  -0.002887   0.002018
    33  H   -0.000399   0.001514   0.018974   0.005609  -0.007856   0.001509
    34  O   -0.000376  -0.001786  -0.002005   0.001888  -0.000413   0.005365
    35  H    0.000435   0.008022  -0.009115  -0.014933   0.001439   0.003569
    36  H    0.000013   0.000269   0.004354  -0.007821   0.004037  -0.002470
    37  H    0.000429   0.308610  -0.000696   0.014089  -0.001857  -0.000270
    38  H   -0.040155   0.005682   0.001600   0.011623  -0.002695  -0.000060
    39  H    0.023668   0.136783   0.000891  -0.029192   0.005485   0.000053
    40  O   -0.000018  -0.000001  -0.003611   0.000120  -0.000071  -0.028213
    41  H    0.000003  -0.000007  -0.005242   0.000028   0.000038   0.001690
    42  H   -0.000005   0.000004   0.002982   0.000007  -0.000056  -0.006179
              31         32         33         34         35         36
     1  C   -0.016999   0.002102  -0.017822  -0.004763   0.017387  -0.002253
     2  C    0.068496  -0.010647   0.036296  -0.006181  -0.016525   0.005950
[...]
 007750,-0.00025287,0.00027063,0.00005253,0.00015755,-0.00001792,-0.000
 03286,0.00005456,-0.00013805,-0.00032528,-0.00014877,-0.00001550,-0.00
 002500,-0.00029043,0.00015692,-0.00020583,-0.00012692,-0.00055066,-0.0
 0002629,-0.00003027,-0.00008227,-0.00003564,0.00004823,0.00004569,-0.0
 0005825,0.00006247,-0.00001533,0.00000245,0.00019264,-0.00006222,0.000
 00547,0.00026332,-0.00017649,0.00007069,-0.00002215,-0.00000680,-0.000
 00139,0.00001171,0.00000788,-0.00000262,-0.00000032,0.00002131,0.00003
 791,0.00010702,-0.00005159,0.03831082,-0.02403990,-0.05722149,-0.00014
 875,-0.00022364,-0.00002324,0.00048713,0.00027858,-0.00014393,0.000047
 72,-0.00008660,0.00009558,-0.00003915,-0.00000707,-0.00001390,0.000053
 03,-0.00005949,0.00000169,0.00004556,0.00003071,0.00004635,0.00000282,
 -0.00002560,0.00005227,-0.00008445,0.00006014,-0.00001166,0.00005241,-
 0.00000355,0.00005408,0.00002291,0.00000803,-0.00001441,-0.01883888,0.
 01044196,0.00591632,-0.04744425,0.03620132,0.06671305,-0.00020016,-0.0
 0040592,-0.00001509,-0.00002209,0.00022659,0.00015981,0.00011511,-0.00
 011509,0.00004200,0.00008747,0.00004117,0.00001374,0.00003459,0.000028
 55,0.00002454,-0.00000430,0.00005205,0.00002971,0.00062106,-0.00043278
 ,0.00122635,-0.00207811,-0.00451359,-0.00707416,0.00267465,0.00168409,
 0.00023402,0.00015998,0.00011757,0.00025608,0.00018722,0.00016446,0.00
 008748,-0.00008551,0.00000650,-0.00006405,-0.00015853,0.00000705,-0.00
 004414,-0.00060501,-0.00051940,0.00012049,-0.00012198,-0.00010307,0.00
 004113,-0.00001269,-0.00000912,-0.00007799,-0.00005605,0.00005297,0.00
 014656,0.00003196,0.00000201,-0.00008328,-0.00002616,0.00011728,0.0000
 4481,0.00046530,-0.00136181,-0.00074032,-0.00032639,0.00081335,-0.0012
 5952,0.00005747,0.00001157,0.00005956,0.00001146,0.00000864,0.00000420
 ,-0.00002403,-0.00001131,0.00000679,-0.00003839,0.00010834,-0.00010913
 ,-0.20639774,-0.11670834,0.00436705,0.00001685,-0.00000337,0.00001223,
 0.00085189,0.00097755,-0.00036978,0.00017784,-0.00001356,0.00000778,0.
 00006458,0.00001323,0.00002654,0.00005914,-0.00001844,0.00001784,0.000
 02722,0.00000316,-0.00001840,0.00003167,-0.00000305,0.00007342,-0.0001
 0369,-0.00006023,-0.00017098,0.00013369,0.00012552,0.00024428,-0.00000
 404,0.00002107,0.00001786,0.00342704,0.00361368,0.00008541,-0.01869074
 ,-0.01634970,0.00101138,0.21974494,0.00000737,-0.00003055,-0.00004030,
 0.00020355,0.00004224,-0.00000236,-0.00007418,-0.00014544,0.00006964,0
 .00005768,-0.00005456,-0.00006557,-0.00002473,0.00011083,0.00002858,-0
 .00013394,-0.00001755,0.00002497,0.00202816,0.00110775,0.00168851,-0.0
 1334913,-0.01426785,-0.01082374,-0.00323978,0.00107059,0.00093691,0.00
 040203,0.00014580,-0.00007125,0.00019771,0.00007352,0.00029534,-0.0000
 8574,0.00000369,-0.00000893,-0.00011232,0.00010124,0.00006745,-0.00088
 785,-0.00061434,0.00024409,0.00008128,-0.00010899,0.00010044,0.0000473
 4,0.00002213,-0.00016062,0.00017400,0.00004908,0.00023664,-0.00000033,
 -0.00001531,-0.00006289,0.00001332,0.00002527,0.00002600,0.00125051,-0
 .00012702,-0.00021523,-0.00032868,0.00073760,-0.00109172,0.00005912,0.
 00000720,0.00005706,0.00000317,0.00000057,0.00000247,-0.00000838,0.000
 00531,-0.00000843,-0.00000593,0.00000333,-0.00004138,-0.11570032,-0.13
 660678,0.00417058,0.00002580,0.00002398,-0.00001029,0.00118989,0.00101
 224,-0.00068422,0.00020308,-0.00021120,-0.00005038,0.00004954,0.000010
 67,0.00001957,0.00007513,-0.00002745,0.00000731,0.00000535,-0.00001846
 ,-0.00002105,0.00003304,-0.00000430,-0.00001013,-0.00011634,-0.0000656
 7,-0.00017070,0.00013621,0.00013710,0.00024993,-0.00000342,0.00002022,
 0.00001367,-0.01822074,-0.01178219,-0.00021249,0.01362986,0.01085599,0
 .00032868,0.13243828,0.14853589,-0.00001307,-0.00010384,0.00004221,0.0
 0026248,0.00065103,-0.00008217,-0.00003633,-0.00018140,-0.00007636,0.0
 0012243,0.00000282,-0.00000707,-0.00002935,0.00013159,0.00000904,-0.00
 011594,0.00001301,0.00002331,-0.00198262,-0.00574824,0.00342335,-0.027
 10694,-0.02519564,-0.01335865,-0.00394718,0.00132185,0.00123631,0.0002
 5220,0.00016838,0.00010569,0.00031479,0.00014001,0.00041858,-0.0000095
 6,0.00001151,0.00004478,0.00002623,0.00005676,0.00012043,-0.00071310,-
 0.00051320,0.00088065,0.00041155,-0.00003993,-0.00016064,0.00011126,0.
 00009284,-0.00007915,0.00010840,0.00011626,0.00008987,0.00006534,0.000
 01959,-0.00006055,-0.00002027,0.00007498,0.00009771,0.00128521,0.00081
 436,0.00036454,0.00114613,0.00165529,0.00042295,0.00008998,0.00002900,
 0.00004576,0.00000206,0.00000724,0.00000683,-0.00000885,0.00000510,0.0
 0000198,0.00000435,0.00003361,-0.00000152,0.00528339,0.00469432,-0.048
 96787,0.00001666,-0.00000485,-0.00001145,0.00101429,0.00073148,-0.0014
 4857,-0.00011853,-0.00021097,-0.00015678,-0.00000976,-0.00000253,-0.00
 000437,0.00003110,-0.00001269,-0.00001228,-0.00004409,-0.00001174,-0.0
 0002071,0.00000369,-0.00000916,-0.00006711,-0.00004037,-0.00000400,0.0
 0004421,0.00002360,0.00000961,-0.00006649,0.00001091,0.00000361,-0.000
 00358,0.01804478,0.01160148,0.00108075,0.00388471,0.00445955,0.0000704
 9,0.00167668,0.00519181,0.05605403,-0.00008663,0.00009639,0.00001624,-
 0.00002662,-0.00027422,-0.00006278,0.00057005,-0.00005087,-0.00000200,
 -0.00098316,-0.00142313,-0.00014115,-0.00051545,0.00038472,0.00009541,
 0.00004870,-0.00013348,-0.00004700,0.00011720,-0.00000128,-0.00000100,
 -0.00023238,-0.00009732,-0.00001718,0.00009953,-0.00003351,-0.00003346
 ,0.00004557,0.00003936,0.00001366,0.00002173,0.00001080,-0.00000928,-0
 .01394138,-0.00530467,-0.00788252,-0.00013572,-0.00029467,-0.00131247,
 -0.00049349,-0.00017922,-0.00041185,0.00001577,0.00001323,0.,-0.000028
 44,-0.00000405,0.00000287,0.00001743,-0.00003888,-0.00000547,-0.000029
 85,-0.00001445,-0.00000370,0.00000738,0.00002159,-0.00004382,-0.000045
 03,-0.00002858,-0.00000551,-0.00004726,-0.00001871,-0.00001201,0.00020
 777,0.00013850,0.00002856,-0.00004280,0.00004093,0.00000235,-0.0000493
 5,-0.00002204,-0.00001148,-0.00000449,-0.00000635,-0.00000509,0.000051
 87,0.00006865,0.00009441,0.00145650,0.00326944,0.00003681,0.00025770,0
 .00018351,-0.00002055,0.00021916,-0.00003489,0.00017177,-0.00382619,0.
 00125334,0.00293056,0.00183242,-0.00185703,-0.00080656,-0.00020749,-0.
 00001776,0.00008231,0.00009745,0.00031341,0.00204083,-0.00149871,0.000
 49698,-0.00007836,0.00041135,0.00018274,0.00057424,0.00005358,-0.00011
 640,-0.00007128,0.00000729,0.00001503,-0.00000024,0.00000210,0.0000123
 6,0.00002001,-0.00003864,-0.00003092,0.00000435,0.33672957,0.00005161,
 -0.00004114,-0.00001062,0.00004620,0.00003569,0.00003721,0.00007786,-0
 .00011729,-0.00001544,-0.00011087,-0.00015129,-0.00005326,0.00012338,0
 .00015272,0.00004597,-0.00017624,-0.00000289,-0.00001389,0.00009306,-0
 .00003830,0.00003834,-0.00006219,0.00007685,-0.00001811,0.00003513,-0.
 00003518,-0.00003186,-0.00001898,-0.00002543,0.00001602,0.00000092,0.0
 0000473,-0.00001579,-0.00592704,0.00228069,-0.00312541,-0.00016623,0.0
 0019997,-0.00035006,-0.00003096,0.00018145,0.00001802,-0.00000824,0.00
 000841,-0.00000958,-0.00001229,0.00000817,0.00000037,0.00001166,0.0000
 0327,-0.00000616,-0.00000710,0.00000712,0.00000098,-0.00000149,-0.0000
 1218,-0.00001947,-0.00001341,0.00000212,0.00000590,-0.00001711,0.00001
 470,-0.00000591,0.00003095,-0.00007862,-0.00001178,0.00004761,0.000077
 77,0.00006239,0.00000551,0.00000519,0.00000629,-0.00000694,-0.00000245
 ,0.00000113,0.00001487,0.00000600,0.00000922,0.00042665,0.00028370,0.0
 0010797,-0.00001950,-0.00005886,0.00003668,0.00011213,-0.00009560,0.00
 002713,0.00070804,-0.00382748,0.00298185,-0.00003890,-0.00144667,-0.00
 077047,-0.00000203,-0.00012450,0.00000502,0.00005941,-0.00014846,0.000
 51856,-0.00010647,0.00065559,0.00028874,-0.00004111,-0.00013230,-0.000
 14877,-0.00034776,-0.00010588,-0.00007006,-0.00000398,0.00000546,-0.00
 000703,-0.00000799,0.00000435,0.00001601,-0.00000381,-0.00000382,0.000
 00172,0.24883338,0.19949420,-0.00000859,0.00001587,-0.00000540,-0.0000
 0825,-0.00006056,-0.00001470,0.00021244,-0.00005594,-0.00002190,-0.000
 46682,-0.00078460,-0.00002816,-0.00017506,0.00013991,0.00001742,-0.000
 02283,-0.00006795,-0.00001081,0.00005067,0.00000810,-0.00002869,-0.000
 12896,-0.00004527,0.00004972,0.00005736,-0.00002685,-0.00003182,0.0000
 0763,0.00001335,0.00001549,-0.00001288,-0.00000006,-0.00002732,-0.0090
 9279,-0.00299327,0.00228427,-0.00044328,-0.00010341,-0.00026406,-0.000
 32694,-0.00002451,0.00006955,0.00000821,0.00000219,0.00000406,-0.00001
 850,0.00000015,0.00000142,0.00000932,-0.00000995,-0.00001601,-0.000015
 00,-0.00000462,0.00000111,0.00001543,0.00000307,-0.00001607,-0.0000214
 2,-0.00000692,0.00000351,-0.00002156,-0.00000900,0.00000180,0.00007517
 ,0.00003958,-0.00004694,0.00001815,0.00004211,-0.00006803,-0.00001502,
 -0.00000420,-0.00001815,-0.00000272,-0.00000110,-0.00000811,0.00003138
 ,0.00001471,0.00001337,0.00063695,0.00160873,-0.00023712,0.00015429,0.
 00011819,-0.00003700,0.00031447,-0.00005829,-0.00001846,0.00362110,0.0
 0340246,-0.00951022,0.00037268,-0.00144376,-0.00097930,0.00010811,0.00
 002969,0.00015959,0.00041713,0.00013427,0.00040906,-0.00062118,0.00043
 000,0.00051612,0.00012994,-0.00003107,-0.00006423,-0.00013240,-0.00001
 894,-0.00022488,0.00001190,0.00000189,0.00000386,-0.00000203,0.0000183
 7,0.00000432,-0.00001836,-0.00001020,0.00000759,-0.03799221,-0.0974812
 7,0.67587175,0.00001747,-0.00002136,-0.00001061,0.00000229,0.00004338,
 0.00001181,-0.00002459,-0.00003094,-0.00001345,-0.00003730,-0.00013798
 ,0.00002859,0.00000630,-0.00001060,-0.00001098,-0.00002097,-0.00001439
 ,-0.00000141,-0.00000406,-0.00000850,-0.00000682,0.00001541,0.00001996
 ,0.00002046,-0.00000553,-0.00000506,-0.00000633,-0.00001254,-0.0000073
 3,0.00000578,-0.00001526,-0.00000346,-0.00001330,-0.00325868,-0.000908
 79,0.00034928,-0.00005047,0.00002654,0.00002063,0.00001673,0.00006378,
 0.00011384,-0.00000269,-0.00000196,0.00000114,-0.00000051,0.00000144,-
 0.00000093,0.00000131,0.00000780,-0.00000666,0.00000237,0.00000327,0.0
 0000204,0.00000513,-0.00000694,0.00000419,0.00000421,0.00000686,0.0000
 0397,0.00000187,0.00000525,0.00000453,-0.00000737,-0.00002513,-0.00003
 615,0.00001458,-0.00000600,-0.00001275,0.00000167,-0.00000096,-0.00000
 355,0.00000110,-0.00000067,-0.00000032,-0.00000455,-0.00001356,-0.0000
 1915,0.00003873,0.00020358,-0.00014809,-0.00001849,-0.00001522,-0.0000
 0196,0.00005039,-0.00001989,-0.00002093,0.00512662,0.00153976,-0.00172
 554,-0.00010462,-0.00039590,-0.00060332,0.00001625,-0.00001092,-0.0000
 1034,0.00001811,-0.00001183,-0.00000289,0.00004227,0.00021385,0.000354
 83,-0.00004697,-0.00008987,-0.00018967,-0.00015344,0.00001975,-0.00010
 881,0.00000077,-0.00000260,0.00000095,-0.00000168,0.00000257,-0.000001
 01,0.00000471,0.00000484,0.00000069,-0.05864015,-0.02936535,-0.1299632
 6,0.05162208,-0.00003534,0.00002522,0.00000225,-0.00002557,-0.00004412
 ,-0.00002188,0.00001869,0.00004945,-0.00000006,-0.00006397,-0.00009397
 ,0.00003119,-0.00009709,-0.00003409,-0.00001241,0.00007894,-0.00001455
 ,0.00000262,-0.00003099,0.00001852,-0.00002261,0.00000220,-0.00004827,
 0.00001254,-0.00000469,0.00001083,0.00001103,0.00001247,0.00001774,-0.
 00000458,-0.00000189,-0.00000245,0.00000355,-0.00098359,-0.00019825,0.
 00006948,-0.00000835,-0.00006719,-0.00003429,-0.00005900,-0.00008970,-
 0.00004133,0.00000548,-0.00000295,0.00000547,0.00000279,-0.00000402,0.
 00000020,-0.00000422,-0.00000532,0.00000185,-0.00000049,-0.00000481,-0
 .00000093,0.00000274,0.00000983,0.00000393,0.00000131,-0.00000344,-0.0
 0000346,0.00000206,-0.00000873,0.00000180,0.00001253,0.00005466,-0.000
 00106,-0.00001422,-0.00001370,-0.00005364,-0.00000777,-0.00000512,-0.0
 0000831,0.00000189,0.00000092,-0.00000191,-0.00000069,0.00000226,0.000
 00313,0.00003515,0.00029670,-0.00013649,0.00004219,0.00005239,-0.00002
 094,0.00000593,0.00002116,0.00000311,0.00221703,0.00001201,-0.00021467
 ,-0.00005138,-0.00001581,0.00000722,-0.00000775,0.00001919,0.00000774,
 0.00003118,0.00004508,0.00007421,-0.00017178,-0.00011686,-0.00009988,0
 .00006196,0.00006155,0.00011751,0.00010081,0.00003244,0.00003782,0.000
 00384,-0.00000185,0.00000411,0.00000391,0.00000086,-0.00000634,-0.0000
 0246,-0.00000083,0.00000017,-0.03410784,-0.02041103,-0.05307013,0.0283
 2622,0.01936028,0.00000079,0.00000121,0.00000307,-0.00000133,0.0000169
 6,-0.00000062,-0.00004410,0.00002239,0.00000861,0.00011961,0.00016747,
 0.00000631,0.00001102,-0.00004655,-0.00000418,0.00002557,0.00001342,0.
 00000093,-0.00002000,-0.00000373,0.00001106,0.00004744,0.00001609,-0.0
 0002065,-0.00002050,0.00000960,0.00001269,-0.00000353,-0.00000644,-0.0
 0000659,0.00000749,0.00000005,0.00001176,0.00168272,0.00077829,0.00058
 296,0.00011226,0.00003623,0.00010232,0.00010726,0.00002564,-0.00000845
 ,-0.00000270,-0.00000087,-0.00000223,0.00000758,-0.00000023,0.00000019
 ,-0.00000310,0.00000438,0.00000595,0.00000690,0.00000239,-0.00000015,-
 0.00000740,-0.00000193,0.00000710,0.00000773,0.00000259,-0.00000098,0.
 00000791,0.00000320,-0.00000088,-0.00001812,-0.00001907,0.00001444,-0.
 00001324,-0.00002223,0.00001157,0.00000168,-0.00000038,0.00000613,0.00
 000220,0.00000005,0.00000406,-0.00001062,-0.00000535,-0.00000411,-0.00
 024331,-0.00036959,0.00003219,-0.00005514,-0.00004145,0.00001418,-0.00
 008514,0.00001097,0.00000427,-0.00222014,-0.00106747,-0.00122519,-0.00
 036767,0.00004708,0.00005049,-0.00002083,-0.00000603,-0.00002819,-0.00
 005415,-0.00002683,-0.00014478,0.00021659,-0.00002641,-0.00010111,-0.0
 0004515,-0.00000745,-0.00001287,-0.00002928,-0.00000540,0.00006760,-0.
 00000429,-0.00000070,-0.00000145,0.00000081,-0.00000611,-0.00000158,0.
 00000634,0.00000370,-0.00000247,-0.08607969,-0.01775567,-0.51338214,0.
 09801225,0.02517422,0.53437303,0.00001465,-0.00001971,-0.00000296,0.00
 000410,0.00004208,0.00000951,-0.00004685,-0.00000837,-0.00000282,0.000
 07836,0.00010236,0.00002540,0.00004034,-0.00002579,-0.00000328,-0.0000
 1457,0.00000149,-0.00000042,-0.00000880,-0.00001016,0.00000577,0.00004
 357,0.00003610,0.,-0.00001696,0.00000029,0.00000219,-0.00001230,-0.000
 01132,0.00000060,-0.00000433,-0.00000290,-0.00000074,-0.00087378,0.000
 45553,-0.00143124,0.00006791,0.00011994,0.00003251,0.00010453,0.000080
 67,0.00005556,-0.00000538,-0.00000182,-0.00000168,0.00000327,0.0000017
 0,-0.00000077,-0.00000072,0.00000786,0.00000023,0.00000447,0.00000417,
 0.00000050,-0.00000003,-0.00000537,0.00000515,0.00000800,0.00000728,0.
 00000195,0.00000596,0.00000725,0.00000154,-0.00001272,-0.00003683,-0.0
 0000458,0.00000708,-0.00001207,-0.00000325,0.00000461,0.00000101,-0.00
 000026,0.00000215,-0.00000035,0.00000061,-0.00000978,-0.00001451,-0.00
 001926,-0.00012997,-0.00021711,-0.00003251,-0.00006125,-0.00005204,0.0
 0001319,-0.00004150,-0.00001761,-0.00000819,0.00061496,-0.00135530,0.0
 0323205,-0.00021367,-0.00029302,-0.00001960,-0.00001081,-0.00005617,-0
 .00007290,-0.00012294,-0.00013496,-0.00000869,0.00020243,0.00016246,0.
 00006389,-0.00008710,-0.00007134,-0.00011425,-0.00013367,-0.00001900,0
 .00001428,-0.00000296,-0.00000253,-0.00000133,-0.00000214,-0.00000246,
 -0.00000113,0.00000842,0.00000647,-0.00000131,-0.26139687,-0.21418237,
 0.17325773,0.00539949,0.00470974,-0.01103470,0.25659480,-0.00002383,0.
 00001887,0.00000409,-0.00002101,-0.00002604,-0.00001354,0.00000840,0.0
 0003309,0.00000725,0.00001267,0.00002291,0.00000340,-0.00006366,-0.000
 02449,-0.00001027,0.00006182,-0.00000115,0.00000287,-0.00002737,0.0000
 1125,-0.00001346,0.00001625,-0.00003080,0.00000530,-0.00001081,0.00001
 412,0.00000877,0.00000794,0.00000917,-0.00000506,0.00000059,-0.0000011
 0,0.00000531,0.00058635,0.00021410,0.00048664,0.00014327,-0.00012809,0
 .00004576,0.00000953,-0.00007935,-0.00001723,0.00000334,-0.00000264,0.
 00000417,0.00000352,-0.00000256,-0.00000061,-0.00000424,-0.00000127,0.
 00000127,0.00000123,-0.00000318,-0.00000073,0.00000170,0.00000392,0.00
 000481,0.00000361,-0.00000173,-0.00000193,0.00000353,-0.00000558,0.000
 00168,-0.00000305,0.00002759,0.00000309,-0.00002211,-0.00001899,0.0000
 0246,-0.00000519,-0.00000406,-0.00000162,0.00000128,0.00000068,-0.0000
 0003,-0.00000514,0.00000236,0.00000062,-0.00004199,0.00000831,0.000042
 94,0.00001387,0.00002534,-0.00001279,-0.00005613,0.00005042,0.00000649
 ,-0.00051401,-0.00082354,-0.00027192,-0.00016340,0.00020880,-0.0002053
 0,-0.00004976,0.00006864,-0.00002697,-0.00011679,0.00010799,-0.0000412
 0,-0.00002682,-0.00015823,-0.00001596,0.00004137,0.00005009,0.00005105
 ,0.00008106,0.00004595,-0.00001216,0.00000139,-0.00000135,0.00000270,0
 .00000324,-0.00000223,-0.00000413,0.00000036,0.00000007,-0.00000076,-0
 .21128411,-0.17664879,0.15028922,0.00062639,0.00109598,-0.00691601,0.2
 1080671,0.17594552,-0.00001027,0.00000452,0.00000123,-0.00000193,-0.00
 002640,-0.00000287,0.00004620,-0.00000709,0.00000459,-0.00009343,-0.00
 012654,-0.00002169,-0.00004564,0.00004072,0.00001057,0.00000047,-0.000
 01382,-0.00000920,0.00001303,-0.00001331,0.00001591,0.00000852,0.00001
 243,-0.00002737,-0.00000460,0.00000088,0.00000373,0.00000335,0.0000005
 0,-0.00000056,0.00000514,0.00000159,0.00000457,-0.00253392,-0.00035901
 ,-0.00226718,0.00019423,0.00003126,-0.00026707,0.00005343,-0.00000347,
 -0.00013665,-0.00000202,0.00000260,-0.00000169,0.00000060,0.00000005,-
 0.00000065,-0.00000008,-0.00000252,0.00000495,-0.00000044,0.00000001,-
 0.00000078,-0.00000407,0.00000162,-0.00000457,-0.00000011,-0.00000149,
 -0.00000198,-0.00000307,0.00000310,-0.00000347,0.00002257,0.00000906,0
 .00001504,-0.00000243,-0.00000115,0.00003406,-0.00000547,-0.00000487,0
 .00000498,-0.00000089,-0.00000221,0.00000293,-0.00000386,0.00000639,0.
 00001449,0.00016846,0.00029475,0.00006992,-0.00002252,-0.00002778,0.00
 001885,-0.00010435,0.00000981,0.00006546,0.00366100,-0.00009089,0.0040
 5108,0.00013170,-0.00018480,-0.00005827,-0.00013306,-0.00005723,-0.000
 07305,-0.00018164,-0.00004491,0.00044146,-0.00015916,0.00006658,-0.000
 13975,0.00003638,0.00002942,0.00014982,0.00000289,-0.00000979,0.000051
 14,-0.00000549,0.00000328,-0.00000246,0.00000060,-0.00000652,0.0000044
 2,0.00000111,-0.00000147,-0.00000327,0.12894228,0.11569509,-0.15437452
 ,0.03398326,0.02817979,-0.02038230,-0.16395677,-0.14340822,0.17281016\
 \0.00000067,-0.00000064,-0.00000054,-0.00000051,0.00000288,-0.00000018
 ,-0.00000414,0.00000109,-0.00000132,0.00001169,-0.00000224,0.00000651,
 0.00000031,-0.00000037,-0.00000094,-0.00000159,0.00000012,-0.00000153,
 0.00000151,-0.00000505,0.00000208,0.00000141,0.00001723,-0.00000559,-0
 .00000272,-0.00000052,0.00000115,-0.00000263,-0.00000270,0.00000139,0.
 00000293,0.00000296,0.00000127,0.00001016,0.00000895,0.00000993,0.0000
 0086,-0.00000188,0.00000480,0.00000793,-0.00000287,-0.00000671,0.00000
 014,0.00000037,0.00000120,0.00000114,0.00000064,0.00000141,0.00000137,
 -0.00000029,-0.00000042,-0.00000163,-0.00000006,-0.00000162,-0.0000001
 5,-0.00000182,0.00000082,0.00000063,-0.00000025,0.00000136,0.00000175,
 0.00000019,-0.00000080,0.00000107,-0.00000071,0.00000134,-0.00000016,0
 .00000017,-0.00000110,-0.00000067,-0.00000021,-0.00000109,-0.00000033,
 0.00000008,-0.00000140,-0.00000297,-0.00000268,-0.00000172,-0.00001213
 ,-0.00000340,-0.00000777,-0.00000546,-0.00001026,0.00000966,-0.0000017
 4,0.00000805,-0.00000509,-0.00000121,-0.00000702,0.00000034,-0.0000054
 1,0.00000048,-0.00000822,-0.00000101,0.00000138,-0.00000019,-0.0000000
 7,0.00000171,-0.00000508,0.00000286,-0.00000465,-0.00000035,-0.0000048
 9,0.00000102,0.00000679,0.00000238,0.00000045,0.00000050,-0.00000127,0
 .00000134,0.00000093,0.00000032,0.00000197,-0.00000058,0.00000061,0.00
 000050,0.00000079,0.00000517,-0.00000053,0.00000369,-0.00000095,-0.000
 00051,-0.00000381,-0.00000328,-0.00000297,0.00000009\\\@


 I DO NOT DEFINE TIME, SPACE, PLACE, AND MOTION, AS BEING WELL KNOWN TO ALL.
                                            -- NEWTON (1642-1726), PRINCIPIA
 Job cpu time:       1 days 18 hours 15 minutes 20.8 seconds.
 Elapsed time:       0 days  1 hours 30 minutes 37.7 seconds.
 File lengths (MBytes):  RWF=   1444 Int=      0 D2E=      0 Chk=     36 Scr=      8
 Normal termination of Gaussian 16 at Thu Dec  8 17:04:12 2022.
