 Entering Gaussian System, Link 0=g16
 Input=Nic5h3bPyA.gjf
 Output=Nic5h3bPyA.log
 Initial command:
 /sw/contrib/gaussian/g16/A03/g16/l1.exe "/gscratch/scrubbed/gds001/Gau-25944.inp" -scrdir="/gscratch/scrubbed/gds001/"
 Entering Link 1 = /sw/contrib/gaussian/g16/A03/g16/l1.exe PID=     25945.
  
 Copyright (c) 1988,1990,1992,1993,1995,1998,2003,2009,2016,
            Gaussian, Inc.  All Rights Reserved.
  
 This is part of the Gaussian(R) 16 program.  It is based on
 the Gaussian(R) 09 system (copyright 2009, Gaussian, Inc.),
 the Gaussian(R) 03 system (copyright 2003, Gaussian, Inc.),
 the Gaussian(R) 98 system (copyright 1998, Gaussian, Inc.),
 the Gaussian(R) 94 system (copyright 1995, Gaussian, Inc.),
 the Gaussian 92(TM) system (copyright 1992, Gaussian, Inc.),
 the Gaussian 90(TM) system (copyright 1990, Gaussian, Inc.),
 the Gaussian 88(TM) system (copyright 1988, Gaussian, Inc.),
 the Gaussian 86(TM) system (copyright 1986, Carnegie Mellon
 University), and the Gaussian 82(TM) system (copyright 1983,
 Carnegie Mellon University). Gaussian is a federally registered
 trademark of Gaussian, Inc.
  
 This software contains proprietary and confidential information,
 including trade secrets, belonging to Gaussian, Inc.
  
 This software is provided under written license and may be
 used, copied, transmitted, or stored only in accord with that
 written license.
  
 The following legend is applicable only to US Government
 contracts under FAR:
  
                    RESTRICTED RIGHTS LEGEND
  
 Use, reproduction and disclosure by the US Government is
 subject to restrictions as set forth in subparagraphs (a)
 and (c) of the Commercial Computer Software - Restricted
 Rights clause in FAR 52.227-19.
  
 Gaussian, Inc.
 340 Quinnipiac St., Bldg. 40, Wallingford CT 06492
  
  
 ---------------------------------------------------------------
 Warning -- This program may not be used in any manner that
 competes with the business of Gaussian, Inc. or will provide
 assistance to any competitor of Gaussian, Inc.  The licensee
 of this program is prohibited from giving any competitor of
 Gaussian, Inc. access to this program.  By using this program,
 the user acknowledges that Gaussian, Inc. is engaged in the
 business of creating and licensing software in the field of
 computational chemistry and represents and warrants to the
 licensee that it is not a competitor of Gaussian, Inc. and that
 it will not use this program in any manner prohibited above.
 ---------------------------------------------------------------
  

 Cite this work as:
 Gaussian 16, Revision A.03,
 M. J. Frisch, G. W. Trucks, H. B. Schlegel, G. E. Scuseria, 
 M. A. Robb, J. R. Cheeseman, G. Scalmani, V. Barone, 
 G. A. Petersson, H. Nakatsuji, X. Li, M. Caricato, A. V. Marenich, 
 J. Bloino, B. G. Janesko, R. Gomperts, B. Mennucci, H. P. Hratchian, 
 J. V. Ortiz, A. F. Izmaylov, J. L. Sonnenberg, D. Williams-Young, 
 F. Ding, F. Lipparini, F. Egidi, J. Goings, B. Peng, A. Petrone, 
 T. Henderson, D. Ranasinghe, V. G. Zakrzewski, J. Gao, N. Rega, 
 G. Zheng, W. Liang, M. Hada, M. Ehara, K. Toyota, R. Fukuda, 
 J. Hasegawa, M. Ishida, T. Nakajima, Y. Honda, O. Kitao, H. Nakai, 
 T. Vreven, K. Throssell, J. A. Montgomery, Jr., J. E. Peralta, 
 F. Ogliaro, M. J. Bearpark, J. J. Heyd, E. N. Brothers, K. N. Kudin, 
 V. N. Staroverov, T. A. Keith, R. Kobayashi, J. Normand, 
 K. Raghavachari, A. P. Rendell, J. C. Burant, S. S. Iyengar, 
 J. Tomasi, M. Cossi, J. M. Millam, M. Klene, C. Adamo, R. Cammi, 
 J. W. Ochterski, R. L. Martin, K. Morokuma, O. Farkas, 
 J. B. Foresman, and D. J. Fox, Gaussian, Inc., Wallingford CT, 2016.
 
 ******************************************
 Gaussian 16:  ES64L-G16RevA.03 25-Dec-2016
                 6-Dec-2022 
 ******************************************
 %nprocshared=28
 Will use up to   28 processors via shared memory.
 %mem=41GB
 -----------------------------
 # wB97XD/aug-cc-pVDZ opt freq
 -----------------------------
 1/18=20,19=15,26=3,38=1/1,3;
 2/9=110,12=2,17=6,18=5,40=1/2;
 3/5=16,7=10,11=2,25=1,30=1,71=1,74=-58/1,2,3;
 4//1;
 5/5=2,38=5/2;
 6/7=2,8=2,9=2,10=2,28=1/1;
 7//1,2,3,16;
 1/18=20,19=15,26=3/3(2);
 2/9=110/2;
 99//99;
 2/9=110/2;
 3/5=16,7=10,11=2,25=1,30=1,71=1,74=-58/1,2,3;
 4/5=5,16=3,69=1/1;
 5/5=2,38=5/2;
 7//1,2,3,16;
 1/18=20,19=15,26=3/3(-5);
 2/9=110/2;
 6/7=2,8=2,9=2,10=2,19=2,28=1/1;
 99/9=1/99;
 ----
 blah
 ----
 Symbolic Z-matrix:
 Charge =  1 Multiplicity = 1
 C                    -0.78726   2.68521  -0.0808 
 C                    -0.81968   1.30781   0.14661 
 C                     0.39866   0.63703   0.16275 
 N                     1.54591   1.29469  -0.0423 
 C                     1.59467   2.61657  -0.26113 
 C                     0.42328   3.35029  -0.27853 
 C                    -2.11761   0.57355   0.38385 
 N                    -2.28367  -0.6112   -0.46858 
 C                    -3.45381  -1.28855   0.11014 
 C                    -3.22603  -1.20362   1.62557 
 C                    -2.2826    0.00962   1.8071 
 O                     3.56227  -0.29265  -0.32819 
 O                     1.91154  -1.85566  -1.77158 
 O                    -0.2316   -2.46649  -0.19154 
 H                    -3.52439  -2.31439  -0.27178 
 H                    -4.1719   -1.07697   2.16142 
 H                    -2.75431  -2.11693   2.0044 
 H                    -2.68152   0.76902   2.48769 
 H                    -1.30907  -0.30716   2.20046 
 H                    -4.37999  -0.75856  -0.17823 
 H                    -2.94225   1.28476   0.18009 
 H                     0.48877  -0.43528   0.32889 
 H                     2.58003   3.0465   -0.42345 
 H                     0.45713   4.42253  -0.45564 
 H                    -1.72088   3.24785  -0.10745 
 C                    -2.43852  -0.30253  -1.88534 
 H                     2.4444    0.70287  -0.07283 
 H                    -1.01324  -1.86779  -0.3057 
 H                    -0.56083  -3.32884   0.06967 
 H                     3.16616  -1.01552  -0.8545 
 H                     4.1977   -0.66873   0.30754 
 H                     2.0643   -2.40773  -2.54091 
 H                     1.14879  -2.2351   -1.29376 
 O                     5.45159  -1.17905   1.47056 
 H                     6.37861  -1.05681   1.24817 
 H                     5.42246  -1.93857   2.05809 
 H                    -2.60271  -1.23128  -2.4436 
 H                    -1.52553   0.16776  -2.27078 
 H                    -3.2945    0.37244  -2.06706 
 O                     5.55904  -3.27848   3.23709 
 H                     5.34497  -3.06314   4.16154 
 H                     5.36686  -4.23018   3.18711 
 
 Add virtual bond connecting atoms H27        and O12        Dist= 2.87D+00.
 Add virtual bond connecting atoms H30        and O13        Dist= 3.34D+00.
 Add virtual bond connecting atoms N8         and H28        Dist= 3.39D+00.
 Add virtual bond connecting atoms H33        and O14        Dist= 3.37D+00.
 Add virtual bond connecting atoms O34        and H31        Dist= 3.37D+00.
 Add virtual bond connecting atoms O40        and H36        Dist= 3.38D+00.

 GradGradGradGradGradGradGradGradGradGradGradGradGradGradGradGradGradGrad
 Berny optimization.
 Initialization pass.
                           ----------------------------
                           !    Initial Parameters    !
                           ! (Angstroms and Degrees)  !
 --------------------------                            --------------------------
 ! Name  Definition              Value          Derivative Info.                !
 --------------------------------------------------------------------------------
 ! R1    R(1,2)                  1.3964         estimate D2E/DX2                !
 ! R2    R(1,6)                  1.3953         estimate D2E/DX2                !
 ! R3    R(1,25)                 1.0904         estimate D2E/DX2                !
 ! R4    R(2,3)                  1.3909         estimate D2E/DX2                !
 ! R5    R(2,7)                  1.51           estimate D2E/DX2                !
 ! R6    R(3,4)                  1.3382         estimate D2E/DX2                !
 ! R7    R(3,22)                 1.0888         estimate D2E/DX2                !
 ! R8    R(4,5)                  1.3408         estimate D2E/DX2                !
 ! R9    R(4,27)                 1.0763         estimate D2E/DX2                !
 ! R10   R(5,6)                  1.3823         estimate D2E/DX2                !
 ! R11   R(5,23)                 1.0873         estimate D2E/DX2                !
 ! R12   R(6,24)                 1.0873         estimate D2E/DX2                !
 ! R13   R(7,8)                  1.469          estimate D2E/DX2                !
 ! R14   R(7,11)                 1.5398         estimate D2E/DX2                !
 ! R15   R(7,21)                 1.1079         estimate D2E/DX2                !
 ! R16   R(8,9)                  1.4707         estimate D2E/DX2                !
 ! R17   R(8,26)                 1.4582         estimate D2E/DX2                !
 ! R18   R(8,28)                 1.7943         estimate D2E/DX2                !
 ! R19   R(9,10)                 1.5348         estimate D2E/DX2                !
 ! R20   R(9,15)                 1.0969         estimate D2E/DX2                !
 ! R21   R(9,20)                 1.1054         estimate D2E/DX2                !
 ! R22   R(10,11)                1.5476         estimate D2E/DX2                !
 ! R23   R(10,16)                1.0945         estimate D2E/DX2                !
 ! R24   R(10,17)                1.0955         estimate D2E/DX2                !
 ! R25   R(11,18)                1.095          estimate D2E/DX2                !
 ! R26   R(11,19)                1.0967         estimate D2E/DX2                !
 ! R27   R(12,27)                1.5185         estimate D2E/DX2                !
 ! R28   R(12,30)                0.978          estimate D2E/DX2                !
 ! R29   R(12,31)                0.9744         estimate D2E/DX2                !
 ! R30   R(13,30)                1.7666         estimate D2E/DX2                !
 ! R31   R(13,32)                0.9592         estimate D2E/DX2                !
 ! R32   R(13,33)                0.9768         estimate D2E/DX2                !
 ! R33   R(14,28)                0.9912         estimate D2E/DX2                !
 ! R34   R(14,29)                0.9593         estimate D2E/DX2                !
 ! R35   R(14,33)                1.7815         estimate D2E/DX2                !
 ! R36   R(26,37)                1.096          estimate D2E/DX2                !
 ! R37   R(26,38)                1.0969         estimate D2E/DX2                !
 ! R38   R(26,39)                1.1051         estimate D2E/DX2                !
 ! R39   R(31,34)                1.7847         estimate D2E/DX2                !
 ! R40   R(34,35)                0.9611         estimate D2E/DX2                !
 ! R41   R(34,36)                0.9607         estimate D2E/DX2                !
 ! R42   R(36,40)                1.79           estimate D2E/DX2                !
 ! R43   R(40,41)                0.973          estimate D2E/DX2                !
 ! R44   R(40,42)                0.9722         estimate D2E/DX2                !
 ! A1    A(2,1,6)              120.8895         estimate D2E/DX2                !
 ! A2    A(2,1,25)             119.5431         estimate D2E/DX2                !
 ! A3    A(6,1,25)             119.5671         estimate D2E/DX2                !
 ! A4    A(1,2,3)              117.2106         estimate D2E/DX2                !
 ! A5    A(1,2,7)              121.6809         estimate D2E/DX2                !
 ! A6    A(3,2,7)              121.1038         estimate D2E/DX2                !
 ! A7    A(2,3,4)              120.8082         estimate D2E/DX2                !
 ! A8    A(2,3,22)             123.3133         estimate D2E/DX2                !
 ! A9    A(4,3,22)             115.876          estimate D2E/DX2                !
 ! A10   A(3,4,5)              122.7331         estimate D2E/DX2                !
 ! A11   A(3,4,27)             116.7303         estimate D2E/DX2                !
 ! A12   A(5,4,27)             120.472          estimate D2E/DX2                !
 ! A13   A(4,5,6)              119.6399         estimate D2E/DX2                !
 ! A14   A(4,5,23)             116.564          estimate D2E/DX2                !
 ! A15   A(6,5,23)             123.7947         estimate D2E/DX2                !
 ! A16   A(1,6,5)              118.7127         estimate D2E/DX2                !
 ! A17   A(1,6,24)             121.3429         estimate D2E/DX2                !
 ! A18   A(5,6,24)             119.9405         estimate D2E/DX2                !
 ! A19   A(2,7,8)              113.4648         estimate D2E/DX2                !
 ! A20   A(2,7,11)             114.546          estimate D2E/DX2                !
 ! A21   A(2,7,21)             107.3826         estimate D2E/DX2                !
 ! A22   A(8,7,11)             103.2317         estimate D2E/DX2                !
 ! A23   A(8,7,21)             109.0794         estimate D2E/DX2                !
 ! A24   A(11,7,21)            108.9877         estimate D2E/DX2                !
 ! A25   A(7,8,9)              103.4767         estimate D2E/DX2                !
 ! A26   A(7,8,26)             113.8958         estimate D2E/DX2                !
 ! A27   A(7,8,28)             115.6009         estimate D2E/DX2                !
 ! A28   A(9,8,26)             113.2856         estimate D2E/DX2                !
 ! A29   A(9,8,28)             101.834          estimate D2E/DX2                !
 ! A30   A(26,8,28)            108.1568         estimate D2E/DX2                !
 ! A31   A(8,9,10)             104.1802         estimate D2E/DX2                !
 ! A32   A(8,9,15)             110.177          estimate D2E/DX2                !
 ! A33   A(8,9,20)             110.0705         estimate D2E/DX2                !
 ! A34   A(10,9,15)            113.8962         estimate D2E/DX2                !
 ! A35   A(10,9,20)            110.8178         estimate D2E/DX2                !
 ! A36   A(15,9,20)            107.6773         estimate D2E/DX2                !
 ! A37   A(9,10,11)            104.458          estimate D2E/DX2                !
 ! A38   A(9,10,16)            111.1961         estimate D2E/DX2                !
 ! A39   A(9,10,17)            111.0513         estimate D2E/DX2                !
 ! A40   A(11,10,16)           112.254          estimate D2E/DX2                !
 ! A41   A(11,10,17)           110.5187         estimate D2E/DX2                !
 ! A42   A(16,10,17)           107.4155         estimate D2E/DX2                !
 ! A43   A(7,11,10)            104.124          estimate D2E/DX2                !
 ! A44   A(7,11,18)            111.0725         estimate D2E/DX2                !
 ! A45   A(7,11,19)            110.0107         estimate D2E/DX2                !
 ! A46   A(10,11,18)           113.2349         estimate D2E/DX2                !
 ! A47   A(10,11,19)           110.9019         estimate D2E/DX2                !
 ! A48   A(18,11,19)           107.504          estimate D2E/DX2                !
 ! A49   A(27,12,30)           106.0757         estimate D2E/DX2                !
 ! A50   A(27,12,31)           128.5665         estimate D2E/DX2                !
 ! A51   A(30,12,31)           109.2669         estimate D2E/DX2                !
 ! A52   A(30,13,32)           125.2401         estimate D2E/DX2                !
 ! A53   A(30,13,33)           119.0363         estimate D2E/DX2                !
 ! A54   A(32,13,33)           107.0461         estimate D2E/DX2                !
 ! A55   A(28,14,29)           107.6798         estimate D2E/DX2                !
 ! A56   A(28,14,33)           117.4722         estimate D2E/DX2                !
 ! A57   A(29,14,33)           123.4444         estimate D2E/DX2                !
 ! A58   A(8,26,37)            109.3542         estimate D2E/DX2                !
 ! A59   A(8,26,38)            110.1057         estimate D2E/DX2                !
 ! A60   A(8,26,39)            111.7947         estimate D2E/DX2                !
 ! A61   A(37,26,38)           108.0004         estimate D2E/DX2                !
 ! A62   A(37,26,39)           108.5282         estimate D2E/DX2                !
 ! A63   A(38,26,39)           108.9676         estimate D2E/DX2                !
 ! A64   A(12,30,13)           156.7109         estimate D2E/DX2                !
 ! A65   A(13,33,14)           163.368          estimate D2E/DX2                !
 ! A66   A(31,34,35)           119.3723         estimate D2E/DX2                !
 ! A67   A(31,34,36)           127.1055         estimate D2E/DX2                !
 ! A68   A(35,34,36)           105.7423         estimate D2E/DX2                !
 ! A69   A(36,40,41)           116.3163         estimate D2E/DX2                !
 ! A70   A(36,40,42)           133.1442         estimate D2E/DX2                !
 ! A71   A(41,40,42)           102.8264         estimate D2E/DX2                !
 ! A72   L(4,27,12,14,-1)      171.4839         estimate D2E/DX2                !
 ! A73   L(8,28,14,3,-1)       172.6673         estimate D2E/DX2                !
 ! A74   L(12,31,34,17,-1)     184.3115         estimate D2E/DX2                !
 ! A75   L(34,36,40,9,-1)      186.5106         estimate D2E/DX2                !
 ! A76   L(4,27,12,14,-2)      172.1932         estimate D2E/DX2                !
 ! A77   L(8,28,14,3,-2)       179.9377         estimate D2E/DX2                !
 ! A78   L(12,31,34,17,-2)     185.2669         estimate D2E/DX2                !
 ! A79   L(34,36,40,9,-2)      182.9121         estimate D2E/DX2                !
 ! D1    D(6,1,2,3)             -0.1729         estimate D2E/DX2                !
 ! D2    D(6,1,2,7)            179.044          estimate D2E/DX2                !
 ! D3    D(25,1,2,3)           179.6227         estimate D2E/DX2                !
 ! D4    D(25,1,2,7)            -1.1604         estimate D2E/DX2                !
 ! D5    D(2,1,6,5)              0.7566         estimate D2E/DX2                !
 ! D6    D(2,1,6,24)          -179.9671         estimate D2E/DX2                !
 ! D7    D(25,1,6,5)          -179.0389         estimate D2E/DX2                !
 ! D8    D(25,1,6,24)            0.2373         estimate D2E/DX2                !
 ! D9    D(1,2,3,4)             -0.4762         estimate D2E/DX2                !
 ! D10   D(1,2,3,22)          -179.8732         estimate D2E/DX2                !
 ! D11   D(7,2,3,4)           -179.6979         estimate D2E/DX2                !
 ! D12   D(7,2,3,22)             0.905          estimate D2E/DX2                !
 ! D13   D(1,2,7,8)            129.3104         estimate D2E/DX2                !
 ! D14   D(1,2,7,11)          -112.4891         estimate D2E/DX2                !
 ! D15   D(1,2,7,21)             8.694          estimate D2E/DX2                !
 ! D16   D(3,2,7,8)            -51.5029         estimate D2E/DX2                !
 ! D17   D(3,2,7,11)            66.6976         estimate D2E/DX2                !
 ! D18   D(3,2,7,21)          -172.1193         estimate D2E/DX2                !
 ! D19   D(2,3,4,5)              0.5451         estimate D2E/DX2                !
 ! D20   D(2,3,4,27)          -176.5414         estimate D2E/DX2                !
 ! D21   D(22,3,4,5)           179.9851         estimate D2E/DX2                !
 ! D22   D(22,3,4,27)            2.8986         estimate D2E/DX2                !
 ! D23   D(3,4,5,6)              0.0666         estimate D2E/DX2                !
 ! D24   D(3,4,5,23)          -179.5291         estimate D2E/DX2                !
 ! D25   D(27,4,5,6)           177.0473         estimate D2E/DX2                !
 ! D26   D(27,4,5,23)           -2.5484         estimate D2E/DX2                !
 ! D27   D(3,4,12,30)           38.9282         estimate D2E/DX2                !
 ! D28   D(3,4,12,31)          -90.8639         estimate D2E/DX2                !
 ! D29   D(5,4,12,30)         -132.1342         estimate D2E/DX2                !
 ! D30   D(5,4,12,31)           98.0737         estimate D2E/DX2                !
 ! D31   D(4,5,6,1)             -0.7066         estimate D2E/DX2                !
 ! D32   D(4,5,6,24)          -179.9933         estimate D2E/DX2                !
 ! D33   D(23,5,6,1)           178.8583         estimate D2E/DX2                !
 ! D34   D(23,5,6,24)           -0.4284         estimate D2E/DX2                !
 ! D35   D(2,7,8,9)            169.4229         estimate D2E/DX2                !
 ! D36   D(2,7,8,26)           -67.1554         estimate D2E/DX2                !
 ! D37   D(2,7,8,28)            59.0172         estimate D2E/DX2                !
 ! D38   D(11,7,8,9)            44.8613         estimate D2E/DX2                !
 ! D39   D(11,7,8,26)          168.283          estimate D2E/DX2                !
 ! D40   D(11,7,8,28)          -65.5444         estimate D2E/DX2                !
 ! D41   D(21,7,8,9)           -70.9236         estimate D2E/DX2                !
 ! D42   D(21,7,8,26)           52.4981         estimate D2E/DX2                !
 ! D43   D(21,7,8,28)          178.6707         estimate D2E/DX2                !
 ! D44   D(2,7,11,10)         -152.9209         estimate D2E/DX2                !
 ! D45   D(2,7,11,18)           84.8767         estimate D2E/DX2                !
 ! D46   D(2,7,11,19)          -34.0286         estimate D2E/DX2                !
 ! D47   D(8,7,11,10)          -29.0677         estimate D2E/DX2                !
 ! D48   D(8,7,11,18)         -151.27           estimate D2E/DX2                !
 ! D49   D(8,7,11,19)           89.8247         estimate D2E/DX2                !
 ! D50   D(21,7,11,10)          86.7826         estimate D2E/DX2                !
 ! D51   D(21,7,11,18)         -35.4197         estimate D2E/DX2                !
 ! D52   D(21,7,11,19)        -154.325          estimate D2E/DX2                !
 ! D53   D(7,8,9,10)           -42.8282         estimate D2E/DX2                !
 ! D54   D(7,8,9,15)          -165.3742         estimate D2E/DX2                !
 ! D55   D(7,8,9,20)            76.0261         estimate D2E/DX2                !
 ! D56   D(26,8,9,10)         -166.6505         estimate D2E/DX2                !
 ! D57   D(26,8,9,15)           70.8034         estimate D2E/DX2                !
 ! D58   D(26,8,9,20)          -47.7962         estimate D2E/DX2                !
 ! D59   D(28,8,9,10)           77.4499         estimate D2E/DX2                !
 ! D60   D(28,8,9,15)          -45.0961         estimate D2E/DX2                !
 ! D61   D(28,8,9,20)         -163.6958         estimate D2E/DX2                !
 ! D62   D(7,8,14,29)          122.503          estimate D2E/DX2                !
 ! D63   D(7,8,14,33)          -89.9002         estimate D2E/DX2                !
 ! D64   D(9,8,14,29)           10.8585         estimate D2E/DX2                !
 ! D65   D(9,8,14,33)          158.4553         estimate D2E/DX2                !
 ! D66   D(26,8,14,29)        -109.9438         estimate D2E/DX2                !
 ! D67   D(26,8,14,33)          37.6529         estimate D2E/DX2                !
 ! D68   D(7,8,26,37)         -177.4003         estimate D2E/DX2                !
 ! D69   D(7,8,26,38)           64.0859         estimate D2E/DX2                !
 ! D70   D(7,8,26,39)          -57.1892         estimate D2E/DX2                !
 ! D71   D(9,8,26,37)          -59.4842         estimate D2E/DX2                !
 ! D72   D(9,8,26,38)         -177.9979         estimate D2E/DX2                !
 ! D73   D(9,8,26,39)           60.727          estimate D2E/DX2                !
 ! D74   D(28,8,26,37)          52.6082         estimate D2E/DX2                !
 ! D75   D(28,8,26,38)         -65.9056         estimate D2E/DX2                !
 ! D76   D(28,8,26,39)         172.8194         estimate D2E/DX2                !
 ! D77   D(8,9,10,11)           23.477          estimate D2E/DX2                !
 ! D78   D(8,9,10,16)          144.7734         estimate D2E/DX2                !
 ! D79   D(8,9,10,17)          -95.6733         estimate D2E/DX2                !
 ! D80   D(15,9,10,11)         143.5474         estimate D2E/DX2                !
 ! D81   D(15,9,10,16)         -95.1562         estimate D2E/DX2                !
 ! D82   D(15,9,10,17)          24.3971         estimate D2E/DX2                !
 ! D83   D(20,9,10,11)         -94.8663         estimate D2E/DX2                !
 ! D84   D(20,9,10,16)          26.4301         estimate D2E/DX2                !
 ! D85   D(20,9,10,17)         145.9834         estimate D2E/DX2                !
 ! D86   D(9,10,11,7)            3.3865         estimate D2E/DX2                !
 ! D87   D(9,10,11,18)         124.1511         estimate D2E/DX2                !
 ! D88   D(9,10,11,19)        -114.8958         estimate D2E/DX2                !
 ! D89   D(16,10,11,7)        -117.2068         estimate D2E/DX2                !
 ! D90   D(16,10,11,18)          3.5578         estimate D2E/DX2                !
 ! D91   D(16,10,11,19)        124.5109         estimate D2E/DX2                !
 ! D92   D(17,10,11,7)         122.8966         estimate D2E/DX2                !
 ! D93   D(17,10,11,18)       -116.3388         estimate D2E/DX2                !
 ! D94   D(17,10,11,19)          4.6143         estimate D2E/DX2                !
 ! D95   D(27,12,30,13)          5.6242         estimate D2E/DX2                !
 ! D96   D(31,12,30,13)        147.6248         estimate D2E/DX2                !
 ! D97   D(27,12,34,35)       -122.8599         estimate D2E/DX2                !
 ! D98   D(27,12,34,36)         90.8996         estimate D2E/DX2                !
 ! D99   D(30,12,34,35)        102.5419         estimate D2E/DX2                !
 ! D100  D(30,12,34,36)        -43.6985         estimate D2E/DX2                !
 ! D101  D(32,13,30,12)        144.4095         estimate D2E/DX2                !
 ! D102  D(33,13,30,12)        -72.2019         estimate D2E/DX2                !
 ! D103  D(30,13,33,14)         45.885          estimate D2E/DX2                !
 ! D104  D(32,13,33,14)       -164.7438         estimate D2E/DX2                !
 ! D105  D(28,14,33,13)         62.5158         estimate D2E/DX2                !
 ! D106  D(29,14,33,13)       -158.5773         estimate D2E/DX2                !
 ! D107  D(31,34,40,41)        -99.6617         estimate D2E/DX2                !
 ! D108  D(31,34,40,42)         46.4681         estimate D2E/DX2                !
 ! D109  D(35,34,40,41)        110.8398         estimate D2E/DX2                !
 ! D110  D(35,34,40,42)       -103.0304         estimate D2E/DX2                !
 --------------------------------------------------------------------------------
 Trust Radius=3.00D-01 FncErr=1.00D-07 GrdErr=1.00D-06 EigMax=2.50D+02 EigMin=1.00D-04
 Number of steps in this run=    243 maximum allowed number of steps=    252.
 GradGradGradGradGradGradGradGradGradGradGradGradGradGradGradGradGradGrad

                          Input orientation:                          
 ---------------------------------------------------------------------
 Center     Atomic      Atomic             Coordinates (Angstroms)
 Number     Number       Type             X           Y           Z
 ---------------------------------------------------------------------
      1          6           0       -0.787260    2.685210   -0.080795
      2          6           0       -0.819675    1.307814    0.146609
      3          6           0        0.398660    0.637025    0.162746
      4          7           0        1.545910    1.294685   -0.042300
      5          6           0        1.594674    2.616565   -0.261125
      6          6           0        0.423275    3.350286   -0.278525
      7          6           0       -2.117612    0.573547    0.383854
      8          7           0       -2.283674   -0.611203   -0.468583
      9          6           0       -3.453805   -1.288549    0.110135
     10          6           0       -3.226030   -1.203618    1.625572
     11          6           0       -2.282597    0.009620    1.807098
     12          8           0        3.562267   -0.292647   -0.328185
     13          8           0        1.911544   -1.855655   -1.771581
     14          8           0       -0.231597   -2.466485   -0.191536
     15          1           0       -3.524391   -2.314391   -0.271777
     16          1           0       -4.171904   -1.076971    2.161416
     17          1           0       -2.754310   -2.116927    2.004403
     18          1           0       -2.681523    0.769024    2.487690
     19          1           0       -1.309067   -0.307159    2.200460
     20          1           0       -4.379989   -0.758560   -0.178230
     21          1           0       -2.942251    1.284755    0.180090
     22          1           0        0.488772   -0.435281    0.328892
     23          1           0        2.580027    3.046503   -0.423453
     24          1           0        0.457132    4.422534   -0.455643
     25          1           0       -1.720883    3.247848   -0.107446
     26          6           0       -2.438516   -0.302530   -1.885341
     27          1           0        2.444399    0.702873   -0.072828
     28          1           0       -1.013236   -1.867790   -0.305697
     29          1           0       -0.560827   -3.328844    0.069670
     30          1           0        3.166155   -1.015522   -0.854496
     31          1           0        4.197704   -0.668734    0.307540
     32          1           0        2.064296   -2.407726   -2.540910
     33          1           0        1.148793   -2.235099   -1.293755
     34          8           0        5.451591   -1.179045    1.470558
     35          1           0        6.378607   -1.056810    1.248165
     36          1           0        5.422456   -1.938572    2.058091
     37          1           0       -2.602709   -1.231283   -2.443598
     38          1           0       -1.525533    0.167761   -2.270776
     39          1           0       -3.294498    0.372439   -2.067059
     40          8           0        5.559035   -3.278485    3.237089
     41          1           0        5.344973   -3.063145    4.161542
     42          1           0        5.366864   -4.230176    3.187110
 ---------------------------------------------------------------------
                    Distance matrix (angstroms):
                    1          2          3          4          5
     1  C    0.000000
     2  C    1.396418   0.000000
     3  C    2.379239   1.390884   0.000000
     4  N    2.716381   2.373152   1.338186   0.000000
     5  C    2.389737   2.776357   2.351318   1.340757   0.000000
     6  C    1.395284   2.428447   2.749020   2.354062   1.382326
     7  C    2.538672   1.509991   2.526765   3.758063   4.286139
     8  N    3.640875   2.490859   3.025155   4.298818   5.050060
     9  C    4.789330   3.698793   4.307214   5.629697   6.393347
    10  C    4.897170   3.779572   4.320440   5.638681   6.433709
    11  C    3.599855   2.565672   3.207284   4.441749   5.109495
    12  O    5.277046   4.689171   3.333724   2.582063   3.512753
    13  O    5.546328   4.598537   3.499127   3.612304   4.731029
    14  O    5.182759   3.834776   3.186615   4.162716   5.401621
    15  H    5.703014   4.539923   4.928488   6.227844   7.107691
    16  H    5.535100   4.580839   5.274706   6.570732   7.263906
    17  H    5.592661   4.350065   4.573529   5.858326   6.815587
    18  H    3.722515   3.039315   3.861388   4.954630   5.408812
    19  H    3.798773   2.658185   2.821364   3.968220   4.799924
    20  H    4.977625   4.129317   4.989931   6.273003   6.862575
    21  H    2.583277   2.122965   3.403166   4.493678   4.748903
    22  H    3.396110   2.187154   1.088836   2.061094   3.299228
    23  H    3.403905   3.860827   3.302662   2.069672   1.087252
    24  H    2.169635   3.419711   3.836131   3.337623   2.143213
    25  H    1.090378   2.154171   3.373702   3.806708   3.378617
    26  C    3.861298   3.056579   3.623119   4.671568   5.236966
    27  H    3.791219   3.326903   2.060310   1.076316   2.102310
    28  H    4.564149   3.213488   2.913243   4.076746   5.187738
    29  H    6.020196   4.644515   4.081347   5.082116   6.332732
    30  H    5.470240   4.720905   3.380048   2.936309   4.001712
    31  H    6.020765   5.395066   4.019789   3.318044   4.229933
    32  H    6.334156   5.417129   4.399387   4.496624   5.537280
    33  H    5.424852   4.301366   3.306538   3.766061   4.980339
    34  O    7.500828   6.875034   5.526355   4.864404   5.681654
    35  H    8.192588   7.656379   6.309277   5.527186   6.217528
    36  H    8.032108   7.290884   5.955213   5.467468   6.385918
    37  H    4.921139   4.041707   4.392245   5.418283   6.098126
    38  H    3.417399   2.764364   3.137636   3.958513   4.446463
    39  H    3.947201   3.449638   4.322205   5.327263   5.674637
    40  O    9.319306   8.442342   7.170235   6.911834   7.918666
    41  H    9.415163   8.557327   7.358508   7.148136   8.116885
    42  H    9.817077   8.842355   7.584159   7.453379   8.543863
                    6          7          8          9         10
     6  C    0.000000
     7  C    3.821666   0.000000
     8  N    4.801780   1.468965   0.000000
     9  C    6.058184   2.308189   1.470686   0.000000
    10  C    6.138490   2.434906   2.371598   1.534811   0.000000
    11  C    4.778244   1.539759   2.358844   2.436525   1.547567
    12  O    4.809023   5.789501   5.856297   7.099944   7.122360
    13  O    5.616581   5.175038   4.565777   5.713968   6.193583
    14  O    5.854165   3.623523   2.780260   3.444004   3.723351
    15  H    6.904540   3.278577   2.116356   1.096901   2.218731
    16  H    6.831514   3.178687   3.270970   2.183617   1.094461
    17  H    6.723037   3.204717   2.933319   2.182603   1.095521
    18  H    4.894347   2.186855   3.286771   3.237714   2.220597
    19  H    4.745870   2.174729   2.857638   3.151585   2.192916
    20  H    6.321710   2.684920   2.121451   1.105378   2.187098
    21  H    3.975363   1.107866   2.109303   2.624590   2.891703
    22  H    3.834549   2.795352   2.890220   4.039781   4.008924
    23  H    2.182858   5.369829   6.085757   7.448793   7.481466
    24  H    1.087305   4.706247   5.731552   6.944926   7.039228
    25  H    2.153410   2.747846   3.916558   4.860994   5.008430
    26  C    4.910679   2.453515   1.458238   2.446420   3.709265
    27  H    3.337072   4.586636   4.923220   6.228005   6.218765
    28  H    5.412266   2.766813   1.794312   2.542600   3.011209
    29  H    6.760213   4.213187   3.262436   3.540305   3.747095
    30  H    5.188007   5.654807   5.478416   6.695441   6.859019
    31  H    5.544575   6.436793   6.527935   7.679110   7.558779
    32  H    6.400472   5.910210   5.140708   6.223346   6.840833
    33  H    5.723076   4.623015   3.885843   4.904159   5.359617
    34  O    6.989856   7.845084   7.994813   9.009374   8.679040
    35  H    7.564341   8.694299   8.841996   9.900765   9.613170
    36  H    7.643533   8.121972   8.217690   9.110712   8.690428
    37  H    5.902109   3.389279   2.094509   2.692433   4.116727
    38  H    4.230293   2.749960   2.104629   3.392316   4.466979
    39  H    5.088051   2.726257   2.131770   2.743070   4.015491
    40  O    9.092644   9.050415   9.074937   9.745202   9.169483
    41  H    9.223307   9.120670   9.254530   9.847923   9.129681
    42  H    9.690877   9.324772   9.219099   9.794139   9.243175
                   11         12         13         14         15
    11  C    0.000000
    12  O    6.230027   0.000000
    13  O    5.820396   2.692819   0.000000
    14  O    3.785794   4.374660   2.731796   0.000000
    15  H    3.356308   7.369624   5.657671   3.297281   0.000000
    16  H    2.208099   8.162762   7.285819   4.795117   2.805514
    17  H    2.187154   6.976253   6.008037   3.362799   2.411019
    18  H    1.095008   6.931177   6.791656   4.863014   4.222858
    19  H    1.096742   5.488547   5.342966   3.397834   3.879252
    20  H    2.988424   7.957323   6.582232   4.486239   1.778035
    21  H    2.169854   6.712324   6.101682   4.643011   3.673816
    22  H    3.172305   3.146183   2.907530   2.217108   4.471838
    23  H    6.151677   3.481924   5.127911   6.192903   8.125645
    24  H    5.665679   5.647215   6.577436   6.928397   7.827675
    25  H    3.803567   6.363608   6.481482   5.905815   5.849628
    26  C    3.708889   6.199535   4.620407   3.524510   2.798267
    27  H    5.134122   1.518518   3.117012   4.149684   6.691033
    28  H    3.098362   4.839092   3.271590   0.991175   2.550785
    29  H    4.138658   5.135824   3.416593   0.959314   3.150938
    30  H    6.150114   0.977986   1.766612   3.753602   6.840324
    31  H    6.686041   0.974355   3.310295   4.806214   7.916726
    32  H    6.606377   3.407877   0.959157   3.285443   6.032503
    33  H    5.140865   3.245043   0.976773   1.781545   4.784284
    34  O    7.832231   2.755127   4.847804   6.059594   9.213739
    35  H    8.744492   3.316715   5.450841   6.910479  10.097579
    36  H    7.951496   3.444370   5.196130   6.108014   9.252870
    37  H    4.439677   6.585054   4.606509   3.495666   2.596041
    38  H    4.150568   5.465468   4.019565   3.596771   3.761982
    39  H    4.020532   7.105016   5.670501   4.578039   3.239590
    40  O    8.622511   5.060977   6.357311   6.778365   9.785205
    41  H    8.553661   5.568783   6.960489   7.099537   9.943871
    42  H    8.854070   5.578351   6.493551   6.772638   9.730804
                   16         17         18         19         20
    16  H    0.000000
    17  H    1.765144   0.000000
    18  H    2.394867   2.927042   0.000000
    19  H    2.964788   2.324312   1.767571   0.000000
    20  H    2.370365   3.041690   3.510759   3.910561   0.000000
    21  H    3.318953   3.864567   2.378860   3.046863   2.524009
    22  H    5.048942   4.019061   4.020141   2.598347   4.905764
    23  H    8.323050   7.810931   6.430052   5.766890   7.936023
    24  H    7.649936   7.689586   5.644688   5.704764   7.093549
    25  H    5.464366   5.857362   3.715122   4.258415   4.809071
    26  C    4.469970   4.303704   4.508956   4.239038   2.625168
    27  H    7.206605   6.268392   5.730245   4.502945   6.979912
    28  H    4.085245   2.903441   4.187957   2.967138   3.547064
    29  H    4.741963   3.165960   5.209289   3.772361   4.610186
    30  H    7.933890   6.666206   6.967794   5.464627   7.580742
    31  H    8.582182   7.301172   7.358258   5.834245   8.591907
    32  H    7.922939   6.630490   7.609294   6.186481   7.059094
    33  H    6.448975   5.111362   6.164041   4.686957   5.830265
    34  O    9.648801   8.276559   8.424789   6.855614   9.977739
    35  H   10.589982   9.225287   9.325023   7.782620  10.856839
    36  H    9.633524   8.178887   8.555122   6.927855  10.123314
    37  H    4.867478   4.537848   5.322127   4.908644   2.917890
    38  H    5.310081   5.000685   4.933643   4.501595   3.658516
    39  H    4.555286   4.802661   4.612890   4.755577   2.454613
    40  O   10.034685   8.484129   9.211445   7.554747  10.807341
    41  H    9.925540   8.434866   9.050521   7.464419  10.895853
    42  H   10.098656   8.474555   9.500407   7.805869  10.880201
                   21         22         23         24         25
    21  H    0.000000
    22  H    3.840909   0.000000
    23  H    5.827828   4.130640   0.000000
    24  H    4.669649   4.920860   2.530055   0.000000
    25  H    2.329839   4.317222   4.317201   2.498975   0.000000
    26  C    2.653154   3.672801   6.207972   5.723202   4.034983
    27  H    5.423887   2.298097   2.373591   4.234579   4.881359
    28  H    3.727684   2.170441   6.088980   6.461628   5.168154
    29  H    5.193137   3.088942   7.124127   7.835563   6.680567
    30  H    6.608651   2.984203   4.126668   6.088542   6.528212
    31  H    7.403467   3.716333   4.117550   6.363595   7.109255
    32  H    6.789976   3.822117   5.873518   7.320093   7.227368
    33  H    5.594482   2.511564   5.540864   6.745732   6.301196
    34  O    8.842635   5.146470   5.448707   7.748068   8.575072
    35  H    9.669649   5.993456   5.836154   8.245607   9.271974
    36  H    9.158878   5.439784   6.252075   8.452039   9.089323
    37  H    3.650955   4.228188   7.017207   6.729059   5.128142
    38  H    3.043273   3.343555   5.343723   5.032769   3.768965
    39  H    2.450730   4.550398   6.660488   5.751057   3.818943
    40  O   10.121278   6.499922   7.891738   9.948436  10.333254
    41  H   10.170264   6.721426   8.123724  10.062046  10.391304
    42  H   10.416239   6.809289   8.587938  10.594551  10.817167
                   26         27         28         29         30
    26  C    0.000000
    27  H    5.304611   0.000000
    28  H    2.641351   4.314832   0.000000
    29  H    4.062802   5.030550   1.574882   0.000000
    30  H    5.743112   2.021093   4.300564   4.482849   0.000000
    31  H    6.998732   2.258332   5.382164   5.456774   1.592069
    32  H    5.013675   3.988951   3.841733   3.815083   2.448738
    33  H    4.117473   3.435249   2.405316   2.444996   2.397930
    34  O    8.618824   3.868703   6.739691   6.537071   3.264327
    35  H    9.387729   4.507716   7.596810   7.396400   3.839627
    36  H    8.945511   4.515182   6.856430   6.456497   3.798168
    37  H    1.095989   5.902102   2.739012   3.858181   5.987620
    38  H    1.096937   4.569210   2.875318   4.316780   5.041621
    39  H    1.105129   6.084495   3.650367   5.073270   6.718391
    40  O    9.952709   6.042161   7.598430   6.891138   5.252422
    41  H   10.235648   6.366012   7.862056   7.189749   5.839575
    42  H   10.103471   6.595678   7.647630   6.757836   5.613528
                   31         32         33         34         35
    31  H    0.000000
    32  H    3.960958   0.000000
    33  H    3.783319   1.556709   0.000000
    34  O    1.784730   5.392152   5.222140   0.000000
    35  H    2.406598   5.898758   5.933016   0.961124   0.000000
    36  H    2.485344   5.713856   5.439393   0.960690   1.532224
    37  H    7.357366   4.813982   4.050130   8.955171   9.712033
    38  H    6.332683   4.426396   3.725631   8.030674   8.738304
    39  H    7.928168   6.055619   5.209615   9.561167  10.324845
    40  O    4.152864   6.808575   6.408388   2.745874   3.092467
    41  H    4.680038   7.491013   6.932088   3.286730   3.685314
    42  H    4.726809   6.858461   6.469204   3.501875   3.854008
                   36         37         38         39         40
    36  H    0.000000
    37  H    9.228691   0.000000
    38  H    8.452827   1.774119   0.000000
    39  H    9.916800   1.786695   1.792381   0.000000
    40  O    1.789987  10.152601   9.612715  10.947524   0.000000
    41  H    2.386456  10.495201   9.950745  11.191031   0.973040
    42  H    2.555234  10.208444   9.830336  11.126974   0.972185
                   41         42
    41  H    0.000000
    42  H    1.520513   0.000000
 Stoichiometry    C10H25N2O5(1+)
 Framework group  C1[X(C10H25N2O5)]
 Deg. of freedom   120
 Full point group                 C1      NOp   1
 Largest Abelian subgroup         C1      NOp   1
 Largest concise Abelian subgroup C1      NOp   1
                         Standard orientation:                         
 ---------------------------------------------------------------------
 Center     Atomic      Atomic             Coordinates (Angstroms)
 Number     Number       Type             X           Y           Z
 ---------------------------------------------------------------------
      1          6           0        1.885081    2.463784   -0.666892
      2          6           0        1.545355    1.120265   -0.495064
      3          6           0        0.221806    0.834579   -0.177007
      4          7           0       -0.676217    1.816463   -0.034875
      5          6           0       -0.366897    3.110918   -0.197154
      6          6           0        0.927144    3.468496   -0.526429
      7          6           0        2.562666    0.017210   -0.663658
      8          7           0        2.599482   -0.922076    0.465167
      9          6           0        3.444254   -2.019573   -0.029584
     10          6           0        2.962049   -2.245673   -1.469028
     11          6           0        2.317646   -0.898996   -1.876667
     12          8           0       -2.921393    0.976594    0.924736
     13          8           0       -1.448662   -0.585901    2.549834
     14          8           0        0.150495   -2.137750    0.969590
     15          1           0        3.339305   -2.899048    0.617487
     16          1           0        3.792546   -2.523319   -2.125560
     17          1           0        2.223889   -3.053898   -1.514385
     18          1           0        2.750312   -0.471099   -2.787022
     19          1           0        1.240565   -1.016275   -2.046917
     20          1           0        4.507188   -1.716589   -0.014375
     21          1           0        3.556038    0.496331   -0.768641
     22          1           0       -0.150528   -0.176404   -0.019386
     23          1           0       -1.172896    3.825599   -0.049798
     24          1           0        1.183408    4.516809   -0.659093
     25          1           0        2.913588    2.731321   -0.910863
     26          6           0        3.087279   -0.334047    1.707235
     27          1           0       -1.667422    1.525909    0.267694
     28          1           0        1.059245   -1.772876    0.816400
     29          1           0        0.209787   -3.094325    0.927963
     30          1           0       -2.616876    0.322448    1.584902
     31          1           0       -3.736081    0.650590    0.501212
     32          1           0       -1.580712   -0.868602    3.456821
     33          1           0       -0.902164   -1.268128    2.113954
     34          8           0       -5.271293    0.244815   -0.313485
     35          1           0       -6.083622    0.672030   -0.028232
     36          1           0       -5.534925   -0.611638   -0.659770
     37          1           0        3.127837   -1.106663    2.483516
     38          1           0        2.401855    0.452131    2.046926
     39          1           0        4.097740    0.097279    1.587922
     40          8           0       -6.205957   -2.104578   -1.384269
     41          1           0       -6.124835   -2.189495   -2.350197
     42          1           0       -6.239917   -3.030010   -1.088353
 ---------------------------------------------------------------------
 Rotational constants (GHZ):           0.4365067           0.1972028           0.1674363
 Standard basis: Aug-CC-pVDZ (5D, 7F)
 There are   650 symmetry adapted cartesian basis functions of A   symmetry.
 There are   616 symmetry adapted basis functions of A   symmetry.
   616 basis functions,  1006 primitive gaussians,   650 cartesian basis functions
    69 alpha electrons       69 beta electrons
       nuclear repulsion energy      1327.8269642466 Hartrees.
 NAtoms=   42 NActive=   42 NUniq=   42 SFac= 1.00D+00 NAtFMM=   60 NAOKFM=F Big=F
 Integral buffers will be    131072 words long.
 Raffenetti 2 integral format.
 Two-electron integral symmetry is turned on.
 Nuclear repulsion after empirical dispersion term =     1327.7965044065 Hartrees.
 One-electron integrals computed using PRISM.
 NBasis=   616 RedAO= T EigKep=  1.88D-06  NBF=   616
 NBsUse=   616 1.00D-06 EigRej= -1.00D+00 NBFU=   616
 ExpMin= 2.97D-02 ExpMax= 1.17D+04 ExpMxC= 4.01D+02 IAcc=3 IRadAn=         5 AccDes= 0.00D+00
 Harris functional with IExCor= 4639 and IRadAn=       5 diagonalized for initial guess.
 HarFok:  IExCor= 4639 AccDes= 0.00D+00 IRadAn=         5 IDoV= 1 UseB2=F ITyADJ=14
 ICtDFT=  3500011 ScaDFX=  1.000000  1.000000  1.000000  1.000000
 FoFCou: FMM=F IPFlag=           0 FMFlag=      100000 FMFlg1=           0
         NFxFlg=           0 DoJE=T BraDBF=F KetDBF=T FulRan=T
         wScrn=  0.000000 ICntrl=       500 IOpCl=  0 I1Cent=   200000004 NGrid=           0
         NMat0=    1 NMatS0=      1 NMatT0=    0 NMatD0=    1 NMtDS0=    0 NMtDT0=    0
 Petite list used in FoFCou.
 Requested convergence on RMS density matrix=1.00D-08 within 128 cycles.
 Requested convergence on MAX density matrix=1.00D-06.
 Requested convergence on             energy=1.00D-06.
 No special actions if energy rises.
 SCF Done:  E(RwB97XD) =  -881.466606700     A.U. after   16 cycles
            NFock= 16  Conv=0.16D-08     -V/T= 2.0062

 **********************************************************************

            Population analysis using the SCF density.

 **********************************************************************

 Orbital symmetries:
       Occupied  (A) (A) (A) (A) (A) (A) (A) (A) (A) (A) (A) (A)
                 (A) (A) (A) (A) (A) (A) (A) (A) (A) (A) (A) (A)
                 (A) (A) (A) (A) (A) (A) (A) (A) (A) (A) (A) (A)
                 (A) (A) (A) (A) (A) (A) (A) (A) (A) (A) (A) (A)
                 (A) (A) (A) (A) (A) (A) (A) (A) (A) (A) (A) (A)
                 (A) (A) (A) (A) (A) (A) (A) (A) (A)
       Virtual   (A) (A) (A) (A) (A) (A) (A) (A) (A) (A) (A) (A)
                 (A) (A) (A) (A) (A) (A) (A) (A) (A) (A) (A) (A)
                 (A) (A) (A) (A) (A) (A) (A) (A) (A) (A) (A) (A)
                 (A) (A) (A) (A) (A) (A) (A) (A) (A) (A) (A) (A)
                 (A) (A) (A) (A) (A) (A) (A) (A) (A) (A) (A) (A)
                 (A) (A) (A) (A) (A) (A) (A) (A) (A) (A) (A) (A)
                 (A) (A) (A) (A) (A) (A) (A) (A) (A) (A) (A) (A)
                 (A) (A) (A) (A) (A) (A) (A) (A) (A) (A) (A) (A)
                 (A) (A) (A) (A) (A) (A) (A) (A) (A) (A) (A) (A)
                 (A) (A) (A) (A) (A) (A) (A) (A) (A) (A) (A) (A)
                 (A) (A) (A) (A) (A) (A) (A) (A) (A) (A) (A) (A)
                 (A) (A) (A) (A) (A) (A) (A) (A) (A) (A) (A) (A)
                 (A) (A) (A) (A) (A) (A) (A) (A) (A) (A) (A) (A)
                 (A) (A) (A) (A) (A) (A) (A) (A) (A) (A) (A) (A)
                 (A) (A) (A) (A) (A) (A) (A) (A) (A) (A) (A) (A)
                 (A) (A) (A) (A) (A) (A) (A) (A) (A) (A) (A) (A)
                 (A) (A) (A) (A) (A) (A) (A) (A) (A) (A) (A) (A)
                 (A) (A) (A) (A) (A) (A) (A) (A) (A) (A) (A) (A)
                 (A) (A) (A) (A) (A) (A) (A) (A) (A) (A) (A) (A)
                 (A) (A) (A) (A) (A) (A) (A) (A) (A) (A) (A) (A)
                 (A) (A) (A) (A) (A) (A) (A) (A) (A) (A) (A) (A)
                 (A) (A) (A) (A) (A) (A) (A) (A) (A) (A) (A) (A)
                 (A) (A) (A) (A) (A) (A) (A) (A) (A) (A) (A) (A)
                 (A) (A) (A) (A) (A) (A) (A) (A) (A) (A) (A) (A)
                 (A) (A) (A) (A) (A) (A) (A) (A) (A) (A) (A) (A)
                 (A) (A) (A) (A) (A) (A) (A) (A) (A) (A) (A) (A)
                 (A) (A) (A) (A) (A) (A) (A) (A) (A) (A) (A) (A)
                 (A) (A) (A) (A) (A) (A) (A) (A) (A) (A) (A) (A)
                 (A) (A) (A) (A) (A) (A) (A) (A) (A) (A) (A) (A)
                 (A) (A) (A) (A) (A) (A) (A) (A) (A) (A) (A) (A)
                 (A) (A) (A) (A) (A) (A) (A) (A) (A) (A) (A) (A)
                 (A) (A) (A) (A) (A) (A) (A) (A) (A) (A) (A) (A)
                 (A) (A) (A) (A) (A) (A) (A) (A) (A) (A) (A) (A)
                 (A) (A) (A) (A) (A) (A) (A) (A) (A) (A) (A) (A)
                 (A) (A) (A) (A) (A) (A) (A) (A) (A) (A) (A) (A)
                 (A) (A) (A) (A) (A) (A) (A) (A) (A) (A) (A) (A)
                 (A) (A) (A) (A) (A) (A) (A) (A) (A) (A) (A) (A)
                 (A) (A) (A) (A) (A) (A) (A) (A) (A) (A) (A) (A)
                 (A) (A) (A) (A) (A) (A) (A) (A) (A) (A) (A) (A)
                 (A) (A) (A) (A) (A) (A) (A) (A) (A) (A) (A) (A)
                 (A) (A) (A) (A) (A) (A) (A) (A) (A) (A) (A) (A)
                 (A) (A) (A) (A) (A) (A) (A) (A) (A) (A) (A) (A)
                 (A) (A) (A) (A) (A) (A) (A) (A) (A) (A) (A) (A)
                 (A) (A) (A) (A) (A) (A) (A) (A) (A) (A) (A) (A)
                 (A) (A) (A) (A) (A) (A) (A) (A) (A) (A) (A) (A)
                 (A) (A) (A) (A) (A) (A) (A)
 The electronic state is 1-A.
 Alpha  occ. eigenvalues --  -19.39022 -19.38059 -19.36980 -19.35886 -19.35691
 Alpha  occ. eigenvalues --  -14.65787 -14.57826 -10.49858 -10.49459 -10.46916
 Alpha  occ. eigenvalues --  -10.46422 -10.46022 -10.45912 -10.43269 -10.42819
 Alpha  occ. eigenvalues --  -10.41260 -10.40464  -1.24409  -1.22861  -1.22562
 Alpha  occ. eigenvalues --   -1.21330  -1.20459  -1.19487  -1.17213  -1.07335
 Alpha  occ. eigenvalues --   -1.03660  -1.00289  -0.95404  -0.89507  -0.89214
 Alpha  occ. eigenvalues --   -0.88052  -0.81548  -0.79499  -0.78998  -0.73937
 Alpha  occ. eigenvalues --   -0.73852  -0.73004  -0.72841  -0.72596  -0.71846
 Alpha  occ. eigenvalues --   -0.71284  -0.70501  -0.69312  -0.67820  -0.66815
 Alpha  occ. eigenvalues --   -0.65199  -0.64007  -0.63315  -0.62017  -0.61248
 Alpha  occ. eigenvalues --   -0.60715  -0.60335  -0.58489  -0.57705  -0.56976
 Alpha  occ. eigenvalues --   -0.56348  -0.55940  -0.55463  -0.54648  -0.53762
 Alpha  occ. eigenvalues --   -0.52509  -0.51795  -0.51680  -0.51621  -0.50436
 Alpha  occ. eigenvalues --   -0.50044  -0.49139  -0.48478  -0.44227
 Alpha virt. eigenvalues --   -0.12774  -0.10092  -0.05854  -0.05129  -0.04606
 Alpha virt. eigenvalues --   -0.04070  -0.03632  -0.02867  -0.02679  -0.02469
 Alpha virt. eigenvalues --   -0.01653  -0.01539  -0.01053  -0.00803  -0.00575
 Alpha virt. eigenvalues --   -0.00264   0.00282   0.00837   0.00919   0.01321
 Alpha virt. eigenvalues --    0.01669   0.02197   0.02311   0.02582   0.03138
 Alpha virt. eigenvalues --    0.03424   0.03657   0.03855   0.04053   0.04306
 Alpha virt. eigenvalues --    0.04594   0.05133   0.05508   0.05594   0.05842
 Alpha virt. eigenvalues --    0.06102   0.06435   0.06599   0.07009   0.07218
 Alpha virt. eigenvalues --    0.07433   0.07596   0.07896   0.07951   0.08413
 Alpha virt. eigenvalues --    0.08980   0.09076   0.09161   0.09607   0.09844
 Alpha virt. eigenvalues --    0.10112   0.10616   0.10969   0.11144   0.11642
 Alpha virt. eigenvalues --    0.11744   0.12146   0.12442   0.12743   0.12887
 Alpha virt. eigenvalues --    0.13112   0.13280   0.13695   0.14089   0.14352
 Alpha virt. eigenvalues --    0.14470   0.14611   0.15032   0.15124   0.15663
 Alpha virt. eigenvalues --    0.15798   0.16117   0.16343   0.16589   0.17003
 Alpha virt. eigenvalues --    0.17017   0.17417   0.17975   0.18215   0.18335
 Alpha virt. eigenvalues --    0.18587   0.18871   0.19096   0.19409   0.19613
 Alpha virt. eigenvalues --    0.19792   0.20073   0.20288   0.20838   0.20987
 Alpha virt. eigenvalues --    0.21282   0.21783   0.22064   0.22158   0.22323
 Alpha virt. eigenvalues --    0.22610   0.22891   0.23315   0.23749   0.23940
 Alpha virt. eigenvalues --    0.24287   0.24872   0.24992   0.25230   0.25539
 Alpha virt. eigenvalues --    0.25761   0.26191   0.26644   0.26836   0.27167
 Alpha virt. eigenvalues --    0.27391   0.27528   0.27842   0.28185   0.28654
 Alpha virt. eigenvalues --    0.28905   0.29354   0.29621   0.29760   0.30329
 Alpha virt. eigenvalues --    0.30532   0.31289   0.31353   0.31780   0.32190
 Alpha virt. eigenvalues --    0.32382   0.32819   0.32917   0.33450   0.33553
 Alpha virt. eigenvalues --    0.33998   0.34394   0.34781   0.35087   0.35869
 Alpha virt. eigenvalues --    0.35961   0.36254   0.37126   0.37239   0.37401
 Alpha virt. eigenvalues --    0.37666   0.38280   0.38775   0.39250   0.39535
 Alpha virt. eigenvalues --    0.39754   0.40175   0.40428   0.40706   0.41229
 Alpha virt. eigenvalues --    0.41847   0.42422   0.42897   0.43252   0.43453
 Alpha virt. eigenvalues --    0.43991   0.44692   0.44858   0.45066   0.45346
 Alpha virt. eigenvalues --    0.45356   0.45839   0.46012   0.46587   0.46730
 Alpha virt. eigenvalues --    0.47165   0.47676   0.47915   0.48165   0.48558
 Alpha virt. eigenvalues --    0.48608   0.49278   0.49849   0.50209   0.50490
 Alpha virt. eigenvalues --    0.51019   0.51263   0.51563   0.51861   0.52311
 Alpha virt. eigenvalues --    0.52662   0.52764   0.53029   0.53194   0.53708
 Alpha virt. eigenvalues --    0.53947   0.54149   0.54514   0.55006   0.55263
 Alpha virt. eigenvalues --    0.55862   0.56183   0.56542   0.57038   0.57554
 Alpha virt. eigenvalues --    0.57824   0.58133   0.58451   0.59081   0.59598
 Alpha virt. eigenvalues --    0.59879   0.60173   0.60553   0.61043   0.61741
 Alpha virt. eigenvalues --    0.61944   0.62027   0.62607   0.63093   0.63617
 Alpha virt. eigenvalues --    0.64370   0.64740   0.65223   0.65786   0.66002
 Alpha virt. eigenvalues --    0.66811   0.66979   0.67227   0.67548   0.68179
 Alpha virt. eigenvalues --    0.68539   0.68786   0.69232   0.69829   0.70064
 Alpha virt. eigenvalues --    0.70366   0.70837   0.71556   0.71757   0.72169
 Alpha virt. eigenvalues --    0.72618   0.72866   0.73849   0.74209   0.74599
 Alpha virt. eigenvalues --    0.74821   0.75025   0.75657   0.76215   0.76731
 Alpha virt. eigenvalues --    0.77062   0.77158   0.77775   0.78618   0.78745
 Alpha virt. eigenvalues --    0.79303   0.80030   0.80257   0.81037   0.81368
 Alpha virt. eigenvalues --    0.81657   0.82452   0.82885   0.83229   0.83983
 Alpha virt. eigenvalues --    0.84552   0.84927   0.85299   0.86402   0.87000
 Alpha virt. eigenvalues --    0.87984   0.88251   0.88872   0.89710   0.90298
 Alpha virt. eigenvalues --    0.90762   0.90930   0.91817   0.92513   0.93614
 Alpha virt. eigenvalues --    0.93788   0.94389   0.95288   0.95691   0.96598
 Alpha virt. eigenvalues --    0.96665   0.97625   0.97743   0.99428   1.00328
 Alpha virt. eigenvalues --    1.00962   1.01490   1.01813   1.03201   1.03358
 Alpha virt. eigenvalues --    1.03948   1.04230   1.04514   1.05806   1.06865
 Alpha virt. eigenvalues --    1.07252   1.09190   1.09663   1.09800   1.10665
 Alpha virt. eigenvalues --    1.11146   1.12064   1.12159   1.12692   1.13121
 Alpha virt. eigenvalues --    1.14028   1.15203   1.16158   1.16942   1.17912
 Alpha virt. eigenvalues --    1.18306   1.18617   1.19509   1.20037   1.20164
 Alpha virt. eigenvalues --    1.21664   1.21909   1.22969   1.23015   1.23984
 Alpha virt. eigenvalues --    1.25573   1.26324   1.26951   1.27276   1.28545
 Alpha virt. eigenvalues --    1.29848   1.30318   1.30725   1.31079   1.32402
 Alpha virt. eigenvalues --    1.33391   1.33820   1.34344   1.35488   1.35888
 Alpha virt. eigenvalues --    1.37453   1.38212   1.38575   1.40119   1.40751
 Alpha virt. eigenvalues --    1.41826   1.42274   1.43371   1.43709   1.44888
 Alpha virt. eigenvalues --    1.45637   1.46231   1.47487   1.47954   1.48192
 Alpha virt. eigenvalues --    1.49838   1.50738   1.51754   1.52530   1.53806
 Alpha virt. eigenvalues --    1.54765   1.55489   1.56334   1.56475   1.58143
 Alpha virt. eigenvalues --    1.59240   1.60107   1.60824   1.61562   1.62977
 Alpha virt. eigenvalues --    1.63021   1.63833   1.64400   1.65237   1.65717
 Alpha virt. eigenvalues --    1.66029   1.67719   1.68028   1.69100   1.70071
 Alpha virt. eigenvalues --    1.70393   1.71418   1.72196   1.72525   1.73101
 Alpha virt. eigenvalues --    1.73363   1.73958   1.75162   1.75449   1.76502
 Alpha virt. eigenvalues --    1.77469   1.79226   1.79802   1.80472   1.80596
 Alpha virt. eigenvalues --    1.81385   1.81952   1.82311   1.82891   1.83770
 Alpha virt. eigenvalues --    1.84670   1.85499   1.85931   1.86398   1.87324
 Alpha virt. eigenvalues --    1.87966   1.88269   1.89165   1.89903   1.90915
 Alpha virt. eigenvalues --    1.91810   1.92053   1.92831   1.92912   1.94312
 Alpha virt. eigenvalues --    1.94945   1.95835   1.96625   1.97418   1.97916
 Alpha virt. eigenvalues --    1.98562   1.99977   2.00159   2.00849   2.01348
 Alpha virt. eigenvalues --    2.03163   2.03788   2.04940   2.05470   2.05705
 Alpha virt. eigenvalues --    2.07145   2.07389   2.09834   2.10079   2.11591
 Alpha virt. eigenvalues --    2.12059   2.12505   2.12815   2.13199   2.13958
 Alpha virt. eigenvalues --    2.15375   2.15987   2.16941   2.17364   2.19272
 Alpha virt. eigenvalues --    2.19424   2.20200   2.22712   2.23196   2.24689
 Alpha virt. eigenvalues --    2.25033   2.25357   2.25755   2.26655   2.27455
 Alpha virt. eigenvalues --    2.27780   2.29102   2.29544   2.30715   2.31112
 Alpha virt. eigenvalues --    2.33229   2.33763   2.34806   2.35669   2.36854
 Alpha virt. eigenvalues --    2.38021   2.39332   2.41307   2.42054   2.43604
 Alpha virt. eigenvalues --    2.44897   2.45427   2.46115   2.46359   2.48792
 Alpha virt. eigenvalues --    2.49586   2.49988   2.51858   2.53243   2.55127
 Alpha virt. eigenvalues --    2.55699   2.56584   2.57023   2.58065   2.59604
 Alpha virt. eigenvalues --    2.60524   2.61795   2.62296   2.62887   2.64210
 Alpha virt. eigenvalues --    2.64917   2.66775   2.68472   2.69336   2.69657
 Alpha virt. eigenvalues --    2.70505   2.72051   2.72775   2.73002   2.73573
 Alpha virt. eigenvalues --    2.75880   2.76379   2.77036   2.78394   2.79260
 Alpha virt. eigenvalues --    2.79962   2.82816   2.83669   2.84760   2.85844
 Alpha virt. eigenvalues --    2.87506   2.89502   2.90195   2.91037   2.92518
 Alpha virt. eigenvalues --    2.94830   2.96627   2.99502   3.04370   3.06505
 Alpha virt. eigenvalues --    3.07870   3.12310   3.17599   3.21119   3.24510
 Alpha virt. eigenvalues --    3.29900   3.30155   3.34286   3.36015   3.38190
 Alpha virt. eigenvalues --    3.41010   3.42216   3.42608   3.43218   3.44294
 Alpha virt. eigenvalues --    3.45417   3.47789   3.49863   3.52482   3.53931
 Alpha virt. eigenvalues --    3.56772   3.62385   3.64269   3.65634   3.71897
 Alpha virt. eigenvalues --    3.74320   3.79432   3.83980   3.88974   3.91902
 Alpha virt. eigenvalues --    3.95220   4.04818   4.06411   4.11211   4.13879
 Alpha virt. eigenvalues --    4.37521   4.98779
          Condensed to atoms (all electrons):
               1          2          3          4          5          6
     1  C   24.691681  -9.977610  -3.030285  -0.284617   1.863414  -5.070239
     2  C   -9.977610  25.572252  -3.742436  -0.318816  -0.602729   0.502721
     3  C   -3.030285  -3.742436  16.867063  -1.169442  -2.087287   0.935253
     4  N   -0.284617  -0.318816  -1.169442   7.938442   0.317907  -0.026503
     5  C    1.863414  -0.602729  -2.087287   0.317907  10.513149  -2.781557
     6  C   -5.070239   0.502721   0.935253  -0.026503  -2.781557  12.285928
     7  C   -0.487269  -9.910500  -2.067524   1.044565  -0.660778   0.114188
     8  N   -0.316962   2.063886   0.533814  -0.125748   0.140483  -0.258489
     9  C   -0.003095  -0.412567  -0.204583   0.048066  -0.013557  -0.057247
    10  C    0.007904   0.366243  -0.038073   0.022898   0.020718  -0.030041
    11  C   -0.344747   0.188190  -0.921133   0.033415  -0.094448   0.043352
    12  O    0.037692  -0.132541   0.050043  -0.198218   0.010604  -0.022332
    13  O   -0.004598   0.012824  -0.027274   0.002149   0.016547  -0.008374
    14  O   -0.011883  -0.034702  -0.074388   0.002461  -0.013858   0.010498
    15  H    0.020302  -0.172958  -0.020530   0.002406   0.000203  -0.001703
    16  H    0.002946   0.041071   0.026979  -0.002692   0.002828  -0.003591
    17  H    0.005525  -0.122733  -0.023744   0.005094  -0.001155  -0.000449
    18  H   -0.081019   0.444169   0.271270  -0.015109  -0.003945   0.004715
    19  H    0.072035   0.043871  -0.169960   0.020397   0.024780  -0.029166
    20  H    0.021474   0.120349   0.026104  -0.000235  -0.001756   0.001309
    21  H   -0.000723   1.140004  -0.277760   0.001742   0.040647  -0.003040
    22  H   -0.238052  -1.334027  -0.420404  -0.099377  -0.361667   0.187339
    23  H    0.239620  -0.004899   0.143122  -0.137741  -0.576881   0.139497
    24  H    0.707530  -0.075667  -0.186730  -0.012840   0.406289  -1.185902
    25  H   -2.714180   1.321865   0.298916  -0.086351  -0.228498   0.836543
    26  C   -0.271429   0.779116   0.049587  -0.060337  -0.010950   0.040544
    27  H   -0.071334  -0.519300   0.720536   0.036491  -0.673548  -0.003546
    28  H    0.045276  -0.182065  -0.088783   0.028925   0.002846  -0.001346
    29  H   -0.002185   0.011659   0.012146  -0.001842   0.000128   0.000476
    30  H   -0.015420   0.014849  -0.035034   0.023456  -0.007251   0.012463
    31  H    0.013726  -0.015326   0.023117  -0.028091  -0.016213  -0.000597
    32  H    0.001429   0.002827  -0.008483   0.004796   0.001037  -0.000402
    33  H   -0.007178  -0.010035   0.035222  -0.003227   0.001800  -0.000418
    34  O   -0.000448   0.000752  -0.002483   0.001605   0.002501   0.001878
    35  H   -0.000252  -0.000394   0.001720  -0.000414  -0.001905   0.000246
    36  H   -0.000175   0.001921  -0.002619   0.002166   0.002155  -0.000217
    37  H   -0.016773   0.015533  -0.074246  -0.000560  -0.004483   0.010112
    38  H   -0.026926  -0.032945   0.129624  -0.000828  -0.042645   0.058629
    39  H    0.004553   0.180447   0.022153  -0.006512   0.017577  -0.017141
    40  O   -0.000016   0.000376   0.000871   0.000196  -0.000033   0.000023
    41  H   -0.000011  -0.000056   0.000067  -0.000030  -0.000001   0.000023
    42  H    0.000012  -0.000030   0.000016  -0.000065  -0.000076  -0.000006
               7          8          9         10         11         12
     1  C   -0.487269  -0.316962  -0.003095   0.007904  -0.344747   0.037692
     2  C   -9.910500   2.063886  -0.412567   0.366243   0.188190  -0.132541
     3  C   -2.067524   0.533814  -0.204583  -0.038073  -0.921133   0.050043
     4  N    1.044565  -0.125748   0.048066   0.022898   0.033415  -0.198218
     5  C   -0.660778   0.140483  -0.013557   0.020718  -0.094448   0.010604
     6  C    0.114188  -0.258489  -0.057247  -0.030041   0.043352  -0.022332
     7  C   27.809838  -6.555357  -0.297168  -0.022055  -1.234246   0.013701
     8  N   -6.555357  15.405435  -0.086344  -0.362404  -0.810851  -0.000957
     9  C   -0.297168  -0.086344   5.834629   0.028937   0.703037   0.000516
    10  C   -0.022055  -0.362404   0.028937   6.246925  -0.964232  -0.001417
    11  C   -1.234246  -0.810851   0.703037  -0.964232   8.431739  -0.004433
    12  O    0.013701  -0.000957   0.000516  -0.001417  -0.004433   8.073412
    13  O    0.007174   0.004323   0.002722   0.000408  -0.003711  -0.058317
    14  O    0.068248  -0.060100   0.036005  -0.017677   0.026925   0.003929
    15  H    0.651364  -1.100428  -0.171719   0.138073   0.060553  -0.000015
    16  H   -0.126308  -0.119784   0.157697  -0.228169   0.230870  -0.000090
    17  H    0.252286   0.111956  -0.033505  -0.400352   0.254487  -0.000094
    18  H   -0.062466   0.438570  -0.208601   0.177624  -1.091090   0.000206
    19  H   -0.190015  -0.086526   0.028534   0.325849  -0.140213  -0.001376
    20  H    0.112420  -0.267032  -0.310046   0.007633   0.010374   0.000050
    21  H   -2.766209  -0.387300  -0.006476  -0.059045   0.728739   0.000524
    22  H    0.109185  -0.240857   0.044216  -0.026484   0.011925   0.036546
    23  H   -0.021239   0.008593  -0.000401   0.000968   0.007747   0.013156
    24  H    0.096905  -0.002127   0.000388  -0.000007  -0.005620  -0.000155
    25  H   -0.319982   0.034703  -0.013928  -0.007480  -0.007505   0.000141
    26  C   -1.366979   1.254788  -0.254573  -0.020793  -0.154767  -0.000068
    27  H   -0.015591  -0.016544  -0.010517  -0.003544  -0.046420   0.019776
    28  H    0.552701  -0.257016  -0.106804   0.011198  -0.009516  -0.001590
    29  H   -0.032134  -0.025894   0.018721  -0.005825   0.017957   0.000689
    30  H    0.010443  -0.001685   0.000101  -0.000308  -0.000201   0.320612
    31  H   -0.002635   0.001464   0.000638  -0.000066   0.001457   0.345533
    32  H   -0.001575   0.002882  -0.000644  -0.000434   0.000005   0.000468
    33  H    0.021142  -0.027600   0.003813   0.008371  -0.001149  -0.000101
    34  O   -0.000067  -0.000027   0.000012   0.000021   0.000009  -0.059461
    35  H   -0.000009  -0.000043   0.000003  -0.000002  -0.000013   0.000260
    36  H    0.000116   0.000119  -0.000044   0.000025   0.000045   0.003221
    37  H    0.176348  -0.239790   0.001059   0.072163  -0.068783  -0.000013
    38  H   -0.019853   0.094050  -0.088552  -0.045100   0.075285   0.000605
    39  H   -0.301671  -0.493732   0.112460  -0.003839   0.054170  -0.000071
    40  O   -0.000019   0.000004  -0.000003   0.000000   0.000018  -0.000035
    41  H    0.000006  -0.000004   0.000002   0.000009  -0.000010   0.000006
    42  H    0.000015  -0.000007   0.000000  -0.000007   0.000000   0.000207
              13         14         15         16         17         18
     1  C   -0.004598  -0.011883   0.020302   0.002946   0.005525  -0.081019
     2  C    0.012824  -0.034702  -0.172958   0.041071  -0.122733   0.444169
     3  C   -0.027274  -0.074388  -0.020530   0.026979  -0.023744   0.271270
     4  N    0.002149   0.002461   0.002406  -0.002692   0.005094  -0.015109
     5  C    0.016547  -0.013858   0.000203   0.002828  -0.001155  -0.003945
     6  C   -0.008374   0.010498  -0.001703  -0.003591  -0.000449   0.004715
     7  C    0.007174   0.068248   0.651364  -0.126308   0.252286  -0.062466
     8  N    0.004323  -0.060100  -1.100428  -0.119784   0.111956   0.438570
     9  C    0.002722   0.036005  -0.171719   0.157697  -0.033505  -0.208601
    10  C    0.000408  -0.017677   0.138073  -0.228169  -0.400352   0.177624
    11  C   -0.003711   0.026925   0.060553   0.230870   0.254487  -1.091090
    12  O   -0.058317   0.003929  -0.000015  -0.000090  -0.000094   0.000206
    13  O    7.805780  -0.036407  -0.000185  -0.000033   0.000340  -0.000050
    14  O   -0.036407   7.968153   0.023229  -0.004297   0.010992   0.003031
    15  H   -0.000185   0.023229   2.893442   0.128066  -0.316472  -0.040671
    16  H   -0.000033  -0.004297   0.128066   2.099682  -0.613150  -0.313299
    17  H    0.000340   0.010992  -0.316472  -0.613150   2.231748   0.181443
    18  H   -0.000050   0.003031  -0.040671  -0.313299   0.181443   2.616144
    19  H   -0.000880  -0.021785   0.052015   0.203427  -0.436684  -0.672323
    20  H   -0.000105   0.003351  -0.570729  -0.251292   0.193539   0.061629
    21  H    0.000190  -0.002520   0.093275   0.064651  -0.060012  -0.344685
    22  H    0.006821   0.058867  -0.020890  -0.006604   0.023950   0.074133
    23  H    0.000478  -0.000455   0.000039   0.000137  -0.000103   0.000408
    24  H   -0.000054   0.000277   0.000069  -0.000134   0.000066  -0.001538
    25  H   -0.000158  -0.001056  -0.002773   0.003102  -0.001459   0.011330
    26  C    0.002895  -0.008461  -0.177042  -0.020457   0.015005   0.079029
    27  H   -0.000496  -0.003384  -0.000498  -0.000305   0.000906   0.001754
    28  H    0.001931   0.100988   0.068807  -0.000639   0.008996  -0.021164
    29  H    0.006931   0.370558   0.000368   0.000764   0.000464   0.000931
    30  H    0.034993  -0.003104   0.000260   0.000019  -0.000030  -0.000224
    31  H   -0.009178   0.001010   0.000010  -0.000025  -0.000046   0.000069
    32  H    0.358702  -0.000614  -0.000344  -0.000017   0.000011   0.000052
    33  H    0.291303   0.042514   0.002771   0.000183  -0.000563  -0.000464
    34  O   -0.000278   0.000118   0.000002   0.000003  -0.000023  -0.000019
    35  H    0.000106  -0.000028   0.000001   0.000000   0.000000   0.000002
    36  H   -0.000089   0.000074  -0.000007   0.000002  -0.000011  -0.000026
    37  H    0.002783   0.001604  -0.006624  -0.004955   0.012676   0.002638
    38  H   -0.007849   0.012665   0.006690   0.000414  -0.006697  -0.002075
    39  H   -0.000067  -0.005274   0.029553   0.006106  -0.005806   0.007524
    40  O    0.000032   0.000054  -0.000001   0.000000   0.000001   0.000006
    41  H   -0.000019  -0.000005   0.000000  -0.000000   0.000011   0.000003
    42  H    0.000053  -0.000005   0.000001   0.000000  -0.000005  -0.000000
              19         20         21         22         23         24
     1  C    0.072035   0.021474  -0.000723  -0.238052   0.239620   0.707530
     2  C    0.043871   0.120349   1.140004  -1.334027  -0.004899  -0.075667
     3  C   -0.169960   0.026104  -0.277760  -0.420404   0.143122  -0.186730
     4  N    0.020397  -0.000235   0.001742  -0.099377  -0.137741  -0.012840
     5  C    0.024780  -0.001756   0.040647  -0.361667  -0.576881   0.406289
     6  C   -0.029166   0.001309  -0.003040   0.187339   0.139497  -1.185902
     7  C   -0.190015   0.112420  -2.766209   0.109185  -0.021239   0.096905
     8  N   -0.086526  -0.267032  -0.387300  -0.240857   0.008593  -0.002127
     9  C    0.028534  -0.310046  -0.006476   0.044216  -0.000401   0.000388
    10  C    0.325849   0.007633  -0.059045  -0.026484   0.000968  -0.000007
    11  C   -0.140213   0.010374   0.728739   0.011925   0.007747  -0.005620
    12  O   -0.001376   0.000050   0.000524   0.036546   0.013156  -0.000155
    13  O   -0.000880  -0.000105   0.000190   0.006821   0.000478  -0.000054
    14  O   -0.021785   0.003351  -0.002520   0.058867  -0.000455   0.000277
    15  H    0.052015  -0.570729   0.093275  -0.020890   0.000039   0.000069
    16  H    0.203427  -0.251292   0.064651  -0.006604   0.000137  -0.000134
    17  H   -0.436684   0.193539  -0.060012   0.023950  -0.000103   0.000066
    18  H   -0.672323   0.061629  -0.344685   0.074133   0.000408  -0.001538
    19  H    2.316485  -0.059838   0.222752  -0.200208   0.001138  -0.000143
    20  H   -0.059838   2.496440  -0.095486   0.014087  -0.000039  -0.000111
    21  H    0.222752  -0.095486   3.673025  -0.035255   0.001581   0.000335
    22  H   -0.200208   0.014087  -0.035255   4.832895   0.004070  -0.007864
    23  H    0.001138  -0.000039   0.001581   0.004070   2.150378  -0.107317
    24  H   -0.000143  -0.000111   0.000335  -0.007864  -0.107317   2.061159
    25  H    0.002345   0.000396  -0.173327  -0.013014  -0.010609  -0.128514
    26  C   -0.031432  -0.023649  -0.039810   0.032057   0.002602  -0.005543
    27  H   -0.010821   0.000331  -0.001982  -0.058705  -0.228974   0.011634
    28  H    0.019249   0.017153   0.007778  -0.092416   0.001061   0.000067
    29  H    0.006948   0.000222   0.000895   0.000973  -0.000125  -0.000006
    30  H    0.000278  -0.000164   0.000394  -0.000452   0.003730  -0.000407
    31  H    0.000454   0.000047  -0.000105   0.016387   0.004167   0.000128
    32  H   -0.000192   0.000021  -0.000198   0.004045  -0.000131  -0.000005
    33  H    0.000926   0.000054   0.001429  -0.036214  -0.000825   0.000408
    34  O    0.000147   0.000001  -0.000019   0.003910   0.001069   0.000003
    35  H   -0.000093  -0.000000  -0.000000   0.002053  -0.000227   0.000010
    36  H    0.000397  -0.000001   0.000000  -0.006155   0.000193  -0.000013
    37  H   -0.007362   0.012437   0.013636   0.006003   0.000184  -0.000594
    38  H    0.007997   0.003459   0.020208   0.000312  -0.001098   0.000529
    39  H    0.005206   0.036483   0.098706   0.000103   0.000438  -0.000396
    40  O    0.000223  -0.000000  -0.000001  -0.003058  -0.000033   0.000002
    41  H   -0.000035   0.000000  -0.000000  -0.000188   0.000003   0.000000
    42  H   -0.000004  -0.000000   0.000001  -0.000068  -0.000015   0.000000
              25         26         27         28         29         30
     1  C   -2.714180  -0.271429  -0.071334   0.045276  -0.002185  -0.015420
     2  C    1.321865   0.779116  -0.519300  -0.182065   0.011659   0.014849
     3  C    0.298916   0.049587   0.720536  -0.088783   0.012146  -0.035034
     4  N   -0.086351  -0.060337   0.036491   0.028925  -0.001842   0.023456
     5  C   -0.228498  -0.010950  -0.673548   0.002846   0.000128  -0.007251
     6  C    0.836543   0.040544  -0.003546  -0.001346   0.000476   0.012463
     7  C   -0.319982  -1.366979  -0.015591   0.552701  -0.032134   0.010443
     8  N    0.034703   1.254788  -0.016544  -0.257016  -0.025894  -0.001685
     9  C   -0.013928  -0.254573  -0.010517  -0.106804   0.018721   0.000101
    10  C   -0.007480  -0.020793  -0.003544   0.011198  -0.005825  -0.000308
    11  C   -0.007505  -0.154767  -0.046420  -0.009516   0.017957  -0.000201
    12  O    0.000141  -0.000068   0.019776  -0.001590   0.000689   0.320612
    13  O   -0.000158   0.002895  -0.000496   0.001931   0.006931   0.034993
    14  O   -0.001056  -0.008461  -0.003384   0.100988   0.370558  -0.003104
    15  H   -0.002773  -0.177042  -0.000498   0.068807   0.000368   0.000260
    16  H    0.003102  -0.020457  -0.000305  -0.000639   0.000764   0.000019
    17  H   -0.001459   0.015005   0.000906   0.008996   0.000464  -0.000030
    18  H    0.011330   0.079029   0.001754  -0.021164   0.000931  -0.000224
    19  H    0.002345  -0.031432  -0.010821   0.019249   0.006948   0.000278
    20  H    0.000396  -0.023649   0.000331   0.017153   0.000222  -0.000164
    21  H   -0.173327  -0.039810  -0.001982   0.007778   0.000895   0.000394
    22  H   -0.013014   0.032057  -0.058705  -0.092416   0.000973  -0.000452
    23  H   -0.010609   0.002602  -0.228974   0.001061  -0.000125   0.003730
    24  H   -0.128514  -0.005543   0.011634   0.000067  -0.000006  -0.000407
    25  H    3.058584   0.035476   0.010262  -0.004731   0.000182  -0.000122
    26  C    0.035476   4.855312  -0.001016  -0.126707   0.013662  -0.000432
    27  H    0.010262  -0.001016   1.762233  -0.002116   0.001227  -0.020240
    28  H   -0.004731  -0.126707  -0.002116   0.660173  -0.177273   0.005211
    29  H    0.000182   0.013662   0.001227  -0.177273   0.619550  -0.001243
    30  H   -0.000122  -0.000432  -0.020240   0.005211  -0.001243   0.618270
    31  H   -0.000094  -0.000196  -0.000602  -0.001919   0.000207  -0.165215
    32  H    0.000035   0.000273   0.000601   0.000678   0.000438  -0.005970
    33  H   -0.000348  -0.014747   0.003714  -0.005787  -0.002197  -0.002941
    34  O    0.000006  -0.000006  -0.006714  -0.000043   0.000059  -0.004760
    35  H   -0.000004  -0.000005   0.001648  -0.000044  -0.000007  -0.001061
    36  H    0.000004   0.000011   0.003199   0.000310  -0.000002  -0.001493
    37  H    0.000660   0.193472  -0.000770   0.041452   0.000773   0.000803
    38  H    0.003931   0.070909  -0.004014   0.002930  -0.001879  -0.000924
    39  H    0.006341   0.220432   0.001706  -0.035007   0.005351  -0.000268
    40  O   -0.000001   0.000002   0.000791   0.000177  -0.000039   0.000628
    41  H   -0.000000   0.000000  -0.000143   0.000006  -0.000020   0.000100
    42  H    0.000000  -0.000001   0.000394   0.000006   0.000007  -0.000046
              31         32         33         34         35         36
     1  C    0.013726   0.001429  -0.007178  -0.000448  -0.000252  -0.000175
     2  C   -0.015326   0.002827  -0.010035   0.000752  -0.000394   0.001921
     3  C    0.023117  -0.008483   0.035222  -0.002483   0.001720  -0.002619
     4  N   -0.028091   0.004796  -0.003227   0.001605  -0.000414   0.002166
     5  C   -0.016213   0.001037   0.001800   0.002501  -0.001905   0.002155
     6  C   -0.000597  -0.000402  -0.000418   0.001878   0.000246  -0.000217
     7  C   -0.002635  -0.001575   0.021142  -0.000067  -0.000009   0.000116
     8  N    0.001464   0.002882  -0.027600  -0.000027  -0.000043   0.000119
     9  C    0.000638  -0.000644   0.003813   0.000012   0.000003  -0.000044
    10  C   -0.000066  -0.000434   0.008371   0.000021  -0.000002   0.000025
    11  C    0.001457   0.000005  -0.001149   0.000009  -0.000013   0.000045
    12  O    0.345533   0.000468  -0.000101  -0.059461   0.000260   0.003221
    13  O   -0.009178   0.358702   0.291303  -0.000278   0.000106  -0.000089
    14  O    0.001010  -0.000614   0.042514   0.000118  -0.000028   0.000074
    15  H    0.000010  -0.000344   0.002771   0.000002   0.000001  -0.000007
[...]
 599,0.00004501,0.00041420,0.00017033,0.00016809,-0.00014634,-0.0000102
 9,0.00002997,-0.00010231,-0.00008805,-0.00047861,0.00019353,0.00004980
 ,-0.00005409,0.00027911,0.00009808,-0.00016143,0.00002238,-0.00054847,
 -0.00000540,-0.00000965,-0.00020262,-0.00002610,-0.00004738,0.00005850
 ,-0.00006037,-0.00004555,-0.00002613,0.00005897,-0.00021144,-0.0000108
 5,-0.00004622,-0.00026129,-0.00019832,0.00004668,0.00011689,-0.0000451
 3,-0.00000990,-0.00000142,0.00000258,0.00000379,0.00000626,0.00000113,
 0.00000326,0.00001316,-0.00000045,0.07220453,0.03654636,-0.07829260,-0
 .00029185,0.00021222,0.00000852,0.00080006,-0.00042604,-0.00009201,-0.
 00000270,0.00000562,-0.00001268,0.00000136,0.00004732,0.00004034,-0.00
 004947,0.00001523,-0.00006048,0.00003051,-0.00003245,0.00004653,-0.000
 00692,0.00011806,-0.00003423,0.00002783,-0.00003017,0.00003510,-0.0000
 0496,0.00000321,-0.00000002,0.00000266,0.00002673,-0.00001426,-0.01350
 163,-0.00561701,0.00627369,-0.08460935,-0.04674239,0.09329144,-0.00017
 413,0.00031545,-0.00004947,0.00003978,-0.00020889,0.00000664,-0.000239
 85,0.00012759,0.00002198,0.00027769,0.00006325,-0.00004335,0.00003206,
 -0.00009896,0.00002828,-0.00011868,-0.00006426,0.00008659,0.00065805,0
 .00069315,0.00109042,-0.00326399,0.00325563,-0.00802639,0.00265248,-0.
 00185466,0.00102519,0.00009677,-0.00010082,0.00017547,0.00032176,-0.00
 019264,0.00001855,-0.00006655,-0.00007417,-0.00005762,-0.00027622,0.00
 003334,0.00000005,-0.00077660,0.00070954,-0.00004570,-0.00011196,0.000
 12711,0.00001689,-0.00001437,0.00001798,-0.00007293,-0.00003510,0.0000
 0259,0.00009213,-0.00000139,-0.00000464,-0.00009828,-0.00004066,-0.000
 11144,0.00016938,0.00053927,0.00098728,-0.00100917,-0.00023365,-0.0009
 3415,-0.00108212,0.00012238,0.00004862,0.00007424,0.00001042,-0.000011
 25,-0.00000516,-0.00002096,-0.00000912,-0.00001277,0.00002103,-0.00012
 158,-0.00011447,-0.20054694,0.11703236,-0.02249758,-0.00002769,0.00005
 979,0.00001495,0.00118108,-0.00131717,0.00013234,-0.00004793,-0.000064
 90,0.00002056,0.00010698,0.00007309,0.00006649,0.00004569,-0.00001063,
 0.00003676,0.00004131,-0.00003738,-0.00002981,0.00022344,-0.00003943,-
 0.00005193,-0.00002846,-0.00000276,-0.00002706,0.00000584,0.00000620,0
 .00000189,0.00000798,-0.00000391,0.00000993,0.00428528,-0.00427635,0.0
 0115861,-0.01797616,0.01688757,-0.00309728,0.21333318,0.00009322,0.000
 01706,0.00005550,-0.00000543,-0.00016042,0.00010559,-0.00007505,-0.000
 08450,0.00002157,0.00012829,0.00007610,-0.00001986,0.00002777,-0.00001
 726,0.00001825,-0.00001325,0.00000776,-0.00001397,-0.00247580,0.001869
 98,-0.00109113,0.00589023,-0.00507681,0.00812441,0.00207681,0.00031570
 ,-0.00071243,-0.00033296,0.00023163,-0.00005735,-0.00013983,0.00006515
 ,-0.00022239,0.00007022,0.00000844,0.00001033,0.00013374,0.00008968,-0
 .00008634,0.00070781,-0.00058554,0.00008515,0.00002007,-0.00010160,-0.
 00012770,-0.00002048,0.00003094,0.00011607,-0.00009915,-0.00002475,-0.
 00016810,0.00000747,-0.00001686,0.00006001,0.00000838,-0.00003151,-0.0
 0010954,-0.00093287,-0.00021908,0.00049359,0.00051345,0.00075064,0.001
 11495,-0.00005848,-0.00004446,0.00001100,0.00000021,0.00000167,-0.0000
 0391,0.00000720,0.00000252,-0.00000004,0.00000237,-0.00000969,0.000008
 61,0.11621716,-0.14087275,0.01743993,-0.00004364,0.00003086,0.00001718
 ,-0.00105632,0.00107407,-0.00005492,0.00005299,0.00004663,-0.00010505,
 -0.00004629,-0.00003417,-0.00001217,-0.00003287,0.00000585,-0.00002664
 ,-0.00002587,-0.00000427,0.00002312,-0.00021933,-0.00007452,0.00012637
 ,0.00002251,-0.00000155,0.00001743,-0.00000456,-0.00000337,-0.00000040
 ,-0.00000710,0.00000551,-0.00000747,0.02174499,-0.01451873,0.00375231,
 -0.01123327,0.00886321,-0.00241147,-0.13090371,0.14839085,-0.00012846,
 -0.00004773,0.00002742,0.00028101,-0.00035100,-0.00013583,0.00003288,0
 .00017246,-0.00002277,0.00000265,-0.00010019,0.00002786,-0.00004769,-0
 .00002133,-0.00003008,0.00001855,-0.00002716,0.00002031,-0.00174340,0.
 00514616,0.00252039,-0.02885779,0.02470207,-0.02086297,-0.00495763,-0.
 00070858,0.00167527,0.00029796,-0.00036062,0.00033465,0.00047973,-0.00
 022592,0.00021656,0.00002447,0.00000771,0.00004858,0.00006000,-0.00011
 712,0.00022177,-0.00142844,0.00121983,0.00049883,0.00045674,-0.0000171
 8,-0.00013042,0.00003907,-0.00007759,-0.00007346,0.00003871,-0.0000503
 5,0.00017647,0.00011840,-0.00004712,-0.00009154,0.00007416,-0.00007588
 ,0.00020106,0.00156680,-0.00074105,0.00047703,0.00127937,-0.00136165,0
 .00032860,0.00009855,0.00002506,-0.00003598,0.00000076,-0.00000779,0.0
 0000472,-0.00000361,-0.00000496,-0.00000070,-0.00000923,-0.00002128,0.
 00000650,-0.02127311,0.01650330,-0.05209662,-0.00000055,0.00000364,-0.
 00001823,0.00179656,-0.00175630,-0.00110071,-0.00007403,-0.00001555,-0
 .00003188,-0.00003737,-0.00002299,-0.00004605,-0.00001487,0.00000905,-
 0.00002508,-0.00007154,0.00003439,-0.00001967,0.00011704,0.00014201,-0
 .00029294,0.00000493,-0.00000741,0.00001875,-0.00000080,-0.00000016,-0
 .00000281,0.00000415,0.00000750,-0.00000696,0.01239455,-0.00801575,0.0
 0277286,0.00738594,-0.00741413,0.00196294,0.03207625,-0.02637256,0.063
 48190,-0.00002022,-0.00004757,0.00001453,-0.00004079,0.00006213,-0.000
 01088,0.00004396,-0.00009836,0.00000803,0.00005176,-0.00005815,-0.0000
 0941,-0.00004374,0.00003065,-0.00000057,0.00006505,-0.00000056,-0.0000
 0296,-0.00001710,-0.00003804,-0.00000923,-0.00007289,0.00010369,-0.000
 04362,0.00002512,-0.00000739,0.00001313,0.00002021,-0.00003235,0.00000
 267,0.00005193,-0.00001288,0.00001763,0.00053040,0.00005182,0.00013097
 ,0.00011091,0.00014853,-0.00015937,-0.00018182,0.00021513,-0.00023147,
 0.00001359,-0.00000098,0.00000474,-0.00000638,0.00000861,-0.00000232,0
 .00001058,0.00002570,-0.00000436,-0.00000638,0.00000527,-0.00000274,-0
 .00001924,-0.00001771,0.00000501,-0.00001245,0.00001558,-0.00001175,-0
 .00000734,0.00002040,-0.00001160,0.00000710,-0.00005676,0.00004325,-0.
 00001315,0.00000378,-0.00000023,-0.00000116,-0.00000007,0.00000048,-0.
 00000114,-0.00000352,0.00000154,0.00000981,-0.00001888,0.00005626,-0.0
 0016726,0.00006981,0.00005178,0.00015097,-0.00017542,0.00003140,0.0001
 3259,-0.00002673,0.00012608,-0.00015378,-0.00017177,0.00004809,-0.0006
 2401,0.00001803,-0.00039087,-0.00003098,-0.00001790,0.00006352,-0.0000
 4049,-0.00008000,0.00017369,0.00378129,0.00065518,-0.00059968,-0.00017
 877,0.00129645,-0.00080773,-0.00446949,-0.00106824,0.00214974,0.000004
 52,-0.00000415,0.00000292,0.00000698,0.00000028,-0.00000329,-0.0000155
 7,0.00001356,-0.00000515,0.12217010,-0.00000972,-0.00000838,0.00000210
 ,-0.00003326,-0.00003780,0.00001318,-0.00012372,-0.00012040,0.00003126
 ,0.00049628,-0.00034742,-0.00000195,-0.00000473,0.00019250,-0.00004245
 ,0.00009788,-0.00001214,0.00000032,-0.00008475,-0.00006930,-0.00004698
 ,0.00005221,0.00008897,-0.00000142,-0.00003549,-0.00002722,0.00002841,
 0.00000759,-0.00003313,-0.00000505,-0.00000320,0.00002517,0.00002101,0
 .00187871,-0.00034101,0.00158669,0.00026880,0.00037018,0.00013083,-0.0
 0000683,0.00025086,-0.00006905,0.00000993,0.00001453,0.00001068,0.0000
 1260,0.00000685,-0.00000224,-0.00000402,0.00001622,-0.00000276,-0.0000
 0388,0.00000383,0.00000393,0.00000530,-0.00002300,0.00000973,0.0000099
 1,0.00000012,-0.00000350,0.00001675,0.00001667,0.00000518,-0.00007561,
 -0.00006886,-0.00001711,-0.00002549,0.00003803,-0.00003010,0.00000704,
 -0.00000033,-0.00000613,0.00000474,-0.00000549,-0.00000277,-0.00002120
 ,0.00000156,-0.00000569,-0.00099215,0.00074209,0.00000509,0.00005331,-
 0.00010960,-0.00000297,0.00009060,-0.00009660,0.00004507,-0.00037807,-
 0.00061920,-0.00037414,-0.00227922,0.00038382,-0.00240819,0.00004362,-
 0.00006225,0.00002589,-0.00009511,-0.00011264,0.00010936,0.00032179,-0
 .00999232,0.00986064,0.00107578,-0.00037432,0.00007341,-0.00163927,-0.
 00481834,-0.00387386,0.00000537,0.00000966,0.00000573,0.00000768,-0.00
 000047,-0.00001836,0.00000202,-0.00000367,-0.00000409,-0.21993321,0.44
 416785,-0.00000562,-0.00000828,-0.00000024,0.00000083,0.00005227,-0.00
 000726,0.00009796,0.00005439,-0.00002459,-0.00039471,0.00028705,0.0000
 2700,-0.00001979,-0.00012414,0.00002214,-0.00004510,0.00002016,0.00000
 013,0.00004632,-0.00000065,-0.00001685,-0.00010227,0.00003480,0.000040
 74,0.00005020,0.00001322,-0.00003908,-0.00000079,0.00000975,0.00001077
 ,-0.00001901,-0.00001179,-0.00001805,-0.00103623,0.00053477,-0.0005674
 4,-0.00038446,0.00005541,-0.00013237,-0.00023094,0.00007271,0.00011596
 ,0.00000285,-0.00000171,0.00000191,-0.00001296,0.00000225,0.00000214,0
 .00000396,-0.00001302,-0.00001307,-0.00001020,0.00000994,-0.00000159,0
 .00000816,0.00000122,-0.00002404,-0.00001381,0.00000436,0.00000642,-0.
 00001605,0.00000433,0.00000788,0.00005094,-0.00002019,-0.00002854,0.00
 001791,-0.00002758,-0.00000269,-0.00000737,0.00000130,-0.00000499,-0.0
 0000473,0.00000201,-0.00000474,0.00002253,-0.00000471,0.00000014,0.000
 79657,-0.00063841,-0.00008758,0.00010271,-0.00010328,-0.00000325,0.000
 04610,-0.00000386,-0.00004582,0.00025537,0.00005172,0.00019772,0.00101
 502,-0.00042140,0.00099298,0.00007812,-0.00003822,0.00008651,0.0002668
 1,-0.00001331,-0.00009655,-0.00059316,0.00895127,-0.00045239,-0.000633
 50,-0.00001862,-0.00039582,0.00259864,-0.00284188,-0.00809187,0.000010
 14,-0.00000092,0.00000285,-0.00000290,-0.00001387,0.00000955,-0.000011
 44,0.00000855,0.00000585,-0.01726686,0.11521229,0.64262692,0.00000549,
 0.00002134,-0.00000673,0.00002206,-0.00002011,0.00000552,-0.00001577,0
 .00003830,-0.00000587,-0.00004928,0.00004667,0.00000840,0.00001823,-0.
 00002001,-0.00000178,-0.00003154,0.00000352,0.00000215,0.00001137,0.00
 001215,-0.00000511,0.00001485,-0.00003253,0.00003251,-0.00000379,0.000
 00498,-0.00001506,-0.00000990,0.00001617,0.00000140,-0.00003096,0.0000
 0571,-0.00000890,-0.00022652,0.00006161,-0.00004785,-0.00008519,-0.000
 02156,0.00003501,0.00002106,-0.00005225,0.00011615,-0.00000496,0.00000
 161,-0.00000050,0.00000082,-0.00000249,0.00000095,-0.00000431,-0.00001
 557,-0.00000276,-0.00000060,0.00000061,0.00000027,0.00001332,0.0000070
 3,-0.00001035,0.00000372,-0.00000706,0.00000808,0.00000237,-0.00000780
 ,0.00000934,0.00000358,0.00001257,-0.00002610,0.00000689,-0.00000219,-
 0.00000151,0.00000002,0.00000039,-0.00000125,0.00000078,0.00000247,-0.
 00000210,-0.00000325,0.00000851,-0.00002690,0.00013088,-0.00008231,-0.
 00003566,-0.00003952,0.00004350,-0.00001701,-0.00003155,0.00000340,-0.
 00006288,0.00006058,0.00002625,0.00001368,0.00022107,-0.00009466,0.000
 14058,0.00001905,-0.00000091,-0.00000845,0.00006578,0.00001864,-0.0000
 6784,-0.00006283,-0.00017162,-0.00024178,0.00005126,0.00003803,0.00029
 389,-0.00025892,-0.00034998,0.00037294,0.00000035,0.00000244,-0.000000
 18,-0.00000313,-0.00000289,0.00000214,0.00000563,-0.00000502,0.0000029
 4,-0.01545254,0.01775668,-0.06579900,0.01458561,0.00000560,0.00000219,
 -0.00000062,0.00001368,-0.00000024,-0.00000253,0.00000359,0.00000897,0
 .00000102,-0.00000022,-0.00000727,-0.00001200,0.00000933,-0.00001341,0
 .00000643,-0.00001245,-0.00000466,-0.00000100,0.00001147,0.00001590,0.
 00001728,0.00000062,-0.00002711,-0.00000910,0.00000312,0.00000515,-0.0
 0000100,-0.00000255,0.00001036,-0.00000289,0.00000815,-0.00000415,0.00
 000080,-0.00001001,-0.00005943,-0.00006629,0.00000583,-0.00004999,-0.0
 0000004,0.00003004,-0.00006609,-0.00000218,-0.00000264,-0.00000393,-0.
 00000460,-0.00000185,-0.00000164,0.00000032,0.00000189,-0.00000220,0.0
 0000260,0.00000511,-0.00000429,-0.00000082,-0.00000442,0.00000827,0.00
 000365,-0.00000080,-0.00000042,-0.00000016,-0.00000084,-0.00000406,-0.
 00000380,0.00000702,0.00002098,0.00001213,0.00000072,-0.00000028,0.000
 01061,0.00000132,-0.00000095,0.00000417,0.00000008,0.00000123,0.000002
 51,0.00000127,-0.00000087,0.00000277,-0.00001325,0.00002557,0.00003120
 ,-0.00002691,0.00004038,0.00000220,-0.00002053,0.00002505,-0.00000848,
 0.00001814,0.00005804,0.00002008,0.00001079,0.00001158,0.00004888,-0.0
 0000774,0.00001235,-0.00000967,-0.00001189,0.00002089,-0.00000433,-0.0
 0026442,-0.00306837,-0.00019045,0.00005944,-0.00013562,0.00040261,0.00
 042758,0.00519591,0.00160812,-0.00000258,-0.00000249,-0.00000232,-0.00
 000167,0.00000220,0.00000315,0.00000111,0.00000013,-0.00000005,0.02156
 283,-0.04080749,0.03560550,-0.01861681,0.03930453,0.00000373,0.0000069
 4,-0.00000057,0.00000131,-0.00002259,0.00000342,-0.00003115,-0.0000022
 1,0.00000468,0.00010041,-0.00007160,-0.00000673,0.00000705,0.00003110,
 -0.00000504,0.00000716,-0.00000590,-0.00000075,-0.00001205,0.00000505,
 0.00000820,0.00003908,-0.00002279,-0.00001247,-0.00001750,-0.00000234,
 0.00001206,-0.00000200,0.00000053,-0.00000438,0.00000034,0.00000612,0.
 00000360,0.00023691,-0.00014720,0.00014971,0.00008203,-0.00002383,0.00
 003943,0.00008596,-0.00004987,-0.00000536,-0.00000221,0.00000009,-0.00
 000165,0.00000581,-0.00000199,0.00000017,-0.00000308,0.00000211,0.0000
 0568,0.00000574,-0.00000586,0.00000098,-0.00000247,0.00000292,0.000008
 78,0.00000531,-0.00000270,-0.00000107,0.00000564,-0.00000365,-0.000001
 53,-0.00001538,0.00001311,0.00000238,-0.00000425,0.00000691,0.00000176
 ,0.00000176,-0.00000013,0.00000226,0.00000185,-0.00000050,0.00000185,-
 0.00000729,0.00000317,-0.00000357,-0.00019440,0.00016345,0.00001609,-0
 .00004961,0.00005171,-0.00000085,-0.00002978,0.00000809,-0.00000170,-0
 .00004592,-0.00001113,-0.00004548,-0.00021709,0.00010567,-0.00023405,-
 0.00001737,0.00001200,-0.00002171,-0.00005960,0.00001194,0.00000887,0.
 00033843,-0.00086227,0.00077658,-0.00001109,0.00023880,-0.00010391,-0.
 00052646,0.00095588,-0.00183168,-0.00000375,0.00000022,-0.00000142,0.0
 0000046,0.00000427,-0.00000251,0.00000463,-0.00000370,-0.00000120,-0.0
 3682508,-0.01322892,-0.53548106,0.04323200,0.00491961,0.55172481,0.000
 00803,0.00001942,-0.00000414,0.00002063,-0.00002754,0.00000382,-0.0000
 2197,0.00003030,-0.00000207,0.00001051,-0.00000448,-0.00000227,0.00002
 086,-0.00000468,0.00000060,-0.00002457,-0.00000152,0.00000142,0.000005
 98,0.00002336,0.00001292,0.00004550,-0.00006158,0.00001144,-0.00001634
 ,0.00000541,-0.00000075,-0.00000894,0.00001549,-0.00000262,-0.00001171
 ,0.00000362,-0.00000370,-0.00010021,-0.00009434,-0.00001010,0.00000247
 ,-0.00012517,0.00009287,0.00012136,-0.00014702,0.00006880,-0.00000742,
 -0.00000067,-0.00000416,0.00000289,-0.00000448,0.00000033,-0.00000292,
 -0.00000904,0.00000522,0.00000334,-0.00000453,-0.00000038,0.00000537,0
 .00000843,0.00000146,0.00000681,-0.00000776,0.00000382,0.00000467,-0.0
 0001111,0.00000174,-0.00000055,0.00003469,-0.00000333,0.00000361,0.000
 00041,0.00000099,0.00000105,-0.00000026,0.00000020,0.00000127,0.000002
 00,-0.00000023,-0.00000660,0.00000897,-0.00002407,-0.00000213,0.000026
 28,-0.00000018,-0.00009139,0.00010697,-0.00001169,-0.00008022,0.000037
 62,-0.00004399,0.00006205,0.00010411,-0.00001169,0.00010162,0.00003887
 ,0.00006575,0.00000084,0.00002952,-0.00005701,-0.00002638,0.00005976,-
 0.00006345,-0.00008625,-0.00076611,0.00091824,0.00014032,-0.00022967,-
 0.00009527,-0.00021333,0.00055532,-0.00120036,-0.00000437,0.00000121,-
 0.00000286,-0.00000330,0.00000231,0.00000116,0.00000876,-0.00000715,0.
 00000150,-0.10561019,0.20352434,0.08113978,0.00104978,-0.00318717,-0.0
 0608806,0.10469105,0.00000168,0.00000022,0.00000031,0.00000794,0.00000
 889,-0.00000393,0.00001849,0.00001538,-0.00000471,-0.00008256,0.000054
 78,-0.00000221,0.00000133,-0.00003079,0.00000595,-0.00001687,0.0000020
 8,0.00000017,0.00001572,0.00001357,0.00001144,-0.00001402,-0.00001671,
 -0.00000392,0.00000926,0.00000847,-0.00000421,-0.00000118,0.00000584,0
 .00000071,0.00000462,-0.00000549,-0.00000264,-0.00020985,0.00008803,-0
 .00014017,-0.00007055,-0.00005483,-0.00003737,-0.00001347,-0.00005168,
 -0.00000252,-0.00000157,-0.00000393,-0.00000310,-0.00000274,-0.0000008
 4,0.00000059,0.00000232,-0.00000138,0.00000142,0.00000098,-0.00000137,
 -0.00000086,-0.00000300,0.00000335,-0.00000105,-0.00000272,0.00000030,
 -0.00000007,-0.00000329,-0.00000258,-0.00000214,0.00001659,0.00000985,
 0.00000586,0.00000455,-0.00000541,0.00000510,-0.00000058,-0.00000009,0
 .00000167,-0.00000077,0.00000136,0.00000082,0.00000491,0.00000008,0.00
 000439,0.00016084,-0.00011929,0.00000369,-0.00000741,0.00001630,0.0000
 0240,-0.00001365,0.00003117,0.00000191,0.00009577,0.00005215,0.0000805
 4,0.00016649,-0.00012406,0.00019692,0.00000381,0.00002049,0.00000376,0
 .00003228,0.00002485,-0.00001233,-0.00075654,0.00010954,0.00076484,0.0
 0009399,-0.00055624,0.00015625,0.00157038,-0.00069507,-0.00204977,-0.0
 0000111,-0.00000241,-0.00000148,-0.00000151,0.00000002,0.00000366,-0.0
 0000084,0.00000111,0.00000034,0.19756319,-0.38823757,-0.15668342,0.001
 37318,-0.00050475,0.00791951,-0.19994410,0.38994667,0.00000248,0.00000
 465,-0.00000028,0.00000251,-0.00001092,0.00000058,-0.00000861,0.000003
 58,0.00000207,0.00003617,-0.00002781,-0.00000822,0.00000661,0.00000592
 ,0.00000171,-0.00000232,-0.00000381,-0.00000038,-0.00000056,0.00001534
 ,0.00001504,0.00003147,-0.00002951,-0.00001789,-0.00001478,-0.00000112
 ,0.00001072,0.00000002,-0.00000081,-0.00000163,0.00000667,-0.00000011,
 0.00000291,-0.00007534,-0.00013335,-0.00027946,0.00014156,-0.00014453,
 -0.00000883,0.00009628,-0.00007317,-0.00006197,-0.00000287,-0.00000209
 ,-0.00000150,0.00000300,-0.00000220,-0.00000090,-0.00000138,0.00000289
 ,0.00000536,0.00000354,-0.00000424,-0.00000121,-0.00000375,0.00000248,
 0.00000602,0.00000367,-0.00000152,-0.00000213,0.00000256,-0.00000499,-
 0.00000372,-0.00000203,0.00001848,0.00001799,-0.00000057,0.00000201,0.
 00000793,0.00000070,0.00000001,0.00000287,0.00000084,0.00000033,0.0000
 0232,-0.00000534,0.00000159,0.00000448,-0.00006523,0.00006273,0.000031
 28,-0.00004872,0.00005941,0.00000241,-0.00003111,0.00001896,0.00002597
 ,-0.00002844,0.00016751,0.00005709,0.00022932,0.00005726,0.00037023,-0
 .00007869,0.00004595,-0.00005166,-0.00011653,0.00002716,0.00004627,0.0
 0055975,0.00173251,-0.00241068,-0.00008223,0.00036986,0.00006159,-0.00
 142843,-0.00252819,0.00415887,-0.00000638,-0.00000213,-0.00000185,0.00
 000012,0.00000730,0.00000010,0.00000430,-0.00000274,-0.00000241,0.0534
 5374,-0.10703306,-0.09861774,0.02211764,-0.04238331,-0.01500262,-0.074
 69966,0.14978364,0.11164127\\0.00000008,0.00000181,0.00000056,0.000000
 52,-0.00000101,0.00000069,-0.00000164,-0.00000110,-0.00000095,-0.00000
 185,0.00000175,-0.00000144,0.00000062,0.00000003,0.00000096,-0.0000020
 6,-0.00000046,0.00000013,-0.00000209,0.00000109,-0.00000130,0.00000539
 ,-0.00000154,0.00000051,-0.00000046,-0.00000230,0.00000020,0.00000015,
 0.00000061,0.00000026,0.00000061,0.00000034,0.00000072,0.00000483,-0.0
 0000721,0.00000250,-0.00000777,-0.00000098,-0.00000960,-0.00000679,-0.
 00000603,0.00000338,0.00000021,-0.00000042,0.00000055,0.00000012,-0.00
 000039,0.00000022,0.00000015,-0.00000025,0.00000034,0.00000006,-0.0000
 0011,0.00000015,0.00000022,-0.00000011,-0.00000029,0.00000012,-0.00000
 045,0.00000041,-0.00000047,-0.00000085,-0.00000075,-0.00000062,-0.0000
 0040,0.00000057,-0.00000032,0.00000019,-0.00000079,-0.00000017,0.00000
 013,0.00000015,-0.00000018,-0.00000026,-0.00000007,-0.00000142,0.00000
 242,-0.00000132,0.00000570,-0.00000285,0.00000205,0.00000009,0.0000056
 7,0.00000053,0.00000143,-0.00000047,-0.00000022,0.00000122,0.00000406,
 0.00000561,-0.00001331,0.00000341,-0.00000857,0.00000151,0.00000014,-0
 .00000013,0.00000932,0.00000190,0.00000448,-0.00000324,0.00000249,0.00
 000306,0.00000733,-0.00000558,0.00000426,0.00000225,0.00001121,-0.0000
 1057,-0.00000145,-0.00000008,0.00000059,0.00000046,-0.00000127,-0.0000
 0019,0.00000054,0.00000031,0.00000035,0.00000236,-0.00000758,0.0000063
 4,0.00000112,-0.00000341,-0.00000915,-0.00000256,0.00000756,0.00000578
 \\\@


 ONLY THE DAY DAWNS TO WHICH YOU ARE AWAKE.

                                 -- THOREAU
 Job cpu time:       1 days 13 hours  6 minutes  0.3 seconds.
 Elapsed time:       0 days  1 hours 19 minutes 35.0 seconds.
 File lengths (MBytes):  RWF=   1440 Int=      0 D2E=      0 Chk=     36 Scr=      8
 Normal termination of Gaussian 16 at Tue Dec  6 17:14:58 2022.
