 Entering Gaussian System, Link 0=g16
 Input=NicPyrNa5h30.gjf
 Output=NicPyrNa5h30.log
 Initial command:
 /sw/contrib/gaussian/g16/A03/g16/l1.exe "/gscratch/scrubbed/gds001/Gau-32577.inp" -scrdir="/gscratch/scrubbed/gds001/"
 Entering Link 1 = /sw/contrib/gaussian/g16/A03/g16/l1.exe PID=     32578.
  
 Copyright (c) 1988,1990,1992,1993,1995,1998,2003,2009,2016,
            Gaussian, Inc.  All Rights Reserved.
  
 This is part of the Gaussian(R) 16 program.  It is based on
 the Gaussian(R) 09 system (copyright 2009, Gaussian, Inc.),
 the Gaussian(R) 03 system (copyright 2003, Gaussian, Inc.),
 the Gaussian(R) 98 system (copyright 1998, Gaussian, Inc.),
 the Gaussian(R) 94 system (copyright 1995, Gaussian, Inc.),
 the Gaussian 92(TM) system (copyright 1992, Gaussian, Inc.),
 the Gaussian 90(TM) system (copyright 1990, Gaussian, Inc.),
 the Gaussian 88(TM) system (copyright 1988, Gaussian, Inc.),
 the Gaussian 86(TM) system (copyright 1986, Carnegie Mellon
 University), and the Gaussian 82(TM) system (copyright 1983,
 Carnegie Mellon University). Gaussian is a federally registered
 trademark of Gaussian, Inc.
  
 This software contains proprietary and confidential information,
 including trade secrets, belonging to Gaussian, Inc.
  
 This software is provided under written license and may be
 used, copied, transmitted, or stored only in accord with that
 written license.
  
 The following legend is applicable only to US Government
 contracts under FAR:
  
                    RESTRICTED RIGHTS LEGEND
  
 Use, reproduction and disclosure by the US Government is
 subject to restrictions as set forth in subparagraphs (a)
 and (c) of the Commercial Computer Software - Restricted
 Rights clause in FAR 52.227-19.
  
 Gaussian, Inc.
 340 Quinnipiac St., Bldg. 40, Wallingford CT 06492
  
  
 ---------------------------------------------------------------
 Warning -- This program may not be used in any manner that
 competes with the business of Gaussian, Inc. or will provide
 assistance to any competitor of Gaussian, Inc.  The licensee
 of this program is prohibited from giving any competitor of
 Gaussian, Inc. access to this program.  By using this program,
 the user acknowledges that Gaussian, Inc. is engaged in the
 business of creating and licensing software in the field of
 computational chemistry and represents and warrants to the
 licensee that it is not a competitor of Gaussian, Inc. and that
 it will not use this program in any manner prohibited above.
 ---------------------------------------------------------------
  

 Cite this work as:
 Gaussian 16, Revision A.03,
 M. J. Frisch, G. W. Trucks, H. B. Schlegel, G. E. Scuseria, 
 M. A. Robb, J. R. Cheeseman, G. Scalmani, V. Barone, 
 G. A. Petersson, H. Nakatsuji, X. Li, M. Caricato, A. V. Marenich, 
 J. Bloino, B. G. Janesko, R. Gomperts, B. Mennucci, H. P. Hratchian, 
 J. V. Ortiz, A. F. Izmaylov, J. L. Sonnenberg, D. Williams-Young, 
 F. Ding, F. Lipparini, F. Egidi, J. Goings, B. Peng, A. Petrone, 
 T. Henderson, D. Ranasinghe, V. G. Zakrzewski, J. Gao, N. Rega, 
 G. Zheng, W. Liang, M. Hada, M. Ehara, K. Toyota, R. Fukuda, 
 J. Hasegawa, M. Ishida, T. Nakajima, Y. Honda, O. Kitao, H. Nakai, 
 T. Vreven, K. Throssell, J. A. Montgomery, Jr., J. E. Peralta, 
 F. Ogliaro, M. J. Bearpark, J. J. Heyd, E. N. Brothers, K. N. Kudin, 
 V. N. Staroverov, T. A. Keith, R. Kobayashi, J. Normand, 
 K. Raghavachari, A. P. Rendell, J. C. Burant, S. S. Iyengar, 
 J. Tomasi, M. Cossi, J. M. Millam, M. Klene, C. Adamo, R. Cammi, 
 J. W. Ochterski, R. L. Martin, K. Morokuma, O. Farkas, 
 J. B. Foresman, and D. J. Fox, Gaussian, Inc., Wallingford CT, 2016.
 
 ******************************************
 Gaussian 16:  ES64L-G16RevA.03 25-Dec-2016
                 4-Sep-2020 
 ******************************************
 %nprocshared=28
 Will use up to   28 processors via shared memory.
 %mem=41GB
 %chk=NicPyrNa5h30.chk
 -----------------------------
 # wB97XD/aug-cc-pVDZ Opt Freq
 -----------------------------
 1/18=20,19=15,26=3,38=1/1,3;
 2/9=110,12=2,17=6,18=5,40=1/2;
 3/5=16,7=10,11=2,25=1,30=1,71=1,74=-58/1,2,3;
 4//1;
 5/5=2,38=5/2;
 6/7=2,8=2,9=2,10=2,28=1/1;
 7//1,2,3,16;
 1/18=20,19=15,26=3/3(2);
 2/9=110/2;
 99//99;
 2/9=110/2;
 3/5=16,7=10,11=2,25=1,30=1,71=1,74=-58/1,2,3;
 4/5=5,16=3,69=1/1;
 5/5=2,38=5/2;
 7//1,2,3,16;
 1/18=20,19=15,26=3/3(-5);
 2/9=110/2;
 6/7=2,8=2,9=2,10=2,19=2,28=1/1;
 99/9=1/99;
 ------------------------------
 p-Py Nornicotine, N anti, 5H2O
 ------------------------------
 Symbolic Z-matrix:
 Charge =  1 Multiplicity = 1
 C                    -0.31696   2.56806  -0.11052 
 C                    -0.74135   1.31799   0.34076 
 C                     0.21082   0.48933   0.93431 
 N                     1.49338   0.82804   1.06932 
 C                     1.89239   2.02116   0.61655 
 C                     1.01853   2.92934   0.02898 
 C                    -2.16918   0.87036   0.15379 
 N                    -2.30119  -0.05516  -1.03939 
 C                    -3.51384  -0.92894  -0.83335 
 C                    -4.04868  -0.55197   0.55476 
 C                    -2.83725   0.05956   1.2624 
 O                    -0.28772  -1.6842   -1.34293 
 O                     1.67433  -0.11053  -2.3088 
 O                     2.97314  -1.38312   1.53097 
 O                     0.67803  -2.82034   0.95291 
 H                    -4.231    -0.75789  -1.64064 
 H                    -4.85288   0.18927   0.46748 
 H                    -4.45122  -1.4239    1.07868 
 H                    -2.16485  -0.72856   1.62521 
 H                    -3.10411   0.69762   2.11029 
 H                    -3.16937  -1.96668  -0.88328 
 H                    -2.79223   1.74712  -0.06731 
 H                    -0.0533   -0.50021   1.30804 
 H                     2.95187   2.25055   0.7267 
 H                     1.38108   3.89521  -0.31625 
 H                    -1.02507   3.25975  -0.56981 
 C                    -2.30634   0.64634  -2.36242 
 H                    -1.42976  -0.69112  -1.12318 
 H                     0.47616  -1.20064  -1.73238 
 H                     0.06739  -2.17824  -0.57563 
 H                     2.51274  -0.50086   1.53754 
 H                     3.45901  -1.45719   2.35637 
 H                     1.55576  -2.46972   1.20406 
 H                     0.72397  -3.77167   1.07379 
 H                     2.52744  -0.18875  -1.83018 
 H                     1.89949  -0.16007  -3.24082 
 O                     3.97842  -0.37661  -0.85989 
 H                     3.82878  -0.88436  -0.04251 
 H                     4.80294  -0.69632  -1.2331 
 H                    -2.40821  -0.11078  -3.14494 
 H                    -1.35611   1.17104  -2.48341 
 H                    -3.14673   1.34524  -2.38767 
 
 Add virtual bond connecting atoms H28        and O12        Dist= 2.89D+00.
 Add virtual bond connecting atoms H29        and O13        Dist= 3.25D+00.
 Add virtual bond connecting atoms H31        and N4         Dist= 3.29D+00.
 Add virtual bond connecting atoms O37        and H35        Dist= 3.32D+00.
 Add virtual bond connecting atoms H38        and O14        Dist= 3.51D+00.
 Add virtual bond connecting atoms O14        and H33        Dist= 3.43D+00.
 Add virtual bond connecting atoms H30        and O15        Dist= 3.34D+00.

 GradGradGradGradGradGradGradGradGradGradGradGradGradGradGradGradGradGrad
 Berny optimization.
 Initialization pass.
                           ----------------------------
                           !    Initial Parameters    !
                           ! (Angstroms and Degrees)  !
 --------------------------                            --------------------------
 ! Name  Definition              Value          Derivative Info.                !
 --------------------------------------------------------------------------------
 ! R1    R(1,2)                  1.3951         estimate D2E/DX2                !
 ! R2    R(1,6)                  1.3905         estimate D2E/DX2                !
 ! R3    R(1,26)                 1.0912         estimate D2E/DX2                !
 ! R4    R(2,3)                  1.3949         estimate D2E/DX2                !
 ! R5    R(2,7)                  1.508          estimate D2E/DX2                !
 ! R6    R(3,4)                  1.3334         estimate D2E/DX2                !
 ! R7    R(3,23)                 1.0902         estimate D2E/DX2                !
 ! R8    R(4,5)                  1.3371         estimate D2E/DX2                !
 ! R9    R(4,31)                 1.7391         estimate D2E/DX2                !
 ! R10   R(5,6)                  1.3906         estimate D2E/DX2                !
 ! R11   R(5,24)                 1.0896         estimate D2E/DX2                !
 ! R12   R(6,25)                 1.0879         estimate D2E/DX2                !
 ! R13   R(7,8)                  1.5158         estimate D2E/DX2                !
 ! R14   R(7,11)                 1.5273         estimate D2E/DX2                !
 ! R15   R(7,22)                 1.0981         estimate D2E/DX2                !
 ! R16   R(8,9)                  1.5088         estimate D2E/DX2                !
 ! R17   R(8,27)                 1.4975         estimate D2E/DX2                !
 ! R18   R(8,28)                 1.0821         estimate D2E/DX2                !
 ! R19   R(9,10)                 1.5346         estimate D2E/DX2                !
 ! R20   R(9,16)                 1.0933         estimate D2E/DX2                !
 ! R21   R(9,21)                 1.0946         estimate D2E/DX2                !
 ! R22   R(10,11)                1.5304         estimate D2E/DX2                !
 ! R23   R(10,17)                1.0972         estimate D2E/DX2                !
 ! R24   R(10,18)                1.094          estimate D2E/DX2                !
 ! R25   R(11,19)                1.0977         estimate D2E/DX2                !
 ! R26   R(11,20)                1.0942         estimate D2E/DX2                !
 ! R27   R(12,28)                1.5293         estimate D2E/DX2                !
 ! R28   R(12,29)                0.9844         estimate D2E/DX2                !
 ! R29   R(12,30)                0.9792         estimate D2E/DX2                !
 ! R30   R(13,29)                1.7194         estimate D2E/DX2                !
 ! R31   R(13,35)                0.9813         estimate D2E/DX2                !
 ! R32   R(13,36)                0.9601         estimate D2E/DX2                !
 ! R33   R(14,31)                0.9952         estimate D2E/DX2                !
 ! R34   R(14,32)                0.9606         estimate D2E/DX2                !
 ! R35   R(14,33)                1.8156         estimate D2E/DX2                !
 ! R36   R(14,38)                1.8592         estimate D2E/DX2                !
 ! R37   R(15,30)                1.7668         estimate D2E/DX2                !
 ! R38   R(15,33)                0.978          estimate D2E/DX2                !
 ! R39   R(15,34)                0.9601         estimate D2E/DX2                !
 ! R40   R(27,40)                1.0936         estimate D2E/DX2                !
 ! R41   R(27,41)                1.0922         estimate D2E/DX2                !
 ! R42   R(27,42)                1.0933         estimate D2E/DX2                !
 ! R43   R(35,37)                1.7556         estimate D2E/DX2                !
 ! R44   R(37,38)                0.9738         estimate D2E/DX2                !
 ! R45   R(37,39)                0.9599         estimate D2E/DX2                !
 ! A1    A(2,1,6)              119.5053         estimate D2E/DX2                !
 ! A2    A(2,1,26)             120.4444         estimate D2E/DX2                !
 ! A3    A(6,1,26)             120.0503         estimate D2E/DX2                !
 ! A4    A(1,2,3)              117.5356         estimate D2E/DX2                !
 ! A5    A(1,2,7)              120.9229         estimate D2E/DX2                !
 ! A6    A(3,2,7)              121.5178         estimate D2E/DX2                !
 ! A7    A(2,3,4)              123.2838         estimate D2E/DX2                !
 ! A8    A(2,3,23)             121.3125         estimate D2E/DX2                !
 ! A9    A(4,3,23)             115.3966         estimate D2E/DX2                !
 ! A10   A(3,4,5)              118.6489         estimate D2E/DX2                !
 ! A11   A(3,4,31)             113.3883         estimate D2E/DX2                !
 ! A12   A(5,4,31)             126.7365         estimate D2E/DX2                !
 ! A13   A(4,5,6)              122.5706         estimate D2E/DX2                !
 ! A14   A(4,5,24)             116.3466         estimate D2E/DX2                !
 ! A15   A(6,5,24)             121.0822         estimate D2E/DX2                !
 ! A16   A(1,6,5)              118.4415         estimate D2E/DX2                !
 ! A17   A(1,6,25)             121.2587         estimate D2E/DX2                !
 ! A18   A(5,6,25)             120.2987         estimate D2E/DX2                !
 ! A19   A(2,7,8)              111.1801         estimate D2E/DX2                !
 ! A20   A(2,7,11)             118.7994         estimate D2E/DX2                !
 ! A21   A(2,7,22)             108.9772         estimate D2E/DX2                !
 ! A22   A(8,7,11)             102.0713         estimate D2E/DX2                !
 ! A23   A(8,7,22)             106.2368         estimate D2E/DX2                !
 ! A24   A(11,7,22)            108.7734         estimate D2E/DX2                !
 ! A25   A(7,8,9)              108.4275         estimate D2E/DX2                !
 ! A26   A(7,8,27)             114.1872         estimate D2E/DX2                !
 ! A27   A(7,8,28)             110.4673         estimate D2E/DX2                !
 ! A28   A(9,8,27)             112.9028         estimate D2E/DX2                !
 ! A29   A(9,8,28)             108.5105         estimate D2E/DX2                !
 ! A30   A(27,8,28)            102.1031         estimate D2E/DX2                !
 ! A31   A(8,9,10)             105.1517         estimate D2E/DX2                !
 ! A32   A(8,9,16)             109.6197         estimate D2E/DX2                !
 ! A33   A(8,9,21)             106.8518         estimate D2E/DX2                !
 ! A34   A(10,9,16)            113.6321         estimate D2E/DX2                !
 ! A35   A(10,9,21)            112.5714         estimate D2E/DX2                !
 ! A36   A(16,9,21)            108.7287         estimate D2E/DX2                !
 ! A37   A(9,10,11)            103.917          estimate D2E/DX2                !
 ! A38   A(9,10,17)            110.4538         estimate D2E/DX2                !
 ! A39   A(9,10,18)            111.4477         estimate D2E/DX2                !
 ! A40   A(11,10,17)           110.305          estimate D2E/DX2                !
 ! A41   A(11,10,18)           112.8484         estimate D2E/DX2                !
 ! A42   A(17,10,18)           107.87           estimate D2E/DX2                !
 ! A43   A(7,11,10)            102.8702         estimate D2E/DX2                !
 ! A44   A(7,11,19)            110.6783         estimate D2E/DX2                !
 ! A45   A(7,11,20)            111.0745         estimate D2E/DX2                !
 ! A46   A(10,11,19)           110.5372         estimate D2E/DX2                !
 ! A47   A(10,11,20)           113.469          estimate D2E/DX2                !
 ! A48   A(19,11,20)           108.1765         estimate D2E/DX2                !
 ! A49   A(28,12,29)           108.5027         estimate D2E/DX2                !
 ! A50   A(28,12,30)           119.0664         estimate D2E/DX2                !
 ! A51   A(29,12,30)           106.047          estimate D2E/DX2                !
 ! A52   A(29,13,35)           113.0643         estimate D2E/DX2                !
 ! A53   A(29,13,36)           117.1394         estimate D2E/DX2                !
 ! A54   A(35,13,36)           105.3952         estimate D2E/DX2                !
 ! A55   A(31,14,32)           107.2578         estimate D2E/DX2                !
 ! A56   A(31,14,33)            99.8222         estimate D2E/DX2                !
 ! A57   A(31,14,38)            88.8929         estimate D2E/DX2                !
 ! A58   A(32,14,33)           120.2248         estimate D2E/DX2                !
 ! A59   A(32,14,38)           121.003          estimate D2E/DX2                !
 ! A60   A(33,14,38)           111.557          estimate D2E/DX2                !
 ! A61   A(30,15,33)           113.7077         estimate D2E/DX2                !
 ! A62   A(30,15,34)           119.0503         estimate D2E/DX2                !
 ! A63   A(33,15,34)           106.2589         estimate D2E/DX2                !
 ! A64   A(8,27,40)            107.9497         estimate D2E/DX2                !
 ! A65   A(8,27,41)            108.6583         estimate D2E/DX2                !
 ! A66   A(8,27,42)            108.8136         estimate D2E/DX2                !
 ! A67   A(40,27,41)           109.5347         estimate D2E/DX2                !
 ! A68   A(40,27,42)           110.7592         estimate D2E/DX2                !
 ! A69   A(41,27,42)           111.0444         estimate D2E/DX2                !
 ! A70   A(4,31,14)            161.2336         estimate D2E/DX2                !
 ! A71   A(14,33,15)           164.037          estimate D2E/DX2                !
 ! A72   A(35,37,38)           113.1219         estimate D2E/DX2                !
 ! A73   A(35,37,39)           122.0527         estimate D2E/DX2                !
 ! A74   A(38,37,39)           106.5407         estimate D2E/DX2                !
 ! A75   A(14,38,37)           157.0655         estimate D2E/DX2                !
 ! A76   L(8,28,12,3,-1)       186.102          estimate D2E/DX2                !
 ! A77   L(12,29,13,1,-1)      170.1507         estimate D2E/DX2                !
 ! A78   L(12,30,15,2,-1)      170.6033         estimate D2E/DX2                !
 ! A79   L(13,35,37,3,-1)      175.8815         estimate D2E/DX2                !
 ! A80   L(8,28,12,3,-2)       179.0205         estimate D2E/DX2                !
 ! A81   L(12,29,13,1,-2)      181.6879         estimate D2E/DX2                !
 ! A82   L(12,30,15,2,-2)      180.1977         estimate D2E/DX2                !
 ! A83   L(13,35,37,3,-2)      177.6507         estimate D2E/DX2                !
 ! D1    D(6,1,2,3)              0.827          estimate D2E/DX2                !
 ! D2    D(6,1,2,7)           -177.429          estimate D2E/DX2                !
 ! D3    D(26,1,2,3)          -179.1587         estimate D2E/DX2                !
 ! D4    D(26,1,2,7)             2.5853         estimate D2E/DX2                !
 ! D5    D(2,1,6,5)              0.1424         estimate D2E/DX2                !
 ! D6    D(2,1,6,25)           179.7643         estimate D2E/DX2                !
 ! D7    D(26,1,6,5)          -179.8718         estimate D2E/DX2                !
 ! D8    D(26,1,6,25)           -0.2499         estimate D2E/DX2                !
 ! D9    D(1,2,3,4)             -0.9823         estimate D2E/DX2                !
 ! D10   D(1,2,3,23)          -179.965          estimate D2E/DX2                !
 ! D11   D(7,2,3,4)            177.2627         estimate D2E/DX2                !
 ! D12   D(7,2,3,23)            -1.7201         estimate D2E/DX2                !
 ! D13   D(1,2,7,8)             99.5923         estimate D2E/DX2                !
 ! D14   D(1,2,7,11)          -142.4418         estimate D2E/DX2                !
 ! D15   D(1,2,7,22)           -17.1735         estimate D2E/DX2                !
 ! D16   D(3,2,7,8)            -78.5936         estimate D2E/DX2                !
 ! D17   D(3,2,7,11)            39.3723         estimate D2E/DX2                !
 ! D18   D(3,2,7,22)           164.6406         estimate D2E/DX2                !
 ! D19   D(2,3,4,5)              0.0887         estimate D2E/DX2                !
 ! D20   D(2,3,4,31)          -168.1141         estimate D2E/DX2                !
 ! D21   D(23,3,4,5)           179.1267         estimate D2E/DX2                !
 ! D22   D(23,3,4,31)           10.9239         estimate D2E/DX2                !
 ! D23   D(3,4,5,6)              0.9798         estimate D2E/DX2                !
 ! D24   D(3,4,5,24)          -178.728          estimate D2E/DX2                !
 ! D25   D(31,4,5,6)           167.438          estimate D2E/DX2                !
 ! D26   D(31,4,5,24)          -12.2697         estimate D2E/DX2                !
 ! D27   D(3,4,31,14)           57.9421         estimate D2E/DX2                !
 ! D28   D(5,4,31,14)         -109.1207         estimate D2E/DX2                !
 ! D29   D(4,5,6,1)             -1.093          estimate D2E/DX2                !
 ! D30   D(4,5,6,25)           179.2814         estimate D2E/DX2                !
 ! D31   D(24,5,6,1)           178.6012         estimate D2E/DX2                !
 ! D32   D(24,5,6,25)           -1.0244         estimate D2E/DX2                !
 ! D33   D(2,7,8,9)            155.0016         estimate D2E/DX2                !
 ! D34   D(2,7,8,27)           -78.1765         estimate D2E/DX2                !
 ! D35   D(2,7,8,28)            36.2154         estimate D2E/DX2                !
 ! D36   D(11,7,8,9)            27.3259         estimate D2E/DX2                !
 ! D37   D(11,7,8,27)          154.1478         estimate D2E/DX2                !
 ! D38   D(11,7,8,28)          -91.4603         estimate D2E/DX2                !
 ! D39   D(22,7,8,9)           -86.5687         estimate D2E/DX2                !
 ! D40   D(22,7,8,27)           40.2533         estimate D2E/DX2                !
 ! D41   D(22,7,8,28)          154.6451         estimate D2E/DX2                !
 ! D42   D(2,7,11,10)         -163.2635         estimate D2E/DX2                !
 ! D43   D(2,7,11,19)          -45.1726         estimate D2E/DX2                !
 ! D44   D(2,7,11,20)           75.0111         estimate D2E/DX2                !
 ! D45   D(8,7,11,10)          -40.6353         estimate D2E/DX2                !
 ! D46   D(8,7,11,19)           77.4557         estimate D2E/DX2                !
 ! D47   D(8,7,11,20)         -162.3606         estimate D2E/DX2                !
 ! D48   D(22,7,11,10)          71.3698         estimate D2E/DX2                !
 ! D49   D(22,7,11,19)        -170.5392         estimate D2E/DX2                !
 ! D50   D(22,7,11,20)         -50.3555         estimate D2E/DX2                !
 ! D51   D(7,8,9,10)            -3.2555         estimate D2E/DX2                !
 ! D52   D(7,8,9,16)           119.2531         estimate D2E/DX2                !
 ! D53   D(7,8,9,21)          -123.0917         estimate D2E/DX2                !
 ! D54   D(27,8,9,10)         -130.815          estimate D2E/DX2                !
 ! D55   D(27,8,9,16)           -8.3064         estimate D2E/DX2                !
 ! D56   D(27,8,9,21)          109.3487         estimate D2E/DX2                !
 ! D57   D(28,8,9,10)          116.7598         estimate D2E/DX2                !
 ! D58   D(28,8,9,16)         -120.7316         estimate D2E/DX2                !
 ! D59   D(28,8,9,21)           -3.0765         estimate D2E/DX2                !
 ! D60   D(7,8,12,29)          -77.0045         estimate D2E/DX2                !
 ! D61   D(7,8,12,30)           46.3546         estimate D2E/DX2                !
 ! D62   D(9,8,12,29)          163.8815         estimate D2E/DX2                !
 ! D63   D(9,8,12,30)          -72.7594         estimate D2E/DX2                !
 ! D64   D(27,8,12,29)          45.946          estimate D2E/DX2                !
 ! D65   D(27,8,12,30)         169.3052         estimate D2E/DX2                !
 ! D66   D(7,8,27,40)         -179.8342         estimate D2E/DX2                !
 ! D67   D(7,8,27,41)           61.4561         estimate D2E/DX2                !
 ! D68   D(7,8,27,42)          -59.5711         estimate D2E/DX2                !
 ! D69   D(9,8,27,40)          -55.3671         estimate D2E/DX2                !
 ! D70   D(9,8,27,41)         -174.0767         estimate D2E/DX2                !
 ! D71   D(9,8,27,42)           64.8961         estimate D2E/DX2                !
 ! D72   D(28,8,27,40)          60.9333         estimate D2E/DX2                !
 ! D73   D(28,8,27,41)         -57.7763         estimate D2E/DX2                !
 ! D74   D(28,8,27,42)        -178.8035         estimate D2E/DX2                !
 ! D75   D(8,9,10,11)          -22.222          estimate D2E/DX2                !
 ! D76   D(8,9,10,17)           96.0714         estimate D2E/DX2                !
 ! D77   D(8,9,10,18)         -144.0348         estimate D2E/DX2                !
 ! D78   D(16,9,10,11)        -142.1027         estimate D2E/DX2                !
 ! D79   D(16,9,10,17)         -23.8094         estimate D2E/DX2                !
 ! D80   D(16,9,10,18)          96.0845         estimate D2E/DX2                !
 ! D81   D(21,9,10,11)          93.7423         estimate D2E/DX2                !
 ! D82   D(21,9,10,17)        -147.9643         estimate D2E/DX2                !
 ! D83   D(21,9,10,18)         -28.0705         estimate D2E/DX2                !
 ! D84   D(9,10,11,7)           39.3074         estimate D2E/DX2                !
 ! D85   D(9,10,11,19)         -78.8828         estimate D2E/DX2                !
 ! D86   D(9,10,11,20)         159.3944         estimate D2E/DX2                !
 ! D87   D(17,10,11,7)         -79.0884         estimate D2E/DX2                !
 ! D88   D(17,10,11,19)        162.7214         estimate D2E/DX2                !
 ! D89   D(17,10,11,20)         40.9986         estimate D2E/DX2                !
 ! D90   D(18,10,11,7)         160.1841         estimate D2E/DX2                !
 ! D91   D(18,10,11,19)         41.9939         estimate D2E/DX2                !
 ! D92   D(18,10,11,20)        -79.7289         estimate D2E/DX2                !
 ! D93   D(28,12,13,35)        127.5211         estimate D2E/DX2                !
 ! D94   D(28,12,13,36)       -106.5427         estimate D2E/DX2                !
 ! D95   D(30,12,13,35)          0.9255         estimate D2E/DX2                !
 ! D96   D(30,12,13,36)        126.8617         estimate D2E/DX2                !
 ! D97   D(28,12,15,33)       -106.7482         estimate D2E/DX2                !
 ! D98   D(28,12,15,34)        124.9177         estimate D2E/DX2                !
 ! D99   D(29,12,15,33)         12.187          estimate D2E/DX2                !
 ! D100  D(29,12,15,34)       -116.1471         estimate D2E/DX2                !
 ! D101  D(29,13,37,38)        -14.0687         estimate D2E/DX2                !
 ! D102  D(29,13,37,39)        114.6418         estimate D2E/DX2                !
 ! D103  D(36,13,37,38)       -143.3954         estimate D2E/DX2                !
 ! D104  D(36,13,37,39)        -14.6848         estimate D2E/DX2                !
 ! D105  D(32,14,31,4)        -174.5164         estimate D2E/DX2                !
 ! D106  D(33,14,31,4)         -48.448          estimate D2E/DX2                !
 ! D107  D(38,14,31,4)          63.2439         estimate D2E/DX2                !
 ! D108  D(31,14,33,15)         16.5968         estimate D2E/DX2                !
 ! D109  D(32,14,33,15)        133.2967         estimate D2E/DX2                !
 ! D110  D(38,14,33,15)        -76.115          estimate D2E/DX2                !
 ! D111  D(31,14,38,37)        -19.256          estimate D2E/DX2                !
 ! D112  D(32,14,38,37)       -128.8023         estimate D2E/DX2                !
 ! D113  D(33,14,38,37)         80.8704         estimate D2E/DX2                !
 ! D114  D(30,15,33,14)         44.8602         estimate D2E/DX2                !
 ! D115  D(34,15,33,14)        177.7426         estimate D2E/DX2                !
 ! D116  D(35,37,38,14)        -46.7491         estimate D2E/DX2                !
 ! D117  D(39,37,38,14)        176.4672         estimate D2E/DX2                !
 --------------------------------------------------------------------------------
 Trust Radius=3.00D-01 FncErr=1.00D-07 GrdErr=1.00D-06 EigMax=2.50D+02 EigMin=1.00D-04
 Number of steps in this run=    252 maximum allowed number of steps=    252.
 GradGradGradGradGradGradGradGradGradGradGradGradGradGradGradGradGradGrad

                          Input orientation:                          
 ---------------------------------------------------------------------
 Center     Atomic      Atomic             Coordinates (Angstroms)
 Number     Number       Type             X           Y           Z
 ---------------------------------------------------------------------
      1          6           0       -0.316964    2.568059   -0.110515
      2          6           0       -0.741354    1.317986    0.340764
      3          6           0        0.210819    0.489327    0.934311
      4          7           0        1.493381    0.828042    1.069315
      5          6           0        1.892391    2.021161    0.616553
      6          6           0        1.018529    2.929340    0.028984
      7          6           0       -2.169180    0.870359    0.153789
      8          7           0       -2.301190   -0.055160   -1.039387
      9          6           0       -3.513839   -0.928939   -0.833351
     10          6           0       -4.048680   -0.551972    0.554760
     11          6           0       -2.837254    0.059560    1.262396
     12          8           0       -0.287715   -1.684203   -1.342929
     13          8           0        1.674325   -0.110531   -2.308803
     14          8           0        2.973144   -1.383116    1.530973
     15          8           0        0.678034   -2.820343    0.952913
     16          1           0       -4.231001   -0.757892   -1.640637
     17          1           0       -4.852883    0.189271    0.467476
     18          1           0       -4.451215   -1.423896    1.078678
     19          1           0       -2.164850   -0.728561    1.625212
     20          1           0       -3.104110    0.697615    2.110293
     21          1           0       -3.169372   -1.966684   -0.883277
     22          1           0       -2.792227    1.747118   -0.067307
     23          1           0       -0.053301   -0.500207    1.308040
     24          1           0        2.951874    2.250549    0.726697
     25          1           0        1.381075    3.895214   -0.316250
     26          1           0       -1.025069    3.259752   -0.569809
     27          6           0       -2.306339    0.646342   -2.362423
     28          1           0       -1.429758   -0.691120   -1.123180
     29          1           0        0.476164   -1.200640   -1.732378
     30          1           0        0.067393   -2.178238   -0.575626
     31          1           0        2.512738   -0.500859    1.537544
     32          1           0        3.459013   -1.457186    2.356367
     33          1           0        1.555759   -2.469723    1.204060
     34          1           0        0.723970   -3.771667    1.073791
     35          1           0        2.527437   -0.188752   -1.830177
     36          1           0        1.899485   -0.160074   -3.240817
     37          8           0        3.978423   -0.376614   -0.859887
     38          1           0        3.828779   -0.884362   -0.042513
     39          1           0        4.802936   -0.696319   -1.233102
     40          1           0       -2.408211   -0.110782   -3.144943
     41          1           0       -1.356114    1.171039   -2.483414
     42          1           0       -3.146727    1.345240   -2.387665
 ---------------------------------------------------------------------
                    Distance matrix (angstroms):
                    1          2          3          4          5
     1  C    0.000000
     2  C    1.395149   0.000000
     3  C    2.385654   1.394850   0.000000
     4  N    2.774348   2.401015   1.333386   0.000000
     5  C    2.389346   2.739914   2.296774   1.337062   0.000000
     6  C    1.390513   2.406420   2.725009   2.392327   1.390561
     7  C    2.526410   1.507984   2.533534   3.775491   4.246746
     8  N    3.417782   2.494681   3.240700   4.430061   4.963806
     9  C    4.792859   3.756846   4.359952   5.637320   6.327135
    10  C    4.909469   3.805383   4.401329   5.734426   6.474655
    11  C    3.811734   2.612631   3.095656   4.402527   5.160866
    12  O    4.427350   3.471851   3.187254   3.911854   4.724633
    13  O    3.996567   3.859582   3.608250   3.510747   3.626206
    14  O    5.397321   4.744475   3.390057   2.700379   3.686908
    15  O    5.581736   4.417596   3.342537   3.740194   5.002795
    16  H    5.359376   4.518059   5.283529   6.528980   7.093234
    17  H    5.154344   4.265527   5.094021   6.406661   6.991192
    18  H    5.868724   4.671777   5.041411   6.356849   7.233486
    19  H    4.158742   2.804372   2.757607   4.014310   5.003955
    20  H    4.024765   3.016407   3.523503   4.715673   5.380340
    21  H    5.412697   4.264107   4.556458   5.776190   6.616180
    22  H    2.608206   2.134656   3.406400   4.528029   4.742195
    23  H    3.390586   2.171374   1.090234   2.052671   3.259013
    24  H    3.389253   3.828649   3.264719   2.065942   1.089612
    25  H    2.164949   3.402716   3.812279   3.367484   2.154911
    26  H    1.091239   2.163352   3.386008   3.865557   3.384248
    27  C    3.566750   3.194919   4.150807   5.123253   5.328580
    28  H    3.589714   2.579445   2.884132   3.957225   4.628154
    29  H    4.178826   3.481917   3.168221   3.605519   4.231215
    30  H    4.784495   3.703704   3.068613   3.711737   4.731476
    31  H    4.487936   3.915303   2.577439   1.739053   2.755656
    32  H    6.045338   5.422851   4.044987   3.277572   4.192870
    33  H    5.533032   4.513175   3.261534   3.301106   4.541643
    34  H    6.532859   5.346875   4.294048   4.663618   5.927152
    35  H    4.318317   4.203360   3.670001   3.241943   3.357601
    36  H    4.706819   4.688967   4.550276   4.440555   4.431381
    37  O    5.261464   5.156503   4.261906   3.368746   3.504387
    38  H    5.395463   5.087569   3.991346   3.102027   3.553313
    39  H    6.174928   6.105213   5.214497   4.310215   4.390580
    40  H    4.556013   4.119459   4.884646   5.819260   6.098296
    41  H    2.943153   2.894047   3.821107   4.567182   4.570043
    42  H    3.832526   3.637429   4.800128   5.809373   5.905498
                    6          7          8          9         10
     6  C    0.000000
     7  C    3.796902   0.000000
     8  N    4.590119   1.515810   0.000000
     9  C    6.014341   2.453574   1.508794   0.000000
    10  C    6.170298   2.390883   2.416992   1.534605   0.000000
    11  C    4.962258   1.527327   2.366164   2.413929   1.530449
    12  O    4.987304   3.507971   2.607681   3.352308   4.362113
    13  O    3.890518   4.668944   4.173632   5.455621   6.414643
    14  O    4.967270   5.780855   6.015714   6.919339   7.137913
    15  O    5.833390   4.729324   4.526729   4.933553   5.257933
    16  H    6.628792   3.181552   2.139978   1.093293   2.212558
    17  H    6.494131   2.786493   2.973469   2.176140   1.097179
    18  H    7.068990   3.365518   3.313947   2.186209   1.093973
    19  H    5.105104   2.172936   2.751753   2.811486   2.173906
    20  H    5.129191   2.175280   3.336440   3.388008   2.207569
    21  H    6.507057   3.181934   2.105240   1.094561   2.200578
    22  H    3.991088   1.098079   2.105769   2.875557   2.692853
    23  H    3.814000   2.772668   3.280470   4.092028   4.066099
    24  H    2.164575   5.334636   6.002502   7.372133   7.542642
    25  H    1.087906   4.687749   5.448620   6.892026   7.072366
    26  H    2.154998   2.746231   3.582964   4.879402   4.993608
    27  C    4.688887   2.529885   1.497517   2.505519   3.603008
    28  H    4.519881   2.148397   1.082063   2.117534   3.113454
    29  H    4.522531   3.852857   3.083189   4.099048   5.111358
    30  H    5.230446   3.850747   3.214455   3.801630   4.567775
    31  H    4.034189   5.071033   5.478423   6.490302   6.634808
    32  H    5.533018   6.476525   6.832039   7.685962   7.773716
    33  H    5.551513   5.112180   5.073384   5.676785   5.958951
    34  H    6.788364   5.546632   5.237322   5.447689   5.780486
    35  H    3.931384   5.207307   4.894776   6.167540   7.004653
    36  H    4.583902   5.398072   4.743730   5.974205   7.066870
    37  O    4.525527   6.354172   6.290397   7.512640   8.152690
    38  H    4.737820   6.252447   6.265609   7.385218   7.907059
    39  H    5.390733   7.279310   7.135630   8.329625   9.031522
    40  H    5.573034   3.449842   2.109008   2.689842   4.071067
    41  H    3.878492   2.776027   2.117061   3.433423   4.410122
    42  H    5.069411   2.764073   2.119884   2.778948   3.615356
                   11         12         13         14         15
    11  C    0.000000
    12  O    4.040863   0.000000
    13  O    5.756452   2.694245   0.000000
    14  O    5.992843   4.356968   4.248562   0.000000
    15  O    4.554873   2.737586   4.355969   2.768990   0.000000
    16  H    3.322403   4.061550   5.978160   7.896184   5.922738
    17  H    2.170595   5.256256   7.099440   8.052958   6.315415
    18  H    2.199833   4.823554   7.121952   7.438235   5.317431
    19  H    1.097678   3.639608   5.531519   5.180377   3.592983
    20  H    1.094192   5.052710   6.558578   6.449657   5.293408
    21  H    2.969828   2.931727   5.379482   6.625682   4.347742
    22  H    2.148951   4.435511   5.331534   6.752212   5.826256
    23  H    2.840038   2.912805   4.027169   3.160474   2.458454
    24  H    6.213003   5.500960   4.052294   3.721671   5.561966
    25  H    5.915967   5.913444   4.483554   5.814438   6.870498
    26  H    4.108798   5.058072   4.655066   6.477285   6.495136
    27  C    3.710188   3.247407   4.052335   6.866599   5.649411
    28  H    2.869763   1.529302   3.373146   5.187382   3.645071
    29  H    4.640637   0.984386   1.719358   4.113109   3.142448
    30  H    4.101590   0.979248   3.140310   3.676053   1.766809
    31  H    5.386297   4.188074   3.955967   0.995186   3.014621
    32  H    6.568125   5.270133   5.173239   0.960641   3.400254
    33  H    5.069442   3.240770   4.233208   1.815645   0.977962
    34  H    5.234137   3.349858   5.074351   3.312548   0.960072
    35  H    6.197223   3.224727   0.981326   3.594786   4.253370
    36  H    6.539408   3.272429   0.960105   5.041682   5.114327
    37  O    7.151768   4.488101   2.734781   2.782057   4.488945
    38  H    6.857826   4.390484   3.221266   1.859227   3.829633
    39  H    8.072878   5.186782   3.359834   3.385253   5.128836
    40  H    4.431448   3.196782   4.167281   7.241686   5.801643
    41  H    4.178547   3.254933   3.294916   6.432845   5.645993
    42  H    3.882228   4.294525   5.036669   7.762247   6.568131
                   16         17         18         19         20
    16  H    0.000000
    17  H    2.393323   0.000000
    18  H    2.808332   1.771218   0.000000
    19  H    3.864662   3.067294   2.451460   0.000000
    20  H    4.178260   2.452645   2.716566   1.775244   0.000000
    21  H    1.778153   3.050719   2.405620   2.972294   4.008018
    22  H    3.289455   2.638026   3.757772   3.063855   2.437349
    23  H    5.119988   4.921170   4.499717   2.147413   3.374289
    24  H    8.139329   8.076527   8.272313   5.988597   6.403193
    25  H    7.409507   7.294551   8.015882   6.141836   6.019106
    26  H    5.250346   5.015573   6.032623   4.692958   4.250871
    27  C    2.489412   3.834335   4.552752   4.220381   4.543595
    28  H    2.849418   3.875959   3.809769   2.845245   3.897100
    29  H    4.728831   5.930426   5.677230   4.297816   5.584609
    30  H    4.650572   5.558982   4.870685   3.453717   5.054020
    31  H    7.459552   7.474871   7.039829   4.683947   5.771773
    32  H    8.694905   8.681379   8.012821   5.717807   6.912185
    33  H    6.671526   6.977356   6.098624   4.129400   5.706809
    34  H    6.403335   6.867164   5.682833   4.232002   5.975200
    35  H    6.785008   7.738943   7.660849   5.852236   6.930171
    36  H    6.364026   7.711547   7.783744   6.365551   7.376040
    37  O    8.255276   8.948412   8.712843   6.636218   7.754883
    38  H    8.217667   8.762650   8.372960   6.223276   7.429817
    39  H    9.043334   9.844342   9.566243   7.531337   8.697282
    40  H    2.450357   4.372188   4.872074   4.816145   5.362396
    41  H    3.563148   4.679638   5.385335   4.598189   4.937789
    42  H    2.481303   3.521230   4.624428   4.622544   4.544542
                   21         22         23         24         25
    21  H    0.000000
    22  H    3.821043   0.000000
    23  H    4.081951   3.800495   0.000000
    24  H    7.605703   5.820531   4.115300   0.000000
    25  H    7.442442   4.700291   4.900559   2.502013   0.000000
    26  H    5.657909   2.379794   4.313692   4.302963   2.501526
    27  C    3.124196   2.591400   4.456799   6.305946   5.323441
    28  H    2.170455   2.986000   2.800341   5.592330   5.439336
    29  H    3.820697   4.705754   3.164661   4.907840   5.365819
    30  H    3.258228   4.883056   2.525580   5.443384   6.219313
    31  H    6.347865   5.980936   2.576282   2.901820   4.903333
    32  H    7.395294   7.431000   3.788291   4.081705   6.333158
    33  H    5.190076   6.188950   2.545364   4.945501   6.546318
    34  H    4.716587   6.642495   3.370678   6.430483   7.819531
    35  H    6.042458   5.929092   4.074999   3.559205   4.503876
    36  H    5.874959   5.976680   4.961972   4.760230   5.026649
    37  O    7.322557   7.140037   4.579299   3.236207   5.028943
    38  H    7.131088   7.124817   4.128209   3.344894   5.376852
    39  H    8.080464   8.063248   5.484423   3.993905   5.799304
    40  H    3.023057   3.615398   5.052357   7.021111   6.197435
    41  H    3.961521   2.869122   4.343445   5.479865   4.428311
    42  H    3.637655   2.381436   5.160736   6.907371   5.594115
                   26         27         28         29         30
    26  H    0.000000
    27  C    3.418338   0.000000
    28  H    4.009910   2.023098   0.000000
    29  H    4.847717   3.398621   2.064769   0.000000
    30  H    5.546642   4.099451   2.180091   1.568715   0.000000
    31  H    5.576667   6.304706   4.760139   3.915318   3.641264
    32  H    7.135755   7.741518   6.049313   5.067646   4.540879
    33  H    6.529485   6.111094   4.182438   3.376206   2.338264
    34  H    7.429765   6.364680   4.353734   3.813944   2.385516
    35  H    5.108914   4.934173   4.051125   2.289367   3.403494
    36  H    5.232830   4.371595   3.981238   2.320347   3.812190
    37  O    6.192111   6.542346   5.423713   3.702172   4.315415
    38  H    6.404027   6.735333   5.371908   3.767719   4.013272
    39  H    7.075033   7.322561   6.233665   4.384583   5.005370
    40  H    4.461491   1.093596   2.319847   3.391571   4.123637
    41  H    2.852051   1.092187   2.307227   3.089686   4.108976
    42  H    3.386944   1.093319   2.948502   4.476186   5.101857
                   31         32         33         34         35
    31  H    0.000000
    32  H    1.574950   0.000000
    33  H    2.214373   2.444467   0.000000
    34  H    3.756720   3.805560   1.550452   0.000000
    35  H    3.382184   4.472573   3.918365   4.952050   0.000000
    36  H    4.829591   5.953410   5.020912   5.748155   1.544361
    37  O    2.812711   3.432450   3.809237   5.084974   1.755595
    38  H    2.091798   2.493888   3.038739   4.384348   2.317996
    39  H    3.599957   3.907600   4.430449   5.605130   2.406661
    40  H    6.803939   8.154848   6.339676   6.403933   5.108357
    41  H    5.825064   7.315497   5.944041   6.435123   4.166260
    42  H    7.130561   8.602048   7.040441   7.290179   5.904241
                   36         37         38         39         40
    36  H    0.000000
    37  O    3.168233   0.000000
    38  H    3.804723   0.973808   0.000000
    39  H    3.570505   0.959855   1.549788   0.000000
    40  H    4.309045   6.788317   7.008819   7.483224   0.000000
    41  H    3.597839   5.786913   6.088168   6.556234   1.785383
    42  H    5.334613   7.487767   7.689509   8.288433   1.799687
                   41         42
    41  H    0.000000
    42  H    1.801613   0.000000
 Stoichiometry    C10H25N2O5(1+)
 Framework group  C1[X(C10H25N2O5)]
 Deg. of freedom   120
 Full point group                 C1      NOp   1
 Largest Abelian subgroup         C1      NOp   1
 Largest concise Abelian subgroup C1      NOp   1
                         Standard orientation:                         
 ---------------------------------------------------------------------
 Center     Atomic      Atomic             Coordinates (Angstroms)
 Number     Number       Type             X           Y           Z
 ---------------------------------------------------------------------
      1          6           0        0.255847    2.496649   -0.344525
      2          6           0        0.606075    1.187751   -0.677043
      3          6           0       -0.414140    0.333952   -1.096323
      4          7           0       -1.692788    0.704165   -1.173279
      5          6           0       -2.019292    1.955717   -0.834535
      6          6           0       -1.075231    2.890789   -0.424595
      7          6           0        2.030358    0.709768   -0.546793
      8          7           0        2.228914   -0.077614    0.733162
      9          6           0        3.395106   -1.015291    0.540249
     10          6           0        3.829387   -0.820437   -0.918670
     11          6           0        2.584393   -0.247630   -1.599960
     12          8           0        0.198484   -1.582463    1.375647
     13          8           0       -1.633635    0.165763    2.295433
     14          8           0       -3.269143   -1.486618   -1.260552
     15          8           0       -0.978992   -2.935656   -0.692394
     16          1           0        4.178616   -0.780799    1.265794
     17          1           0        4.659533   -0.105613   -0.979388
     18          1           0        4.163270   -1.761415   -1.365724
     19          1           0        1.862396   -1.045579   -1.816515
     20          1           0        2.802092    0.278510   -2.534325
     21          1           0        3.025143   -2.026470    0.736993
     22          1           0        2.694585    1.581401   -0.477243
     23          1           0       -0.209775   -0.701268   -1.370487
     24          1           0       -3.076923    2.211651   -0.890842
     25          1           0       -1.380624    3.903054   -0.168486
     26          1           0        1.018198    3.208532   -0.023829
     27          6           0        2.359428    0.769872    1.960880
     28          1           0        1.348422   -0.665769    0.956028
     29          1           0       -0.517569   -1.028464    1.762129
     30          1           0       -0.230650   -2.146958    0.700285
     31          1           0       -2.784821   -0.629299   -1.404881
     32          1           0       -3.820752   -1.635824   -2.032754
     33          1           0       -1.863083   -2.582504   -0.916175
     34          1           0       -1.062446   -3.892082   -0.697337
     35          1           0       -2.523869    0.066244    1.894710
     36          1           0       -1.785737    0.231847    3.241107
     37          8           0       -4.051973   -0.175310    1.064850
     38          1           0       -3.982523   -0.778592    0.303581
     39          1           0       -4.853472   -0.418229    1.533797
     40          1           0        2.500449    0.103850    2.816730
     41          1           0        1.437676    1.341181    2.090700
     42          1           0        3.219470    1.434170    1.840958
 ---------------------------------------------------------------------
 Rotational constants (GHZ):           0.5297090           0.2875057           0.2589827
 Standard basis: Aug-CC-pVDZ (5D, 7F)
 There are   650 symmetry adapted cartesian basis functions of A   symmetry.
 There are   616 symmetry adapted basis functions of A   symmetry.
   616 basis functions,  1006 primitive gaussians,   650 cartesian basis functions
    69 alpha electrons       69 beta electrons
       nuclear repulsion energy      1427.8043455137 Hartrees.
 NAtoms=   42 NActive=   42 NUniq=   42 SFac= 1.00D+00 NAtFMM=   60 NAOKFM=F Big=F
 Integral buffers will be    131072 words long.
 Raffenetti 2 integral format.
 Two-electron integral symmetry is turned on.
 Nuclear repulsion after empirical dispersion term =     1427.7685532681 Hartrees.
 One-electron integrals computed using PRISM.
 NBasis=   616 RedAO= T EigKep=  1.70D-06  NBF=   616
 NBsUse=   616 1.00D-06 EigRej= -1.00D+00 NBFU=   616
 ExpMin= 2.97D-02 ExpMax= 1.17D+04 ExpMxC= 4.01D+02 IAcc=3 IRadAn=         5 AccDes= 0.00D+00
 Harris functional with IExCor= 4639 and IRadAn=       5 diagonalized for initial guess.
 HarFok:  IExCor= 4639 AccDes= 0.00D+00 IRadAn=         5 IDoV= 1 UseB2=F ITyADJ=14
 ICtDFT=  3500011 ScaDFX=  1.000000  1.000000  1.000000  1.000000
 FoFCou: FMM=F IPFlag=           0 FMFlag=      100000 FMFlg1=           0
         NFxFlg=           0 DoJE=T BraDBF=F KetDBF=T FulRan=T
         wScrn=  0.000000 ICntrl=       500 IOpCl=  0 I1Cent=   200000004 NGrid=           0
         NMat0=    1 NMatS0=      1 NMatT0=    0 NMatD0=    1 NMtDS0=    0 NMtDT0=    0
 Petite list used in FoFCou.
 Requested convergence on RMS density matrix=1.00D-08 within 128 cycles.
 Requested convergence on MAX density matrix=1.00D-06.
 Requested convergence on             energy=1.00D-06.
 No special actions if energy rises.
 SCF Done:  E(RwB97XD) =  -881.480692091     A.U. after   15 cycles
            NFock= 15  Conv=0.33D-08     -V/T= 2.0062

 **********************************************************************

            Population analysis using the SCF density.

 **********************************************************************

 Orbital symmetries:
       Occupied  (A) (A) (A) (A) (A) (A) (A) (A) (A) (A) (A) (A)
                 (A) (A) (A) (A) (A) (A) (A) (A) (A) (A) (A) (A)
                 (A) (A) (A) (A) (A) (A) (A) (A) (A) (A) (A) (A)
                 (A) (A) (A) (A) (A) (A) (A) (A) (A) (A) (A) (A)
                 (A) (A) (A) (A) (A) (A) (A) (A) (A) (A) (A) (A)
                 (A) (A) (A) (A) (A) (A) (A) (A) (A)
       Virtual   (A) (A) (A) (A) (A) (A) (A) (A) (A) (A) (A) (A)
                 (A) (A) (A) (A) (A) (A) (A) (A) (A) (A) (A) (A)
                 (A) (A) (A) (A) (A) (A) (A) (A) (A) (A) (A) (A)
                 (A) (A) (A) (A) (A) (A) (A) (A) (A) (A) (A) (A)
                 (A) (A) (A) (A) (A) (A) (A) (A) (A) (A) (A) (A)
                 (A) (A) (A) (A) (A) (A) (A) (A) (A) (A) (A) (A)
                 (A) (A) (A) (A) (A) (A) (A) (A) (A) (A) (A) (A)
                 (A) (A) (A) (A) (A) (A) (A) (A) (A) (A) (A) (A)
                 (A) (A) (A) (A) (A) (A) (A) (A) (A) (A) (A) (A)
                 (A) (A) (A) (A) (A) (A) (A) (A) (A) (A) (A) (A)
                 (A) (A) (A) (A) (A) (A) (A) (A) (A) (A) (A) (A)
                 (A) (A) (A) (A) (A) (A) (A) (A) (A) (A) (A) (A)
                 (A) (A) (A) (A) (A) (A) (A) (A) (A) (A) (A) (A)
                 (A) (A) (A) (A) (A) (A) (A) (A) (A) (A) (A) (A)
                 (A) (A) (A) (A) (A) (A) (A) (A) (A) (A) (A) (A)
                 (A) (A) (A) (A) (A) (A) (A) (A) (A) (A) (A) (A)
                 (A) (A) (A) (A) (A) (A) (A) (A) (A) (A) (A) (A)
                 (A) (A) (A) (A) (A) (A) (A) (A) (A) (A) (A) (A)
                 (A) (A) (A) (A) (A) (A) (A) (A) (A) (A) (A) (A)
                 (A) (A) (A) (A) (A) (A) (A) (A) (A) (A) (A) (A)
                 (A) (A) (A) (A) (A) (A) (A) (A) (A) (A) (A) (A)
                 (A) (A) (A) (A) (A) (A) (A) (A) (A) (A) (A) (A)
                 (A) (A) (A) (A) (A) (A) (A) (A) (A) (A) (A) (A)
                 (A) (A) (A) (A) (A) (A) (A) (A) (A) (A) (A) (A)
                 (A) (A) (A) (A) (A) (A) (A) (A) (A) (A) (A) (A)
                 (A) (A) (A) (A) (A) (A) (A) (A) (A) (A) (A) (A)
                 (A) (A) (A) (A) (A) (A) (A) (A) (A) (A) (A) (A)
                 (A) (A) (A) (A) (A) (A) (A) (A) (A) (A) (A) (A)
                 (A) (A) (A) (A) (A) (A) (A) (A) (A) (A) (A) (A)
                 (A) (A) (A) (A) (A) (A) (A) (A) (A) (A) (A) (A)
                 (A) (A) (A) (A) (A) (A) (A) (A) (A) (A) (A) (A)
                 (A) (A) (A) (A) (A) (A) (A) (A) (A) (A) (A) (A)
                 (A) (A) (A) (A) (A) (A) (A) (A) (A) (A) (A) (A)
                 (A) (A) (A) (A) (A) (A) (A) (A) (A) (A) (A) (A)
                 (A) (A) (A) (A) (A) (A) (A) (A) (A) (A) (A) (A)
                 (A) (A) (A) (A) (A) (A) (A) (A) (A) (A) (A) (A)
                 (A) (A) (A) (A) (A) (A) (A) (A) (A) (A) (A) (A)
                 (A) (A) (A) (A) (A) (A) (A) (A) (A) (A) (A) (A)
                 (A) (A) (A) (A) (A) (A) (A) (A) (A) (A) (A) (A)
                 (A) (A) (A) (A) (A) (A) (A) (A) (A) (A) (A) (A)
                 (A) (A) (A) (A) (A) (A) (A) (A) (A) (A) (A) (A)
                 (A) (A) (A) (A) (A) (A) (A) (A) (A) (A) (A) (A)
                 (A) (A) (A) (A) (A) (A) (A) (A) (A) (A) (A) (A)
                 (A) (A) (A) (A) (A) (A) (A) (A) (A) (A) (A) (A)
                 (A) (A) (A) (A) (A) (A) (A) (A) (A) (A) (A) (A)
                 (A) (A) (A) (A) (A) (A) (A)
 The electronic state is 1-A.
 Alpha  occ. eigenvalues --  -19.38776 -19.38317 -19.37761 -19.37560 -19.37059
 Alpha  occ. eigenvalues --  -14.66462 -14.58302 -10.48779 -10.47065 -10.46975
 Alpha  occ. eigenvalues --  -10.46185 -10.45875 -10.44632 -10.44566 -10.43250
 Alpha  occ. eigenvalues --  -10.43006 -10.42979  -1.23790  -1.23310  -1.22566
 Alpha  occ. eigenvalues --   -1.22314  -1.21295  -1.20470  -1.17951  -1.05714
 Alpha  occ. eigenvalues --   -1.03755  -1.00690  -0.96214  -0.93207  -0.87391
 Alpha  occ. eigenvalues --   -0.85415  -0.83487  -0.82619  -0.77372  -0.75158
 Alpha  occ. eigenvalues --   -0.73906  -0.73586  -0.73329  -0.72852  -0.72634
 Alpha  occ. eigenvalues --   -0.71888  -0.70437  -0.70034  -0.67083  -0.65776
 Alpha  occ. eigenvalues --   -0.65079  -0.64343  -0.63206  -0.62438  -0.62121
 Alpha  occ. eigenvalues --   -0.61375  -0.60786  -0.60457  -0.59328  -0.58729
 Alpha  occ. eigenvalues --   -0.58276  -0.57463  -0.56878  -0.55955  -0.55657
 Alpha  occ. eigenvalues --   -0.54934  -0.52580  -0.51634  -0.51361  -0.50863
 Alpha  occ. eigenvalues --   -0.50324  -0.49480  -0.47900  -0.46124
 Alpha virt. eigenvalues --   -0.09274  -0.08069  -0.06135  -0.05433  -0.04795
 Alpha virt. eigenvalues --   -0.04454  -0.03486  -0.03374  -0.02887  -0.02644
 Alpha virt. eigenvalues --   -0.02110  -0.01429  -0.01185  -0.01007  -0.00635
 Alpha virt. eigenvalues --    0.00068   0.00460   0.00696   0.01057   0.01216
 Alpha virt. eigenvalues --    0.01471   0.01754   0.02226   0.02555   0.02805
 Alpha virt. eigenvalues --    0.03270   0.03772   0.03975   0.04214   0.04421
 Alpha virt. eigenvalues --    0.04794   0.05032   0.05307   0.05521   0.05802
 Alpha virt. eigenvalues --    0.06069   0.06276   0.06370   0.06609   0.06833
 Alpha virt. eigenvalues --    0.07395   0.07691   0.07763   0.07853   0.08341
 Alpha virt. eigenvalues --    0.08457   0.08769   0.08911   0.09035   0.09656
 Alpha virt. eigenvalues --    0.09945   0.10159   0.10592   0.10773   0.10889
 Alpha virt. eigenvalues --    0.11197   0.11472   0.11649   0.12212   0.12543
 Alpha virt. eigenvalues --    0.13127   0.13265   0.13386   0.13590   0.13689
 Alpha virt. eigenvalues --    0.14167   0.14919   0.15053   0.15544   0.15663
 Alpha virt. eigenvalues --    0.15814   0.16359   0.16791   0.17103   0.17356
 Alpha virt. eigenvalues --    0.17522   0.17848   0.18081   0.18149   0.18617
 Alpha virt. eigenvalues --    0.18878   0.19123   0.19398   0.19608   0.19839
 Alpha virt. eigenvalues --    0.20225   0.20480   0.20552   0.20808   0.21149
 Alpha virt. eigenvalues --    0.21334   0.21871   0.22206   0.22560   0.22652
 Alpha virt. eigenvalues --    0.23034   0.23124   0.23497   0.23626   0.23899
 Alpha virt. eigenvalues --    0.24337   0.24593   0.24999   0.25309   0.25611
 Alpha virt. eigenvalues --    0.26277   0.26493   0.26633   0.26881   0.27397
 Alpha virt. eigenvalues --    0.27805   0.28041   0.28663   0.29032   0.29188
 Alpha virt. eigenvalues --    0.29313   0.29643   0.30192   0.30359   0.30657
 Alpha virt. eigenvalues --    0.30778   0.31357   0.31720   0.32716   0.32845
 Alpha virt. eigenvalues --    0.33016   0.33119   0.33926   0.34304   0.34838
 Alpha virt. eigenvalues --    0.35018   0.35687   0.36146   0.36227   0.36323
 Alpha virt. eigenvalues --    0.36571   0.37085   0.37870   0.38158   0.38466
 Alpha virt. eigenvalues --    0.39174   0.39213   0.39800   0.39886   0.40447
 Alpha virt. eigenvalues --    0.40631   0.41064   0.41456   0.41919   0.42301
 Alpha virt. eigenvalues --    0.42892   0.43771   0.43814   0.43998   0.44624
 Alpha virt. eigenvalues --    0.44683   0.45229   0.45518   0.46559   0.46832
 Alpha virt. eigenvalues --    0.47042   0.47177   0.47479   0.47975   0.48161
 Alpha virt. eigenvalues --    0.48748   0.48864   0.49302   0.49831   0.50311
 Alpha virt. eigenvalues --    0.50531   0.50924   0.51133   0.51630   0.51773
 Alpha virt. eigenvalues --    0.52181   0.52723   0.53211   0.53571   0.53853
 Alpha virt. eigenvalues --    0.54021   0.54270   0.54291   0.54764   0.54953
 Alpha virt. eigenvalues --    0.55733   0.56028   0.56708   0.56836   0.57254
 Alpha virt. eigenvalues --    0.57830   0.58147   0.58233   0.58862   0.58968
 Alpha virt. eigenvalues --    0.59203   0.59696   0.60223   0.60446   0.60822
 Alpha virt. eigenvalues --    0.61413   0.61703   0.62079   0.62490   0.62712
 Alpha virt. eigenvalues --    0.63138   0.63491   0.63781   0.64392   0.64996
 Alpha virt. eigenvalues --    0.65351   0.65797   0.66396   0.66595   0.66684
 Alpha virt. eigenvalues --    0.67864   0.68261   0.68534   0.68770   0.69295
 Alpha virt. eigenvalues --    0.69525   0.70150   0.70740   0.70959   0.71086
 Alpha virt. eigenvalues --    0.71119   0.71426   0.72120   0.72970   0.73522
 Alpha virt. eigenvalues --    0.73907   0.74009   0.74494   0.75519   0.76193
 Alpha virt. eigenvalues --    0.76501   0.77115   0.77723   0.77873   0.78604
 Alpha virt. eigenvalues --    0.78964   0.79356   0.80011   0.80264   0.80872
 Alpha virt. eigenvalues --    0.81415   0.81816   0.82273   0.83097   0.83421
 Alpha virt. eigenvalues --    0.84164   0.84778   0.85323   0.85637   0.86389
 Alpha virt. eigenvalues --    0.86917   0.88232   0.88352   0.88839   0.89583
 Alpha virt. eigenvalues --    0.89824   0.90356   0.90864   0.91337   0.91560
 Alpha virt. eigenvalues --    0.92617   0.93250   0.93910   0.94021   0.95093
 Alpha virt. eigenvalues --    0.96442   0.96518   0.97172   0.98088   0.98931
 Alpha virt. eigenvalues --    0.99716   1.00235   1.01284   1.01827   1.02158
 Alpha virt. eigenvalues --    1.02610   1.04207   1.04723   1.05118   1.06381
 Alpha virt. eigenvalues --    1.06549   1.07194   1.07487   1.08318   1.09162
 Alpha virt. eigenvalues --    1.09865   1.11395   1.11940   1.12032   1.12471
 Alpha virt. eigenvalues --    1.12672   1.13383   1.14799   1.15200   1.15697
 Alpha virt. eigenvalues --    1.16620   1.17681   1.17812   1.18647   1.19089
 Alpha virt. eigenvalues --    1.20112   1.20694   1.21307   1.21755   1.22310
 Alpha virt. eigenvalues --    1.23164   1.24495   1.25395   1.26328   1.26918
 Alpha virt. eigenvalues --    1.27332   1.28949   1.29827   1.30446   1.31608
 Alpha virt. eigenvalues --    1.32452   1.32938   1.33914   1.34628   1.35393
 Alpha virt. eigenvalues --    1.36701   1.37594   1.37888   1.39401   1.39440
 Alpha virt. eigenvalues --    1.40515   1.41425   1.41534   1.42871   1.43829
 Alpha virt. eigenvalues --    1.44258   1.44829   1.45960   1.46634   1.47591
 Alpha virt. eigenvalues --    1.47937   1.48194   1.50079   1.51222   1.51606
 Alpha virt. eigenvalues --    1.51901   1.52853   1.53222   1.54139   1.56032
 Alpha virt. eigenvalues --    1.56383   1.57243   1.57843   1.58526   1.59799
 Alpha virt. eigenvalues --    1.59976   1.61028   1.61934   1.62652   1.62768
 Alpha virt. eigenvalues --    1.64336   1.64825   1.65219   1.66132   1.67729
 Alpha virt. eigenvalues --    1.68342   1.69156   1.70181   1.70573   1.71244
 Alpha virt. eigenvalues --    1.71352   1.73380   1.73802   1.74313   1.74949
 Alpha virt. eigenvalues --    1.75941   1.76843   1.77546   1.77894   1.78986
 Alpha virt. eigenvalues --    1.79634   1.80347   1.80795   1.81558   1.81964
 Alpha virt. eigenvalues --    1.82609   1.82983   1.84086   1.84693   1.85500
 Alpha virt. eigenvalues --    1.86068   1.86606   1.87069   1.88347   1.88611
 Alpha virt. eigenvalues --    1.89167   1.90814   1.91242   1.91682   1.92371
 Alpha virt. eigenvalues --    1.93422   1.93903   1.94467   1.95260   1.95627
 Alpha virt. eigenvalues --    1.97171   1.97393   1.98050   1.98408   1.99517
 Alpha virt. eigenvalues --    1.99801   2.00369   2.00693   2.01522   2.02039
 Alpha virt. eigenvalues --    2.02363   2.03378   2.05024   2.05258   2.06564
 Alpha virt. eigenvalues --    2.06587   2.07601   2.08769   2.09514   2.11180
 Alpha virt. eigenvalues --    2.11998   2.12909   2.14196   2.15748   2.16347
 Alpha virt. eigenvalues --    2.16965   2.17794   2.20079   2.20264   2.21613
 Alpha virt. eigenvalues --    2.22189   2.23054   2.23110   2.24094   2.25107
 Alpha virt. eigenvalues --    2.25651   2.25908   2.27093   2.27463   2.28580
 Alpha virt. eigenvalues --    2.28903   2.29987   2.32560   2.33194   2.33927
 Alpha virt. eigenvalues --    2.34165   2.34812   2.35975   2.37059   2.38721
 Alpha virt. eigenvalues --    2.40701   2.42190   2.43074   2.43272   2.45312
 Alpha virt. eigenvalues --    2.46409   2.46917   2.48159   2.50028   2.52543
 Alpha virt. eigenvalues --    2.53631   2.54538   2.54680   2.54811   2.55451
 Alpha virt. eigenvalues --    2.56634   2.58599   2.58867   2.60100   2.60491
 Alpha virt. eigenvalues --    2.61424   2.62870   2.63567   2.64794   2.65455
 Alpha virt. eigenvalues --    2.66248   2.67033   2.68356   2.69085   2.69357
 Alpha virt. eigenvalues --    2.69791   2.71965   2.73500   2.73884   2.74399
 Alpha virt. eigenvalues --    2.75652   2.77520   2.78751   2.80909   2.82068
 Alpha virt. eigenvalues --    2.83223   2.83866   2.84643   2.86550   2.88381
 Alpha virt. eigenvalues --    2.89619   2.90334   2.92294   2.92908   2.93631
 Alpha virt. eigenvalues --    2.95420   2.97660   3.02849   3.04764   3.09743
 Alpha virt. eigenvalues --    3.11568   3.13329   3.19028   3.27375   3.31090
 Alpha virt. eigenvalues --    3.35406   3.37835   3.38371   3.39996   3.41700
 Alpha virt. eigenvalues --    3.42602   3.43819   3.45307   3.46453   3.47894
 Alpha virt. eigenvalues --    3.48462   3.51839   3.53716   3.56239   3.56956
 Alpha virt. eigenvalues --    3.58262   3.61433   3.68621   3.74989   3.77608
 Alpha virt. eigenvalues --    3.80541   3.84628   3.87200   3.89320   3.96456
 Alpha virt. eigenvalues --    3.99188   4.03120   4.04460   4.08051   4.13520
 Alpha virt. eigenvalues --    4.15043   4.44414
          Condensed to atoms (all electrons):
               1          2          3          4          5          6
     1  C   31.030498 -16.508541  -0.694603  -0.411502   3.166156  -7.309675
     2  C  -16.508541  31.981131  -7.472785  -0.019393  -2.619807   3.489978
     3  C   -0.694603  -7.472785  21.630181  -1.209343  -1.896812  -0.746711
     4  N   -0.411502  -0.019393  -1.209343   8.549058   0.300227   0.303597
     5  C    3.166156  -2.619807  -1.896812   0.300227  12.473447  -4.471997
     6  C   -7.309675   3.489978  -0.746711   0.303597  -4.471997  14.409775
     7  C   -0.575359  -9.303655  -1.435959   0.436172  -0.491289  -0.096350
     8  N   -0.032676   0.250072  -0.841200  -0.101689   0.081918  -0.067780
     9  C   -0.059829   0.227476  -0.063387  -0.011027  -0.014769   0.026391
    10  C   -0.063832  -0.253413  -0.180894  -0.002848  -0.045593  -0.007244
    11  C   -0.642700   1.439230  -0.236773  -0.122678  -0.139478   0.000957
    12  O   -0.049267   0.110351  -0.303048   0.080089   0.023351   0.028277
    13  O   -0.048989   0.035341  -0.018729   0.039873  -0.030232   0.026135
    14  O    0.034704  -0.116031  -0.081989  -0.012630   0.091367  -0.022222
    15  O   -0.010638   0.002045  -0.021235   0.006102   0.000119   0.001004
    16  H    0.004838  -0.019292   0.003711   0.001048  -0.000077  -0.001564
    17  H   -0.027326   0.073869   0.008341  -0.000371  -0.001820  -0.004018
    18  H    0.027116  -0.061776  -0.011482   0.001074  -0.000805   0.000919
    19  H   -0.042373   0.424004  -0.113625   0.063895   0.028565  -0.050536
    20  H   -0.035174  -0.130124   0.047758  -0.023455   0.011034  -0.005956
    21  H   -0.006101   0.068749  -0.011274  -0.002423  -0.003513   0.003427
    22  H   -0.106793   1.736431   0.215345  -0.004453  -0.013770   0.053658
    23  H   -0.148036  -0.051307  -1.836927  -0.068429  -0.052617   0.057903
    24  H    0.092521   0.011606   0.259183  -0.275694  -0.963040   0.314824
    25  H    0.979424  -0.176768   0.039533  -0.045462   0.441396  -1.539442
    26  H   -3.517476   1.848864  -0.021618  -0.028615  -0.352700   1.137171
    27  C   -0.148786  -0.092164   0.025807  -0.026620  -0.036082   0.129709
    28  H   -0.209893   0.103261  -0.292017   0.034953  -0.002281   0.034449
    29  H    0.031704  -0.030217   0.002294  -0.001766   0.003858  -0.014863
    30  H   -0.004130  -0.005338   0.055950  -0.003653  -0.004290   0.008058
    31  H    0.020542   0.053877  -0.223416   0.192583   0.145717  -0.109931
    32  H   -0.013492   0.020220   0.008952  -0.008548  -0.021700   0.017420
    33  H   -0.000287   0.004679  -0.018875  -0.005436  -0.001097  -0.004445
    34  H   -0.001362   0.003908   0.025665  -0.002990  -0.001280   0.000540
    35  H   -0.029895   0.037727  -0.029014   0.003987  -0.008029   0.006400
    36  H    0.003480   0.004511   0.011471  -0.001152   0.002917  -0.002826
    37  O   -0.023732   0.029119   0.027640  -0.048269  -0.046968   0.026162
    38  H   -0.012026   0.030743   0.012430  -0.038906  -0.034452   0.013357
    39  H    0.003706  -0.008320   0.006333   0.010712   0.002540  -0.000699
    40  H   -0.053533   0.089180   0.046707  -0.002135  -0.006079   0.024163
    41  H    0.115250  -0.324475  -0.086867   0.009756   0.010376  -0.060341
    42  H    0.017151   0.162247   0.070655  -0.005906   0.007199  -0.000261
               7          8          9         10         11         12
     1  C   -0.575359  -0.032676  -0.059829  -0.063832  -0.642700  -0.049267
     2  C   -9.303655   0.250072   0.227476  -0.253413   1.439230   0.110351
     3  C   -1.435959  -0.841200  -0.063387  -0.180894  -0.236773  -0.303048
     4  N    0.436172  -0.101689  -0.011027  -0.002848  -0.122678   0.080089
     5  C   -0.491289   0.081918  -0.014769  -0.045593  -0.139478   0.023351
     6  C   -0.096350  -0.067780   0.026391  -0.007244   0.000957   0.028277
     7  C   25.029436  -1.507045  -0.731280   0.067866  -2.251813  -0.026422
     8  N   -1.507045  10.809289   0.150625   0.200919  -0.662271  -0.211175
     9  C   -0.731280   0.150625   5.663673  -0.240052   0.252856  -0.046791
    10  C    0.067866   0.200919  -0.240052   6.639525  -0.255703   0.003563
    11  C   -2.251813  -0.662271   0.252856  -0.255703   7.407609  -0.004224
    12  O   -0.026422  -0.211175  -0.046791   0.003563  -0.004224   8.654405
    13  O   -0.032151   0.000943  -0.003648  -0.001277   0.001194  -0.083820
    14  O    0.009576  -0.003019  -0.000425  -0.001060  -0.007907   0.005518
    15  O   -0.040612  -0.004819   0.006221  -0.004407   0.015707  -0.095807
    16  H    0.259716  -0.217595  -0.058561   0.047180   0.042633  -0.016573
    17  H   -0.061850  -0.232517   0.160886  -0.200730   0.068663   0.001465
    18  H    0.260195   0.007861   0.209457  -0.459549   0.112866   0.000261
    19  H   -0.629518  -0.329422   0.088566  -0.214090   0.249669   0.008258
    20  H    0.197868   0.502783  -0.061486   0.116483  -0.584044  -0.001186
    21  H   -0.213288  -0.425553  -0.209873  -0.026610   0.173919   0.055970
    22  H   -3.659087  -0.329666   0.120509  -0.271886   0.458056   0.010797
    23  H   -0.241157  -0.040183  -0.008847   0.126531   0.263253  -0.006071
    24  H    0.025148   0.003171   0.000146   0.000259   0.000331  -0.001794
    25  H   -0.043467  -0.005212  -0.000455  -0.001127   0.012346   0.001464
    26  H   -0.022107  -0.052107   0.003798   0.001918  -0.029398  -0.002597
    27  C    0.008502   0.814344  -0.084790  -0.003376  -0.222428  -0.073758
    28  H   -0.095119   0.204686  -0.261724   0.061335   0.020996   0.096097
    29  H    0.018683   0.006973   0.043291  -0.014075   0.011660   0.273906
    30  H   -0.009502   0.091900  -0.014620   0.002049  -0.009490   0.179309
    31  H   -0.033783   0.013699   0.002673  -0.007548   0.002500   0.004830
    32  H    0.002232  -0.000232  -0.000193   0.000478   0.000572  -0.000316
    33  H   -0.009471  -0.001149   0.001332  -0.001978   0.004271   0.001412
    34  H    0.005262   0.006209   0.000257   0.000753  -0.000686  -0.001703
    35  H   -0.007201   0.004648   0.000682   0.000135   0.000572  -0.003591
    36  H   -0.002402  -0.002312  -0.001043   0.000581   0.000197   0.003639
    37  O    0.002633  -0.002169  -0.000534   0.000476  -0.000056   0.001758
    38  H   -0.003762  -0.001219  -0.000149   0.000597   0.001470  -0.003270
    39  H    0.000664   0.000135  -0.000095   0.000006  -0.000093   0.000761
    40  H   -0.009506  -0.298193   0.066233   0.007572  -0.062673   0.014885
    41  H    0.393633   0.124929  -0.132188   0.046848   0.040225   0.009774
    42  H   -0.060298  -0.306908   0.112196  -0.077644   0.004805  -0.020712
              13         14         15         16         17         18
     1  C   -0.048989   0.034704  -0.010638   0.004838  -0.027326   0.027116
     2  C    0.035341  -0.116031   0.002045  -0.019292   0.073869  -0.061776
     3  C   -0.018729  -0.081989  -0.021235   0.003711   0.008341  -0.011482
     4  N    0.039873  -0.012630   0.006102   0.001048  -0.000371   0.001074
     5  C   -0.030232   0.091367   0.000119  -0.000077  -0.001820  -0.000805
     6  C    0.026135  -0.022222   0.001004  -0.001564  -0.004018   0.000919
     7  C   -0.032151   0.009576  -0.040612   0.259716  -0.061850   0.260195
     8  N    0.000943  -0.003019  -0.004819  -0.217595  -0.232517   0.007861
     9  C   -0.003648  -0.000425   0.006221  -0.058561   0.160886   0.209457
    10  C   -0.001277  -0.001060  -0.004407   0.047180  -0.200730  -0.459549
    11  C    0.001194  -0.007907   0.015707   0.042633   0.068663   0.112866
    12  O   -0.083820   0.005518  -0.095807  -0.016573   0.001465   0.000261
    13  O    7.925570   0.006863   0.001827  -0.000533   0.000208  -0.000384
    14  O    0.006863   8.063570  -0.028257   0.000013  -0.000082   0.000016
    15  O    0.001827  -0.028257   7.909070  -0.000517   0.000383  -0.001758
    16  H   -0.000533   0.000013  -0.000517   2.024198  -0.240660   0.082338
    17  H    0.000208  -0.000082   0.000383  -0.240660   2.093363  -0.484469
    18  H   -0.000384   0.000016  -0.001758   0.082338  -0.484469   1.977855
    19  H    0.002998  -0.003277   0.024336  -0.011555   0.182632  -0.180598
    20  H   -0.000032  -0.000115  -0.002402  -0.004390  -0.191854   0.028672
    21  H    0.000905  -0.000239   0.008373  -0.493165   0.192280  -0.253311
    22  H   -0.000847   0.000992   0.000954   0.022048   0.053928   0.006303
    23  H   -0.017987   0.056105   0.005487   0.003659   0.001954  -0.003045
    24  H   -0.004386   0.000586  -0.000423   0.000006  -0.000030   0.000139
    25  H    0.001738  -0.000144   0.000090   0.000005   0.000138  -0.000112
    26  H    0.004534   0.000330  -0.000315  -0.003104   0.001611  -0.000375
    27  C   -0.002257  -0.000954  -0.004375   0.069591  -0.067865   0.026986
    28  H    0.002182   0.001743  -0.009657  -0.140417   0.009844  -0.000669
    29  H    0.003492   0.004487   0.008889   0.005677  -0.000805   0.001313
    30  H    0.005271  -0.006719   0.002274  -0.001728  -0.000118  -0.001922
    31  H    0.004977   0.285624  -0.003256  -0.000199  -0.000089  -0.000415
    32  H   -0.000065   0.333618   0.001199   0.000019  -0.000003   0.000050
    33  H    0.002037   0.021052   0.349942  -0.000276   0.000113  -0.000291
    34  H   -0.000437  -0.006223   0.296910   0.000198  -0.000085   0.000412
    35  H    0.313811  -0.003635  -0.000946  -0.000178   0.000094  -0.000043
    36  H    0.331665  -0.000251   0.000262  -0.000171   0.000053  -0.000004
    37  O   -0.064132  -0.028870  -0.002039  -0.000017   0.000040   0.000019
    38  H   -0.000771   0.047644  -0.002773  -0.000040   0.000048   0.000002
    39  H    0.000871  -0.009294   0.000229   0.000007  -0.000003   0.000002
    40  H    0.010159  -0.000113  -0.000030  -0.016898   0.004469  -0.002462
    41  H   -0.024532  -0.000083   0.000118   0.018897  -0.010087   0.006604
    42  H    0.002163  -0.000040  -0.000312   0.029030   0.005300  -0.004195
              19         20         21         22         23         24
     1  C   -0.042373  -0.035174  -0.006101  -0.106793  -0.148036   0.092521
     2  C    0.424004  -0.130124   0.068749   1.736431  -0.051307   0.011606
     3  C   -0.113625   0.047758  -0.011274   0.215345  -1.836927   0.259183
     4  N    0.063895  -0.023455  -0.002423  -0.004453  -0.068429  -0.275694
     5  C    0.028565   0.011034  -0.003513  -0.013770  -0.052617  -0.963040
     6  C   -0.050536  -0.005956   0.003427   0.053658   0.057903   0.314824
     7  C   -0.629518   0.197868  -0.213288  -3.659087  -0.241157   0.025148
     8  N   -0.329422   0.502783  -0.425553  -0.329666  -0.040183   0.003171
     9  C    0.088566  -0.061486  -0.209873   0.120509  -0.008847   0.000146
    10  C   -0.214090   0.116483  -0.026610  -0.271886   0.126531   0.000259
    11  C    0.249669  -0.584044   0.173919   0.458056   0.263253   0.000331
    12  O    0.008258  -0.001186   0.055970   0.010797  -0.006071  -0.001794
    13  O    0.002998  -0.000032   0.000905  -0.000847  -0.017987  -0.004386
    14  O   -0.003277  -0.000115  -0.000239   0.000992   0.056105   0.000586
    15  O    0.024336  -0.002402   0.008373   0.000954   0.005487  -0.000423
    16  H   -0.011555  -0.004390  -0.493165   0.022048   0.003659   0.000006
    17  H    0.182632  -0.191854   0.192280   0.053928   0.001954  -0.000030
    18  H   -0.180598   0.028672  -0.253311   0.006303  -0.003045   0.000139
    19  H    2.429873  -0.559214   0.120614   0.166910  -0.195487  -0.007816
    20  H   -0.559214   2.290035  -0.025734  -0.244648  -0.004297   0.001022
    21  H    0.120614  -0.025734   2.469496   0.008625  -0.012294   0.000118
    22  H    0.166910  -0.244648   0.008625   3.817446   0.014606  -0.000602
    23  H   -0.195487  -0.004297  -0.012294   0.014606   4.331920   0.072710
    24  H   -0.007816   0.001022   0.000118  -0.000602   0.072710   2.386150
    25  H    0.005146  -0.001883  -0.000049   0.001997  -0.024737  -0.128818
    26  H   -0.002679   0.006841   0.001012  -0.133386  -0.034376  -0.014017
    27  C   -0.108560   0.079254  -0.114169  -0.090982  -0.000004   0.002071
    28  H    0.042180   0.018118   0.139601   0.043978   0.063079  -0.006032
    29  H    0.001628  -0.003539  -0.005850  -0.001134  -0.012387   0.001898
    30  H   -0.002034   0.003528  -0.002707   0.001388  -0.023901  -0.001442
    31  H    0.014281   0.000449   0.000254  -0.004243  -0.105736  -0.084356
    32  H   -0.001855   0.000081  -0.000064   0.000063   0.015721   0.006503
    33  H    0.006252  -0.000862   0.000993   0.000026   0.003043  -0.001473
    34  H   -0.003866   0.000284  -0.000867  -0.000288  -0.003908  -0.000168
    35  H   -0.000816   0.000457   0.000381  -0.001441   0.001687   0.002966
    36  H   -0.000163  -0.000007  -0.000076  -0.000258   0.003702   0.000263
    37  O   -0.000932  -0.000017  -0.000135  -0.000406   0.009869   0.015203
    38  H   -0.001367   0.000065   0.000174  -0.000146   0.016949   0.012123
    39  H    0.000239  -0.000017  -0.000048   0.000046  -0.004371  -0.000948
    40  H   -0.012700   0.000887  -0.014203   0.008994   0.009195   0.000334
    41  H   -0.004568   0.000925  -0.019215   0.016247   0.004971  -0.000460
    42  H   -0.005531   0.008660   0.015109  -0.026290   0.003054   0.000193
              25         26         27         28         29         30
     1  C    0.979424  -3.517476  -0.148786  -0.209893   0.031704  -0.004130
     2  C   -0.176768   1.848864  -0.092164   0.103261  -0.030217  -0.005338
     3  C    0.039533  -0.021618   0.025807  -0.292017   0.002294   0.055950
     4  N   -0.045462  -0.028615  -0.026620   0.034953  -0.001766  -0.003653
     5  C    0.441396  -0.352700  -0.036082  -0.002281   0.003858  -0.004290
     6  C   -1.539442   1.137171   0.129709   0.034449  -0.014863   0.008058
     7  C   -0.043467  -0.022107   0.008502  -0.095119   0.018683  -0.009502
     8  N   -0.005212  -0.052107   0.814344   0.204686   0.006973   0.091900
     9  C   -0.000455   0.003798  -0.084790  -0.261724   0.043291  -0.014620
    10  C   -0.001127   0.001918  -0.003376   0.061335  -0.014075   0.002049
    11  C    0.012346  -0.029398  -0.222428   0.020996   0.011660  -0.009490
    12  O    0.001464  -0.002597  -0.073758   0.096097   0.273906   0.179309
    13  O    0.001738   0.004534  -0.002257   0.002182   0.003492   0.005271
    14  O   -0.000144   0.000330  -0.000954   0.001743   0.004487  -0.006719
    15  O    0.000090  -0.000315  -0.004375  -0.009657   0.008889   0.002274
    16  H    0.000005  -0.003104   0.069591  -0.140417   0.005677  -0.001728
    17  H    0.000138   0.001611  -0.067865   0.009844  -0.000805  -0.000118
    18  H   -0.000112  -0.000375   0.026986  -0.000669   0.001313  -0.001922
    19  H    0.005146  -0.002679  -0.108560   0.042180   0.001628  -0.002034
    20  H   -0.001883   0.006841   0.079254   0.018118  -0.003539   0.003528
    21  H   -0.000049   0.001012  -0.114169   0.139601  -0.005850  -0.002707
    22  H    0.001997  -0.133386  -0.090982   0.043978  -0.001134   0.001388
    23  H   -0.024737  -0.034376  -0.000004   0.063079  -0.012387  -0.023901
    24  H   -0.128818  -0.014017   0.002071  -0.006032   0.001898  -0.001442
    25  H    2.233134  -0.131121  -0.011370   0.010454  -0.001001  -0.000108
    26  H   -0.131121   3.292606   0.057101  -0.005031   0.000665   0.000280
    27  C   -0.011370   0.057101   4.599920  -0.370448  -0.010175   0.029064
    28  H    0.010454  -0.005031  -0.370448   1.540307  -0.027708  -0.042285
    29  H   -0.001001   0.000665  -0.010175  -0.027708   0.466328  -0.102122
    30  H   -0.000108   0.000280   0.029064  -0.042285  -0.102122   0.572266
    31  H    0.012561  -0.000326  -0.000265  -0.007160   0.000772   0.005296
    32  H   -0.000507  -0.000077   0.000113   0.001065  -0.000461  -0.000371
    33  H    0.000373  -0.000198  -0.001476   0.003567   0.000462  -0.008348
    34  H   -0.000013  -0.000008   0.001110  -0.002253  -0.000095   0.005419
    35  H    0.000526   0.000509   0.005335  -0.001114  -0.005771   0.001641
    36  H   -0.000408   0.000386  -0.004773   0.005950  -0.004969   0.000849
    37  O    0.000870   0.000301  -0.000242   0.003184  -0.004484   0.000337
    38  H   -0.000905  -0.000454   0.000316   0.000179  -0.000503  -0.001466
    39  H    0.000197   0.000140  -0.000173   0.000236   0.000277   0.000623
    40  H   -0.001216   0.002590   0.238644  -0.006717  -0.001163  -0.003934
    41  H   -0.001559  -0.045039   0.168413  -0.011722   0.000813   0.000755
    42  H   -0.000410   0.023806   0.125408  -0.137850  -0.002700   0.005401
              31         32         33         34         35         36
[...]
 03786,0.00005124,-0.00008399,-0.00004020,0.00065033,0.00042001,-0.0016
 3013,0.00360208,0.00016218,0.00141006,-0.00479118,-0.00090194,0.005322
 57,-0.00259767,-0.00159695,-0.00147390,-0.00000006,0.00001156,-0.00000
 441,-0.00001461,-0.00000163,-0.00002832,0.00000484,-0.00000156,-0.0000
 0521,0.00001014,0.00003228,-0.00001081,0.00001183,0.00000751,-0.000026
 50,-0.00002478,-0.00002229,-0.00000560,-0.00006058,-0.00000757,-0.0000
 5103,0.00026038,-0.00015579,0.00024193,0.00011008,-0.00002062,0.000217
 74,-0.00009352,0.00011425,0.00000250,-0.00003889,0.00004438,0.00001629
 ,-0.00008355,-0.00016665,0.00013232,-0.00024182,0.00024997,0.00012102,
 -0.00146852,-0.00070577,0.00112336,0.00049833,-0.00038330,0.00148506,0
 .00683204,-0.00702346,-0.00136567,-0.00277651,0.00052794,-0.00074387,0
 .00401314,0.00315951,0.00113200,-0.00003696,0.00029602,0.00007763,-0.0
 0515043,0.00085464,-0.00414353,-0.00018412,-0.00006195,-0.00033743,0.0
 3900039,0.14671313,-0.41000709,-0.03151962,-0.15121285,0.42008805,0.00
 001831,0.00001518,0.00000219,0.00003015,-0.00004675,0.00000954,-0.0000
 5717,-0.00001371,-0.00000941,0.00013327,-0.00015772,-0.00002164,0.0000
 4939,0.00006448,0.00001403,-0.00001390,-0.00000662,-0.00002181,-0.0000
 1390,0.00000529,0.00002109,0.00008593,-0.00006088,0.00000523,-0.000036
 31,-0.00000713,0.00000047,-0.00000013,0.00000260,0.00000068,-0.0000059
 1,0.00000970,-0.00000032,0.00020221,-0.00008115,-0.00008934,0.00038414
 ,-0.00064416,-0.00112444,0.00058595,0.00012495,-0.00132020,0.00018887,
 0.00004703,-0.00010842,0.00000449,-0.00000376,-0.00000107,0.00000535,-
 0.00000347,-0.00000194,-0.00000625,0.00000092,0.00000233,-0.00000047,-
 0.00000029,0.00000815,0.00000329,-0.00000381,-0.00000070,-0.00000540,0
 .00000156,-0.00000324,0.00000567,-0.00000632,0.00000141,-0.00000281,0.
 00001460,0.00000043,0.00000402,0.00002607,0.00000823,0.00000852,-0.000
 00478,0.00000507,0.00000584,0.00000199,0.00000383,-0.00000135,-0.00000
 208,-0.00001006,-0.00012881,0.00013629,0.00000771,-0.00019232,-0.00001
 543,0.00011712,-0.00006514,0.00002476,0.00001441,-0.00037329,0.0003148
 0,0.00008337,0.00014621,-0.00001794,-0.00002300,-0.00020862,-0.0000704
 5,0.00010012,-0.00002711,-0.00003492,0.00005327,-0.00134829,0.00147129
 ,0.00248234,-0.00072569,0.00009992,-0.00038955,-0.42587855,0.13820810,
 0.18550516,-0.00315767,0.00355408,-0.00373347,0.43040555,0.00006076,0.
 00005958,0.00000513,0.00001158,-0.00007934,0.00004654,-0.00013271,-0.0
 0001471,-0.00004914,0.00005887,-0.00009987,-0.00012834,0.00017518,0.00
 016649,0.00006362,-0.00011711,0.00001002,-0.00001733,0.00001933,0.0000
 2184,0.00003129,0.00001767,-0.00005871,-0.00000252,-0.00000069,0.00000
 329,0.00000113,-0.00000177,0.00000295,0.00000506,-0.00000654,0.0000009
 1,-0.00001269,0.00007051,-0.00016238,-0.00005876,-0.00055005,-0.000289
 12,-0.00057806,0.00013753,-0.00072047,0.00124180,0.00001561,-0.0001797
 9,-0.00009741,0.00000266,-0.00000221,-0.00000046,-0.00000068,-0.000001
 53,-0.00000075,-0.00000471,-0.00000363,0.00000147,0.00000231,0.0000048
 8,0.00000389,0.00000276,-0.00000111,-0.00000155,-0.00000573,0.00000053
 ,-0.00000408,-0.00000018,-0.00000366,-0.00000244,0.00000023,0.00001088
 ,0.00000116,0.00002152,-0.00003434,-0.00006107,0.00002252,-0.00002061,
 -0.00000952,-0.00000206,0.00000339,-0.00000325,0.00000710,0.00000254,-
 0.00000384,-0.00008551,0.00010670,0.00000748,-0.00002203,0.00008371,0.
 00005816,-0.00001665,0.00007728,0.00002557,0.00012188,0.00000480,-0.00
 015292,-0.00010720,0.00022338,0.00020459,0.00009033,0.00021705,0.00004
 334,-0.00006083,0.00001936,0.00006754,0.00011684,-0.00043675,0.0007958
 7,-0.00012697,0.00037849,-0.00019976,0.15835761,-0.05819544,-0.0544384
 4,-0.01509634,0.00402147,0.00691018,-0.14297312,0.05486140,0.00001464,
 0.00001132,-0.00001635,-0.00000850,0.00000738,0.00000774,0.00006408,0.
 00002193,0.00000031,-0.00009030,0.00006030,-0.00007917,0.00006015,-0.0
 0004309,0.00001285,-0.00005718,-0.00001550,-0.00000055,0.00004686,0.00
 002703,0.00002990,-0.00004636,0.00001414,-0.00002666,0.00002630,0.0000
 0703,-0.00000417,-0.00000054,-0.00000167,0.00000692,0.00000217,-0.0000
 1221,-0.00001212,-0.00011966,-0.00003361,-0.00006696,-0.00227156,-0.00
 058524,-0.00301352,-0.00118307,0.00099313,-0.00168635,-0.00016675,-0.0
 0007506,0.00000010,-0.00000436,0.00000372,0.00000133,-0.00000497,0.000
 00142,-0.00000140,0.00000245,-0.00000175,-0.00000205,0.00000068,0.0000
 0520,-0.00000612,0.00000050,0.00000243,-0.00000305,0.00000022,-0.00000
 398,0.00000131,-0.00000974,0.00000326,-0.00000528,0.00001698,-0.000009
 79,-0.00000806,0.00001137,-0.00005272,-0.00001342,-0.00000072,0.000003
 32,0.00000775,-0.00001441,0.00000387,0.00000147,-0.00000218,-0.0000058
 0,0.00002369,0.00006369,-0.00004722,0.00000425,0.00009161,0.00006713,0
 .00004240,0.00007410,0.00002015,0.00006462,0.00003384,-0.00020804,0.00
 038318,0.00056909,0.00010313,-0.00064791,0.00017446,0.00009764,-0.0000
 4955,0.00003449,0.00003115,-0.00000606,0.00256785,0.00136033,0.0052640
 3,-0.00090914,-0.00005598,-0.00016629,0.14301113,-0.03180167,-0.109898
 07,0.03961718,-0.01619315,-0.01074714,-0.18158858,0.04631815,0.1205802
 1,-0.00005597,0.00019055,-0.00011670,0.00000424,-0.00000820,-0.0001962
 7,0.00033901,-0.00015478,0.00008727,-0.00017217,0.00000885,0.00001902,
 0.00002496,0.00005647,-0.00002154,0.00014090,0.00001832,-0.00001927,-0
 .00076863,-0.00145621,0.00100112,-0.00073528,0.00621118,0.00930551,0.0
 0069403,0.00081913,0.00078232,-0.00001580,0.00009532,-0.00004627,0.000
 29782,0.00017246,0.00056844,-0.00008296,-0.00009022,0.00064612,0.00080
 404,0.00008813,0.00072167,-0.00004740,0.00008667,0.00005883,0.00004739
 ,0.00000978,0.00014070,-0.00010821,0.00027763,0.00000371,-0.00000040,0
 .00001523,-0.00003582,0.00000239,-0.00000563,-0.00006570,-0.00006885,-
 0.00007574,0.00007215,-0.00003957,-0.00006935,0.00011910,0.00012705,-0
 .00034248,0.00018143,0.00013202,-0.00029093,-0.00022124,-0.00000284,-0
 .00001038,-0.00002265,-0.00000537,0.00000016,0.00000261,-0.00000573,0.
 00000354,0.00000239,-0.00005165,0.00000379,0.00003298,-0.05285293,-0.0
 2586400,-0.03017610,0.00017566,-0.00027143,-0.00072387,-0.00017617,0.0
 0023853,-0.00051815,-0.00007410,0.00003027,-0.00023260,0.00008877,-0.0
 0012692,0.00000302,0.00000035,0.00000136,-0.00000403,-0.00002050,-0.00
 004112,-0.00002053,0.00001151,0.00000794,-0.00001186,-0.00021211,-0.00
 016123,-0.00032339,-0.00042950,0.00012992,-0.00004093,0.00016755,0.000
 04634,0.00019764,0.00003584,-0.00001014,-0.00009364,-0.00001499,-0.000
 00862,-0.00000241,0.05105476,0.00008015,-0.00013224,-0.00001254,-0.000
 23548,0.00000278,-0.00009104,0.00017805,-0.00006259,0.00001643,-0.0001
 1338,0.00000541,-0.00002996,0.00002710,0.00004816,0.00000530,0.0000976
 1,0.00007568,-0.00003445,-0.00082547,-0.00240549,0.00170107,0.00178709
 ,0.01230429,0.01842818,0.00027358,0.00126245,0.00064721,0.00025584,0.0
 0010661,-0.00009686,-0.00037901,0.00077039,0.00100445,-0.00006453,-0.0
 0007424,-0.00022217,0.00004856,-0.00006286,0.00018390,-0.00003589,0.00
 003579,-0.00000150,-0.00001684,0.00001961,-0.00005629,0.00003419,-0.00
 030576,-0.00021380,-0.00000285,-0.00000574,-0.00002346,-0.00001840,-0.
 00001907,0.00000720,0.00005441,0.00003146,-0.00002273,-0.00009004,-0.0
 0022714,0.00029414,0.00009646,-0.00003200,-0.00009060,-0.00028986,0.00
 028703,0.00017090,-0.00001503,0.00001645,0.00000340,-0.00000919,0.0000
 0780,-0.00000255,0.00001020,0.00000317,0.00000036,-0.00002738,0.000129
 84,0.00006236,-0.02471762,-0.17919490,-0.14364008,0.00009841,0.0008401
 3,-0.00019669,0.00011690,0.00010104,-0.00001056,-0.00002068,-0.0000317
 6,0.00010163,0.00004012,-0.00005266,0.00001249,0.00000490,-0.00000320,
 0.00000393,0.00001071,-0.00000119,0.00000469,-0.00000616,-0.00000414,0
 .00000480,-0.00001319,-0.00004292,-0.00002655,-0.00004983,0.00011365,-
 0.00004402,-0.00000641,0.00000098,0.00003012,0.00001462,-0.00000371,-0
 .00001743,0.00000286,0.00000367,-0.00000633,0.02799801,0.18450047,-0.0
 0009917,0.00015636,0.00008727,0.00054212,0.00016901,0.00027260,-0.0001
 4030,-0.00004805,0.00004710,-0.00002759,0.00006717,0.00000626,-0.00000
 631,-0.00007884,-0.00001869,-0.00009488,-0.00003454,0.00001474,0.00137
 361,0.00513119,-0.00151360,-0.00307322,-0.01963211,-0.02918371,-0.0012
 1671,-0.00130334,0.00089085,-0.00026941,0.00002288,-0.00013429,0.00005
 066,-0.00132380,-0.00117907,-0.00008146,0.00021624,0.00062626,0.000308
 27,0.00003834,0.00007643,-0.00001257,0.00005268,0.00002488,0.00005580,
 0.00000860,0.00014128,0.00027197,0.00003189,0.00002957,0.00000356,0.00
 002069,0.00011064,0.00005662,0.00002246,0.00004195,0.00002733,0.000046
 61,-0.00002737,0.00022817,0.00040214,-0.00033838,0.00044908,0.00055233
 ,-0.00006977,0.00007072,0.00000014,0.00012651,0.00002808,-0.00003844,-
 0.00002803,0.00000329,-0.00000714,-0.00000218,-0.00001633,-0.00000481,
 -0.00000608,0.00004967,-0.00003349,-0.00004208,-0.02560425,-0.13149291
 ,-0.19462485,0.00041994,-0.00138107,-0.00032810,-0.00032640,0.00011477
 ,-0.00018608,-0.00006436,0.00010461,-0.00021188,0.00004328,-0.00006446
 ,-0.00000076,0.00000025,0.00000033,-0.00000243,-0.00002422,-0.00003584
 ,-0.00001263,0.00000387,0.00000317,-0.00000645,-0.00009708,-0.00002532
 ,-0.00012530,-0.00004818,-0.00000027,0.00006756,0.00007341,0.00001988,
 0.00006569,0.00000750,-0.00000847,-0.00003667,-0.00000566,-0.00000569,
 0.00000579,0.02635027,0.14425188,0.21887363,-0.00002100,-0.00019950,-0
 .00042625,0.00011227,0.00019871,-0.00074553,0.00057490,-0.00010167,0.0
 0012336,-0.00041658,-0.00010276,0.00001474,-0.00011983,0.00017539,-0.0
 0003058,0.00023979,0.00002629,-0.00002826,-0.00033190,-0.00023405,-0.0
 0033617,-0.00482849,-0.00173847,0.00082887,0.00098371,0.00025257,0.000
 62762,0.00000426,-0.00022282,-0.00017705,-0.00011294,-0.00015484,-0.00
 002362,-0.00023836,-0.00013459,0.00017501,-0.00094979,-0.00016879,0.00
 005369,-0.00007447,0.00006904,0.00008630,-0.00001364,0.00002426,0.0000
 4778,0.00032584,-0.00007132,0.00004591,-0.00000023,-0.00000951,0.00002
 645,-0.00000865,0.00001325,0.00010351,0.00001096,0.00001012,-0.0000030
 9,0.00002433,0.00004059,-0.00000229,-0.00004703,-0.00009259,-0.0000453
 7,-0.00007738,0.00004176,0.00004337,0.00000595,-0.00001674,0.00000120,
 -0.00001363,0.00000449,-0.00001186,0.00000035,-0.00000554,0.00001043,-
 0.00011857,0.00014738,0.00012151,-0.30999751,-0.07621411,-0.00928047,0
 .00025592,-0.00004335,0.00014941,0.00053359,0.00018985,-0.00029749,0.0
 0000041,-0.00001510,-0.00006088,0.00010255,-0.00012791,-0.00001304,0.0
 0000039,0.00000334,-0.00000478,0.00001361,-0.00001137,-0.00002951,0.00
 000217,0.00000515,-0.00000835,-0.00043170,0.00006869,-0.00023249,0.000
 12247,-0.00004883,0.00019837,0.00018217,0.00000175,0.00019560,0.000036
 28,0.00000063,-0.00013765,-0.00001781,-0.00000452,0.00000695,-0.001073
 36,0.00107400,0.00010739,0.32748563,0.00002584,-0.00000550,-0.00028524
 ,0.00018943,0.00017415,-0.00041635,-0.00020208,0.00011162,-0.00010198,
 0.00030100,-0.00010229,0.00002356,-0.00005909,0.00003077,0.00002948,-0
 .00013387,-0.00010649,0.00006963,0.00020569,0.00006505,-0.00061949,-0.
 01690317,-0.00814642,0.00086117,0.00100157,-0.00017185,0.00330323,-0.0
 0100616,0.00001514,-0.00019852,-0.00008206,-0.00010152,-0.00015800,0.0
 0047598,0.00028696,-0.00072689,-0.00073551,0.00003443,-0.00048114,0.00
 007638,-0.00012568,-0.00011221,-0.00004087,-0.00000891,-0.00020103,-0.
 00025082,0.00007091,-0.00009324,-0.00004469,-0.00008780,0.00031712,-0.
 00004336,-0.00002784,0.00004260,0.00001622,0.00001770,0.00002764,0.000
 03340,0.00002941,0.00002550,0.00016506,0.00026501,-0.00014875,0.000071
 64,0.00001907,0.00017665,0.00001872,-0.00002656,0.00007522,0.00000875,
 -0.00000635,0.00000329,-0.00000308,-0.00001610,-0.00001310,0.00012053,
 -0.00011580,-0.00005219,-0.06941035,-0.06979633,-0.00103057,-0.0015871
 5,0.00057463,0.00001526,-0.00006866,-0.00096204,0.00054704,0.00014709,
 -0.00002204,0.00029105,-0.00014032,0.00020245,0.00001361,0.00000273,-0
 .00000206,0.00000733,0.00002257,0.00004273,0.00004815,-0.00001549,-0.0
 0001219,0.00001879,0.00046979,0.00037192,0.00057759,0.00000784,0.00002
 710,-0.00005992,-0.00034943,-0.00009032,-0.00033404,-0.00004002,0.0000
 0701,0.00017042,0.00003337,0.00002036,-0.00001431,-0.01982183,-0.00477
 680,-0.00001575,0.08336382,0.07296711,-0.00036512,-0.00060834,-0.00044
 854,0.00022633,0.00001778,-0.00104668,-0.00016338,0.00023477,-0.000156
 83,0.00006207,-0.00018146,0.00007083,-0.00009230,0.00014489,-0.0000411
 9,0.00014314,-0.00014820,0.00003391,0.00076762,0.00026004,0.00141473,0
 .03514702,0.01263254,-0.00258302,-0.00159500,0.00092199,-0.00495441,0.
 00145773,0.00066488,0.00002507,0.00008408,0.00029763,0.00020809,-0.000
 14937,0.00004906,-0.00024531,-0.00062259,0.00028400,-0.00105008,0.0001
 1723,-0.00017930,-0.00004398,-0.00004490,-0.00008203,-0.00004967,0.000
 06445,-0.00020998,-0.00014007,0.00005506,0.00012661,-0.00038286,0.0000
 7754,0.00000224,-0.00020784,-0.00002918,-0.00000364,-0.00003737,-0.000
 03354,-0.00004941,0.00000360,0.00018013,0.00033341,-0.00006437,0.00000
 255,-0.00012866,-0.00021164,0.00001106,0.00000203,0.00001490,0.0000150
 1,0.00000317,0.00000544,0.00000441,0.00001531,0.00002877,0.00000259,-0
 .00000199,0.00002147,-0.02078808,-0.00485396,-0.05053750,0.00088869,-0
 .00068455,0.00094615,-0.00021743,0.00001473,0.00034117,0.00002353,0.00
 003097,0.00009349,-0.00018545,0.00024645,-0.00003280,-0.00001104,0.000
 00740,-0.00000625,0.00001566,0.00006728,0.00001567,0.00001729,0.000002
 71,0.00000657,0.00023846,0.00024093,0.00032058,0.00037942,-0.00039762,
 0.00006782,-0.00010141,-0.00004783,-0.00023256,-0.00005963,0.00002159,
 0.00011960,0.00001244,-0.00000219,0.00001556,-0.02246084,-0.00493304,0
 .00100961,0.01007103,-0.00177245,0.05794257,-0.00012052,0.00034836,-0.
 00005136,-0.00008756,-0.00002094,-0.00002068,-0.00012085,0.00002479,-0
 .00007102,0.00019720,-0.00005766,0.00004429,-0.00000223,-0.00000950,0.
 00000094,-0.00004114,-0.00007969,0.00008069,0.00024967,-0.00025197,-0.
 00004928,0.00493857,-0.00967583,0.00263146,0.00211052,-0.00115485,0.00
 060053,-0.00004546,0.00007631,-0.00000531,0.00016866,-0.00014506,-0.00
 009201,0.00026882,-0.00000273,-0.00034778,-0.00061395,0.00027938,-0.00
 012912,0.00003792,-0.00006692,-0.00005113,-0.00002347,-0.00001100,-0.0
 0008060,-0.00011197,0.00031845,-0.00006000,0.00000162,0.00002820,-0.00
 000514,-0.00000881,0.00001340,-0.00004461,-0.00009101,-0.00005600,0.00
 002650,-0.00000829,0.00003241,-0.00004377,-0.00014357,0.00001076,0.000
 03027,0.00004877,0.00000787,-0.00045645,0.00000200,-0.00001745,0.00001
 908,0.00001640,-0.00000805,0.00000669,-0.00001020,-0.00000230,-0.00001
 135,0.00011269,-0.00020145,-0.00010222,-0.15289294,0.13451510,-0.02236
 834,-0.00019584,-0.00087407,0.00164552,-0.00002617,-0.00041583,0.00022
 149,0.00005959,-0.00001209,0.00012701,-0.00006955,0.00010169,0.0000071
 1,0.00000118,-0.00000055,0.00000233,0.00001301,0.00002234,0.00002268,-
 0.00000282,-0.00000615,0.00000784,0.00022813,0.00012350,0.00028758,-0.
 00004928,0.00003565,-0.00006014,-0.00016070,-0.00003139,-0.00014767,-0
 .00001791,0.00000284,0.00008436,0.00001472,0.00001124,-0.00001037,0.00
 286622,-0.00536652,0.00068324,-0.01212469,0.02418056,-0.00314526,0.155
 63325,0.00002746,0.00000208,0.00007465,0.00006846,-0.00005532,0.000069
 08,-0.00010765,-0.00002237,0.00000653,0.00006481,0.00004638,0.00000638
 ,0.00000548,-0.00002817,0.00000787,-0.00002029,0.00001086,0.00001872,-
 0.00036223,0.00067467,-0.00155123,0.00887098,-0.01508737,0.00547961,0.
 00186624,-0.00002161,-0.00022429,-0.00027788,0.00032673,-0.00013458,-0
 .00018500,0.00028851,-0.00017512,0.00072915,-0.00053361,-0.00019312,-0
 .00000642,0.00025453,0.00003738,0.00002714,0.00000787,0.00000469,0.000
 05083,-0.00001755,0.00010460,-0.00104970,-0.00014398,0.00013476,-0.000
 02774,-0.00000628,0.00008822,-0.00001114,0.00002707,-0.00016876,0.0000
 5545,0.00005569,-0.00013781,-0.00003872,-0.00003724,0.00003806,-0.0000
 4142,0.00007022,-0.00003949,-0.00006129,0.00062911,0.00056702,-0.00000
 578,-0.00000136,-0.00002494,0.00000592,0.00000030,-0.00000379,-0.00000
 382,0.00000002,-0.00000551,0.00000479,-0.00002130,-0.00009185,0.128808
 03,-0.21741846,0.02797746,-0.00259142,0.00122277,0.00198315,-0.0002217
 2,-0.00022733,0.00006823,-0.00006201,0.00010399,-0.00017927,-0.0000124
 2,0.00000427,-0.00000327,-0.00000415,0.00000254,-0.00000330,-0.0000291
 5,-0.00002217,-0.00000856,0.00000936,0.00000890,-0.00000405,-0.0000409
 4,-0.00000724,-0.00001653,-0.00007992,-0.00000417,0.00000404,0.0000190
 6,0.00000858,-0.00000607,-0.00000905,-0.00000494,0.00000614,-0.0000053
 7,-0.00000131,0.00000397,0.01229961,-0.01322844,0.00410096,-0.00599269
 ,0.00937738,-0.00233776,-0.14166484,0.23376774,-0.00010150,0.00016542,
 -0.00001560,0.00016389,-0.00032410,-0.00008702,-0.00004608,0.00015831,
 -0.00001942,0.00012518,-0.00004624,0.00005451,-0.00001134,-0.00003748,
 -0.00001085,-0.00002235,-0.00006787,0.00003366,-0.00155292,0.00265112,
 0.00196890,-0.01946201,0.03117868,-0.01279664,-0.00221698,-0.00085788,
 0.00033223,0.00002964,-0.00022503,0.00021468,0.00028001,-0.00022476,0.
 00008353,-0.00113077,0.00073346,0.00078822,0.00027991,-0.00007253,0.00
 029321,0.00000916,-0.00006083,0.00002027,-0.00003975,-0.00002310,-0.00
 002725,0.00061321,-0.00021162,0.00043788,0.00000571,0.00000583,-0.0000
 4417,-0.00005443,-0.00004986,0.00005803,-0.00001806,-0.00014646,0.0001
 3394,0.00006155,-0.00002955,-0.00001629,0.00024575,-0.00002917,0.00003
 099,0.00056142,-0.00078249,-0.00041344,0.00003209,-0.00001181,0.000026
 08,0.00000991,-0.00000984,0.00000312,-0.00000240,0.00000190,0.00000461
 ,-0.00001214,-0.00013320,-0.00005454,-0.01629628,0.02076979,-0.0518857
 1,0.00402521,-0.00034157,-0.00471616,-0.00005026,0.00039002,-0.0004142
 2,0.00000245,0.00000372,0.00008202,-0.00003689,0.00006285,-0.00001407,
 -0.00000511,0.00000388,-0.00000409,0.00002710,0.00003214,-0.00000040,0
 .00000374,-0.00000062,0.00000018,-0.00008478,-0.00003277,-0.00011885,-
 0.00014377,-0.00000244,0.00001150,0.00007256,-0.00000315,0.00005118,0.
 00000744,0.00001216,-0.00002057,-0.00000580,-0.00000174,0.00000685,0.0
 1505749,-0.01716182,0.00555979,-0.00114378,0.00019085,-0.00023263,0.02
 082399,-0.03547223,0.06069653\\-0.00000388,-0.00000279,-0.00000017,-0.
 00000509,-0.00000050,-0.00000224,0.00000803,-0.00000035,0.00000401,0.0
 0000411,-0.00000960,-0.00001044,-0.00000181,0.00000794,-0.00000021,0.0
 0000340,-0.00000077,0.00000262,0.00001219,0.00000890,0.00000945,-0.000
 00164,-0.00000046,-0.00001607,-0.00000121,-0.00000513,0.00001587,0.000
 00499,0.00000279,-0.00000568,-0.00001160,-0.00000122,0.00000254,0.0000
 0433,-0.00000184,-0.00000867,0.00000837,0.00000343,-0.00000347,0.00001
 423,-0.00001155,-0.00001064,0.00000790,-0.00000946,0.00000241,-0.00000
 074,0.00000009,0.00000047,-0.00000044,0.00000234,0.00000214,0.00000292
 ,-0.00000206,-0.00000248,0.00000323,-0.00000038,0.00000099,-0.00000246
 ,0.00000070,-0.00000105,0.00000118,-0.00000253,0.00000203,0.00000019,-
 0.00000126,-0.00000009,-0.00000148,0.00000007,-0.00000113,0.00000020,-
 0.00000101,-0.00000271,-0.00000098,0.00000009,-0.00000132,-0.00000023,
 0.00000006,-0.00000049,-0.00000183,-0.00000070,0.00000278,-0.00000440,
 -0.00000154,0.00000280,-0.00000503,-0.00000978,0.00000866,-0.00000797,
 0.00000598,-0.00000455,-0.00001686,0.00001263,0.00000708,-0.00000139,-
 0.00000137,0.00000102,0.00000021,0.00002083,0.00000618,0.00000017,0.00
 000031,-0.00000056,-0.00000268,0.00000067,-0.00000493,-0.00000003,-0.0
 0000088,-0.00000043,-0.00000673,0.00000882,-0.00000048,0.00000377,-0.0
 0001134,0.00000738,0.00000100,0.00000101,-0.00000060,-0.00000050,-0.00
 000075,0.00000036,-0.00000071,0.00000067,0.00000095,-0.00000073,-0.000
 00006,-0.00000133\\\@


 THE MOLECULE ALSO HAS A BODY.  WHEN THIS BODY IS HIT, THE MOLECULE
 FEELS HURT ALL OVER -- A. KITAIGORODSKI
 Job cpu time:       1 days 21 hours 14 minutes 41.6 seconds.
 Elapsed time:       0 days  1 hours 37 minutes  5.7 seconds.
 File lengths (MBytes):  RWF=   1444 Int=      0 D2E=      0 Chk=     36 Scr=      8
 Normal termination of Gaussian 16 at Fri Sep  4 22:19:07 2020.
