 Entering Gaussian System, Link 0=g16
 Input=Nic5h3bSymDon.gjf
 Output=Nic5h3bSymDon.log
 Initial command:
 /sw/contrib/gaussian/g16/A03/g16/l1.exe "/gscratch/scrubbed/gds001/Gau-31104.inp" -scrdir="/gscratch/scrubbed/gds001/"
 Entering Link 1 = /sw/contrib/gaussian/g16/A03/g16/l1.exe PID=     31105.
  
 Copyright (c) 1988,1990,1992,1993,1995,1998,2003,2009,2016,
            Gaussian, Inc.  All Rights Reserved.
  
 This is part of the Gaussian(R) 16 program.  It is based on
 the Gaussian(R) 09 system (copyright 2009, Gaussian, Inc.),
 the Gaussian(R) 03 system (copyright 2003, Gaussian, Inc.),
 the Gaussian(R) 98 system (copyright 1998, Gaussian, Inc.),
 the Gaussian(R) 94 system (copyright 1995, Gaussian, Inc.),
 the Gaussian 92(TM) system (copyright 1992, Gaussian, Inc.),
 the Gaussian 90(TM) system (copyright 1990, Gaussian, Inc.),
 the Gaussian 88(TM) system (copyright 1988, Gaussian, Inc.),
 the Gaussian 86(TM) system (copyright 1986, Carnegie Mellon
 University), and the Gaussian 82(TM) system (copyright 1983,
 Carnegie Mellon University). Gaussian is a federally registered
 trademark of Gaussian, Inc.
  
 This software contains proprietary and confidential information,
 including trade secrets, belonging to Gaussian, Inc.
  
 This software is provided under written license and may be
 used, copied, transmitted, or stored only in accord with that
 written license.
  
 The following legend is applicable only to US Government
 contracts under FAR:
  
                    RESTRICTED RIGHTS LEGEND
  
 Use, reproduction and disclosure by the US Government is
 subject to restrictions as set forth in subparagraphs (a)
 and (c) of the Commercial Computer Software - Restricted
 Rights clause in FAR 52.227-19.
  
 Gaussian, Inc.
 340 Quinnipiac St., Bldg. 40, Wallingford CT 06492
  
  
 ---------------------------------------------------------------
 Warning -- This program may not be used in any manner that
 competes with the business of Gaussian, Inc. or will provide
 assistance to any competitor of Gaussian, Inc.  The licensee
 of this program is prohibited from giving any competitor of
 Gaussian, Inc. access to this program.  By using this program,
 the user acknowledges that Gaussian, Inc. is engaged in the
 business of creating and licensing software in the field of
 computational chemistry and represents and warrants to the
 licensee that it is not a competitor of Gaussian, Inc. and that
 it will not use this program in any manner prohibited above.
 ---------------------------------------------------------------
  

 Cite this work as:
 Gaussian 16, Revision A.03,
 M. J. Frisch, G. W. Trucks, H. B. Schlegel, G. E. Scuseria, 
 M. A. Robb, J. R. Cheeseman, G. Scalmani, V. Barone, 
 G. A. Petersson, H. Nakatsuji, X. Li, M. Caricato, A. V. Marenich, 
 J. Bloino, B. G. Janesko, R. Gomperts, B. Mennucci, H. P. Hratchian, 
 J. V. Ortiz, A. F. Izmaylov, J. L. Sonnenberg, D. Williams-Young, 
 F. Ding, F. Lipparini, F. Egidi, J. Goings, B. Peng, A. Petrone, 
 T. Henderson, D. Ranasinghe, V. G. Zakrzewski, J. Gao, N. Rega, 
 G. Zheng, W. Liang, M. Hada, M. Ehara, K. Toyota, R. Fukuda, 
 J. Hasegawa, M. Ishida, T. Nakajima, Y. Honda, O. Kitao, H. Nakai, 
 T. Vreven, K. Throssell, J. A. Montgomery, Jr., J. E. Peralta, 
 F. Ogliaro, M. J. Bearpark, J. J. Heyd, E. N. Brothers, K. N. Kudin, 
 V. N. Staroverov, T. A. Keith, R. Kobayashi, J. Normand, 
 K. Raghavachari, A. P. Rendell, J. C. Burant, S. S. Iyengar, 
 J. Tomasi, M. Cossi, J. M. Millam, M. Klene, C. Adamo, R. Cammi, 
 J. W. Ochterski, R. L. Martin, K. Morokuma, O. Farkas, 
 J. B. Foresman, and D. J. Fox, Gaussian, Inc., Wallingford CT, 2016.
 
 ******************************************
 Gaussian 16:  ES64L-G16RevA.03 25-Dec-2016
                 6-Dec-2022 
 ******************************************
 %nprocshared=28
 Will use up to   28 processors via shared memory.
 %mem=41GB
 -----------------------------
 # wB97XD/aug-cc-pVDZ opt freq
 -----------------------------
 1/18=20,19=15,26=3,38=1/1,3;
 2/9=110,12=2,17=6,18=5,40=1/2;
 3/5=16,7=10,11=2,25=1,30=1,71=1,74=-58/1,2,3;
 4//1;
 5/5=2,38=5/2;
 6/7=2,8=2,9=2,10=2,28=1/1;
 7//1,2,3,16;
 1/18=20,19=15,26=3/3(2);
 2/9=110/2;
 99//99;
 2/9=110/2;
 3/5=16,7=10,11=2,25=1,30=1,71=1,74=-58/1,2,3;
 4/5=5,16=3,69=1/1;
 5/5=2,38=5/2;
 7//1,2,3,16;
 1/18=20,19=15,26=3/3(-5);
 2/9=110/2;
 6/7=2,8=2,9=2,10=2,19=2,28=1/1;
 99/9=1/99;
 ----
 blah
 ----
 Symbolic Z-matrix:
 Charge =  1 Multiplicity = 1
 C                    -0.1753    2.5585    0.34999 
 C                     0.2735    1.33955  -0.1596 
 C                    -0.67566   0.50259  -0.73107 
 N                    -1.96309   0.86234  -0.77749 
 C                    -2.41588   2.02302  -0.28296 
 C                    -1.52372   2.91045   0.28488 
 C                     1.72441   0.92873  -0.08741 
 N                     1.9204   -0.3566    0.59958 
 C                     3.32923  -0.67908   0.32698 
 C                     3.51492  -0.33068  -1.15578 
 C                     2.41122   0.71439  -1.44821 
 O                    -3.41897  -1.28493  -1.39087 
 O                    -1.99325  -2.71419   0.44339 
 O                     0.49535  -2.43057  -0.50827 
 H                     3.52895  -1.7311    0.56487 
 H                     4.51854   0.0608   -1.34871 
 H                     3.38256  -1.21621  -1.78739 
 H                     2.80442   1.6574   -1.84188 
 H                     1.69142   0.32899  -2.1805 
 H                     3.98866  -0.06031   0.96223 
 H                     2.26494   1.7193    0.46862 
 H                    -0.44003  -0.47661  -1.14401 
 H                    -3.48584   2.19948  -0.35186 
 H                    -1.88147   3.85583   0.68494 
 H                     0.53693   3.24127   0.81385 
 C                     1.59799  -0.3151    2.02377 
 H                    -2.63173   0.14573  -1.14169 
 H                     1.05191  -1.716    -0.08897 
 H                     1.08842  -3.12687  -0.7983 
 H                    -3.03665  -1.96883  -0.80518 
 H                    -3.75801  -1.72275  -2.17427 
 H                    -2.19618  -3.5726    0.82322 
 H                    -1.05748  -2.75121   0.13758 
 H                    -2.0289   -1.19734   1.6105 
 O                    -1.91129  -0.30249   1.96851 
 H                    -2.32258  -0.31673   2.83558 
 H                     1.82268  -1.29051   2.47092 
 H                     0.52838  -0.11316   2.15967 
 H                     2.191     0.45433   2.55049 
 O                    -4.48072  -2.13973  -3.86423 
 H                    -4.04638  -1.66177  -4.59101 
 H                    -5.42534  -2.01402  -4.05506 
 
 Add virtual bond connecting atoms H27        and O12        Dist= 3.12D+00.
 Add virtual bond connecting atoms H33        and O14        Dist= 3.24D+00.
 Add virtual bond connecting atoms O13        and H30        Dist= 3.38D+00.
 Add virtual bond connecting atoms H28        and N8         Dist= 3.31D+00.
 Add virtual bond connecting atoms O40        and H31        Dist= 3.56D+00.
 Add virtual bond connecting atoms H34        and O13        Dist= 3.62D+00.

 GradGradGradGradGradGradGradGradGradGradGradGradGradGradGradGradGradGrad
 Berny optimization.
 Initialization pass.
                           ----------------------------
                           !    Initial Parameters    !
                           ! (Angstroms and Degrees)  !
 --------------------------                            --------------------------
 ! Name  Definition              Value          Derivative Info.                !
 --------------------------------------------------------------------------------
 ! R1    R(1,2)                  1.3953         estimate D2E/DX2                !
 ! R2    R(1,6)                  1.3951         estimate D2E/DX2                !
 ! R3    R(1,25)                 1.0902         estimate D2E/DX2                !
 ! R4    R(2,3)                  1.3885         estimate D2E/DX2                !
 ! R5    R(2,7)                  1.5097         estimate D2E/DX2                !
 ! R6    R(3,4)                  1.3376         estimate D2E/DX2                !
 ! R7    R(3,22)                 1.0885         estimate D2E/DX2                !
 ! R8    R(4,5)                  1.3404         estimate D2E/DX2                !
 ! R9    R(4,27)                 1.0456         estimate D2E/DX2                !
 ! R10   R(5,6)                  1.3806         estimate D2E/DX2                !
 ! R11   R(5,23)                 1.0866         estimate D2E/DX2                !
 ! R12   R(6,24)                 1.0871         estimate D2E/DX2                !
 ! R13   R(7,8)                  1.4705         estimate D2E/DX2                !
 ! R14   R(7,11)                 1.5393         estimate D2E/DX2                !
 ! R15   R(7,21)                 1.1074         estimate D2E/DX2                !
 ! R16   R(8,9)                  1.4708         estimate D2E/DX2                !
 ! R17   R(8,26)                 1.4608         estimate D2E/DX2                !
 ! R18   R(8,28)                 1.7539         estimate D2E/DX2                !
 ! R19   R(9,10)                 1.5344         estimate D2E/DX2                !
 ! R20   R(9,15)                 1.0969         estimate D2E/DX2                !
 ! R21   R(9,20)                 1.1051         estimate D2E/DX2                !
 ! R22   R(10,11)                1.5478         estimate D2E/DX2                !
 ! R23   R(10,16)                1.0944         estimate D2E/DX2                !
 ! R24   R(10,17)                1.0957         estimate D2E/DX2                !
 ! R25   R(11,18)                1.0949         estimate D2E/DX2                !
 ! R26   R(11,19)                1.0968         estimate D2E/DX2                !
 ! R27   R(12,27)                1.6519         estimate D2E/DX2                !
 ! R28   R(12,30)                0.9782         estimate D2E/DX2                !
 ! R29   R(12,31)                0.9593         estimate D2E/DX2                !
 ! R30   R(13,30)                1.7897         estimate D2E/DX2                !
 ! R31   R(13,32)                0.9604         estimate D2E/DX2                !
 ! R32   R(13,33)                0.9852         estimate D2E/DX2                !
 ! R33   R(13,34)                1.9142         estimate D2E/DX2                !
 ! R34   R(14,28)                0.9981         estimate D2E/DX2                !
 ! R35   R(14,29)                0.9595         estimate D2E/DX2                !
 ! R36   R(14,33)                1.7121         estimate D2E/DX2                !
 ! R37   R(26,37)                1.0963         estimate D2E/DX2                !
 ! R38   R(26,38)                1.097          estimate D2E/DX2                !
 ! R39   R(26,39)                1.105          estimate D2E/DX2                !
 ! R40   R(31,40)                1.8847         estimate D2E/DX2                !
 ! R41   R(34,35)                0.971          estimate D2E/DX2                !
 ! R42   R(35,36)                0.9598         estimate D2E/DX2                !
 ! R43   R(40,41)                0.9723         estimate D2E/DX2                !
 ! R44   R(40,42)                0.9719         estimate D2E/DX2                !
 ! A1    A(2,1,6)              120.9455         estimate D2E/DX2                !
 ! A2    A(2,1,25)             119.4956         estimate D2E/DX2                !
 ! A3    A(6,1,25)             119.5565         estimate D2E/DX2                !
 ! A4    A(1,2,3)              117.1946         estimate D2E/DX2                !
 ! A5    A(1,2,7)              121.9642         estimate D2E/DX2                !
 ! A6    A(3,2,7)              120.8384         estimate D2E/DX2                !
 ! A7    A(2,3,4)              120.672          estimate D2E/DX2                !
 ! A8    A(2,3,22)             123.3942         estimate D2E/DX2                !
 ! A9    A(4,3,22)             115.9214         estimate D2E/DX2                !
 ! A10   A(3,4,5)              123.0404         estimate D2E/DX2                !
 ! A11   A(3,4,27)             116.3131         estimate D2E/DX2                !
 ! A12   A(5,4,27)             120.3941         estimate D2E/DX2                !
 ! A13   A(4,5,6)              119.344          estimate D2E/DX2                !
 ! A14   A(4,5,23)             116.7346         estimate D2E/DX2                !
 ! A15   A(6,5,23)             123.9195         estimate D2E/DX2                !
 ! A16   A(1,6,5)              118.7926         estimate D2E/DX2                !
 ! A17   A(1,6,24)             121.3512         estimate D2E/DX2                !
 ! A18   A(5,6,24)             119.8485         estimate D2E/DX2                !
 ! A19   A(2,7,8)              112.8477         estimate D2E/DX2                !
 ! A20   A(2,7,11)             115.115          estimate D2E/DX2                !
 ! A21   A(2,7,21)             107.3885         estimate D2E/DX2                !
 ! A22   A(8,7,11)             103.4044         estimate D2E/DX2                !
 ! A23   A(8,7,21)             108.9267         estimate D2E/DX2                !
 ! A24   A(11,7,21)            108.9963         estimate D2E/DX2                !
 ! A25   A(7,8,9)              103.4579         estimate D2E/DX2                !
 ! A26   A(7,8,26)             113.6544         estimate D2E/DX2                !
 ! A27   A(7,8,28)             115.344          estimate D2E/DX2                !
 ! A28   A(9,8,26)             113.4744         estimate D2E/DX2                !
 ! A29   A(9,8,28)             103.3922         estimate D2E/DX2                !
 ! A30   A(26,8,28)            107.1847         estimate D2E/DX2                !
 ! A31   A(8,9,10)             104.1958         estimate D2E/DX2                !
 ! A32   A(8,9,15)             110.1515         estimate D2E/DX2                !
 ! A33   A(8,9,20)             110.0156         estimate D2E/DX2                !
 ! A34   A(10,9,15)            113.9095         estimate D2E/DX2                !
 ! A35   A(10,9,20)            110.8628         estimate D2E/DX2                !
 ! A36   A(15,9,20)            107.6801         estimate D2E/DX2                !
 ! A37   A(9,10,11)            104.4526         estimate D2E/DX2                !
 ! A38   A(9,10,16)            111.2567         estimate D2E/DX2                !
 ! A39   A(9,10,17)            111.0332         estimate D2E/DX2                !
 ! A40   A(11,10,16)           112.2765         estimate D2E/DX2                !
 ! A41   A(11,10,17)           110.5255         estimate D2E/DX2                !
 ! A42   A(16,10,17)           107.352          estimate D2E/DX2                !
 ! A43   A(7,11,10)            104.1908         estimate D2E/DX2                !
 ! A44   A(7,11,18)            110.987          estimate D2E/DX2                !
 ! A45   A(7,11,19)            110.2649         estimate D2E/DX2                !
 ! A46   A(10,11,18)           113.164          estimate D2E/DX2                !
 ! A47   A(10,11,19)           110.9075         estimate D2E/DX2                !
 ! A48   A(18,11,19)           107.3532         estimate D2E/DX2                !
 ! A49   A(27,12,30)           109.2034         estimate D2E/DX2                !
 ! A50   A(27,12,31)           133.3825         estimate D2E/DX2                !
 ! A51   A(30,12,31)           107.9378         estimate D2E/DX2                !
 ! A52   A(30,13,32)           121.6662         estimate D2E/DX2                !
 ! A53   A(30,13,33)           110.6623         estimate D2E/DX2                !
 ! A54   A(30,13,34)            94.846          estimate D2E/DX2                !
 ! A55   A(32,13,33)           106.851          estimate D2E/DX2                !
 ! A56   A(32,13,34)           117.5938         estimate D2E/DX2                !
 ! A57   A(33,13,34)           103.694          estimate D2E/DX2                !
 ! A58   A(28,14,29)           107.5695         estimate D2E/DX2                !
 ! A59   A(28,14,33)           118.7747         estimate D2E/DX2                !
 ! A60   A(29,14,33)           122.5956         estimate D2E/DX2                !
 ! A61   A(8,26,37)            109.0958         estimate D2E/DX2                !
 ! A62   A(8,26,38)            109.9514         estimate D2E/DX2                !
 ! A63   A(8,26,39)            111.4717         estimate D2E/DX2                !
 ! A64   A(37,26,38)           108.2468         estimate D2E/DX2                !
 ! A65   A(37,26,39)           108.3669         estimate D2E/DX2                !
 ! A66   A(38,26,39)           109.6346         estimate D2E/DX2                !
 ! A67   A(4,27,12)            161.9712         estimate D2E/DX2                !
 ! A68   A(12,30,13)           159.5046         estimate D2E/DX2                !
 ! A69   A(13,34,35)           162.3356         estimate D2E/DX2                !
 ! A70   A(34,35,36)           105.517          estimate D2E/DX2                !
 ! A71   A(31,40,41)           112.9672         estimate D2E/DX2                !
 ! A72   A(31,40,42)           121.342          estimate D2E/DX2                !
 ! A73   A(41,40,42)           102.9348         estimate D2E/DX2                !
 ! A74   L(8,28,14,3,-1)       174.8247         estimate D2E/DX2                !
 ! A75   L(12,31,40,17,-1)     181.1239         estimate D2E/DX2                !
 ! A76   L(13,33,14,1,-1)      167.5419         estimate D2E/DX2                !
 ! A77   L(8,28,14,3,-2)       179.94           estimate D2E/DX2                !
 ! A78   L(12,31,40,17,-2)     195.9424         estimate D2E/DX2                !
 ! A79   L(13,33,14,1,-2)      185.8377         estimate D2E/DX2                !
 ! D1    D(6,1,2,3)              0.1077         estimate D2E/DX2                !
 ! D2    D(6,1,2,7)           -179.299          estimate D2E/DX2                !
 ! D3    D(25,1,2,3)           179.5375         estimate D2E/DX2                !
 ! D4    D(25,1,2,7)             0.1308         estimate D2E/DX2                !
 ! D5    D(2,1,6,5)              0.6502         estimate D2E/DX2                !
 ! D6    D(2,1,6,24)           179.6418         estimate D2E/DX2                !
 ! D7    D(25,1,6,5)          -178.7793         estimate D2E/DX2                !
 ! D8    D(25,1,6,24)            0.2123         estimate D2E/DX2                !
 ! D9    D(1,2,3,4)             -0.2974         estimate D2E/DX2                !
 ! D10   D(1,2,3,22)          -178.9663         estimate D2E/DX2                !
 ! D11   D(7,2,3,4)            179.1164         estimate D2E/DX2                !
 ! D12   D(7,2,3,22)             0.4475         estimate D2E/DX2                !
 ! D13   D(1,2,7,8)            123.3909         estimate D2E/DX2                !
 ! D14   D(1,2,7,11)          -118.2282         estimate D2E/DX2                !
 ! D15   D(1,2,7,21)             3.3394         estimate D2E/DX2                !
 ! D16   D(3,2,7,8)            -55.9946         estimate D2E/DX2                !
 ! D17   D(3,2,7,11)            62.3864         estimate D2E/DX2                !
 ! D18   D(3,2,7,21)          -176.046          estimate D2E/DX2                !
 ! D19   D(2,3,4,5)             -0.3065         estimate D2E/DX2                !
 ! D20   D(2,3,4,27)          -174.5461         estimate D2E/DX2                !
 ! D21   D(22,3,4,5)           178.4579         estimate D2E/DX2                !
 ! D22   D(22,3,4,27)            4.2182         estimate D2E/DX2                !
 ! D23   D(3,4,5,6)              1.0902         estimate D2E/DX2                !
 ! D24   D(3,4,5,23)          -178.42           estimate D2E/DX2                !
 ! D25   D(27,4,5,6)           175.1032         estimate D2E/DX2                !
 ! D26   D(27,4,5,23)           -4.407          estimate D2E/DX2                !
 ! D27   D(3,4,27,12)           46.6331         estimate D2E/DX2                !
 ! D28   D(5,4,27,12)         -127.7692         estimate D2E/DX2                !
 ! D29   D(4,5,6,1)             -1.2323         estimate D2E/DX2                !
 ! D30   D(4,5,6,24)           179.7606         estimate D2E/DX2                !
 ! D31   D(23,5,6,1)           178.2406         estimate D2E/DX2                !
 ! D32   D(23,5,6,24)           -0.7665         estimate D2E/DX2                !
 ! D33   D(2,7,8,9)            169.4379         estimate D2E/DX2                !
 ! D34   D(2,7,8,26)           -67.0597         estimate D2E/DX2                !
 ! D35   D(2,7,8,28)            57.2986         estimate D2E/DX2                !
 ! D36   D(11,7,8,9)            44.4164         estimate D2E/DX2                !
 ! D37   D(11,7,8,26)          167.9188         estimate D2E/DX2                !
 ! D38   D(11,7,8,28)          -67.7229         estimate D2E/DX2                !
 ! D39   D(21,7,8,9)           -71.3985         estimate D2E/DX2                !
 ! D40   D(21,7,8,26)           52.1039         estimate D2E/DX2                !
 ! D41   D(21,7,8,28)          176.4622         estimate D2E/DX2                !
 ! D42   D(2,7,11,10)         -151.8522         estimate D2E/DX2                !
 ! D43   D(2,7,11,18)           86.0358         estimate D2E/DX2                !
 ! D44   D(2,7,11,19)          -32.7911         estimate D2E/DX2                !
 ! D45   D(8,7,11,10)          -28.3104         estimate D2E/DX2                !
 ! D46   D(8,7,11,18)         -150.4224         estimate D2E/DX2                !
 ! D47   D(8,7,11,19)           90.7507         estimate D2E/DX2                !
 ! D48   D(21,7,11,10)          87.4551         estimate D2E/DX2                !
 ! D49   D(21,7,11,18)         -34.6569         estimate D2E/DX2                !
 ! D50   D(21,7,11,19)        -153.4838         estimate D2E/DX2                !
 ! D51   D(7,8,9,10)           -42.884          estimate D2E/DX2                !
 ! D52   D(7,8,9,15)          -165.4416         estimate D2E/DX2                !
 ! D53   D(7,8,9,20)            76.0048         estimate D2E/DX2                !
 ! D54   D(26,8,9,10)         -166.5049         estimate D2E/DX2                !
 ! D55   D(26,8,9,15)           70.9375         estimate D2E/DX2                !
 ! D56   D(26,8,9,20)          -47.616          estimate D2E/DX2                !
 ! D57   D(28,8,9,10)           77.7409         estimate D2E/DX2                !
 ! D58   D(28,8,9,15)          -44.8168         estimate D2E/DX2                !
 ! D59   D(28,8,9,20)         -163.3703         estimate D2E/DX2                !
 ! D60   D(7,8,14,29)          120.4763         estimate D2E/DX2                !
 ! D61   D(7,8,14,33)          -92.4227         estimate D2E/DX2                !
 ! D62   D(9,8,14,29)            8.1778         estimate D2E/DX2                !
 ! D63   D(9,8,14,33)          155.2788         estimate D2E/DX2                !
 ! D64   D(26,8,14,29)        -112.845          estimate D2E/DX2                !
 ! D65   D(26,8,14,33)          34.256          estimate D2E/DX2                !
 ! D66   D(7,8,26,37)         -176.876          estimate D2E/DX2                !
 ! D67   D(7,8,26,38)           64.5578         estimate D2E/DX2                !
 ! D68   D(7,8,26,39)          -57.2397         estimate D2E/DX2                !
 ! D69   D(9,8,26,37)          -59.0216         estimate D2E/DX2                !
 ! D70   D(9,8,26,38)         -177.5878         estimate D2E/DX2                !
 ! D71   D(9,8,26,39)           60.6147         estimate D2E/DX2                !
 ! D72   D(28,8,26,37)          54.4703         estimate D2E/DX2                !
 ! D73   D(28,8,26,38)         -64.0959         estimate D2E/DX2                !
 ! D74   D(28,8,26,39)         174.1065         estimate D2E/DX2                !
 ! D75   D(8,9,10,11)           24.0536         estimate D2E/DX2                !
 ! D76   D(8,9,10,16)          145.4063         estimate D2E/DX2                !
 ! D77   D(8,9,10,17)          -95.0924         estimate D2E/DX2                !
 ! D78   D(15,9,10,11)         144.1104         estimate D2E/DX2                !
 ! D79   D(15,9,10,16)         -94.537          estimate D2E/DX2                !
 ! D80   D(15,9,10,17)          24.9644         estimate D2E/DX2                !
 ! D81   D(20,9,10,11)         -94.2561         estimate D2E/DX2                !
 ! D82   D(20,9,10,16)          27.0965         estimate D2E/DX2                !
 ! D83   D(20,9,10,17)         146.5979         estimate D2E/DX2                !
 ! D84   D(9,10,11,7)            2.5958         estimate D2E/DX2                !
 ! D85   D(9,10,11,18)         123.2606         estimate D2E/DX2                !
 ! D86   D(9,10,11,19)        -116.0271         estimate D2E/DX2                !
 ! D87   D(16,10,11,7)        -118.0795         estimate D2E/DX2                !
 ! D88   D(16,10,11,18)          2.5853         estimate D2E/DX2                !
 ! D89   D(16,10,11,19)        123.2976         estimate D2E/DX2                !
 ! D90   D(17,10,11,7)         122.0848         estimate D2E/DX2                !
 ! D91   D(17,10,11,18)       -117.2503         estimate D2E/DX2                !
 ! D92   D(17,10,11,19)          3.462          estimate D2E/DX2                !
 ! D93   D(30,12,27,4)           1.9466         estimate D2E/DX2                !
 ! D94   D(31,12,27,4)        -139.1225         estimate D2E/DX2                !
 ! D95   D(27,12,30,13)          1.8214         estimate D2E/DX2                !
 ! D96   D(31,12,30,13)        153.1339         estimate D2E/DX2                !
 ! D97   D(27,12,40,41)         21.0317         estimate D2E/DX2                !
 ! D98   D(27,12,40,42)        -97.6943         estimate D2E/DX2                !
 ! D99   D(30,12,40,41)       -123.4978         estimate D2E/DX2                !
 ! D100  D(30,12,40,42)        117.7763         estimate D2E/DX2                !
 ! D101  D(30,13,14,28)        103.9458         estimate D2E/DX2                !
 ! D102  D(30,13,14,29)       -112.9514         estimate D2E/DX2                !
 ! D103  D(32,13,14,28)       -119.656          estimate D2E/DX2                !
 ! D104  D(32,13,14,29)         23.4468         estimate D2E/DX2                !
 ! D105  D(34,13,14,28)          6.63           estimate D2E/DX2                !
 ! D106  D(34,13,14,29)        149.7327         estimate D2E/DX2                !
 ! D107  D(32,13,30,12)        164.6456         estimate D2E/DX2                !
 ! D108  D(33,13,30,12)        -68.727          estimate D2E/DX2                !
 ! D109  D(34,13,30,12)         37.8852         estimate D2E/DX2                !
 ! D110  D(30,13,34,35)        -63.1695         estimate D2E/DX2                !
 ! D111  D(32,13,34,35)        167.1293         estimate D2E/DX2                !
 ! D112  D(33,13,34,35)         49.4832         estimate D2E/DX2                !
 ! D113  D(13,34,35,36)        177.6139         estimate D2E/DX2                !
 --------------------------------------------------------------------------------
 Trust Radius=3.00D-01 FncErr=1.00D-07 GrdErr=1.00D-06 EigMax=2.50D+02 EigMin=1.00D-04
 Number of steps in this run=    246 maximum allowed number of steps=    252.
 GradGradGradGradGradGradGradGradGradGradGradGradGradGradGradGradGradGrad

                          Input orientation:                          
 ---------------------------------------------------------------------
 Center     Atomic      Atomic             Coordinates (Angstroms)
 Number     Number       Type             X           Y           Z
 ---------------------------------------------------------------------
      1          6           0       -0.175302    2.558497    0.349992
      2          6           0        0.273503    1.339553   -0.159601
      3          6           0       -0.675656    0.502593   -0.731068
      4          7           0       -1.963086    0.862341   -0.777487
      5          6           0       -2.415883    2.023020   -0.282963
      6          6           0       -1.523716    2.910449    0.284876
      7          6           0        1.724409    0.928734   -0.087412
      8          7           0        1.920398   -0.356595    0.599578
      9          6           0        3.329230   -0.679078    0.326984
     10          6           0        3.514915   -0.330681   -1.155778
     11          6           0        2.411218    0.714391   -1.448208
     12          8           0       -3.418974   -1.284934   -1.390866
     13          8           0       -1.993248   -2.714185    0.443387
     14          8           0        0.495347   -2.430566   -0.508268
     15          1           0        3.528949   -1.731101    0.564867
     16          1           0        4.518542    0.060803   -1.348710
     17          1           0        3.382563   -1.216212   -1.787387
     18          1           0        2.804416    1.657400   -1.841884
     19          1           0        1.691415    0.328990   -2.180502
     20          1           0        3.988655   -0.060305    0.962227
     21          1           0        2.264939    1.719297    0.468624
     22          1           0       -0.440026   -0.476613   -1.144012
     23          1           0       -3.485837    2.199483   -0.351855
     24          1           0       -1.881466    3.855832    0.684943
     25          1           0        0.536925    3.241268    0.813854
     26          6           0        1.597986   -0.315104    2.023766
     27          1           0       -2.631730    0.145728   -1.141690
     28          1           0        1.051907   -1.715996   -0.088966
     29          1           0        1.088415   -3.126873   -0.798296
     30          1           0       -3.036651   -1.968826   -0.805179
     31          1           0       -3.758011   -1.722753   -2.174267
     32          1           0       -2.196180   -3.572599    0.823221
     33          1           0       -1.057477   -2.751213    0.137575
     34          1           0       -2.028901   -1.197340    1.610497
     35          8           0       -1.911291   -0.302488    1.968509
     36          1           0       -2.322580   -0.316728    2.835579
     37          1           0        1.822684   -1.290505    2.470923
     38          1           0        0.528382   -0.113163    2.159674
     39          1           0        2.190996    0.454332    2.550494
     40          8           0       -4.480719   -2.139732   -3.864233
     41          1           0       -4.046382   -1.661770   -4.591008
     42          1           0       -5.425339   -2.014018   -4.055055
 ---------------------------------------------------------------------
                    Distance matrix (angstroms):
                    1          2          3          4          5
     1  C    0.000000
     2  C    1.395326   0.000000
     3  C    2.376086   1.388517   0.000000
     4  N    2.710042   2.368933   1.337553   0.000000
     5  C    2.389052   2.777615   2.353909   1.340431   0.000000
     6  C    1.395110   2.428018   2.747566   2.348703   1.380555
     7  C    2.540935   1.509673   2.521151   3.752097   4.286924
     8  N    3.598891   2.483049   3.041105   4.296925   5.024418
     9  C    4.771181   3.694469   4.307544   5.621782   6.378063
    10  C    4.922641   3.780053   4.293671   5.619155   6.440192
    11  C    3.650251   2.573162   3.176152   4.427899   5.135291
    12  O    5.322026   4.694500   3.340117   2.665827   3.629904
    13  O    5.578066   4.683433   3.669203   3.779283   4.811166
    14  O    5.106577   3.792701   3.166119   4.118204   5.325453
    15  H    5.671710   4.533398   4.934323   6.220153   7.081897
    16  H    5.581777   4.590157   5.249415   6.555933   7.285078
    17  H    5.610278   4.341414   4.532024   5.823765   6.810132
    18  H    3.807232   3.055589   3.831239   4.949155   5.460351
    19  H    3.854703   2.667537   2.781011   3.950733   4.831179
    20  H    4.956964   4.125585   4.993986   6.269059   6.849003
    21  H    2.583236   2.122425   3.400989   4.490363   4.750497
    22  H    3.393231   2.185554   1.088526   2.060789   3.300543
    23  H    3.403105   3.861228   3.304596   2.070720   1.086594
    24  H    2.169393   3.418890   3.834485   3.332619   2.140477
    25  H    1.090235   2.152563   3.370086   3.800226   3.377308
    26  C    3.768773   3.042899   3.664313   4.681306   5.186421
    27  H    3.752414   3.290911   2.030317   1.045592   2.075627
    28  H    4.468782   3.153931   2.884251   4.026421   5.103278
    29  H    5.936243   4.584864   4.036024   5.022541   6.250366
    30  H    5.478904   4.724327   3.418728   3.028005   4.073438
    31  H    6.126727   5.448826   4.066436   3.443176   4.405582
    32  H    6.472884   5.585205   4.618982   4.720730   5.708140
    33  H    5.386685   4.312098   3.389333   3.836045   4.981508
    34  H    4.373901   3.856182   3.194365   3.154217   3.755751
    35  O    3.717323   3.463882   3.076145   2.983287   3.275931
    36  H    4.365302   4.295814   4.013056   3.817550   3.899799
    37  H    4.827537   4.029494   4.439555   5.433136   6.043905
    38  H    3.302709   2.748524   3.191434   3.973152   4.381604
    39  H    3.856045   3.435842   4.357599   5.338382   5.631394
    40  O    7.640004   6.959335   5.592594   4.987877   5.866647
    41  H    7.563689   6.877988   5.562859   5.025356   5.898767
    42  H    8.238642   7.674491   6.319946   5.568042   6.291517
                    6          7          8          9         10
     6  C    0.000000
     7  C    3.823102   0.000000
     8  N    4.757577   1.470523   0.000000
     9  C    6.036353   2.309163   1.470752   0.000000
    10  C    6.161835   2.435866   2.371588   1.534419   0.000000
    11  C    4.828039   1.539291   2.362487   2.436351   1.547849
    12  O    4.899118   5.749235   5.773437   6.989730   7.003191
    13  O    5.646423   5.231977   4.571570   5.699472   6.211142
    14  O    5.764732   3.601751   2.749445   3.434567   3.734512
    15  H    6.866717   3.279719   2.116107   1.096918   2.218556
    16  H    6.877352   3.186119   3.274202   2.183996   1.094417
    17  H    6.737594   3.200029   2.928220   2.182183   1.095724
    18  H    4.982566   2.185301   3.286092   3.230874   2.219914
    19  H    4.804070   2.177569   2.872508   3.160083   2.193257
    20  H    6.298446   2.684539   2.120611   1.105104   2.187116
    21  H    3.975741   1.107402   2.108361   2.627733   2.898885
    22  H    3.832531   2.788581   2.937024   4.051187   3.957650
    23  H    2.181930   5.369488   6.055257   7.429137   7.487226
    24  H    1.087101   4.708160   5.675033   6.917001   7.073618
    25  H    2.153021   2.751402   3.860639   4.837677   5.050415
    26  C    4.813829   2.453607   1.460816   2.451276   3.712729
    27  H    3.302494   4.549785   4.899613   6.194381   6.165096
    28  H    5.308256   2.728893   1.753950   2.536615   3.020529
    29  H    6.666764   4.166268   3.212583   3.504170   3.719460
    30  H    5.223458   5.619496   5.398608   6.593154   6.762356
    31  H    5.701405   6.437568   6.465673   7.587786   7.474666
    32  H    6.540026   6.038400   5.228663   6.256906   6.858795
    33  H    5.682736   4.618606   3.849075   4.855185   5.332777
    34  H    4.345850   4.635776   4.162424   5.534037   6.255979
    35  O    3.647986   4.354427   4.069243   5.504497   6.261444
    36  H    4.190339   5.145209   4.796264   6.194135   7.071596
    37  H    5.798725   3.388179   2.093721   2.690724   4.115564
    38  H    4.107092   2.750532   2.104963   3.394667   4.467540
    39  H    4.996461   2.720535   2.130000   2.743026   4.013161
    40  O    7.173793   7.885650   8.004966   8.983046   8.633571
    41  H    7.144458   7.764993   8.015493   8.919192   8.411054
    42  H    7.635970   8.690275   8.852826   9.880628   9.548172
                   11         12         13         14         15
    11  C    0.000000
    12  O    6.163743   0.000000
    13  O    5.893436   2.727625   0.000000
    14  O    3.800632   4.172932   2.679401   0.000000
    15  H    3.358902   7.231707   5.610336   3.292964   0.000000
    16  H    2.208595   8.050897   7.301752   4.806179   2.802140
    17  H    2.187643   6.813432   6.009960   3.383315   2.412393
    18  H    1.094921   6.898647   6.881192   4.880758   4.218926
    19  H    1.096770   5.417043   5.451830   3.441234   3.893271
    20  H    2.983062   7.868274   6.564712   4.470312   1.777859
    21  H    2.169211   6.692531   6.147240   4.615965   3.675899
    22  H    3.104934   3.096522   3.152628   2.257659   4.499641
    23  H    6.179219   3.636644   5.196572   6.108326   8.093027
    24  H    5.731154   5.753294   6.575406   6.825818   7.778228
    25  H    3.874920   6.402846   6.481238   5.824040   5.808499
    26  C    3.711578   6.145744   4.598929   3.478820   2.803935
    27  H    5.084157   1.651858   3.331551   4.100869   6.662491
    28  H    3.098717   4.676487   3.248500   0.998090   2.561926
    29  H    4.114305   4.905144   3.347945   0.959526   3.124516
    30  H    6.106752   0.978217   1.789739   3.574405   6.711233
    31  H    6.672797   0.959348   3.308994   4.622511   7.784774
    32  H    6.690724   3.410398   0.960380   3.212697   6.019548
    33  H    5.153345   3.172188   0.985170   1.712072   4.717893
    34  H    5.720581   3.308800   1.914219   3.518784   5.680488
    35  O    5.602864   3.810998   2.854645   4.056482   5.797185
    36  H    6.467061   4.472398   3.402770   4.856988   6.434048
    37  H    4.441348   6.510639   4.549627   3.455017   2.595865
    38  H    4.152918   5.437003   4.008687   3.534029   3.763580
    39  H    4.013196   7.073269   5.655731   4.533639   3.241751
    40  O    7.841045   2.824097   5.007304   6.009020   9.161806
    41  H    7.564650   3.282767   5.537876   6.155252   9.163706
    42  H    8.697787   3.413938   5.701357   6.914314  10.079832
                   16         17         18         19         20
    16  H    0.000000
    17  H    1.764555   0.000000
    18  H    2.393861   2.931701   0.000000
    19  H    2.959130   2.324257   1.765816   0.000000
    20  H    2.374000   3.043657   3.495135   3.912238   0.000000
    21  H    3.336470   3.867284   2.373460   3.046269   2.526227
    22  H    4.991805   3.946280   3.945560   2.503268   4.921663
    23  H    8.344924   7.804015   6.487012   5.800572   7.918427
    24  H    7.713501   7.716738   5.759813   5.780560   7.061964
    25  H    5.535821   5.893491   3.834462   4.333633   4.778791
    26  C    4.477114   4.303673   4.504386   4.254345   2.628134
    27  H    7.153772   6.200284   5.685693   4.449977   6.949706
    28  H    4.094084   2.926837   4.186145   2.994238   3.531403
    29  H    4.714871   3.145162   5.188738   3.770556   4.573256
    30  H    7.841923   6.537390   6.952865   5.433791   7.491402
    31  H    8.506700   7.168965   7.389273   5.822880   8.521277
    32  H    7.937656   6.594711   7.711137   6.273607   7.113910
    33  H    6.419382   5.076974   6.186141   4.734716   5.777931
    34  H    7.294439   6.389829   6.590101   5.526491   6.158253
    35  O    7.244217   6.554886   6.371668   5.531053   5.990043
    36  H    8.028185   7.397942   7.215395   6.456793   6.588390
    37  H    4.866547   4.535631   5.315472   4.927043   2.912213
    38  H    5.316051   4.994232   4.932311   4.515005   3.661989
    39  H    4.558084   4.798725   4.595285   4.758951   2.453369
    40  O    9.599839   8.185193   8.460573   6.857461   9.967398
    41  H    9.318674   7.952864   8.093702   6.534216   9.897724
    42  H   10.512372   9.130058   9.279348   7.723460  10.844971
                   21         22         23         24         25
    21  H    0.000000
    22  H    3.839199   0.000000
    23  H    5.828824   4.131098   0.000000
    24  H    4.669502   4.918628   2.528329   0.000000
    25  H    2.328435   4.313967   4.315879   2.498584   0.000000
    26  C    2.646144   3.770198   6.149145   5.594260   3.903527
    27  H    5.389490   2.278350   2.360349   4.202899   4.842199
    28  H    3.685592   2.207953   5.999267   6.344200   5.065052
    29  H    5.145353   3.078884   7.035137   7.731647   6.592146
    30  H    6.582680   3.013962   4.216879   6.122218   6.522024
    31  H    7.423510   3.690977   4.333497   6.543479   7.212271
    32  H    6.930475   4.066843   6.030004   7.436380   7.341576
    33  H    5.579740   2.682819   5.535871   6.680690   6.237732
    34  H    5.314857   3.260566   4.184722   5.139352   5.188386
    35  O    4.876286   3.447133   3.758077   4.352018   4.459282
    36  H    5.549162   4.405306   4.224242   4.714878   4.992342
    37  H    3.641936   4.341662   6.951869   6.587506   4.993598
    38  H    3.038616   3.461828   5.269731   4.871870   3.614348
    39  H    2.437168   4.630152   6.610266   5.624538   3.676803
    40  O    8.897733   5.147112   5.670571   7.962280   8.718739
    41  H    8.767227   5.127591   5.761415   7.935140   8.617367
    42  H    9.671696   5.974206   5.935398   8.335572   9.320563
                   26         27         28         29         30
    26  C    0.000000
    27  H    5.303110   0.000000
    28  H    2.593133   4.259510   0.000000
    29  H    4.016185   4.966620   1.579575   0.000000
    30  H    5.676054   2.179114   4.158508   4.284541   0.000000
    31  H    6.949220   2.413700   5.242503   5.229980   1.566944
    32  H    5.142789   4.228065   3.850861   3.690061   2.435193
    33  H    4.067410   3.536532   2.360613   2.371039   2.327669
    34  H    3.755455   3.121181   3.556481   4.386689   2.728780
    35  O    3.509735   3.223859   3.874500   4.962922   3.425852
    36  H    4.003733   4.015982   4.679538   5.721612   4.061335
    37  H    1.096287   5.912321   2.707060   3.820889   5.899670
    38  H    1.096952   4.577372   2.810611   4.259774   4.994327
    39  H    1.105050   6.081624   3.602027   5.025446   6.667873
    40  O    8.657277   4.006785   6.711344   6.433480   3.387086
    41  H    8.799298   4.143198   6.801756   6.549606   3.930184
    42  H    9.442747   4.577822   7.600882   7.367084   4.033556
                   31         32         33         34         35
    31  H    0.000000
    32  H    3.853074   0.000000
    33  H    3.700706   1.562508   0.000000
    34  H    4.194081   2.507916   2.351103   0.000000
    35  O    4.752907   3.476560   3.174519   0.970961   0.000000
    36  H    5.397770   3.829655   3.847912   1.537059   0.959777
    37  H    7.273843   4.906541   3.984157   3.947622   3.895018
    38  H    6.304521   4.601852   3.682817   2.831383   2.454464
    39  H    7.902768   6.200561   5.162390   4.628082   4.211917
    40  O    1.884718   5.407813   5.301600   6.072247   6.633122
    41  H    2.434649   6.032280   5.699118   6.537935   7.030898
    42  H    2.530254   6.054274   6.099166   6.655918   7.180613
                   36         37         38         39         40
    36  H    0.000000
    37  H    4.273690   0.000000
    38  H    2.937051   1.777140   0.000000
    39  H    4.587829   1.785061   1.799743   0.000000
    40  O    7.271065   8.977097   8.092313   9.611954   0.000000
    41  H    7.741759   9.189921   8.300504   9.715134   0.972265
    42  H    7.745241   9.779862   8.813791  10.379528   0.971867
                   41         42
    41  H    0.000000
    42  H    1.520805   0.000000
 Stoichiometry    C10H25N2O5(1+)
 Framework group  C1[X(C10H25N2O5)]
 Deg. of freedom   120
 Full point group                 C1      NOp   1
 Largest Abelian subgroup         C1      NOp   1
 Largest concise Abelian subgroup C1      NOp   1
                         Standard orientation:                         
 ---------------------------------------------------------------------
 Center     Atomic      Atomic             Coordinates (Angstroms)
 Number     Number       Type             X           Y           Z
 ---------------------------------------------------------------------
      1          6           0        0.899719    2.610496   -0.367428
      2          6           0        0.909655    1.223373   -0.518176
      3          6           0       -0.320377    0.580202   -0.554658
      4          7           0       -1.457494    1.275489   -0.442444
      5          6           0       -1.487904    2.606285   -0.284927
      6          6           0       -0.301388    3.311488   -0.256610
      7          6           0        2.195912    0.440221   -0.624605
      8          7           0        2.310865   -0.610575    0.397673
      9          6           0        3.474413   -1.393436   -0.045492
     10          6           0        3.281568   -1.528689   -1.561724
     11          6           0        2.387289   -0.325267   -1.946277
     12          8           0       -3.448393   -0.431868    0.034928
     13          8           0       -1.878378   -1.665943    1.892897
     14          8           0        0.217655   -2.393233    0.390602
     15          1           0        3.508998   -2.352602    0.485575
     16          1           0        4.241884   -1.516363   -2.086500
     17          1           0        2.784335   -2.472401   -1.812282
     18          1           0        2.835858    0.317830   -2.710517
     19          1           0        1.418516   -0.665075   -2.332171
     20          1           0        4.407422   -0.848089    0.185478
     21          1           0        3.030942    1.156627   -0.498804
     22          1           0       -0.429806   -0.498407   -0.652209
     23          1           0       -2.467763    3.063587   -0.177981
     24          1           0       -0.316666    4.391451   -0.133183
     25          1           0        1.844638    3.152772   -0.326469
     26          6           0        2.441245   -0.093454    1.757661
     27          1           0       -2.339427    0.716286   -0.390007
     28          1           0        1.011074   -1.788130    0.413407
     29          1           0        0.537281   -3.284154    0.233163
     30          1           0       -3.063002   -1.013161    0.720844
     31          1           0       -4.088678   -0.945311   -0.461822
     32          1           0       -2.135966   -2.291050    2.574967
     33          1           0       -1.105113   -2.057133    1.424291
     34          1           0       -1.245803    0.050577    2.456498
     35          8           0       -0.841398    0.933312    2.456408
     36          1           0       -0.970628    1.275031    3.343932
     37          1           0        2.577265   -0.933197    2.449163
     38          1           0        1.527764    0.442392    2.043540
     39          1           0        3.312020    0.580262    1.852490
     40          8           0       -5.350557   -1.571730   -1.713790
     41          1           0       -5.060465   -1.457090   -2.634661
     42          1           0       -6.260498   -1.230669   -1.728295
 ---------------------------------------------------------------------
 Rotational constants (GHZ):           0.4643566           0.2574360           0.2259810
 Standard basis: Aug-CC-pVDZ (5D, 7F)
 There are   650 symmetry adapted cartesian basis functions of A   symmetry.
 There are   616 symmetry adapted basis functions of A   symmetry.
   616 basis functions,  1006 primitive gaussians,   650 cartesian basis functions
    69 alpha electrons       69 beta electrons
       nuclear repulsion energy      1396.1902086473 Hartrees.
 NAtoms=   42 NActive=   42 NUniq=   42 SFac= 1.00D+00 NAtFMM=   60 NAOKFM=F Big=F
 Integral buffers will be    131072 words long.
 Raffenetti 2 integral format.
 Two-electron integral symmetry is turned on.
 Nuclear repulsion after empirical dispersion term =     1396.1562614970 Hartrees.
 One-electron integrals computed using PRISM.
 NBasis=   616 RedAO= T EigKep=  1.72D-06  NBF=   616
 NBsUse=   616 1.00D-06 EigRej= -1.00D+00 NBFU=   616
 ExpMin= 2.97D-02 ExpMax= 1.17D+04 ExpMxC= 4.01D+02 IAcc=3 IRadAn=         5 AccDes= 0.00D+00
 Harris functional with IExCor= 4639 and IRadAn=       5 diagonalized for initial guess.
 HarFok:  IExCor= 4639 AccDes= 0.00D+00 IRadAn=         5 IDoV= 1 UseB2=F ITyADJ=14
 ICtDFT=  3500011 ScaDFX=  1.000000  1.000000  1.000000  1.000000
 FoFCou: FMM=F IPFlag=           0 FMFlag=      100000 FMFlg1=           0
         NFxFlg=           0 DoJE=T BraDBF=F KetDBF=T FulRan=T
         wScrn=  0.000000 ICntrl=       500 IOpCl=  0 I1Cent=   200000004 NGrid=           0
         NMat0=    1 NMatS0=      1 NMatT0=    0 NMatD0=    1 NMtDS0=    0 NMtDT0=    0
 Petite list used in FoFCou.
 Requested convergence on RMS density matrix=1.00D-08 within 128 cycles.
 Requested convergence on MAX density matrix=1.00D-06.
 Requested convergence on             energy=1.00D-06.
 No special actions if energy rises.
 SCF Done:  E(RwB97XD) =  -881.468886394     A.U. after   16 cycles
            NFock= 16  Conv=0.16D-08     -V/T= 2.0062

 **********************************************************************

            Population analysis using the SCF density.

 **********************************************************************

 Orbital symmetries:
       Occupied  (A) (A) (A) (A) (A) (A) (A) (A) (A) (A) (A) (A)
                 (A) (A) (A) (A) (A) (A) (A) (A) (A) (A) (A) (A)
                 (A) (A) (A) (A) (A) (A) (A) (A) (A) (A) (A) (A)
                 (A) (A) (A) (A) (A) (A) (A) (A) (A) (A) (A) (A)
                 (A) (A) (A) (A) (A) (A) (A) (A) (A) (A) (A) (A)
                 (A) (A) (A) (A) (A) (A) (A) (A) (A)
       Virtual   (A) (A) (A) (A) (A) (A) (A) (A) (A) (A) (A) (A)
                 (A) (A) (A) (A) (A) (A) (A) (A) (A) (A) (A) (A)
                 (A) (A) (A) (A) (A) (A) (A) (A) (A) (A) (A) (A)
                 (A) (A) (A) (A) (A) (A) (A) (A) (A) (A) (A) (A)
                 (A) (A) (A) (A) (A) (A) (A) (A) (A) (A) (A) (A)
                 (A) (A) (A) (A) (A) (A) (A) (A) (A) (A) (A) (A)
                 (A) (A) (A) (A) (A) (A) (A) (A) (A) (A) (A) (A)
                 (A) (A) (A) (A) (A) (A) (A) (A) (A) (A) (A) (A)
                 (A) (A) (A) (A) (A) (A) (A) (A) (A) (A) (A) (A)
                 (A) (A) (A) (A) (A) (A) (A) (A) (A) (A) (A) (A)
                 (A) (A) (A) (A) (A) (A) (A) (A) (A) (A) (A) (A)
                 (A) (A) (A) (A) (A) (A) (A) (A) (A) (A) (A) (A)
                 (A) (A) (A) (A) (A) (A) (A) (A) (A) (A) (A) (A)
                 (A) (A) (A) (A) (A) (A) (A) (A) (A) (A) (A) (A)
                 (A) (A) (A) (A) (A) (A) (A) (A) (A) (A) (A) (A)
                 (A) (A) (A) (A) (A) (A) (A) (A) (A) (A) (A) (A)
                 (A) (A) (A) (A) (A) (A) (A) (A) (A) (A) (A) (A)
                 (A) (A) (A) (A) (A) (A) (A) (A) (A) (A) (A) (A)
                 (A) (A) (A) (A) (A) (A) (A) (A) (A) (A) (A) (A)
                 (A) (A) (A) (A) (A) (A) (A) (A) (A) (A) (A) (A)
                 (A) (A) (A) (A) (A) (A) (A) (A) (A) (A) (A) (A)
                 (A) (A) (A) (A) (A) (A) (A) (A) (A) (A) (A) (A)
                 (A) (A) (A) (A) (A) (A) (A) (A) (A) (A) (A) (A)
                 (A) (A) (A) (A) (A) (A) (A) (A) (A) (A) (A) (A)
                 (A) (A) (A) (A) (A) (A) (A) (A) (A) (A) (A) (A)
                 (A) (A) (A) (A) (A) (A) (A) (A) (A) (A) (A) (A)
                 (A) (A) (A) (A) (A) (A) (A) (A) (A) (A) (A) (A)
                 (A) (A) (A) (A) (A) (A) (A) (A) (A) (A) (A) (A)
                 (A) (A) (A) (A) (A) (A) (A) (A) (A) (A) (A) (A)
                 (A) (A) (A) (A) (A) (A) (A) (A) (A) (A) (A) (A)
                 (A) (A) (A) (A) (A) (A) (A) (A) (A) (A) (A) (A)
                 (A) (A) (A) (A) (A) (A) (A) (A) (A) (A) (A) (A)
                 (A) (A) (A) (A) (A) (A) (A) (A) (A) (A) (A) (A)
                 (A) (A) (A) (A) (A) (A) (A) (A) (A) (A) (A) (A)
                 (A) (A) (A) (A) (A) (A) (A) (A) (A) (A) (A) (A)
                 (A) (A) (A) (A) (A) (A) (A) (A) (A) (A) (A) (A)
                 (A) (A) (A) (A) (A) (A) (A) (A) (A) (A) (A) (A)
                 (A) (A) (A) (A) (A) (A) (A) (A) (A) (A) (A) (A)
                 (A) (A) (A) (A) (A) (A) (A) (A) (A) (A) (A) (A)
                 (A) (A) (A) (A) (A) (A) (A) (A) (A) (A) (A) (A)
                 (A) (A) (A) (A) (A) (A) (A) (A) (A) (A) (A) (A)
                 (A) (A) (A) (A) (A) (A) (A) (A) (A) (A) (A) (A)
                 (A) (A) (A) (A) (A) (A) (A) (A) (A) (A) (A) (A)
                 (A) (A) (A) (A) (A) (A) (A) (A) (A) (A) (A) (A)
                 (A) (A) (A) (A) (A) (A) (A) (A) (A) (A) (A) (A)
                 (A) (A) (A) (A) (A) (A) (A)
 The electronic state is 1-A.
 Alpha  occ. eigenvalues --  -19.39248 -19.39083 -19.38421 -19.36619 -19.36433
 Alpha  occ. eigenvalues --  -14.66304 -14.57663 -10.49882 -10.49499 -10.46736
 Alpha  occ. eigenvalues --  -10.46176 -10.45842 -10.45728 -10.43106 -10.41960
 Alpha  occ. eigenvalues --  -10.41186 -10.40380  -1.24756  -1.23853  -1.23013
 Alpha  occ. eigenvalues --   -1.22236  -1.20844  -1.20491  -1.16976  -1.07282
 Alpha  occ. eigenvalues --   -1.03666  -1.00076  -0.95336  -0.89631  -0.88971
 Alpha  occ. eigenvalues --   -0.87942  -0.81711  -0.79382  -0.79064  -0.74925
 Alpha  occ. eigenvalues --   -0.73946  -0.73821  -0.73251  -0.72697  -0.72265
 Alpha  occ. eigenvalues --   -0.71618  -0.70370  -0.69061  -0.67861  -0.66955
 Alpha  occ. eigenvalues --   -0.65020  -0.63894  -0.63195  -0.62559  -0.61183
 Alpha  occ. eigenvalues --   -0.60932  -0.59828  -0.58415  -0.58264  -0.57524
 Alpha  occ. eigenvalues --   -0.56603  -0.56508  -0.55813  -0.55086  -0.53561
 Alpha  occ. eigenvalues --   -0.52703  -0.52338  -0.51952  -0.51743  -0.51583
 Alpha  occ. eigenvalues --   -0.50670  -0.49667  -0.48153  -0.44107
 Alpha virt. eigenvalues --   -0.12716  -0.09932  -0.06205  -0.05108  -0.04988
 Alpha virt. eigenvalues --   -0.04444  -0.03581  -0.03099  -0.02729  -0.02630
 Alpha virt. eigenvalues --   -0.02094  -0.01384  -0.01143  -0.00490  -0.00382
 Alpha virt. eigenvalues --    0.00076   0.00376   0.00703   0.00802   0.01351
 Alpha virt. eigenvalues --    0.01810   0.02112   0.02465   0.02812   0.03141
 Alpha virt. eigenvalues --    0.03349   0.03600   0.03675   0.04139   0.04543
 Alpha virt. eigenvalues --    0.04779   0.05040   0.05183   0.05739   0.05767
 Alpha virt. eigenvalues --    0.06126   0.06519   0.06712   0.06948   0.07167
 Alpha virt. eigenvalues --    0.07393   0.07720   0.08049   0.08356   0.08581
 Alpha virt. eigenvalues --    0.09007   0.09420   0.09602   0.09725   0.10139
 Alpha virt. eigenvalues --    0.10450   0.10454   0.10861   0.11182   0.11421
 Alpha virt. eigenvalues --    0.11784   0.12115   0.12172   0.12304   0.12841
 Alpha virt. eigenvalues --    0.13244   0.13789   0.13925   0.14046   0.14183
 Alpha virt. eigenvalues --    0.14664   0.14911   0.15369   0.15544   0.15790
 Alpha virt. eigenvalues --    0.16188   0.16400   0.16488   0.16842   0.17179
 Alpha virt. eigenvalues --    0.17284   0.17501   0.17721   0.18031   0.18291
 Alpha virt. eigenvalues --    0.18674   0.19054   0.19227   0.19419   0.19605
 Alpha virt. eigenvalues --    0.19779   0.20142   0.20467   0.20877   0.21065
 Alpha virt. eigenvalues --    0.21257   0.21505   0.21693   0.22139   0.22399
 Alpha virt. eigenvalues --    0.22883   0.23016   0.23242   0.24098   0.24198
 Alpha virt. eigenvalues --    0.24538   0.25162   0.25392   0.25498   0.25744
 Alpha virt. eigenvalues --    0.25997   0.26313   0.26716   0.26924   0.27254
 Alpha virt. eigenvalues --    0.27504   0.27751   0.27996   0.28114   0.28990
 Alpha virt. eigenvalues --    0.29158   0.29354   0.29860   0.30015   0.31023
 Alpha virt. eigenvalues --    0.31384   0.31526   0.31745   0.32154   0.32593
 Alpha virt. eigenvalues --    0.32664   0.33494   0.33989   0.34166   0.34552
 Alpha virt. eigenvalues --    0.35281   0.35438   0.35940   0.36393   0.36841
 Alpha virt. eigenvalues --    0.37108   0.37397   0.37914   0.38343   0.38676
 Alpha virt. eigenvalues --    0.38936   0.39317   0.39430   0.39802   0.40459
 Alpha virt. eigenvalues --    0.40593   0.40718   0.41346   0.42017   0.42237
 Alpha virt. eigenvalues --    0.42785   0.43006   0.43205   0.44053   0.44323
 Alpha virt. eigenvalues --    0.44684   0.44840   0.45152   0.45602   0.46002
 Alpha virt. eigenvalues --    0.46334   0.46670   0.46801   0.47325   0.48099
 Alpha virt. eigenvalues --    0.48549   0.48777   0.48844   0.49581   0.49673
 Alpha virt. eigenvalues --    0.49976   0.50556   0.50666   0.51033   0.51598
 Alpha virt. eigenvalues --    0.51998   0.52289   0.52472   0.52618   0.52923
 Alpha virt. eigenvalues --    0.53338   0.53804   0.54149   0.54459   0.54804
 Alpha virt. eigenvalues --    0.55332   0.55937   0.56297   0.56508   0.56889
 Alpha virt. eigenvalues --    0.57029   0.57426   0.57983   0.58092   0.58517
 Alpha virt. eigenvalues --    0.59136   0.59613   0.59752   0.60498   0.60752
 Alpha virt. eigenvalues --    0.61259   0.61521   0.61865   0.62137   0.62467
 Alpha virt. eigenvalues --    0.63028   0.63727   0.64102   0.64323   0.64650
 Alpha virt. eigenvalues --    0.65355   0.66194   0.66314   0.66453   0.67117
 Alpha virt. eigenvalues --    0.67223   0.67393   0.68524   0.68676   0.69114
 Alpha virt. eigenvalues --    0.69713   0.70002   0.70095   0.70286   0.70732
 Alpha virt. eigenvalues --    0.71143   0.72077   0.72455   0.73234   0.73332
 Alpha virt. eigenvalues --    0.73563   0.74027   0.74209   0.74810   0.74983
 Alpha virt. eigenvalues --    0.75422   0.76224   0.77015   0.77448   0.77761
 Alpha virt. eigenvalues --    0.78407   0.79114   0.79761   0.80274   0.80509
 Alpha virt. eigenvalues --    0.80740   0.81513   0.81873   0.82964   0.83309
 Alpha virt. eigenvalues --    0.83665   0.84192   0.84515   0.84768   0.85472
 Alpha virt. eigenvalues --    0.85876   0.87214   0.87483   0.88131   0.88854
 Alpha virt. eigenvalues --    0.89692   0.90236   0.90481   0.90931   0.91163
 Alpha virt. eigenvalues --    0.92290   0.92810   0.93561   0.94099   0.94204
 Alpha virt. eigenvalues --    0.95185   0.96114   0.96402   0.97416   0.97783
 Alpha virt. eigenvalues --    0.98279   0.98892   0.99490   1.00081   1.01183
 Alpha virt. eigenvalues --    1.01327   1.01963   1.03231   1.04123   1.04438
 Alpha virt. eigenvalues --    1.05065   1.05630   1.06628   1.07104   1.08365
 Alpha virt. eigenvalues --    1.09100   1.10067   1.10725   1.11385   1.11741
 Alpha virt. eigenvalues --    1.12635   1.12941   1.13521   1.14245   1.14698
 Alpha virt. eigenvalues --    1.15671   1.16399   1.17350   1.17864   1.18811
 Alpha virt. eigenvalues --    1.19195   1.19858   1.20352   1.21327   1.21596
 Alpha virt. eigenvalues --    1.21997   1.23233   1.24646   1.25164   1.26563
 Alpha virt. eigenvalues --    1.26988   1.27992   1.29036   1.29448   1.30522
 Alpha virt. eigenvalues --    1.31549   1.31937   1.32711   1.33196   1.33431
 Alpha virt. eigenvalues --    1.34866   1.35255   1.35732   1.36589   1.36976
 Alpha virt. eigenvalues --    1.38430   1.39128   1.39716   1.41388   1.42900
 Alpha virt. eigenvalues --    1.43249   1.44448   1.44582   1.45885   1.46710
 Alpha virt. eigenvalues --    1.47623   1.47906   1.49029   1.50476   1.51029
 Alpha virt. eigenvalues --    1.51437   1.53508   1.54103   1.55283   1.55587
 Alpha virt. eigenvalues --    1.55799   1.56196   1.58816   1.59516   1.60437
 Alpha virt. eigenvalues --    1.61249   1.61650   1.62790   1.63334   1.63850
 Alpha virt. eigenvalues --    1.65114   1.65148   1.65985   1.66835   1.67777
 Alpha virt. eigenvalues --    1.67889   1.68556   1.68873   1.70698   1.71583
 Alpha virt. eigenvalues --    1.72268   1.72733   1.73269   1.73666   1.73753
 Alpha virt. eigenvalues --    1.74322   1.74601   1.76964   1.77252   1.79127
 Alpha virt. eigenvalues --    1.80204   1.80703   1.81149   1.81508   1.82480
 Alpha virt. eigenvalues --    1.82782   1.83159   1.83734   1.84304   1.86110
 Alpha virt. eigenvalues --    1.86827   1.87179   1.87800   1.88245   1.89196
 Alpha virt. eigenvalues --    1.89990   1.91123   1.91822   1.92533   1.92816
 Alpha virt. eigenvalues --    1.93919   1.94242   1.95169   1.95449   1.96450
 Alpha virt. eigenvalues --    1.96833   1.97498   1.97792   1.99278   2.00025
 Alpha virt. eigenvalues --    2.00239   2.00942   2.01419   2.01651   2.02380
 Alpha virt. eigenvalues --    2.04254   2.04856   2.05665   2.06277   2.07092
 Alpha virt. eigenvalues --    2.08814   2.09044   2.09368   2.10733   2.11799
 Alpha virt. eigenvalues --    2.12381   2.12883   2.13303   2.14026   2.15304
 Alpha virt. eigenvalues --    2.15910   2.16323   2.16999   2.18755   2.18878
 Alpha virt. eigenvalues --    2.19179   2.21378   2.23237   2.23901   2.25211
 Alpha virt. eigenvalues --    2.25397   2.25890   2.27909   2.28224   2.28745
 Alpha virt. eigenvalues --    2.29061   2.29664   2.30521   2.32112   2.33198
 Alpha virt. eigenvalues --    2.33553   2.35032   2.35852   2.36317   2.37716
 Alpha virt. eigenvalues --    2.40649   2.40903   2.42009   2.43561   2.44386
 Alpha virt. eigenvalues --    2.44542   2.45354   2.46909   2.47268   2.48300
 Alpha virt. eigenvalues --    2.50195   2.50608   2.51604   2.53145   2.53900
 Alpha virt. eigenvalues --    2.55369   2.56913   2.57410   2.58200   2.58357
 Alpha virt. eigenvalues --    2.59534   2.61473   2.62740   2.62930   2.64665
 Alpha virt. eigenvalues --    2.65417   2.67090   2.67743   2.69166   2.69320
 Alpha virt. eigenvalues --    2.70813   2.71561   2.74421   2.76540   2.76719
 Alpha virt. eigenvalues --    2.77214   2.78018   2.80015   2.80915   2.81104
 Alpha virt. eigenvalues --    2.83606   2.84189   2.86285   2.87449   2.87725
 Alpha virt. eigenvalues --    2.88999   2.91345   2.93430   2.95243   2.97204
 Alpha virt. eigenvalues --    2.98600   3.00104   3.01659   3.05165   3.06541
 Alpha virt. eigenvalues --    3.11656   3.13894   3.19832   3.23282   3.25239
 Alpha virt. eigenvalues --    3.31803   3.32329   3.33617   3.39382   3.40599
 Alpha virt. eigenvalues --    3.42918   3.44174   3.44940   3.46368   3.47048
 Alpha virt. eigenvalues --    3.49564   3.50265   3.51448   3.54778   3.55754
 Alpha virt. eigenvalues --    3.57391   3.60139   3.63171   3.67865   3.70489
 Alpha virt. eigenvalues --    3.76128   3.81440   3.86423   3.88517   3.91720
 Alpha virt. eigenvalues --    3.96067   4.03571   4.04138   4.10763   4.13069
 Alpha virt. eigenvalues --    4.38968   5.02450
          Condensed to atoms (all electrons):
               1          2          3          4          5          6
     1  C   27.586037 -13.484171  -1.437063  -0.848666   1.923326  -5.183266
     2  C  -13.484171  30.981063  -5.719138   0.451768  -1.444745   1.012216
     3  C   -1.437063  -5.719138  18.587551  -1.572971  -1.043873  -0.186307
     4  N   -0.848666   0.451768  -1.572971   8.342584   0.089863   0.254936
     5  C    1.923326  -1.444745  -1.043873   0.089863  10.619003  -2.971143
     6  C   -5.183266   1.012216  -0.186307   0.254936  -2.971143  12.679778
     7  C   -0.473539 -11.005114  -1.983159   0.642262  -0.603021   0.206614
     8  N   -0.764893   2.723655   0.616953  -0.118035   0.067089  -0.199972
     9  C    0.175658  -0.722591  -0.131786  -0.002372  -0.026041  -0.031645
    10  C   -0.118293   0.389175  -0.054111   0.040583   0.015948  -0.030474
    11  C    0.125963  -0.239636  -0.748990  -0.022916  -0.087086  -0.027377
    12  O    0.007421  -0.089881   0.001189  -0.104895   0.009955   0.006792
    13  O    0.026745  -0.030910   0.014118   0.010738   0.044102  -0.025611
    14  O   -0.044249  -0.010824  -0.154846   0.028186  -0.009556   0.012700
    15  H    0.044953  -0.251419  -0.008777  -0.002608  -0.001335  -0.001031
    16  H   -0.001437   0.023493   0.035110  -0.002610   0.002539  -0.002514
    17  H   -0.003457  -0.101251  -0.037770   0.008442  -0.000812  -0.000647
    18  H   -0.082747   0.412591   0.259722  -0.010475  -0.003102   0.006070
    19  H    0.108904  -0.077177  -0.082789   0.003939   0.015244  -0.037483
    20  H    0.016361   0.224918   0.032410  -0.000300  -0.001418  -0.001271
    21  H    0.111956   1.040135  -0.204766  -0.001185   0.044319  -0.016295
    22  H   -0.274507  -0.889884  -1.237617   0.051526  -0.098988   0.097879
    23  H    0.222119   0.081209   0.039828  -0.182062  -0.660281   0.195963
    24  H    0.696142   0.022171  -0.142821  -0.004764   0.351696  -1.225270
    25  H   -2.826103   1.373996   0.232293  -0.091797  -0.260096   0.805775
    26  C   -0.408490   0.978509  -0.205607  -0.018494  -0.042363   0.104510
    27  H    0.015264  -0.493592   0.523818  -0.015642  -0.545905  -0.036334
    28  H   -0.042808  -0.095676  -0.243732   0.081556   0.022263  -0.006978
    29  H    0.005871   0.011886   0.025952  -0.006755  -0.000486   0.000117
    30  H   -0.013276   0.016258  -0.044788   0.042909  -0.012195   0.013141
    31  H    0.000228   0.006854   0.006093  -0.021052  -0.005160   0.003471
    32  H    0.004010   0.001195   0.001286   0.000762   0.001246  -0.002261
    33  H   -0.019750   0.001108   0.011834   0.008522  -0.008759   0.007655
    34  H   -0.027303   0.048856  -0.051643   0.003668  -0.009289   0.015545
    35  O   -0.209970   0.273608  -0.144675  -0.057397  -0.080299   0.071389
    36  H    0.022841  -0.045885   0.034186   0.021087   0.004057  -0.014489
    37  H   -0.074861   0.151405  -0.116811   0.005925   0.001081   0.009135
    38  H    0.078490  -0.252557   0.113576  -0.007294  -0.081232   0.086361
    39  H    0.036887   0.053125   0.052205  -0.006169   0.016693  -0.017785
    40  O   -0.000355   0.001904   0.000151   0.000017   0.004873   0.001988
    41  H   -0.000259   0.000192   0.000238   0.000788   0.001094   0.000344
    42  H   -0.000026   0.000207  -0.000115  -0.000052  -0.000117  -0.000086
               7          8          9         10         11         12
     1  C   -0.473539  -0.764893   0.175658  -0.118293   0.125963   0.007421
     2  C  -11.005114   2.723655  -0.722591   0.389175  -0.239636  -0.089881
     3  C   -1.983159   0.616953  -0.131786  -0.054111  -0.748990   0.001189
     4  N    0.642262  -0.118035  -0.002372   0.040583  -0.022916  -0.104895
     5  C   -0.603021   0.067089  -0.026041   0.015948  -0.087086   0.009955
     6  C    0.206614  -0.199972  -0.031645  -0.030474  -0.027377   0.006792
     7  C   29.258610  -7.074810  -0.280436   0.126896  -1.374489  -0.015857
     8  N   -7.074810  16.726078  -0.362762  -0.325343  -1.114504   0.009527
     9  C   -0.280436  -0.362762   5.966398  -0.012466   0.884521  -0.000743
    10  C    0.126896  -0.325343  -0.012466   6.348557  -1.093268  -0.000696
    11  C   -1.374489  -1.114504   0.884521  -1.093268   8.767409  -0.004785
    12  O   -0.015857   0.009527  -0.000743  -0.000696  -0.004785   7.955022
    13  O    0.007154  -0.022848   0.002383  -0.002404   0.001031  -0.063147
    14  O    0.095062  -0.070897   0.033537  -0.011583   0.018520   0.001570
    15  H    0.690501  -1.189153  -0.128653   0.114718   0.094957  -0.000339
    16  H   -0.058476  -0.128797   0.146759  -0.246793   0.217313  -0.000085
    17  H    0.241883   0.143644  -0.067265  -0.381801   0.223615   0.000273
    18  H   -0.016585   0.490105  -0.223324   0.181961  -1.145440   0.000249
    19  H   -0.116620  -0.149969   0.055591   0.322030  -0.142740  -0.002727
    20  H    0.041427  -0.273558  -0.314464  -0.022819   0.023342   0.000006
    21  H   -2.798176  -0.402800   0.051159  -0.070421   0.778376  -0.000042
    22  H    0.146374  -0.236358   0.047284  -0.032918   0.086464   0.008673
    23  H   -0.000964   0.008189   0.000129   0.000568   0.008532   0.010725
    24  H    0.039817   0.001303  -0.000538   0.000609  -0.003844   0.000361
    25  H   -0.148995   0.017366  -0.002458  -0.009515  -0.035834   0.000001
    26  C   -1.413001   1.135537  -0.207060   0.012087  -0.201205   0.001283
    27  H   -0.091295   0.001490  -0.009214  -0.003013  -0.050530   0.029792
    28  H    0.647174  -0.221322  -0.184165   0.029543  -0.077579   0.000319
    29  H   -0.042467  -0.040692   0.029859  -0.013427   0.028949  -0.000160
    30  H   -0.004409   0.004639  -0.001703   0.000084  -0.001998   0.323253
    31  H    0.003943   0.001163   0.000850  -0.000131   0.001722   0.336982
    32  H   -0.001068   0.000566  -0.001041  -0.000816  -0.000140   0.000711
    33  H    0.009333  -0.014499   0.005469   0.012678  -0.003822   0.004823
    34  H    0.013209  -0.001537  -0.000621   0.001725   0.002176   0.003316
    35  O   -0.091226   0.069005  -0.009299   0.002889  -0.002352   0.005665
    36  H    0.006588   0.003745   0.000468  -0.000330  -0.000467  -0.000637
    37  H    0.066036  -0.200208  -0.060046   0.077898  -0.085937   0.000113
    38  H    0.178748   0.115585  -0.017317  -0.054368   0.087781  -0.000552
    39  H   -0.216696  -0.680683   0.122603   0.005492   0.057154   0.000037
    40  O   -0.000087   0.000026   0.000001  -0.000005   0.000130  -0.047636
    41  H    0.000099   0.000103  -0.000034   0.000043  -0.000106   0.002198
    42  H   -0.000001  -0.000040   0.000001  -0.000006   0.000013   0.000885
              13         14         15         16         17         18
     1  C    0.026745  -0.044249   0.044953  -0.001437  -0.003457  -0.082747
     2  C   -0.030910  -0.010824  -0.251419   0.023493  -0.101251   0.412591
     3  C    0.014118  -0.154846  -0.008777   0.035110  -0.037770   0.259722
     4  N    0.010738   0.028186  -0.002608  -0.002610   0.008442  -0.010475
     5  C    0.044102  -0.009556  -0.001335   0.002539  -0.000812  -0.003102
     6  C   -0.025611   0.012700  -0.001031  -0.002514  -0.000647   0.006070
     7  C    0.007154   0.095062   0.690501  -0.058476   0.241883  -0.016585
     8  N   -0.022848  -0.070897  -1.189153  -0.128797   0.143644   0.490105
     9  C    0.002383   0.033537  -0.128653   0.146759  -0.067265  -0.223324
    10  C   -0.002404  -0.011583   0.114718  -0.246793  -0.381801   0.181961
    11  C    0.001031   0.018520   0.094957   0.217313   0.223615  -1.145440
    12  O   -0.063147   0.001570  -0.000339  -0.000085   0.000273   0.000249
    13  O    8.251874  -0.067416  -0.000007  -0.000136  -0.000652  -0.000113
    14  O   -0.067416   8.010995   0.031190  -0.004985   0.011220   0.002805
    15  H   -0.000007   0.031190   2.915729   0.121934  -0.320692  -0.042926
    16  H   -0.000136  -0.004985   0.121934   2.117324  -0.620328  -0.319246
    17  H   -0.000652   0.011220  -0.320692  -0.620328   2.256539   0.189294
    18  H   -0.000113   0.002805  -0.042926  -0.319246   0.189294   2.673542
    19  H    0.002527  -0.021793   0.056146   0.206607  -0.446841  -0.698648
    20  H    0.000204   0.000786  -0.564884  -0.248959   0.193077   0.064201
    21  H    0.000132  -0.002233   0.098080   0.067165  -0.064060  -0.371609
    22  H    0.031983   0.096361  -0.011583  -0.006363   0.021564   0.064044
    23  H    0.002187  -0.000671   0.000049   0.000109  -0.000104   0.000510
    24  H   -0.000742   0.000391  -0.000006  -0.000052   0.000076  -0.001547
    25  H    0.001011  -0.002217  -0.002269   0.002705  -0.001365   0.008798
    26  C    0.004928  -0.001624  -0.160621  -0.024116   0.015010   0.090439
    27  H   -0.015695  -0.003517  -0.000553  -0.000355   0.000786   0.003695
    28  H    0.005002   0.086337   0.045148   0.001759   0.029625  -0.017534
    29  H    0.012354   0.374008   0.005773   0.000672  -0.002852   0.000614
    30  H    0.005859  -0.004544  -0.000297  -0.000000   0.000190  -0.000132
    31  H   -0.009313   0.001682   0.000116   0.000006  -0.000112  -0.000030
    32  H    0.315528  -0.006163  -0.000420  -0.000021  -0.000111   0.000038
    33  H    0.262401   0.037166   0.002648   0.000064   0.000023  -0.000334
    34  H   -0.027454   0.002795   0.000515  -0.000005   0.000316  -0.000086
    35  O   -0.060996   0.009189  -0.002055   0.000091   0.000439   0.000271
    36  H    0.004784  -0.000301   0.000091   0.000012  -0.000014  -0.000004
    37  H    0.004522   0.010529  -0.017275  -0.002598   0.011747   0.002278
    38  H   -0.009777  -0.000514   0.012404  -0.002946  -0.005477   0.000061
    39  H   -0.001198  -0.003879   0.035863   0.004943  -0.005456   0.008775
    40  O    0.001280   0.000168  -0.000006   0.000000  -0.000019   0.000007
    41  H    0.000058   0.000030  -0.000007  -0.000002   0.000013  -0.000008
    42  H    0.000009  -0.000012   0.000001   0.000000  -0.000003  -0.000000
              19         20         21         22         23         24
     1  C    0.108904   0.016361   0.111956  -0.274507   0.222119   0.696142
     2  C   -0.077177   0.224918   1.040135  -0.889884   0.081209   0.022171
     3  C   -0.082789   0.032410  -0.204766  -1.237617   0.039828  -0.142821
     4  N    0.003939  -0.000300  -0.001185   0.051526  -0.182062  -0.004764
     5  C    0.015244  -0.001418   0.044319  -0.098988  -0.660281   0.351696
     6  C   -0.037483  -0.001271  -0.016295   0.097879   0.195963  -1.225270
     7  C   -0.116620   0.041427  -2.798176   0.146374  -0.000964   0.039817
     8  N   -0.149969  -0.273558  -0.402800  -0.236358   0.008189   0.001303
     9  C    0.055591  -0.314464   0.051159   0.047284   0.000129  -0.000538
    10  C    0.322030  -0.022819  -0.070421  -0.032918   0.000568   0.000609
    11  C   -0.142740   0.023342   0.778376   0.086464   0.008532  -0.003844
    12  O   -0.002727   0.000006  -0.000042   0.008673   0.010725   0.000361
    13  O    0.002527   0.000204   0.000132   0.031983   0.002187  -0.000742
    14  O   -0.021793   0.000786  -0.002233   0.096361  -0.000671   0.000391
    15  H    0.056146  -0.564884   0.098080  -0.011583   0.000049  -0.000006
    16  H    0.206607  -0.248959   0.067165  -0.006363   0.000109  -0.000052
    17  H   -0.446841   0.193077  -0.064060   0.021564  -0.000104   0.000076
    18  H   -0.698648   0.064201  -0.371609   0.064044   0.000510  -0.001547
    19  H    2.364051  -0.058406   0.235225  -0.190767   0.001702  -0.000469
    20  H   -0.058406   2.511524  -0.089828   0.012269   0.000038  -0.000267
    21  H    0.235225  -0.089828   3.613485  -0.031672   0.001283   0.000812
    22  H   -0.190767   0.012269  -0.031672   4.714981   0.005428  -0.011227
    23  H    0.001702   0.000038   0.001283   0.005428   2.273529  -0.103248
    24  H   -0.000469  -0.000267   0.000812  -0.011227  -0.103248   2.089160
    25  H    0.000664   0.002415  -0.175182  -0.016400  -0.010957  -0.131267
    26  C   -0.050407  -0.060527  -0.091416   0.036081   0.001638  -0.007829
    27  H   -0.013067   0.000321  -0.003531  -0.033991  -0.234141   0.007386
    28  H    0.008339   0.023329   0.002505  -0.031046   0.000174   0.000835
    29  H    0.010681   0.000101   0.001309   0.006316  -0.000041  -0.000048
    30  H   -0.000556  -0.000111   0.000135  -0.006614   0.001315  -0.000237
    31  H    0.000993   0.000015   0.000050   0.006012   0.003932   0.000286
    32  H   -0.000104   0.000008  -0.000117   0.005677  -0.000143  -0.000078
    33  H   -0.000697   0.000167   0.000428  -0.039785  -0.001429   0.000799
    34  H   -0.000303   0.000222   0.000605  -0.008132   0.004349   0.001674
    35  O   -0.002082  -0.000387  -0.003124   0.007689   0.011806   0.001720
    36  H   -0.000075  -0.000123  -0.000256   0.004230  -0.003225  -0.000950
    37  H   -0.011772  -0.001510   0.009257  -0.004897   0.000427  -0.001015
    38  H    0.010342   0.016058   0.001795   0.019847   0.000474  -0.000903
    39  H    0.005312   0.024246   0.101870   0.007798   0.000088  -0.000341
    40  O    0.000193   0.000001  -0.000009  -0.000323   0.001279  -0.000000
    41  H    0.000140  -0.000000   0.000003  -0.002680   0.000283   0.000011
    42  H   -0.000017   0.000000  -0.000002   0.001425  -0.000034  -0.000008
              25         26         27         28         29         30
     1  C   -2.826103  -0.408490   0.015264  -0.042808   0.005871  -0.013276
     2  C    1.373996   0.978509  -0.493592  -0.095676   0.011886   0.016258
     3  C    0.232293  -0.205607   0.523818  -0.243732   0.025952  -0.044788
     4  N   -0.091797  -0.018494  -0.015642   0.081556  -0.006755   0.042909
     5  C   -0.260096  -0.042363  -0.545905   0.022263  -0.000486  -0.012195
     6  C    0.805775   0.104510  -0.036334  -0.006978   0.000117   0.013141
     7  C   -0.148995  -1.413001  -0.091295   0.647174  -0.042467  -0.004409
     8  N    0.017366   1.135537   0.001490  -0.221322  -0.040692   0.004639
     9  C   -0.002458  -0.207060  -0.009214  -0.184165   0.029859  -0.001703
    10  C   -0.009515   0.012087  -0.003013   0.029543  -0.013427   0.000084
    11  C   -0.035834  -0.201205  -0.050530  -0.077579   0.028949  -0.001998
    12  O    0.000001   0.001283   0.029792   0.000319  -0.000160   0.323253
    13  O    0.001011   0.004928  -0.015695   0.005002   0.012354   0.005859
    14  O   -0.002217  -0.001624  -0.003517   0.086337   0.374008  -0.004544
    15  H   -0.002269  -0.160621  -0.000553   0.045148   0.005773  -0.000297
    16  H    0.002705  -0.024116  -0.000355   0.001759   0.000672  -0.000000
    17  H   -0.001365   0.015010   0.000786   0.029625  -0.002852   0.000190
    18  H    0.008798   0.090439   0.003695  -0.017534   0.000614  -0.000132
    19  H    0.000664  -0.050407  -0.013067   0.008339   0.010681  -0.000556
    20  H    0.002415  -0.060527   0.000321   0.023329   0.000101  -0.000111
    21  H   -0.175182  -0.091416  -0.003531   0.002505   0.001309   0.000135
    22  H   -0.016400   0.036081  -0.033991  -0.031046   0.006316  -0.006614
    23  H   -0.010957   0.001638  -0.234141   0.000174  -0.000041   0.001315
    24  H   -0.131267  -0.007829   0.007386   0.000835  -0.000048  -0.000237
    25  H    3.133425   0.057617   0.007607  -0.010696   0.000661  -0.000322
    26  C    0.057617   4.999596  -0.000661  -0.165932   0.014547   0.001410
    27  H    0.007607  -0.000661   1.937723  -0.007201   0.001462  -0.008074
    28  H   -0.010696  -0.165932  -0.007201   0.752858  -0.194934   0.007562
    29  H    0.000661   0.014547   0.001462  -0.194934   0.613638  -0.002464
    30  H   -0.000322   0.001410  -0.008074   0.007562  -0.002464   0.691025
    31  H   -0.000074  -0.000646  -0.018346  -0.001915   0.000255  -0.228201
    32  H    0.000049   0.000542   0.005538   0.002003   0.001319   0.003853
    33  H   -0.000399  -0.014527  -0.002918  -0.016038  -0.003740  -0.006025
    34  H    0.000661  -0.012739  -0.013185  -0.000219  -0.001022   0.007825
    35  O    0.001676  -0.019002   0.015209   0.019879  -0.001850  -0.000401
    36  H    0.000462   0.001789   0.003181   0.000145  -0.000158  -0.000402
    37  H    0.000505   0.165624  -0.003265   0.090091  -0.002495   0.000677
    38  H    0.004474   0.104654   0.004314  -0.046365   0.003304  -0.002033
    39  H    0.010502   0.206071   0.002361  -0.045133   0.005457  -0.000074
    40  O    0.000001  -0.000017  -0.015899   0.000530   0.000001   0.004883
    41  H    0.000000   0.000003  -0.004781   0.000183  -0.000026  -0.000450
    42  H    0.000000  -0.000002  -0.002267  -0.000048  -0.000001  -0.000441
              31         32         33         34         35         36
     1  C    0.000228   0.004010  -0.019750  -0.027303  -0.209970   0.022841
     2  C    0.006854   0.001195   0.001108   0.048856   0.273608  -0.045885
     3  C    0.006093   0.001286   0.011834  -0.051643  -0.144675   0.034186
     4  N   -0.021052   0.000762   0.008522   0.003668  -0.057397   0.021087
     5  C   -0.005160   0.001246  -0.008759  -0.009289  -0.080299   0.004057
     6  C    0.003471  -0.002261   0.007655   0.015545   0.071389  -0.014489
     7  C    0.003943  -0.001068   0.009333   0.013209  -0.091226   0.006588
     8  N    0.001163   0.000566  -0.014499  -0.001537   0.069005   0.003745
     9  C    0.000850  -0.001041   0.005469  -0.000621  -0.009299   0.000468
    10  C   -0.000131  -0.000816   0.012678   0.001725   0.002889  -0.000330
    11  C    0.001722  -0.000140  -0.003822   0.002176  -0.002352  -0.000467
    12  O    0.336982   0.000711   0.004823   0.003316   0.005665  -0.000637
[...]
 .00045759,0.00014132,0.00007610,0.00008694,0.00004803,0.00006171,0.000
 07801,-0.00002675,-0.00045137,-0.00025355,-0.00007829,-0.00006827,-0.0
 0023411,0.00001847,0.00002801,0.00007366,-0.00060037,0.00004779,0.0000
 1107,-0.00011975,-0.00006140,0.00002479,0.00006135,-0.00005158,0.00003
 969,-0.00003317,0.00026355,0.00026888,0.00001645,-0.00013039,0.0002609
 9,-0.00024139,0.00007301,-0.00007435,-0.00003045,-0.00000801,-0.000003
 95,0.00000116,0.00000665,-0.00001205,0.00001000,-0.00001977,-0.0000528
 2,0.00003271,0.01791923,-0.00349511,-0.05198598,-0.00011627,-0.0001304
 9,-0.00007123,0.00083596,0.00054462,0.00022543,0.00001309,0.00000306,0
 .00000577,-0.00001492,-0.00001595,0.00000885,-0.00002005,-0.00000992,-
 0.00004356,0.00000398,-0.00000381,0.00003713,-0.00000697,-0.00012854,-
 0.00007897,-0.00041976,0.00005877,0.00017037,-0.00005328,-0.00026730,-
 0.00147631,0.00086019,0.00012507,0.00015894,-0.01196789,0.00102787,0.0
 0151103,-0.03245507,0.00627683,0.06413511,-0.00008734,-0.00029297,-0.0
 0016876,-0.00004266,0.00001811,0.00015543,-0.00022915,-0.00007992,-0.0
 0008361,0.00026649,0.00001613,0.00006271,-0.00000216,0.00001724,0.0000
 5083,-0.00008286,0.00002457,0.00005316,0.00038554,0.00051219,0.0002579
 5,0.00476450,0.00628501,0.00362760,0.00355981,0.00207434,0.00193196,-0
 .00006162,-0.00008335,0.00000340,0.00012774,0.00014119,-0.00002626,-0.
 00003716,0.00006959,-0.00007446,-0.00014001,-0.00011100,-0.00015551,-0
 .00007418,-0.00017959,-0.00024121,-0.00019413,-0.00012750,-0.00005394,
 -0.00001034,-0.00004761,-0.00003858,-0.00005681,-0.00002044,-0.0000302
 2,-0.00000867,0.00000060,-0.00006255,-0.00009614,0.00006068,0.00006128
 ,0.00036698,-0.00085090,-0.00106776,-0.00024008,0.00039830,-0.00088617
 ,0.00004219,-0.00003023,0.00006461,0.00001124,0.00000479,0.00000440,-0
 .00001525,0.00000406,-0.00001310,0.00002942,0.00015590,-0.00007231,-0.
 12678603,-0.09536767,-0.06306921,-0.00003988,-0.00008636,-0.00000139,0
 .00013280,0.00049003,0.00064028,-0.00002320,0.00004128,0.00001349,0.00
 007099,-0.00004326,0.00009630,0.00002641,0.00001407,0.00003838,0.00002
 668,0.00003968,-0.00000228,0.00007972,0.00007633,0.00010193,0.00029006
 ,0.00010191,0.00015392,-0.00102196,0.00034575,0.00010579,-0.00008766,-
 0.00010958,-0.00015213,0.00335128,0.00542576,0.00354850,-0.01206397,-0
 .02217233,-0.01396343,0.12787782,-0.00005331,-0.00006239,-0.00008751,0
 .00004547,-0.00015783,-0.00010462,0.00002081,-0.00005542,-0.00001435,-
 0.00005746,0.00001794,-0.00000447,0.00000382,0.00000311,-0.00000810,-0
 .00003011,-0.00000322,0.00001511,0.00174417,0.00296419,0.00204390,0.00
 124523,0.00050246,-0.00445356,-0.00075796,0.00020447,0.00037258,0.0002
 2480,0.00021502,0.00013111,0.00003431,0.00002744,0.00018644,-0.0000739
 1,0.00001356,-0.00004888,-0.00022406,0.00002506,-0.00000071,-0.0003670
 2,-0.00049282,-0.00042723,-0.00014205,-0.00015977,0.00008208,0.0000387
 0,0.00003244,-0.00009940,0.00004408,-0.00005081,0.00016250,-0.00000543
 ,-0.00002027,-0.00006615,-0.00004945,-0.00004457,0.00007258,0.00096752
 ,-0.00023376,-0.00055553,-0.00047091,0.00069677,-0.00135879,0.00006289
 ,-0.00004127,0.00003063,-0.00000044,0.00000021,0.00000480,-0.00000960,
 0.00000099,-0.00000504,0.00000122,0.00002225,-0.00002634,-0.09380402,-
 0.16733449,-0.07772022,0.00002623,0.00002381,0.00000696,0.00057064,0.0
 0100698,0.00071682,-0.00008428,0.00002188,0.00011450,0.00006597,-0.000
 03714,0.00004761,0.00003003,0.00001254,0.00004084,0.00004769,0.0000292
 0,0.00000626,0.00027995,0.00003014,-0.00000408,0.00005657,-0.00009020,
 -0.00002920,0.00007972,0.00008974,0.00002162,0.00001526,-0.00002382,-0
 .00004133,-0.01667854,-0.01764099,-0.01350919,0.00392159,0.00475525,0.
 00403018,0.10329148,0.17576012,-0.00014375,-0.00012485,-0.00010252,0.0
 0021223,0.00047275,0.00004053,-0.00000024,-0.00020880,-0.00011659,0.00
 007756,0.00006902,0.00006117,-0.00004218,0.00006719,-0.00000916,-0.000
 06057,0.00002104,0.00004268,-0.00076047,-0.00534405,0.00152476,-0.0144
 6615,-0.02394334,-0.03499288,-0.00460368,0.00015475,0.00068570,0.00013
 845,0.00036186,0.00052524,0.00039619,0.00031171,0.00046666,-0.00002950
 ,0.00001163,0.00002592,-0.00018897,0.00005812,0.00023487,-0.00154044,-
 0.00190722,-0.00034134,0.00038516,0.00004723,0.00003276,0.00005271,0.0
 0010181,-0.00008309,-0.00003438,0.00000594,0.00022940,0.00012830,0.000
 08376,-0.00007443,-0.00005536,0.00005317,0.00026849,0.00155115,0.00059
 800,0.00065695,0.00062473,0.00183926,0.00040815,0.00014601,-0.00002381
 ,0.00006118,0.00000159,0.00001053,0.00000664,-0.00001235,0.00000728,-0
 .00000625,-0.00000878,0.00007336,-0.00001507,-0.06158876,-0.07644869,-
 0.09892561,0.00001050,-0.00001524,-0.00001881,0.00207487,0.00289151,0.
 00008091,-0.00008109,0.00003813,-0.00003209,0.00002003,-0.00000296,-0.
 00002179,0.00001107,-0.00000081,-0.00000291,-0.00001847,-0.00000736,-0
 .00003995,0.00037122,-0.00000716,-0.00027421,-0.00010486,-0.00007763,-
 0.00012952,0.00030197,-0.00005953,0.00010645,-0.00005620,0.00001895,0.
 00000515,0.00685560,0.00767557,0.00645905,0.00123139,0.00270437,0.0022
 5561,0.06920596,0.09049353,0.12100602,-0.00006795,0.00006258,0.0000262
 7,-0.00000324,-0.00015710,-0.00009065,0.00023570,0.00003558,0.00006369
 ,-0.00048130,-0.00047033,-0.00019296,-0.00023699,0.00015627,0.00005086
 ,0.00005881,-0.00003924,-0.00001963,0.00004266,0.00000422,0.00001211,-
 0.00010807,-0.00009532,-0.00008356,0.00006410,0.00000370,0.00000295,0.
 00000744,0.00000892,0.00001250,0.00003677,0.00003657,0.00002277,0.0011
 5213,-0.00249490,-0.00751875,-0.00011215,0.00015702,-0.00056962,-0.000
 21213,-0.00011965,-0.00024136,0.00000565,0.00001048,0.00000461,-0.0000
 1410,-0.00000680,-0.00000567,0.00001607,-0.00000702,-0.00000580,-0.000
 00789,-0.00000978,-0.00000918,-0.00001113,0.00000416,-0.00001848,-0.00
 001598,-0.00001777,-0.00001603,-0.00001839,-0.00001510,-0.00002008,0.0
 0009206,0.00003472,0.00009064,-0.00002729,0.00001301,-0.00000187,-0.00
 002008,-0.00001069,-0.00000893,-0.00000436,-0.00000380,-0.00000171,0.0
 0000061,0.00001385,0.00007316,0.00077815,0.00125274,0.00040258,0.00012
 179,0.00019684,0.00011729,0.00006411,-0.00002541,0.00008020,0.00010844
 ,-0.00091245,0.00039316,-0.00931100,-0.00110807,0.00277344,-0.00014567
 ,-0.00004215,0.00008769,0.00011363,0.00001544,0.00015777,0.00000398,0.
 00010793,0.00019963,0.00002347,-0.00008986,-0.00018957,-0.00003820,0.0
 0001245,0.00003078,0.00000219,0.00001053,0.00000381,0.00000375,0.00000
 137,0.00001008,-0.00001578,-0.00002234,-0.00001170,0.64957942,0.000023
 25,-0.00001741,-0.00000503,0.00003655,-0.00002767,0.00000031,0.0002250
 7,-0.00014978,-0.00000896,-0.00041271,-0.00049096,-0.00026022,-0.00005
 272,0.00023025,0.00014202,-0.00013942,-0.00002644,-0.00005675,0.000114
 63,-0.00008335,0.00007356,-0.00006845,0.00010978,-0.00000608,0.0000432
 3,-0.00000982,-0.00002012,0.00000081,-0.00003172,0.00000356,-0.0000020
 0,0.00003619,-0.00002463,-0.00332620,0.00142126,-0.00571257,-0.0001684
 1,0.00067696,-0.00020373,0.00002519,0.00030252,0.00008972,-0.00001344,
 0.00001695,-0.00000940,-0.00001471,0.00000627,-0.00000137,-0.00000442,
 0.00001623,0.00000650,0.00000372,0.00000317,-0.00000182,0.00000240,-0.
 00002314,-0.00001681,-0.00000935,-0.00000375,-0.00000155,-0.00002339,0
 .00001940,-0.00000960,0.00009107,-0.00008099,0.00002746,0.00000584,0.0
 0005215,0.00009072,-0.00001100,-0.00000460,0.00000542,-0.00000608,-0.0
 0000668,0.00000099,0.00000941,0.00000223,0.00002489,0.00087310,0.00105
 716,0.00051453,-0.00004601,-0.00017989,-0.00004775,-0.00006704,-0.0000
 8909,-0.00006126,0.00008537,-0.00190078,-0.00015374,0.00027612,-0.0040
 8221,0.00040289,-0.00018697,-0.00011845,-0.00021124,0.00001656,-0.0001
 1350,-0.00006182,0.00006714,-0.00014737,0.00005832,-0.00008272,0.00011
 309,-0.00013232,0.00000950,-0.00001786,0.00003095,-0.00001118,0.000015
 29,-0.00000830,0.00000255,-0.00001392,0.00001593,-0.00000006,-0.000004
 28,0.00000252,0.04489631,0.02818922,-0.00001717,0.00002328,-0.00000918
 ,-0.00001917,-0.00011141,-0.00006642,0.00044347,-0.00021440,-0.0000351
 8,-0.00120400,-0.00159894,-0.00054813,-0.00035009,0.00036483,0.0001277
 9,-0.00007808,-0.00011301,-0.00008964,0.00012984,-0.00002326,0.0000143
 6,-0.00018906,-0.00004721,-0.00000915,0.00011583,-0.00000565,-0.000034
 46,-0.00000395,-0.00001956,0.00002000,-0.00001991,0.00003189,-0.000048
 32,-0.00934493,-0.00606004,-0.01051929,-0.00088745,0.00044480,-0.00072
 078,-0.00040115,-0.00002531,0.00014825,-0.00000425,0.00001079,0.000001
 76,-0.00002308,-0.00000340,-0.00000083,0.00000410,0.00002205,-0.000006
 78,-0.00001271,-0.00001310,-0.00000804,0.00001728,0.00000694,-0.000032
 57,-0.00002566,-0.00001468,-0.00000403,-0.00004229,-0.00000474,-0.0000
 0660,0.00015705,0.00003302,-0.00002153,0.00002397,0.00008934,0.0000022
 1,-0.00003183,-0.00001167,-0.00002963,-0.00000869,-0.00000409,-0.00000
 805,0.00003309,0.00001469,0.00002884,0.00217486,0.00342456,0.00063728,
 0.00010545,0.00010287,0.00005751,0.00000040,-0.00004252,-0.00008147,0.
 00065076,-0.00192840,0.00052317,0.00444559,-0.00068042,-0.00319440,0.0
 0000458,-0.00007402,0.00006685,0.00061157,0.00003028,-0.00016892,0.000
 16515,0.00013782,0.00032122,-0.00021028,-0.00015207,-0.00030650,0.0000
 2227,0.00002715,0.00008998,0.00000854,0.00000977,0.00000667,0.00002491
 ,0.00001426,0.00002029,-0.00002312,-0.00002320,0.00000211,-0.11865694,
 0.09988784,0.53431761,0.00002963,-0.00002653,-0.00001444,-0.00000587,0
 .00004529,0.00002353,0.00005261,-0.00011826,-0.00004690,-0.00021258,-0
 .00031933,-0.00009210,-0.00001787,0.00007265,0.00003027,-0.00005912,-0
 .00002231,-0.00002811,0.00002778,-0.00001986,0.00000104,-0.00000162,0.
 00005021,0.00004763,0.00000204,-0.00000399,-0.00001689,-0.00000671,-0.
 00001631,-0.00000193,-0.00003374,-0.00001011,-0.00003506,-0.00257435,-
 0.00149726,-0.00231919,-0.00024238,0.00011848,-0.00000671,-0.00001392,
 0.00008289,0.00021310,-0.00000610,-0.00000167,-0.00000259,0.00000041,0
 .00000404,0.00000359,-0.00001016,0.00001504,0.00000105,0.00000099,0.00
 000130,0.00000332,0.00001576,-0.00000355,-0.00000169,0.00000025,0.0000
 0616,0.00000965,-0.00000595,0.00000951,0.00001101,0.00001262,-0.000014
 69,-0.00006033,0.00001250,0.00001580,0.00000822,-0.00000273,-0.0000017
 6,-0.00000441,-0.00000013,-0.00000082,-0.00000174,0.00000993,-0.000003
 01,-0.00003208,0.00046085,0.00060291,0.00005126,-0.00004281,-0.0000971
 7,-0.00005476,-0.00004265,-0.00000163,-0.00009035,0.00026749,-0.000289
 89,0.00005472,0.00422710,0.00232708,0.00308823,0.00002855,-0.00000284,
 -0.00002931,0.00015545,0.00000207,-0.00013469,0.00004418,-0.00001651,0
 .00001385,-0.00006396,0.00000293,-0.00001464,0.00001628,-0.00000134,0.
 00000812,0.00000016,-0.00000143,-0.00000047,0.00000522,0.00000185,0.00
 000250,0.00000191,0.00000514,0.00000767,-0.11019281,0.01455532,0.13370
 649,0.12410701,-0.00001025,0.00000508,-0.00000327,-0.00002689,0.000001
 30,-0.00000951,-0.00002255,0.00001432,-0.00000832,-0.00003055,-0.00008
 235,0.00002648,-0.00002081,-0.00003933,-0.00003790,0.00003627,-0.00000
 779,0.00000663,-0.00002812,0.00003433,-0.00003365,-0.00000059,-0.00006
 158,0.00000310,-0.00000197,0.00000434,0.00000223,-0.00000151,0.0000146
 5,0.00000582,-0.00000763,-0.00001196,-0.00000372,-0.00083795,-0.000317
 14,-0.00070951,-0.00002857,-0.00010978,-0.00007922,-0.00006680,-0.0001
 5586,-0.00003285,0.00000525,-0.00000705,0.00000647,0.00000383,-0.00000
 354,0.00000050,0.00000166,-0.00000395,-0.00000534,-0.00000573,-0.00000
 629,-0.00000095,0.00000351,0.00001654,0.00000231,0.00000027,-0.0000006
 5,0.00000036,0.00000254,-0.00000990,0.00000506,-0.00001806,0.00005292,
 -0.00002802,0.00000758,0.00000360,-0.00003207,-0.00000035,0.00000023,-
 0.00000822,0.00000058,0.00000328,-0.00000239,0.00000110,0.00000060,-0.
 00000613,0.00007670,0.00019510,-0.00014413,0.00004284,0.00010578,0.000
 03222,0.00003450,0.00004320,0.00002725,-0.00026614,-0.00004250,-0.0001
 0360,0.00201416,0.00017046,0.00074632,0.00000757,0.00003699,0.00005590
 ,0.00005703,0.00005576,0.00002059,-0.00000159,0.00007004,0.00003170,0.
 00000397,-0.00006390,0.00000512,-0.00000502,0.00000776,-0.00000019,0.0
 0000583,-0.00000542,0.00000544,0.00000276,0.00000786,-0.00000381,-0.00
 000359,-0.00000147,-0.00000094,0.02556340,-0.01421105,-0.08095782,-0.0
 2305617,0.01357120,0.00000731,-0.00000747,-0.00000212,-0.00001130,0.00
 003146,0.00000921,-0.00001241,-0.00002839,-0.00001376,0.00001204,-0.00
 001827,0.00001757,-0.00000855,-0.00001745,-0.00001028,0.00000963,0.000
 00066,-0.00000144,-0.00001579,-0.00001282,0.00000211,0.00004436,0.0000
 3866,0.00001072,-0.00002633,-0.00000156,0.00000518,-0.00000016,0.00000
 071,-0.00000448,-0.00000095,-0.00000681,0.00000092,-0.00059476,-0.0002
 7759,0.00012473,0.00007197,0.00008109,0.00011828,0.00010072,0.00007414
 ,0.00004764,-0.00000175,-0.00000122,-0.00000186,0.00000541,0.00000284,
 0.00000185,-0.00000486,-0.00000286,0.00000381,0.00000430,0.00000551,0.
 00000351,-0.00000369,-0.00000487,0.00000791,0.00000621,0.00000461,0.00
 000202,0.00000503,0.00000598,0.00000211,-0.00002220,-0.00001722,-0.000
 01495,-0.00000348,-0.00001259,-0.00000455,-0.00000069,-0.00000210,0.00
 000174,0.00000119,0.00000030,0.00000284,-0.00000317,-0.00000436,-0.000
 01108,-0.00003451,-0.00002252,-0.00010084,-0.00004438,-0.00007862,-0.0
 0003466,-0.00003078,-0.00000269,-0.00000971,0.00002649,-0.00015556,-0.
 00012647,0.00150774,0.00085585,-0.00064202,-0.00002594,-0.00000438,-0.
 00006234,-0.00008537,-0.00002431,-0.00003662,-0.00000851,-0.00005301,-
 0.00003991,0.00002259,0.00004044,0.00003656,-0.00000607,-0.00000606,-0
 .00001320,-0.00000354,-0.00000134,-0.00000272,-0.00000301,-0.00000420,
 -0.00000261,0.00000525,0.00000638,0.00000187,0.18942950,-0.07603311,-0
 .46911291,-0.18040890,0.07622197,0.46856953,0.00001635,-0.00001714,-0.
 00000728,0.00000367,0.00004197,0.00002236,-0.00006647,-0.00000156,-0.0
 0001764,0.00011197,0.00012740,0.00006973,0.00005816,-0.00003841,-0.000
 01186,-0.00001092,0.00000600,0.00000420,-0.00001140,-0.00000185,-0.000
 00424,0.00003061,0.00002926,0.00002732,-0.00001790,-0.00000254,-0.0000
 0185,-0.00000258,-0.00000336,-0.00000309,-0.00000917,-0.00000994,-0.00
 000585,0.00054513,0.00038624,0.00102450,0.00006998,0.00001066,0.000168
 02,0.00006619,0.00004393,0.00005888,-0.00000166,-0.00000304,-0.0000015
 7,0.00000373,0.00000182,0.00000114,-0.00000393,0.00000272,0.00000198,0
 .00000089,0.00000175,0.00000170,0.00000492,0.00000082,0.00000469,0.000
 00457,0.00000570,0.00000499,0.00000544,0.00000488,0.00000607,-0.000021
 14,-0.00000984,-0.00001699,0.00001018,-0.00000592,-0.00001225,0.000005
 84,0.00000303,0.00000089,0.00000200,0.00000012,-0.00000037,-0.00000004
 ,-0.00000527,-0.00002300,-0.00017510,-0.00028695,-0.00015003,-0.000035
 74,-0.00005854,-0.00003508,-0.00001801,0.00000065,-0.00002238,-0.00008
 901,0.00002429,-0.00016301,-0.00148034,-0.00037116,-0.00143440,0.00001
 119,0.00000040,-0.00005869,-0.00005145,-0.00001167,-0.00002710,0.00000
 361,-0.00005055,-0.00006180,-0.00001423,0.00003684,0.00005874,0.000013
 64,-0.00000562,-0.00001033,-0.00000092,-0.00000318,-0.00000122,-0.0000
 0087,-0.00000057,-0.00000315,0.00000545,0.00000758,0.00000354,-0.53146
 643,-0.05671685,-0.01129135,-0.01594326,-0.00343051,-0.00989861,0.5484
 4707,-0.00002540,0.00001851,0.00000625,-0.00001617,-0.00002206,-0.0000
 2006,0.00001031,0.00003465,0.00000926,-0.00001190,-0.00001784,0.000021
 28,-0.00007810,-0.00002051,-0.00002918,0.00006826,-0.00000835,0.000008
 64,-0.00002779,0.00002385,-0.00002435,0.00001018,-0.00003978,0.0000003
 2,-0.00000648,0.00000392,0.00000490,-0.00000017,0.00000794,-0.00000133
 ,0.00000384,-0.00000683,0.00000820,0.00006672,-0.00050268,-0.00089038,
 -0.00006672,-0.00012888,-0.00000333,-0.00004097,-0.00008693,-0.0000026
 8,0.00000415,-0.00000502,0.00000287,0.00000270,-0.00000198,0.00000027,
 0.00000172,-0.00000393,-0.00000235,-0.00000314,-0.00000266,-0.00000013
 ,-0.00000012,0.00000617,0.00000279,0.00000131,0.00000002,-0.00000006,0
 .00000321,-0.00000668,0.00000125,-0.00000652,0.00002127,-0.00000398,-0
 .00001606,-0.00001739,-0.00004062,-0.00000426,-0.00000281,-0.00000684,
 0.00000302,0.00000186,-0.00000090,-0.00000038,0.00000172,-0.00000564,-
 0.00005019,0.00009474,-0.00002746,0.00002263,0.00006204,0.00002026,0.0
 0001321,0.00002210,0.00000517,0.00012773,0.00008854,-0.00025365,-0.001
 06561,0.00051729,0.00180903,0.00006320,0.00004218,0.00005398,0.0000539
 9,0.00003364,-0.00001800,-0.00000578,0.00006780,0.00002416,0.00002019,
 -0.00006262,0.00000819,-0.00000962,0.00001482,-0.00000540,0.00000455,-
 0.00000419,0.00000290,0.00000122,0.00000610,-0.00000328,-0.00000262,-0
 .00000101,-0.00000061,-0.06695030,-0.01043341,-0.01254725,0.00760779,0
 .00072618,-0.00056921,0.06029842,0.00958025,-0.00001326,0.00000607,0.0
 0000567,-0.00000424,-0.00001037,-0.00001184,0.00002211,0.00000248,0.00
 000910,-0.00005877,-0.00004615,-0.00000745,-0.00005359,0.00000983,0.00
 001124,0.00002685,-0.00000543,-0.00000605,-0.00000484,-0.00000855,0.00
 000249,0.00001660,0.00000689,-0.00001002,-0.00001006,0.00000150,0.0000
 0283,0.00000087,0.00000151,-0.00000118,0.00000457,-0.00000035,0.000005
 44,0.00024837,-0.00103102,-0.00287776,0.00013631,0.00008688,-0.0000879
 9,0.00004359,0.00001804,-0.00004640,-0.00000015,0.00000071,-0.00000007
 ,0.00000174,0.00000082,-0.00000037,-0.00000032,-0.00000260,0.00000039,
 0.00000159,0.00000202,0.00000023,-0.00000279,-0.00000266,0.00000105,0.
 00000148,0.00000022,-0.00000019,0.00000110,0.00000137,-0.00000099,0.00
 000418,-0.00000375,0.00001562,-0.00001293,-0.00001966,0.00000467,-0.00
 000448,-0.00000425,0.00000150,0.00000120,-0.00000213,0.00000152,-0.000
 00679,-0.00000149,0.00000816,0.00007133,0.00011603,0.00000141,-0.00000
 762,-0.00000933,0.00000141,-0.00000001,-0.00000283,0.00001582,-0.00020
 464,-0.00023368,0.00010250,-0.00153040,0.00200903,0.00486421,-0.000109
 34,-0.00000242,-0.00002421,-0.00008589,-0.00001247,0.00006269,-0.00003
 730,-0.00001725,0.00000372,0.00006652,0.00001991,-0.00000377,-0.000028
 55,-0.00000784,-0.00001646,-0.00000319,0.00000112,-0.00000116,-0.00000
 554,-0.00000479,0.00000022,0.00000289,0.00000148,-0.00000204,-0.066383
 02,-0.01832995,-0.05132312,0.04611204,0.00500611,0.00127841,0.02180437
 ,0.01246695,0.04802079\\0.00000061,0.00000001,0.00000036,0.00000086,-0
 .00000070,-0.00000074,-0.00000160,0.00000081,0.00000096,0.00001135,0.0
 0000695,0.00000230,0.00000173,-0.00000006,0.00000039,-0.00000041,0.000
 00060,0.00000028,0.00000072,-0.00000101,0.00000396,-0.00000181,0.00000
 340,-0.00000349,-0.00000060,-0.00000039,-0.00000011,-0.00000036,-0.000
 00010,-0.00000071,0.00000089,0.00000036,-0.00000044,0.00000111,0.00000
 915,0.00000685,-0.00000547,-0.00000002,0.00000886,0.00000253,-0.000004
 19,-0.00000615,-0.00000025,-0.00000039,-0.00000014,0.00000013,0.000000
 23,0.00000053,0.00000028,0.00000022,0.00000013,0.00000027,-0.00000008,
 0.00000017,0.,-0.00000022,0.00000052,-0.00000002,-0.00000077,0.0000005
 2,0.00000013,-0.00000031,0.00000072,0.00000107,0.00000008,0.00000006,0
 .00000002,0.00000076,-0.00000015,0.00000016,-0.00000002,0.00000040,0.0
 0000006,-0.00000025,0.00000063,-0.00000077,-0.00000097,0.00000106,-0.0
 0001737,-0.00001491,-0.00000819,-0.00000418,0.00000135,0.00000497,-0.0
 0000046,-0.00000043,0.00000021,-0.00000091,-0.00000446,-0.00001104,0.0
 0000316,0.00000553,0.00000855,0.00000107,-0.00000067,-0.00000190,0.000
 00401,0.00000509,-0.00000052,0.00000266,-0.00000359,0.00000189,-0.0000
 0105,0.00000075,-0.00000167,-0.00000060,0.00000004,-0.00000040,-0.0000
 0037,-0.00000064,0.00000010,0.00000037,0.00000026,-0.00000018,0.000000
 21,-0.00000084,0.00000031,0.00000269,-0.00000551,-0.00001878,0.0000023
 2,0.00000167,-0.00000091,-0.00000216,0.00000327,0.00001078\\\@


 GETTING A SIMPLE ANSWER FROM A PROFESSOR IS LIKE
 GETTING A THIMBLE OF WATER FROM A FIRE HYDRANT.
     -- PROF. LEN SHAPIRO, NDSU
 Job cpu time:       1 days 18 hours  7 minutes 37.8 seconds.
 Elapsed time:       0 days  1 hours 30 minutes 21.6 seconds.
 File lengths (MBytes):  RWF=   1444 Int=      0 D2E=      0 Chk=     36 Scr=      8
 Normal termination of Gaussian 16 at Tue Dec  6 16:57:39 2022.
