 Entering Gaussian System, Link 0=g16
 Input=NicPy5hPydCW.gjf
 Output=NicPy5hPydCW.log
 Initial command:
 /sw/contrib/gaussian/g16/A03/g16/l1.exe "/gscratch/scrubbed/gds001/Gau-17424.inp" -scrdir="/gscratch/scrubbed/gds001/"
 Entering Link 1 = /sw/contrib/gaussian/g16/A03/g16/l1.exe PID=     17425.
  
 Copyright (c) 1988,1990,1992,1993,1995,1998,2003,2009,2016,
            Gaussian, Inc.  All Rights Reserved.
  
 This is part of the Gaussian(R) 16 program.  It is based on
 the Gaussian(R) 09 system (copyright 2009, Gaussian, Inc.),
 the Gaussian(R) 03 system (copyright 2003, Gaussian, Inc.),
 the Gaussian(R) 98 system (copyright 1998, Gaussian, Inc.),
 the Gaussian(R) 94 system (copyright 1995, Gaussian, Inc.),
 the Gaussian 92(TM) system (copyright 1992, Gaussian, Inc.),
 the Gaussian 90(TM) system (copyright 1990, Gaussian, Inc.),
 the Gaussian 88(TM) system (copyright 1988, Gaussian, Inc.),
 the Gaussian 86(TM) system (copyright 1986, Carnegie Mellon
 University), and the Gaussian 82(TM) system (copyright 1983,
 Carnegie Mellon University). Gaussian is a federally registered
 trademark of Gaussian, Inc.
  
 This software contains proprietary and confidential information,
 including trade secrets, belonging to Gaussian, Inc.
  
 This software is provided under written license and may be
 used, copied, transmitted, or stored only in accord with that
 written license.
  
 The following legend is applicable only to US Government
 contracts under FAR:
  
                    RESTRICTED RIGHTS LEGEND
  
 Use, reproduction and disclosure by the US Government is
 subject to restrictions as set forth in subparagraphs (a)
 and (c) of the Commercial Computer Software - Restricted
 Rights clause in FAR 52.227-19.
  
 Gaussian, Inc.
 340 Quinnipiac St., Bldg. 40, Wallingford CT 06492
  
  
 ---------------------------------------------------------------
 Warning -- This program may not be used in any manner that
 competes with the business of Gaussian, Inc. or will provide
 assistance to any competitor of Gaussian, Inc.  The licensee
 of this program is prohibited from giving any competitor of
 Gaussian, Inc. access to this program.  By using this program,
 the user acknowledges that Gaussian, Inc. is engaged in the
 business of creating and licensing software in the field of
 computational chemistry and represents and warrants to the
 licensee that it is not a competitor of Gaussian, Inc. and that
 it will not use this program in any manner prohibited above.
 ---------------------------------------------------------------
  

 Cite this work as:
 Gaussian 16, Revision A.03,
 M. J. Frisch, G. W. Trucks, H. B. Schlegel, G. E. Scuseria, 
 M. A. Robb, J. R. Cheeseman, G. Scalmani, V. Barone, 
 G. A. Petersson, H. Nakatsuji, X. Li, M. Caricato, A. V. Marenich, 
 J. Bloino, B. G. Janesko, R. Gomperts, B. Mennucci, H. P. Hratchian, 
 J. V. Ortiz, A. F. Izmaylov, J. L. Sonnenberg, D. Williams-Young, 
 F. Ding, F. Lipparini, F. Egidi, J. Goings, B. Peng, A. Petrone, 
 T. Henderson, D. Ranasinghe, V. G. Zakrzewski, J. Gao, N. Rega, 
 G. Zheng, W. Liang, M. Hada, M. Ehara, K. Toyota, R. Fukuda, 
 J. Hasegawa, M. Ishida, T. Nakajima, Y. Honda, O. Kitao, H. Nakai, 
 T. Vreven, K. Throssell, J. A. Montgomery, Jr., J. E. Peralta, 
 F. Ogliaro, M. J. Bearpark, J. J. Heyd, E. N. Brothers, K. N. Kudin, 
 V. N. Staroverov, T. A. Keith, R. Kobayashi, J. Normand, 
 K. Raghavachari, A. P. Rendell, J. C. Burant, S. S. Iyengar, 
 J. Tomasi, M. Cossi, J. M. Millam, M. Klene, C. Adamo, R. Cammi, 
 J. W. Ochterski, R. L. Martin, K. Morokuma, O. Farkas, 
 J. B. Foresman, and D. J. Fox, Gaussian, Inc., Wallingford CT, 2016.
 
 ******************************************
 Gaussian 16:  ES64L-G16RevA.03 25-Dec-2016
                13-Dec-2022 
 ******************************************
 %nprocshared=28
 Will use up to   28 processors via shared memory.
 %mem=41GB
 -----------------------------
 # wB97XD/aug-cc-pVDZ opt freq
 -----------------------------
 1/18=20,19=15,26=3,38=1/1,3;
 2/9=110,12=2,17=6,18=5,40=1/2;
 3/5=16,7=10,11=2,25=1,30=1,71=1,74=-58/1,2,3;
 4//1;
 5/5=2,38=5/2;
 6/7=2,8=2,9=2,10=2,28=1/1;
 7//1,2,3,16;
 1/18=20,19=15,26=3/3(2);
 2/9=110/2;
 99//99;
 2/9=110/2;
 3/5=16,7=10,11=2,25=1,30=1,71=1,74=-58/1,2,3;
 4/5=5,16=3,69=1/1;
 5/5=2,38=5/2;
 7//1,2,3,16;
 1/18=20,19=15,26=3/3(-5);
 2/9=110/2;
 6/7=2,8=2,9=2,10=2,19=2,28=1/1;
 99/9=1/99;
 ----
 blah
 ----
 Symbolic Z-matrix:
 Charge =  1 Multiplicity = 1
 C                     2.0153   -0.08154  -1.79807 
 C                     1.79475   0.85008  -0.59498 
 N                     2.27859   0.05564   0.55014 
 C                     3.53913  -0.51951   0.05163 
 C                     3.19911  -0.98235  -1.36935 
 C                     0.3945    1.39038  -0.39572 
 C                     0.20107   2.70656   0.03474 
 C                    -1.07866   3.22447   0.22375 
 C                    -2.16266   2.41173  -0.04667 
 N                    -1.96119   1.15645  -0.46985 
 C                    -0.74204   0.62471  -0.6327 
 O                    -3.04433  -2.2909    0.30354 
 O                    -1.4743   -0.81488   2.12974 
 O                     0.79635  -2.10854   1.21835 
 O                    -0.57623  -2.58811  -1.09534 
 H                     3.87379  -1.32775   0.71332 
 H                     4.06141  -0.88503  -2.03592 
 H                     2.89853  -2.03601  -1.37122 
 H                     2.22663   0.50067  -2.70077 
 H                     1.1277   -0.69091  -1.99758 
 H                     4.32769   0.25422   0.0384 
 H                     2.45869   1.72943  -0.70578 
 H                    -0.71827  -0.41378  -0.96393 
 H                    -3.19884   2.72534   0.05516 
 H                    -1.23435   4.24546   0.56324 
 H                     1.06896   3.3396    0.22234 
 C                     2.44635   0.82491   1.77835 
 H                    -2.82222   0.5743   -0.68548 
 H                     1.36193  -1.31614   0.96772 
 H                     0.43893  -2.32666   0.32714 
 H                    -2.62293  -1.8607    1.06816 
 H                    -4.12238  -2.67426   0.13025 
 H                    -1.67469  -0.83635   3.06891 
 H                    -0.55923  -1.16483   2.05366 
 H                    -1.44241  -2.47281  -0.63724 
 H                    -0.78183  -3.30261  -1.71922 
 O                    -4.1794   -0.21751  -0.82182 
 H                    -3.92439  -1.10198  -0.45016 
 H                    -4.73599  -0.36489  -1.5894 
 H                     1.47287   1.17848   2.13861 
 H                     3.11658   1.69065   1.63133 
 H                     2.88044   0.1816    2.55249 
 
 Add virtual bond connecting atoms H32        and O12        Dist= 2.19D+00.
 Add virtual bond connecting atoms O37        and H28        Dist= 2.98D+00.
 Add virtual bond connecting atoms H38        and O12        Dist= 3.14D+00.
 Add virtual bond connecting atoms H38        and H32        Dist= 3.19D+00.
 Add virtual bond connecting atoms H29        and N3         Dist= 3.22D+00.
 Add virtual bond connecting atoms O12        and H35        Dist= 3.53D+00.
 Add virtual bond connecting atoms H30        and O15        Dist= 3.34D+00.
 Add virtual bond connecting atoms O13        and H31        Dist= 3.56D+00.
 Add virtual bond connecting atoms H34        and O14        Dist= 3.50D+00.

 GradGradGradGradGradGradGradGradGradGradGradGradGradGradGradGradGradGrad
 Berny optimization.
 Initialization pass.
                           ----------------------------
                           !    Initial Parameters    !
                           ! (Angstroms and Degrees)  !
 --------------------------                            --------------------------
 ! Name  Definition              Value          Derivative Info.                !
 --------------------------------------------------------------------------------
 ! R1    R(1,2)                  1.5375         estimate D2E/DX2                !
 ! R2    R(1,5)                  1.5481         estimate D2E/DX2                !
 ! R3    R(1,19)                 1.0948         estimate D2E/DX2                !
 ! R4    R(1,20)                 1.095          estimate D2E/DX2                !
 ! R5    R(2,3)                  1.4753         estimate D2E/DX2                !
 ! R6    R(2,6)                  1.5141         estimate D2E/DX2                !
 ! R7    R(2,22)                 1.1074         estimate D2E/DX2                !
 ! R8    R(3,4)                  1.4725         estimate D2E/DX2                !
 ! R9    R(3,27)                 1.4589         estimate D2E/DX2                !
 ! R10   R(3,29)                 1.7019         estimate D2E/DX2                !
 ! R11   R(4,5)                  1.5326         estimate D2E/DX2                !
 ! R12   R(4,16)                 1.0968         estimate D2E/DX2                !
 ! R13   R(4,21)                 1.1048         estimate D2E/DX2                !
 ! R14   R(5,17)                 1.0942         estimate D2E/DX2                !
 ! R15   R(5,18)                 1.0957         estimate D2E/DX2                !
 ! R16   R(6,7)                  1.3982         estimate D2E/DX2                !
 ! R17   R(6,11)                 1.3907         estimate D2E/DX2                !
 ! R18   R(7,8)                  1.3934         estimate D2E/DX2                !
 ! R19   R(7,26)                 1.0905         estimate D2E/DX2                !
 ! R20   R(8,9)                  1.3816         estimate D2E/DX2                !
 ! R21   R(8,25)                 1.0872         estimate D2E/DX2                !
 ! R22   R(9,10)                 1.3399         estimate D2E/DX2                !
 ! R23   R(9,24)                 1.0874         estimate D2E/DX2                !
 ! R24   R(10,11)                1.34           estimate D2E/DX2                !
 ! R25   R(10,28)                1.0615         estimate D2E/DX2                !
 ! R26   R(11,23)                1.0903         estimate D2E/DX2                !
 ! R27   R(12,31)                0.9733         estimate D2E/DX2                !
 ! R28   R(12,32)                1.1572         estimate D2E/DX2                !
 ! R29   R(12,35)                1.8666         estimate D2E/DX2                !
 ! R30   R(12,38)                1.6602         estimate D2E/DX2                !
 ! R31   R(13,31)                1.8815         estimate D2E/DX2                !
 ! R32   R(13,33)                0.9605         estimate D2E/DX2                !
 ! R33   R(13,34)                0.9827         estimate D2E/DX2                !
 ! R34   R(14,29)                1.0053         estimate D2E/DX2                !
 ! R35   R(14,30)                0.9847         estimate D2E/DX2                !
 ! R36   R(14,34)                1.8509         estimate D2E/DX2                !
 ! R37   R(15,30)                1.767          estimate D2E/DX2                !
 ! R38   R(15,35)                0.9866         estimate D2E/DX2                !
 ! R39   R(15,36)                0.9706         estimate D2E/DX2                !
 ! R40   R(27,40)                1.0966         estimate D2E/DX2                !
 ! R41   R(27,41)                1.1047         estimate D2E/DX2                !
 ! R42   R(27,42)                1.0962         estimate D2E/DX2                !
 ! R43   R(28,37)                1.5772         estimate D2E/DX2                !
 ! R44   R(32,38)                1.6876         estimate D2E/DX2                !
 ! R45   R(37,38)                0.9927         estimate D2E/DX2                !
 ! R46   R(37,39)                0.9595         estimate D2E/DX2                !
 ! A1    A(2,1,5)              104.2151         estimate D2E/DX2                !
 ! A2    A(2,1,19)             110.5274         estimate D2E/DX2                !
 ! A3    A(2,1,20)             111.3152         estimate D2E/DX2                !
 ! A4    A(5,1,19)             112.9661         estimate D2E/DX2                !
 ! A5    A(5,1,20)             110.2732         estimate D2E/DX2                !
 ! A6    A(19,1,20)            107.5901         estimate D2E/DX2                !
 ! A7    A(1,2,3)              103.5342         estimate D2E/DX2                !
 ! A8    A(1,2,6)              116.8636         estimate D2E/DX2                !
 ! A9    A(1,2,22)             108.4724         estimate D2E/DX2                !
 ! A10   A(3,2,6)              113.1615         estimate D2E/DX2                !
 ! A11   A(3,2,22)             107.9773         estimate D2E/DX2                !
 ! A12   A(6,2,22)             106.516          estimate D2E/DX2                !
 ! A13   A(2,3,4)              103.1972         estimate D2E/DX2                !
 ! A14   A(2,3,27)             114.0301         estimate D2E/DX2                !
 ! A15   A(2,3,29)             116.6057         estimate D2E/DX2                !
 ! A16   A(4,3,27)             113.1121         estimate D2E/DX2                !
 ! A17   A(4,3,29)             103.2568         estimate D2E/DX2                !
 ! A18   A(27,3,29)            106.2835         estimate D2E/DX2                !
 ! A19   A(3,4,5)              104.0            estimate D2E/DX2                !
 ! A20   A(3,4,16)             110.1685         estimate D2E/DX2                !
 ! A21   A(3,4,21)             109.9691         estimate D2E/DX2                !
 ! A22   A(5,4,16)             113.8582         estimate D2E/DX2                !
 ! A23   A(5,4,21)             111.0215         estimate D2E/DX2                !
 ! A24   A(16,4,21)            107.7876         estimate D2E/DX2                !
 ! A25   A(1,5,4)              104.5177         estimate D2E/DX2                !
 ! A26   A(1,5,17)             112.4666         estimate D2E/DX2                !
 ! A27   A(1,5,18)             110.4448         estimate D2E/DX2                !
 ! A28   A(4,5,17)             111.2909         estimate D2E/DX2                !
 ! A29   A(4,5,18)             110.6611         estimate D2E/DX2                !
 ! A30   A(17,5,18)            107.4978         estimate D2E/DX2                !
 ! A31   A(2,6,7)              120.2895         estimate D2E/DX2                !
 ! A32   A(2,6,11)             122.4735         estimate D2E/DX2                !
 ! A33   A(7,6,11)             117.236          estimate D2E/DX2                !
 ! A34   A(6,7,8)              121.2435         estimate D2E/DX2                !
 ! A35   A(6,7,26)             119.2953         estimate D2E/DX2                !
 ! A36   A(8,7,26)             119.4609         estimate D2E/DX2                !
 ! A37   A(7,8,9)              118.385          estimate D2E/DX2                !
 ! A38   A(7,8,25)             121.5299         estimate D2E/DX2                !
 ! A39   A(9,8,25)             120.0807         estimate D2E/DX2                !
 ! A40   A(8,9,10)             119.6667         estimate D2E/DX2                !
 ! A41   A(8,9,24)             124.0342         estimate D2E/DX2                !
 ! A42   A(10,9,24)            116.2979         estimate D2E/DX2                !
 ! A43   A(9,10,11)            123.1566         estimate D2E/DX2                !
 ! A44   A(9,10,28)            117.1279         estimate D2E/DX2                !
 ! A45   A(11,10,28)           119.7147         estimate D2E/DX2                !
 ! A46   A(6,11,10)            120.288          estimate D2E/DX2                !
 ! A47   A(6,11,23)            123.9418         estimate D2E/DX2                !
 ! A48   A(10,11,23)           115.7671         estimate D2E/DX2                !
 ! A49   A(31,12,32)           131.867          estimate D2E/DX2                !
 ! A50   A(31,12,35)            93.8677         estimate D2E/DX2                !
 ! A51   A(31,12,38)           105.6427         estimate D2E/DX2                !
 ! A52   A(32,12,35)           133.766          estimate D2E/DX2                !
 ! A53   A(35,12,38)           107.2123         estimate D2E/DX2                !
 ! A54   A(31,13,33)           114.3232         estimate D2E/DX2                !
 ! A55   A(31,13,34)           109.0787         estimate D2E/DX2                !
 ! A56   A(33,13,34)           105.1893         estimate D2E/DX2                !
 ! A57   A(29,14,30)            98.8105         estimate D2E/DX2                !
 ! A58   A(29,14,34)            97.0457         estimate D2E/DX2                !
 ! A59   A(30,14,34)           104.8066         estimate D2E/DX2                !
 ! A60   A(30,15,35)            96.5059         estimate D2E/DX2                !
 ! A61   A(30,15,36)           138.4245         estimate D2E/DX2                !
 ! A62   A(35,15,36)           101.4502         estimate D2E/DX2                !
 ! A63   A(3,27,40)            110.1523         estimate D2E/DX2                !
 ! A64   A(3,27,41)            111.7748         estimate D2E/DX2                !
 ! A65   A(3,27,42)            109.3074         estimate D2E/DX2                !
 ! A66   A(40,27,41)           109.2471         estimate D2E/DX2                !
 ! A67   A(40,27,42)           107.9847         estimate D2E/DX2                !
 ! A68   A(41,27,42)           108.2799         estimate D2E/DX2                !
 ! A69   A(12,31,13)           162.4129         estimate D2E/DX2                !
 ! A70   A(13,34,14)           153.9648         estimate D2E/DX2                !
 ! A71   A(28,37,38)           101.18           estimate D2E/DX2                !
 ! A72   A(28,37,39)           130.1969         estimate D2E/DX2                !
 ! A73   A(38,37,39)           108.1592         estimate D2E/DX2                !
 ! A74   A(12,38,37)           160.7733         estimate D2E/DX2                !
 ! A75   A(32,38,37)           158.2324         estimate D2E/DX2                !
 ! A76   L(10,28,37,13,-1)     176.5906         estimate D2E/DX2                !
 ! A77   L(3,29,14,9,-1)       178.3399         estimate D2E/DX2                !
 ! A78   L(14,30,15,1,-1)      186.4125         estimate D2E/DX2                !
 ! A79   L(12,35,15,6,-1)      180.4022         estimate D2E/DX2                !
 ! A80   L(10,28,37,13,-2)     172.8521         estimate D2E/DX2                !
 ! A81   L(3,29,14,9,-2)       180.4892         estimate D2E/DX2                !
 ! A82   L(14,30,15,1,-2)      192.7907         estimate D2E/DX2                !
 ! A83   L(12,35,15,6,-2)      177.1681         estimate D2E/DX2                !
 ! D1    D(5,1,2,3)            -27.4259         estimate D2E/DX2                !
 ! D2    D(5,1,2,6)           -152.5552         estimate D2E/DX2                !
 ! D3    D(5,1,2,22)            87.1005         estimate D2E/DX2                !
 ! D4    D(19,1,2,3)          -149.0708         estimate D2E/DX2                !
 ! D5    D(19,1,2,6)            85.7999         estimate D2E/DX2                !
 ! D6    D(19,1,2,22)          -34.5444         estimate D2E/DX2                !
 ! D7    D(20,1,2,3)            91.4249         estimate D2E/DX2                !
 ! D8    D(20,1,2,6)           -33.7044         estimate D2E/DX2                !
 ! D9    D(20,1,2,22)         -154.0487         estimate D2E/DX2                !
 ! D10   D(2,1,5,4)              1.2989         estimate D2E/DX2                !
 ! D11   D(2,1,5,17)          -119.5628         estimate D2E/DX2                !
 ! D12   D(2,1,5,18)           120.3449         estimate D2E/DX2                !
 ! D13   D(19,1,5,4)           121.3137         estimate D2E/DX2                !
 ! D14   D(19,1,5,17)            0.4521         estimate D2E/DX2                !
 ! D15   D(19,1,5,18)         -119.6403         estimate D2E/DX2                !
 ! D16   D(20,1,5,4)          -118.2599         estimate D2E/DX2                !
 ! D17   D(20,1,5,17)          120.8785         estimate D2E/DX2                !
 ! D18   D(20,1,5,18)            0.7861         estimate D2E/DX2                !
 ! D19   D(1,2,3,4)             44.2689         estimate D2E/DX2                !
 ! D20   D(1,2,3,27)           167.3612         estimate D2E/DX2                !
 ! D21   D(1,2,3,29)           -68.1198         estimate D2E/DX2                !
 ! D22   D(6,2,3,4)            171.7497         estimate D2E/DX2                !
 ! D23   D(6,2,3,27)           -65.158          estimate D2E/DX2                !
 ! D24   D(6,2,3,29)            59.361          estimate D2E/DX2                !
 ! D25   D(22,2,3,4)           -70.6119         estimate D2E/DX2                !
 ! D26   D(22,2,3,27)           52.4804         estimate D2E/DX2                !
 ! D27   D(22,2,3,29)          176.9995         estimate D2E/DX2                !
 ! D28   D(1,2,6,7)           -141.5426         estimate D2E/DX2                !
 ! D29   D(1,2,6,11)            38.0914         estimate D2E/DX2                !
 ! D30   D(3,2,6,7)             98.3231         estimate D2E/DX2                !
 ! D31   D(3,2,6,11)           -82.0429         estimate D2E/DX2                !
 ! D32   D(22,2,6,7)           -20.1663         estimate D2E/DX2                !
 ! D33   D(22,2,6,11)          159.4677         estimate D2E/DX2                !
 ! D34   D(2,3,4,5)            -43.5206         estimate D2E/DX2                !
 ! D35   D(2,3,4,16)          -165.9097         estimate D2E/DX2                !
 ! D36   D(2,3,4,21)            75.4228         estimate D2E/DX2                !
 ! D37   D(27,3,4,5)          -167.2204         estimate D2E/DX2                !
 ! D38   D(27,3,4,16)           70.3905         estimate D2E/DX2                !
 ! D39   D(27,3,4,21)          -48.2771         estimate D2E/DX2                !
 ! D40   D(29,3,4,5)            78.3388         estimate D2E/DX2                !
 ! D41   D(29,3,4,16)          -44.0503         estimate D2E/DX2                !
 ! D42   D(29,3,4,21)         -162.7179         estimate D2E/DX2                !
 ! D43   D(2,3,14,30)           29.7126         estimate D2E/DX2                !
 ! D44   D(2,3,14,34)          -76.3248         estimate D2E/DX2                !
 ! D45   D(4,3,14,30)          -82.8873         estimate D2E/DX2                !
 ! D46   D(4,3,14,34)          171.0753         estimate D2E/DX2                !
 ! D47   D(27,3,14,30)         157.641          estimate D2E/DX2                !
 ! D48   D(27,3,14,34)          51.6036         estimate D2E/DX2                !
 ! D49   D(2,3,27,40)           65.9037         estimate D2E/DX2                !
 ! D50   D(2,3,27,41)          -55.7454         estimate D2E/DX2                !
 ! D51   D(2,3,27,42)         -175.6022         estimate D2E/DX2                !
 ! D52   D(4,3,27,40)         -176.5757         estimate D2E/DX2                !
 ! D53   D(4,3,27,41)           61.7752         estimate D2E/DX2                !
 ! D54   D(4,3,27,42)          -58.0817         estimate D2E/DX2                !
 ! D55   D(29,3,27,40)         -63.9684         estimate D2E/DX2                !
 ! D56   D(29,3,27,41)         174.3825         estimate D2E/DX2                !
 ! D57   D(29,3,27,42)          54.5257         estimate D2E/DX2                !
 ! D58   D(3,4,5,1)             25.3639         estimate D2E/DX2                !
 ! D59   D(3,4,5,17)           147.0035         estimate D2E/DX2                !
 ! D60   D(3,4,5,18)           -93.5357         estimate D2E/DX2                !
 ! D61   D(16,4,5,1)           145.285          estimate D2E/DX2                !
 ! D62   D(16,4,5,17)          -93.0753         estimate D2E/DX2                !
 ! D63   D(16,4,5,18)           26.3855         estimate D2E/DX2                !
 ! D64   D(21,4,5,1)           -92.8574         estimate D2E/DX2                !
 ! D65   D(21,4,5,17)           28.7823         estimate D2E/DX2                !
 ! D66   D(21,4,5,18)          148.243          estimate D2E/DX2                !
 ! D67   D(2,6,7,8)            179.9576         estimate D2E/DX2                !
 ! D68   D(2,6,7,26)             0.1746         estimate D2E/DX2                !
 ! D69   D(11,6,7,8)             0.3049         estimate D2E/DX2                !
 ! D70   D(11,6,7,26)         -179.4782         estimate D2E/DX2                !
 ! D71   D(2,6,11,10)         -178.5458         estimate D2E/DX2                !
 ! D72   D(2,6,11,23)            0.7789         estimate D2E/DX2                !
 ! D73   D(7,6,11,10)            1.0988         estimate D2E/DX2                !
 ! D74   D(7,6,11,23)         -179.5766         estimate D2E/DX2                !
 ! D75   D(6,7,8,9)             -1.0859         estimate D2E/DX2                !
 ! D76   D(6,7,8,25)           179.6782         estimate D2E/DX2                !
 ! D77   D(26,7,8,9)           178.6968         estimate D2E/DX2                !
 ! D78   D(26,7,8,25)           -0.5391         estimate D2E/DX2                !
 ! D79   D(7,8,9,10)             0.4822         estimate D2E/DX2                !
 ! D80   D(7,8,9,24)          -179.1082         estimate D2E/DX2                !
 ! D81   D(25,8,9,10)          179.7296         estimate D2E/DX2                !
 ! D82   D(25,8,9,24)            0.1391         estimate D2E/DX2                !
 ! D83   D(8,9,10,11)            0.9557         estimate D2E/DX2                !
 ! D84   D(8,9,10,28)         -178.7248         estimate D2E/DX2                !
 ! D85   D(24,9,10,11)        -179.4229         estimate D2E/DX2                !
 ! D86   D(24,9,10,28)           0.8966         estimate D2E/DX2                !
 ! D87   D(9,10,11,6)           -1.7789         estimate D2E/DX2                !
 ! D88   D(9,10,11,23)         178.8433         estimate D2E/DX2                !
 ! D89   D(28,10,11,6)         177.8938         estimate D2E/DX2                !
 ! D90   D(28,10,11,23)         -1.4841         estimate D2E/DX2                !
 ! D91   D(9,10,37,38)        -138.8348         estimate D2E/DX2                !
 ! D92   D(9,10,37,39)          93.0622         estimate D2E/DX2                !
 ! D93   D(11,10,37,38)         37.872          estimate D2E/DX2                !
 ! D94   D(11,10,37,39)        -90.231          estimate D2E/DX2                !
 ! D95   D(31,12,15,30)         16.934          estimate D2E/DX2                !
 ! D96   D(31,12,15,36)        158.787          estimate D2E/DX2                !
 ! D97   D(32,12,15,30)       -154.5534         estimate D2E/DX2                !
 ! D98   D(32,12,15,36)        -12.7004         estimate D2E/DX2                !
 ! D99   D(38,12,15,30)        124.5531         estimate D2E/DX2                !
 ! D100  D(38,12,15,36)        -93.5938         estimate D2E/DX2                !
 ! D101  D(32,12,31,13)       -153.3619         estimate D2E/DX2                !
 ! D102  D(35,12,31,13)         34.0857         estimate D2E/DX2                !
 ! D103  D(38,12,31,13)        -74.9966         estimate D2E/DX2                !
 ! D104  D(31,12,38,37)         39.9581         estimate D2E/DX2                !
 ! D105  D(35,12,38,37)        -59.253          estimate D2E/DX2                !
 ! D106  D(33,13,31,12)        178.9005         estimate D2E/DX2                !
 ! D107  D(34,13,31,12)        -63.6752         estimate D2E/DX2                !
 ! D108  D(31,13,34,14)         21.995          estimate D2E/DX2                !
 ! D109  D(33,13,34,14)        145.0538         estimate D2E/DX2                !
 ! D110  D(29,14,15,35)       -121.5798         estimate D2E/DX2                !
 ! D111  D(29,14,15,36)        127.8516         estimate D2E/DX2                !
 ! D112  D(34,14,15,35)        -23.039          estimate D2E/DX2                !
 ! D113  D(34,14,15,36)       -133.6075         estimate D2E/DX2                !
 ! D114  D(29,14,34,13)        110.4635         estimate D2E/DX2                !
 ! D115  D(30,14,34,13)          9.3763         estimate D2E/DX2                !
 ! D116  D(28,37,38,12)          9.1441         estimate D2E/DX2                !
 ! D117  D(28,37,38,32)        170.5607         estimate D2E/DX2                !
 ! D118  D(39,37,38,12)        148.3632         estimate D2E/DX2                !
 ! D119  D(39,37,38,32)        -50.2202         estimate D2E/DX2                !
 --------------------------------------------------------------------------------
 Trust Radius=3.00D-01 FncErr=1.00D-07 GrdErr=1.00D-06 EigMax=2.50D+02 EigMin=1.00D-04
 Number of steps in this run=    252 maximum allowed number of steps=    252.
 GradGradGradGradGradGradGradGradGradGradGradGradGradGradGradGradGradGrad

                          Input orientation:                          
 ---------------------------------------------------------------------
 Center     Atomic      Atomic             Coordinates (Angstroms)
 Number     Number       Type             X           Y           Z
 ---------------------------------------------------------------------
      1          6           0        2.015300   -0.081544   -1.798071
      2          6           0        1.794753    0.850083   -0.594978
      3          7           0        2.278590    0.055637    0.550141
      4          6           0        3.539125   -0.519514    0.051631
      5          6           0        3.199111   -0.982351   -1.369349
      6          6           0        0.394495    1.390382   -0.395723
      7          6           0        0.201073    2.706557    0.034743
      8          6           0       -1.078655    3.224471    0.223749
      9          6           0       -2.162661    2.411733   -0.046670
     10          7           0       -1.961194    1.156450   -0.469852
     11          6           0       -0.742038    0.624714   -0.632702
     12          8           0       -3.044331   -2.290901    0.303541
     13          8           0       -1.474303   -0.814881    2.129739
     14          8           0        0.796348   -2.108544    1.218348
     15          8           0       -0.576234   -2.588110   -1.095338
     16          1           0        3.873794   -1.327747    0.713317
     17          1           0        4.061407   -0.885029   -2.035922
     18          1           0        2.898533   -2.036007   -1.371218
     19          1           0        2.226629    0.500669   -2.700770
     20          1           0        1.127704   -0.690907   -1.997577
     21          1           0        4.327692    0.254219    0.038396
     22          1           0        2.458687    1.729431   -0.705784
     23          1           0       -0.718274   -0.413775   -0.963932
     24          1           0       -3.198841    2.725337    0.055155
     25          1           0       -1.234352    4.245459    0.563236
     26          1           0        1.068959    3.339595    0.222335
     27          6           0        2.446351    0.824909    1.778350
     28          1           0       -2.822221    0.574297   -0.685484
     29          1           0        1.361928   -1.316141    0.967716
     30          1           0        0.438932   -2.326658    0.327139
     31          1           0       -2.622930   -1.860701    1.068160
     32          1           0       -4.122384   -2.674263    0.130255
     33          1           0       -1.674686   -0.836349    3.068908
     34          1           0       -0.559231   -1.164825    2.053656
     35          1           0       -1.442410   -2.472812   -0.637239
     36          1           0       -0.781832   -3.302615   -1.719217
     37          8           0       -4.179401   -0.217511   -0.821821
     38          1           0       -3.924393   -1.101984   -0.450161
     39          1           0       -4.735988   -0.364888   -1.589398
     40          1           0        1.472872    1.178480    2.138612
     41          1           0        3.116578    1.690652    1.631326
     42          1           0        2.880442    0.181603    2.552492
 ---------------------------------------------------------------------
                    Distance matrix (angstroms):
                    1          2          3          4          5
     1  C    0.000000
     2  C    1.537531   0.000000
     3  N    2.366905   1.475310   0.000000
     4  C    2.436238   2.310137   1.472501   0.000000
     5  C    1.548116   2.435095   2.368379   1.532649   0.000000
     6  C    2.600030   1.514050   2.495199   3.706282   3.800484
     7  C    3.797912   2.526432   3.407211   4.642242   4.956586
     8  C    4.958835   3.816347   4.628081   5.947347   6.207624
     9  C    5.170995   4.289582   5.062814   6.411882   6.482120
    10  N    4.371418   3.770498   4.497549   5.773587   5.657942
    11  C    3.075678   2.547062   3.293503   4.483963   4.319486
    12  O    5.907444   5.838651   5.822417   6.822255   6.594803
    13  O    5.304979   4.569783   4.163789   5.435093   5.840587
    14  O    3.833191   3.610878   2.706884   3.377732   3.706448
    15  O    3.673249   4.206318   4.224573   4.746663   4.111785
    16  H    3.363643   3.282833   2.117794   1.096847   2.216302
    17  H    2.211044   3.197601   3.278873   2.182718   1.094233
    18  H    2.186831   3.185968   2.907047   2.175916   1.095692
    19  H    1.094759   2.177835   3.281642   3.215452   2.217600
    20  H    1.094967   2.187896   2.893568   3.169161   2.184110
    21  H    2.971953   2.678058   2.121353   1.104842   2.187361
    22  H    2.160859   1.107402   2.100326   2.607447   2.888305
    23  H    2.877254   2.837035   3.390274   4.378127   3.979139
    24  H    6.204861   5.373568   6.113474   7.478587   7.530601
    25  H    5.904148   4.695265   5.467682   6.764081   7.121831
    26  H    4.084335   2.718906   3.514974   4.585148   5.074468
    27  C    3.714599   2.461280   1.458911   2.446055   3.706865
    28  H    5.006954   4.626089   5.273903   6.496652   6.256777
    29  H    3.098500   2.705897   1.701885   2.492792   2.991409
    30  H    3.470157   3.574945   3.018178   3.599009   3.507680
    31  H    5.735317   5.443372   5.288250   6.387725   6.372528
    32  H    6.936267   6.925279   6.971451   7.959136   7.662615
    33  H    6.154122   5.320256   4.771605   6.032261   6.593432
    34  H    4.757889   4.076317   3.435595   4.606632   5.086787
    35  H    4.361359   4.639250   4.652824   5.394961   4.929622
    36  H    4.266786   5.014738   5.078781   5.436195   4.621032
    37  O    6.272629   6.073033   6.607763   7.773659   7.438226
    38  H    6.175606   6.044846   6.388872   7.503011   7.183560
    39  H    6.760452   6.716815   7.345664   8.437676   7.962128
    40  H    4.168856   2.771997   2.105516   3.392355   4.467089
    41  H    4.014257   2.722170   2.131774   2.749330   4.019429
    42  H    4.443548   3.395902   2.094637   2.679503   4.103313
                    6          7          8          9         10
     6  C    0.000000
     7  C    1.398224   0.000000
     8  C    2.432653   1.393435   0.000000
     9  C    2.775616   2.383440   1.381571   0.000000
    10  N    2.368436   2.707923   2.353013   1.339928   0.000000
    11  C    1.390724   2.380969   2.757817   2.356913   1.340002
    12  O    5.085896   5.964854   5.855730   4.797370   3.695342
    13  O    3.838431   4.426784   4.483938   3.952421   3.298649
    14  O    3.874170   4.994044   5.739853   5.548775   4.595024
    15  O    4.154537   5.469441   5.981514   5.349288   4.041173
    16  H    4.552331   5.497722   6.744562   7.141434   6.451218
    17  H    4.616708   5.664744   6.958041   7.318797   6.549193
    18  H    4.354531   5.634264   6.784878   6.866768   5.883977
    19  H    3.075963   4.056088   5.186214   5.473781   4.790084
    20  H    2.726774   4.065923   5.013232   4.925334   3.909982
    21  H    4.116961   4.800308   6.171332   6.840087   6.373572
    22  H    2.114706   2.569042   3.951198   4.717714   4.463106
    23  H    2.194561   3.402796   3.844125   3.303198   2.062661
    24  H    3.859723   3.400027   2.184662   1.087375   2.066110
    25  H    3.424063   2.169786   1.087157   2.143897   3.337296
    26  H    2.153214   1.090483   2.150698   3.372930   3.798299
    27  C    3.042444   3.409111   4.538761   5.204969   4.958910
    28  H    3.331249   3.769027   3.300023   2.054087   1.061493
    29  H    3.181220   4.289536   5.208367   5.229603   4.384455
    30  H    3.786936   5.047308   5.755761   5.418521   4.304398
    31  H    4.670904   5.468344   5.381151   4.439413   3.450591
    32  H    6.099196   6.903233   6.638380   5.453364   4.439058
    33  H    4.609068   5.027605   4.994041   4.527138   4.071383
    34  H    3.665806   4.431893   4.783752   4.446811   3.704310
    35  H    4.284486   5.475259   5.773444   4.972556   3.669972
    36  H    5.015935   6.336610   6.816603   6.112109   4.778605
    37  O    4.866971   5.335956   4.749219   3.403090   2.632887
    38  H    4.986747   5.635564   5.222125   3.951292   2.992501
    39  H    5.552269   6.037067   5.435723   4.087988   3.356685
    40  H    2.762364   2.894608   3.789864   4.417405   4.312468
    41  H    3.407173   3.475818   4.683359   5.586232   5.521240
    42  H    4.041417   4.460210   5.509677   6.096065   5.790192
                   11         12         13         14         15
    11  C    0.000000
    12  O    3.831177   0.000000
    13  O    3.199957   2.824645   0.000000
    14  O    3.641939   3.952334   2.767680   0.000000
    15  O    3.250194   2.852490   3.788402   2.732601   0.000000
    16  H    5.189391   6.996859   5.556206   3.214868   4.966135
    17  H    5.226991   7.611904   6.928329   4.769473   5.029204
    18  H    4.569311   6.179597   5.733197   3.336210   3.529155
    19  H    3.620121   6.678455   6.225864   4.920689   4.469229
    20  H    2.662645   5.026032   4.880630   3.530108   2.704962
    21  H    5.127358   7.803503   6.259380   4.409685   5.780370
    22  H    3.386795   6.889486   5.475594   4.603880   5.291848
    23  H    1.090292   3.246634   3.209870   3.150979   2.182928
    24  H    3.304791   5.024760   4.450963   6.378163   6.036093
    25  H    3.844793   6.787302   5.302693   6.702706   7.062694
    26  H    3.373630   6.973395   5.231256   5.545140   6.291312
    27  C    4.002384   6.483126   4.264260   3.411929   5.389137
    28  H    2.081463   3.039221   3.416457   4.890425   3.900417
    29  H    3.279471   4.561404   3.105763   1.005286   3.103316
    30  H    3.320629   3.483527   3.032376   0.984669   1.767020
    31  H    3.550771   0.973290   1.881498   3.431537   3.065748
    32  H    4.784568   1.157235   3.803626   5.069311   3.752956
    33  H    4.087353   3.411584   0.960548   3.339021   4.649323
    34  H    3.233015   3.241399   0.982652   1.850929   3.455748
    35  H    3.175722   1.866630   3.225820   2.930517   0.986615
    36  H    4.075047   3.199065   4.634954   3.541997   0.970573
    37  O    3.544090   2.617971   4.047976   5.700559   4.321732
    38  H    3.625216   1.660150   3.569489   5.107101   3.719542
    39  H    4.224478   3.186604   4.967199   6.444417   4.742401
    40  H    3.590636   5.984080   3.558006   3.479813   5.370705
    41  H    4.599018   7.454702   5.253789   4.470784   6.275298
    42  H    4.843983   6.802499   4.487260   3.371670   5.738169
                   16         17         18         19         20
    16  H    0.000000
    17  H    2.790970   0.000000
    18  H    2.407915   1.766029   0.000000
    19  H    4.208592   2.393448   2.941749   0.000000
    20  H    3.910949   2.940369   2.310293   1.766910   0.000000
    21  H    1.778808   2.381510   3.045430   3.460958   3.908756
    22  H    3.655504   3.342661   3.848999   2.354501   3.049308
    23  H    4.973489   4.921036   3.984823   3.539106   2.133743
    24  H    8.178193   8.373682   7.866569   6.479197   5.882467
    25  H    7.561502   7.818094   7.763998   6.054385   6.041919
    26  H    5.467380   5.648178   5.897783   4.236065   4.601783
    27  C    2.793889   4.481179   4.278912   4.496212   4.277166
    28  H    7.100073   7.165030   6.325420   5.436698   4.350200
    29  H    2.524742   4.061390   2.889632   4.184053   3.039530
    30  H    3.597948   4.559021   3.003087   4.511969   2.924789
    31  H    6.528199   7.434220   6.038862   6.580207   4.983414
    32  H    8.129694   8.652636   7.207986   7.642307   6.002066
    33  H    6.047802   7.678829   6.486003   7.092042   5.791702
    34  H    4.634087   6.176830   4.944174   5.756688   4.413937
    35  H    5.603320   5.896556   4.424174   5.153795   3.410453
    36  H    5.611789   5.422360   3.907746   4.947651   3.247280
    37  O    8.273042   8.356467   7.328432   6.714421   5.456360
    38  H    7.887735   8.144612   6.947882   6.743056   5.299733
    39  H    8.964259   8.824063   7.818322   7.103687   5.886916
    40  H    3.751942   5.327787   4.968334   4.944411   4.552121
    41  H    3.244511   4.579906   4.790699   4.579861   4.774555
    42  H    2.578265   4.856534   4.507064   5.303399   4.953432
                   21         22         23         24         25
    21  H    0.000000
    22  H    2.494641   0.000000
    23  H    5.187740   3.840970   0.000000
    24  H    7.921831   5.794694   4.128653   0.000000
    25  H    6.865988   4.645357   4.930217   2.535377   0.000000
    26  H    4.491405   2.320641   4.323103   4.315018   2.498408
    27  C    2.625371   2.643716   4.366841   6.200744   5.169549
    28  H    7.193588   5.405806   2.341028   2.305941   4.190234
    29  H    3.482158   3.644035   2.978719   6.161731   6.151071
    30  H    4.676190   4.647386   2.581687   6.231374   6.785893
    31  H    7.337878   6.469834   3.138584   4.731765   6.282379
    32  H    8.943614   7.962536   4.230250   5.478527   7.510709
    33  H    6.811893   6.157621   4.166184   4.908295   5.683050
    34  H    5.473297   5.009896   3.113713   5.108318   5.652284
    35  H    6.417730   5.734292   2.206974   5.530390   6.827854
    36  H    6.468964   6.070378   2.986619   6.732498   7.898594
    37  O    8.563477   6.918689   3.469599   3.223498   5.523567
    38  H    8.377045   6.987558   3.319155   3.928124   6.071115
    39  H    9.229480   7.545217   4.066402   3.823201   6.176616
    40  H    3.662672   3.060387   4.118516   5.344012   4.383746
    41  H    2.463242   2.428252   5.086263   6.590858   5.157368
    42  H    2.901807   3.631806   5.066603   7.047337   6.115848
                   26         27         28         29         30
    26  H    0.000000
    27  C    3.262214   0.000000
    28  H    4.859248   5.821609   0.000000
    29  H    4.724119   2.533218   4.879952   0.000000
    30  H    5.702134   4.008505   4.480632   1.511094   0.000000
    31  H    6.433393   5.780526   3.007358   4.023149   3.184530
    32  H    7.945125   7.622906   3.592909   5.711700   4.578777
    33  H    5.750572   4.626907   4.171597   3.723739   3.769045
    34  H    5.127821   3.615019   3.955826   2.212016   2.308039
    35  H    6.389829   5.642029   3.345307   3.431921   2.119159
    36  H    7.163379   6.300047   4.501360   3.970062   2.574943
    37  O    6.425617   7.193616   1.577176   5.925855   5.205536
    38  H    6.716654   7.018943   2.019920   5.477356   4.598111
    39  H    7.120603   8.021430   2.315520   6.680441   5.856744
    40  H    2.916450   1.096569   5.175749   2.757978   4.078781
    41  H    2.982786   1.104686   6.471722   3.544006   5.000947
    42  H    4.322501   1.096163   6.569556   2.657186   4.147835
                   31         32         33         34         35
    31  H    0.000000
    32  H    1.946770   0.000000
    33  H    2.439561   4.243211   0.000000
    34  H    2.390460   4.321334   1.543655   0.000000
    35  H    2.162566   2.794976   4.058015   3.119575   0.000000
    36  H    3.638438   3.869711   5.459469   4.342150   1.515128
    37  O    2.948678   2.635399   4.668440   4.719258   3.551278
    38  H    2.138868   1.687645   4.185163   4.194921   2.841550
    39  H    3.710133   2.943965   5.594074   5.599735   4.024625
    40  H    5.211342   7.084068   3.851248   3.102860   5.434717
    41  H    6.772829   8.585352   5.604336   4.673723   6.577628
    42  H    6.054862   7.941207   4.695967   3.727340   5.992274
                   36         37         38         39         40
    36  H    0.000000
    37  O    4.676180   0.000000
    38  H    4.040912   0.992700   0.000000
    39  H    4.927722   0.959523   1.581094   0.000000
    40  H    6.328250   6.531550   6.405680   7.404727   0.000000
    41  H    7.166341   7.930342   7.855360   8.732760   1.794834
    42  H    6.618121   7.834964   7.547801   8.686997   1.773785
                   41         42
    41  H    0.000000
    42  H    1.783686   0.000000
 Stoichiometry    C10H25N2O5(1+)
 Framework group  C1[X(C10H25N2O5)]
 Deg. of freedom   120
 Full point group                 C1      NOp   1
 Largest Abelian subgroup         C1      NOp   1
 Largest concise Abelian subgroup C1      NOp   1
                         Standard orientation:                         
 ---------------------------------------------------------------------
 Center     Atomic      Atomic             Coordinates (Angstroms)
 Number     Number       Type             X           Y           Z
 ---------------------------------------------------------------------
      1          6           0        2.047329   -0.195146   -1.779804
      2          6           0        1.858656    0.765913   -0.594574
      3          7           0        2.309749   -0.024870    0.566337
      4          6           0        3.549221   -0.655526    0.082352
      5          6           0        3.195717   -1.131345   -1.331028
      6          6           0        0.478999    1.361462   -0.409598
      7          6           0        0.333656    2.691581   -0.003779
      8          6           0       -0.926363    3.260095    0.171736
      9          6           0       -2.039208    2.483410   -0.087250
     10          7           0       -1.883577    1.213965   -0.486869
     11          6           0       -0.684667    0.634372   -0.636172
     12          8           0       -3.096227   -2.175987    0.345753
     13          8           0       -1.476840   -0.726171    2.149705
     14          8           0        0.746310   -2.119841    1.269171
     15          8           0       -0.637463   -2.590328   -1.039708
     16          1           0        3.851931   -1.463392    0.759695
     17          1           0        4.062681   -1.078376   -1.996545
     18          1           0        2.856121   -2.172953   -1.314657
     19          1           0        2.282417    0.362178   -2.692285
     20          1           0        1.138155   -0.774635   -1.970975
     21          1           0        4.366081    0.087978    0.057513
     22          1           0        2.555142    1.617789   -0.719283
     23          1           0       -0.698769   -0.410174   -0.948362
     24          1           0       -3.063241    2.837137    0.005587
     25          1           0       -1.044774    4.292212    0.492085
     26          1           0        1.224045    3.295240    0.174986
     27          6           0        2.503006    0.759994    1.780858
     28          1           0       -2.765148    0.660379   -0.694574
     29          1           0        1.341619   -1.353739    1.005934
     30          1           0        0.383221   -2.340798    0.380961
     31          1           0       -2.660988   -1.747823    1.103735
     32          1           0       -4.187376   -2.522108    0.176084
     33          1           0       -1.680201   -0.722971    3.088474
     34          1           0       -0.575248   -1.111232    2.082887
     35          1           0       -1.499874   -2.434533   -0.586512
     36          1           0       -0.867982   -3.307999   -1.651118
     37          8           0       -4.150529   -0.082782   -0.820742
     38          1           0       -3.929548   -0.969170   -0.432238
     39          1           0       -4.710322   -0.223393   -1.587256
     40          1           0        1.542481    1.156056    2.131557
     41          1           0        3.205364    1.597380    1.620205
     42          1           0        2.910932    0.115277    2.567947
 ---------------------------------------------------------------------
 Rotational constants (GHZ):           0.4921840           0.3156789           0.2497411
 Standard basis: Aug-CC-pVDZ (5D, 7F)
 There are   650 symmetry adapted cartesian basis functions of A   symmetry.
 There are   616 symmetry adapted basis functions of A   symmetry.
   616 basis functions,  1006 primitive gaussians,   650 cartesian basis functions
    69 alpha electrons       69 beta electrons
       nuclear repulsion energy      1428.7316945501 Hartrees.
 NAtoms=   42 NActive=   42 NUniq=   42 SFac= 1.00D+00 NAtFMM=   60 NAOKFM=F Big=F
 Integral buffers will be    131072 words long.
 Raffenetti 2 integral format.
 Two-electron integral symmetry is turned on.
 Nuclear repulsion after empirical dispersion term =     1428.6956104582 Hartrees.
 One-electron integrals computed using PRISM.
 NBasis=   616 RedAO= T EigKep=  1.48D-06  NBF=   616
 NBsUse=   616 1.00D-06 EigRej= -1.00D+00 NBFU=   616
 ExpMin= 2.97D-02 ExpMax= 1.17D+04 ExpMxC= 4.01D+02 IAcc=3 IRadAn=         5 AccDes= 0.00D+00
 Harris functional with IExCor= 4639 and IRadAn=       5 diagonalized for initial guess.
 HarFok:  IExCor= 4639 AccDes= 0.00D+00 IRadAn=         5 IDoV= 1 UseB2=F ITyADJ=14
 ICtDFT=  3500011 ScaDFX=  1.000000  1.000000  1.000000  1.000000
 FoFCou: FMM=F IPFlag=           0 FMFlag=      100000 FMFlg1=           0
         NFxFlg=           0 DoJE=T BraDBF=F KetDBF=T FulRan=T
         wScrn=  0.000000 ICntrl=       500 IOpCl=  0 I1Cent=   200000004 NGrid=           0
         NMat0=    1 NMatS0=      1 NMatT0=    0 NMatD0=    1 NMtDS0=    0 NMtDT0=    0
 Petite list used in FoFCou.
 Requested convergence on RMS density matrix=1.00D-08 within 128 cycles.
 Requested convergence on MAX density matrix=1.00D-06.
 Requested convergence on             energy=1.00D-06.
 No special actions if energy rises.
 SCF Done:  E(RwB97XD) =  -881.412631244     A.U. after   15 cycles
            NFock= 15  Conv=0.37D-08     -V/T= 2.0065

 **********************************************************************

            Population analysis using the SCF density.

 **********************************************************************

 Orbital symmetries:
       Occupied  (A) (A) (A) (A) (A) (A) (A) (A) (A) (A) (A) (A)
                 (A) (A) (A) (A) (A) (A) (A) (A) (A) (A) (A) (A)
                 (A) (A) (A) (A) (A) (A) (A) (A) (A) (A) (A) (A)
                 (A) (A) (A) (A) (A) (A) (A) (A) (A) (A) (A) (A)
                 (A) (A) (A) (A) (A) (A) (A) (A) (A) (A) (A) (A)
                 (A) (A) (A) (A) (A) (A) (A) (A) (A)
       Virtual   (A) (A) (A) (A) (A) (A) (A) (A) (A) (A) (A) (A)
                 (A) (A) (A) (A) (A) (A) (A) (A) (A) (A) (A) (A)
                 (A) (A) (A) (A) (A) (A) (A) (A) (A) (A) (A) (A)
                 (A) (A) (A) (A) (A) (A) (A) (A) (A) (A) (A) (A)
                 (A) (A) (A) (A) (A) (A) (A) (A) (A) (A) (A) (A)
                 (A) (A) (A) (A) (A) (A) (A) (A) (A) (A) (A) (A)
                 (A) (A) (A) (A) (A) (A) (A) (A) (A) (A) (A) (A)
                 (A) (A) (A) (A) (A) (A) (A) (A) (A) (A) (A) (A)
                 (A) (A) (A) (A) (A) (A) (A) (A) (A) (A) (A) (A)
                 (A) (A) (A) (A) (A) (A) (A) (A) (A) (A) (A) (A)
                 (A) (A) (A) (A) (A) (A) (A) (A) (A) (A) (A) (A)
                 (A) (A) (A) (A) (A) (A) (A) (A) (A) (A) (A) (A)
                 (A) (A) (A) (A) (A) (A) (A) (A) (A) (A) (A) (A)
                 (A) (A) (A) (A) (A) (A) (A) (A) (A) (A) (A) (A)
                 (A) (A) (A) (A) (A) (A) (A) (A) (A) (A) (A) (A)
                 (A) (A) (A) (A) (A) (A) (A) (A) (A) (A) (A) (A)
                 (A) (A) (A) (A) (A) (A) (A) (A) (A) (A) (A) (A)
                 (A) (A) (A) (A) (A) (A) (A) (A) (A) (A) (A) (A)
                 (A) (A) (A) (A) (A) (A) (A) (A) (A) (A) (A) (A)
                 (A) (A) (A) (A) (A) (A) (A) (A) (A) (A) (A) (A)
                 (A) (A) (A) (A) (A) (A) (A) (A) (A) (A) (A) (A)
                 (A) (A) (A) (A) (A) (A) (A) (A) (A) (A) (A) (A)
                 (A) (A) (A) (A) (A) (A) (A) (A) (A) (A) (A) (A)
                 (A) (A) (A) (A) (A) (A) (A) (A) (A) (A) (A) (A)
                 (A) (A) (A) (A) (A) (A) (A) (A) (A) (A) (A) (A)
                 (A) (A) (A) (A) (A) (A) (A) (A) (A) (A) (A) (A)
                 (A) (A) (A) (A) (A) (A) (A) (A) (A) (A) (A) (A)
                 (A) (A) (A) (A) (A) (A) (A) (A) (A) (A) (A) (A)
                 (A) (A) (A) (A) (A) (A) (A) (A) (A) (A) (A) (A)
                 (A) (A) (A) (A) (A) (A) (A) (A) (A) (A) (A) (A)
                 (A) (A) (A) (A) (A) (A) (A) (A) (A) (A) (A) (A)
                 (A) (A) (A) (A) (A) (A) (A) (A) (A) (A) (A) (A)
                 (A) (A) (A) (A) (A) (A) (A) (A) (A) (A) (A) (A)
                 (A) (A) (A) (A) (A) (A) (A) (A) (A) (A) (A) (A)
                 (A) (A) (A) (A) (A) (A) (A) (A) (A) (A) (A) (A)
                 (A) (A) (A) (A) (A) (A) (A) (A) (A) (A) (A) (A)
                 (A) (A) (A) (A) (A) (A) (A) (A) (A) (A) (A) (A)
                 (A) (A) (A) (A) (A) (A) (A) (A) (A) (A) (A) (A)
                 (A) (A) (A) (A) (A) (A) (A) (A) (A) (A) (A) (A)
                 (A) (A) (A) (A) (A) (A) (A) (A) (A) (A) (A) (A)
                 (A) (A) (A) (A) (A) (A) (A) (A) (A) (A) (A) (A)
                 (A) (A) (A) (A) (A) (A) (A) (A) (A) (A) (A) (A)
                 (A) (A) (A) (A) (A) (A) (A) (A) (A) (A) (A) (A)
                 (A) (A) (A) (A) (A) (A) (A) (A) (A) (A) (A) (A)
                 (A) (A) (A) (A) (A) (A) (A) (A) (A) (A) (A) (A)
                 (A) (A) (A) (A) (A) (A) (A)
 The electronic state is 1-A.
 Alpha  occ. eigenvalues --  -19.42636 -19.41538 -19.39786 -19.38612 -19.33460
 Alpha  occ. eigenvalues --  -14.67365 -14.57183 -10.50911 -10.50495 -10.47616
 Alpha  occ. eigenvalues --  -10.47032 -10.46699 -10.45875 -10.42574 -10.42343
 Alpha  occ. eigenvalues --  -10.40704 -10.39620  -1.26777  -1.25243  -1.24018
 Alpha  occ. eigenvalues --   -1.22918  -1.22055  -1.17675  -1.16141  -1.08044
 Alpha  occ. eigenvalues --   -1.04516  -0.99838  -0.95348  -0.90531  -0.89209
 Alpha  occ. eigenvalues --   -0.88274  -0.82455  -0.79320  -0.78972  -0.78751
 Alpha  occ. eigenvalues --   -0.76130  -0.74474  -0.74361  -0.73052  -0.72914
 Alpha  occ. eigenvalues --   -0.71075  -0.69323  -0.68955  -0.67997  -0.67566
 Alpha  occ. eigenvalues --   -0.65166  -0.64109  -0.63612  -0.63138  -0.62147
 Alpha  occ. eigenvalues --   -0.60882  -0.60368  -0.59574  -0.58337  -0.58079
 Alpha  occ. eigenvalues --   -0.56396  -0.55665  -0.55589  -0.54818  -0.54723
 Alpha  occ. eigenvalues --   -0.54397  -0.53160  -0.52996  -0.52313  -0.52122
 Alpha  occ. eigenvalues --   -0.51129  -0.49356  -0.47312  -0.43086
 Alpha virt. eigenvalues --   -0.13740  -0.10850  -0.09242  -0.05889  -0.04998
 Alpha virt. eigenvalues --   -0.04571  -0.04144  -0.03520  -0.03127  -0.02798
 Alpha virt. eigenvalues --   -0.01767  -0.01512  -0.01062  -0.00679  -0.00426
 Alpha virt. eigenvalues --   -0.00158   0.00032   0.00528   0.01176   0.01354
 Alpha virt. eigenvalues --    0.01601   0.02077   0.02323   0.02528   0.02920
 Alpha virt. eigenvalues --    0.03271   0.03475   0.03633   0.03810   0.04147
 Alpha virt. eigenvalues --    0.04471   0.04683   0.04759   0.05198   0.05252
 Alpha virt. eigenvalues --    0.06081   0.06302   0.06403   0.06684   0.06999
 Alpha virt. eigenvalues --    0.07242   0.07619   0.07853   0.07902   0.08112
 Alpha virt. eigenvalues --    0.08668   0.08801   0.09086   0.09409   0.09682
 Alpha virt. eigenvalues --    0.09972   0.10344   0.10897   0.11047   0.11326
 Alpha virt. eigenvalues --    0.11711   0.11851   0.11926   0.12644   0.12775
 Alpha virt. eigenvalues --    0.13091   0.13430   0.13687   0.14051   0.14265
 Alpha virt. eigenvalues --    0.14642   0.14753   0.15032   0.15283   0.15671
 Alpha virt. eigenvalues --    0.15869   0.15950   0.16185   0.16452   0.16625
 Alpha virt. eigenvalues --    0.17190   0.17701   0.17849   0.18149   0.18322
 Alpha virt. eigenvalues --    0.18756   0.18904   0.19041   0.19462   0.19490
 Alpha virt. eigenvalues --    0.19953   0.20121   0.20373   0.20674   0.21128
 Alpha virt. eigenvalues --    0.21397   0.21676   0.22083   0.22283   0.22588
 Alpha virt. eigenvalues --    0.22792   0.23009   0.23602   0.23857   0.23942
 Alpha virt. eigenvalues --    0.24408   0.24640   0.24893   0.25227   0.25456
 Alpha virt. eigenvalues --    0.26053   0.26091   0.26607   0.26786   0.26998
 Alpha virt. eigenvalues --    0.27439   0.27465   0.27852   0.28387   0.28745
 Alpha virt. eigenvalues --    0.28829   0.29307   0.29791   0.30491   0.30713
 Alpha virt. eigenvalues --    0.30967   0.31268   0.31861   0.32007   0.32400
 Alpha virt. eigenvalues --    0.33194   0.33507   0.33742   0.33778   0.34443
 Alpha virt. eigenvalues --    0.34702   0.35587   0.36042   0.36285   0.36427
 Alpha virt. eigenvalues --    0.37562   0.37850   0.38352   0.38552   0.38578
 Alpha virt. eigenvalues --    0.39314   0.39626   0.39834   0.40158   0.40530
 Alpha virt. eigenvalues --    0.41229   0.41291   0.41876   0.42113   0.42549
 Alpha virt. eigenvalues --    0.42854   0.43511   0.43582   0.44169   0.44349
 Alpha virt. eigenvalues --    0.44650   0.45216   0.45524   0.45825   0.46281
 Alpha virt. eigenvalues --    0.46350   0.46625   0.47224   0.47762   0.48364
 Alpha virt. eigenvalues --    0.48703   0.49020   0.49372   0.49598   0.50217
 Alpha virt. eigenvalues --    0.50674   0.50951   0.51154   0.51526   0.51771
 Alpha virt. eigenvalues --    0.52371   0.52650   0.52770   0.53176   0.53548
 Alpha virt. eigenvalues --    0.53881   0.54428   0.54485   0.54873   0.55303
 Alpha virt. eigenvalues --    0.55738   0.56373   0.56536   0.56817   0.56931
 Alpha virt. eigenvalues --    0.57357   0.57736   0.58002   0.58485   0.58733
 Alpha virt. eigenvalues --    0.59661   0.59902   0.60352   0.60767   0.61123
 Alpha virt. eigenvalues --    0.61316   0.62021   0.62228   0.62780   0.63187
 Alpha virt. eigenvalues --    0.63626   0.64051   0.64246   0.64570   0.65042
 Alpha virt. eigenvalues --    0.65315   0.66159   0.66685   0.66853   0.66956
 Alpha virt. eigenvalues --    0.67789   0.68500   0.68925   0.69239   0.69531
 Alpha virt. eigenvalues --    0.70165   0.70489   0.71261   0.71579   0.71630
 Alpha virt. eigenvalues --    0.72016   0.72283   0.73075   0.73333   0.73699
 Alpha virt. eigenvalues --    0.73919   0.74728   0.75362   0.75653   0.76422
 Alpha virt. eigenvalues --    0.76887   0.77343   0.78046   0.78477   0.78797
 Alpha virt. eigenvalues --    0.79233   0.79867   0.80329   0.81151   0.81657
 Alpha virt. eigenvalues --    0.81690   0.82142   0.82561   0.83178   0.83599
 Alpha virt. eigenvalues --    0.84190   0.84829   0.85192   0.85933   0.86126
 Alpha virt. eigenvalues --    0.87296   0.87910   0.88007   0.88851   0.89763
 Alpha virt. eigenvalues --    0.89896   0.90137   0.91189   0.92139   0.92831
 Alpha virt. eigenvalues --    0.92936   0.94153   0.94347   0.95025   0.95968
 Alpha virt. eigenvalues --    0.96729   0.97063   0.97983   0.98350   0.98771
 Alpha virt. eigenvalues --    0.99163   0.99945   1.00536   1.01087   1.01626
 Alpha virt. eigenvalues --    1.02096   1.03305   1.03956   1.06088   1.06320
 Alpha virt. eigenvalues --    1.07015   1.07442   1.07726   1.09073   1.09302
 Alpha virt. eigenvalues --    1.09771   1.10937   1.11353   1.12086   1.13305
 Alpha virt. eigenvalues --    1.14446   1.14641   1.15434   1.15770   1.16501
 Alpha virt. eigenvalues --    1.16734   1.17965   1.18651   1.18830   1.19469
 Alpha virt. eigenvalues --    1.20023   1.21197   1.21806   1.22599   1.22800
 Alpha virt. eigenvalues --    1.24249   1.24477   1.25055   1.26034   1.27411
 Alpha virt. eigenvalues --    1.28077   1.29241   1.29414   1.30969   1.32004
 Alpha virt. eigenvalues --    1.32619   1.33268   1.33799   1.34354   1.35644
 Alpha virt. eigenvalues --    1.36569   1.37123   1.38024   1.39037   1.39530
 Alpha virt. eigenvalues --    1.40340   1.40533   1.41227   1.42298   1.43250
 Alpha virt. eigenvalues --    1.44210   1.44581   1.45813   1.45935   1.48325
 Alpha virt. eigenvalues --    1.49035   1.49806   1.50408   1.51390   1.52283
 Alpha virt. eigenvalues --    1.52634   1.53960   1.54656   1.55925   1.56248
 Alpha virt. eigenvalues --    1.56544   1.57634   1.58360   1.60046   1.61059
 Alpha virt. eigenvalues --    1.61414   1.62272   1.62498   1.62965   1.63538
 Alpha virt. eigenvalues --    1.64481   1.65493   1.65983   1.66774   1.67465
 Alpha virt. eigenvalues --    1.67888   1.68824   1.70527   1.71238   1.71626
 Alpha virt. eigenvalues --    1.72336   1.72771   1.73380   1.74112   1.74693
 Alpha virt. eigenvalues --    1.75198   1.76053   1.76544   1.77565   1.78287
 Alpha virt. eigenvalues --    1.78995   1.79740   1.80573   1.81515   1.82059
 Alpha virt. eigenvalues --    1.82767   1.83153   1.84084   1.84366   1.85188
 Alpha virt. eigenvalues --    1.85851   1.86204   1.87297   1.87928   1.88510
 Alpha virt. eigenvalues --    1.89328   1.89652   1.91247   1.92261   1.92844
 Alpha virt. eigenvalues --    1.94171   1.94346   1.94443   1.94833   1.95744
 Alpha virt. eigenvalues --    1.96987   1.97318   1.98277   1.98929   1.99795
 Alpha virt. eigenvalues --    2.00581   2.00872   2.01645   2.02925   2.03374
 Alpha virt. eigenvalues --    2.03972   2.04358   2.05173   2.05850   2.06526
 Alpha virt. eigenvalues --    2.07865   2.09109   2.10243   2.10799   2.11387
 Alpha virt. eigenvalues --    2.12825   2.13521   2.14036   2.14357   2.15217
 Alpha virt. eigenvalues --    2.17128   2.17713   2.17965   2.19352   2.19588
 Alpha virt. eigenvalues --    2.21042   2.21685   2.22211   2.23117   2.23712
 Alpha virt. eigenvalues --    2.24600   2.24765   2.26393   2.28638   2.28974
 Alpha virt. eigenvalues --    2.29469   2.30115   2.31026   2.32547   2.34090
 Alpha virt. eigenvalues --    2.34420   2.36090   2.36808   2.38167   2.39990
 Alpha virt. eigenvalues --    2.41799   2.42751   2.43679   2.44236   2.44754
 Alpha virt. eigenvalues --    2.45933   2.47384   2.48191   2.48771   2.49550
 Alpha virt. eigenvalues --    2.51247   2.51611   2.52898   2.53160   2.54107
 Alpha virt. eigenvalues --    2.55080   2.56489   2.57945   2.58404   2.58675
 Alpha virt. eigenvalues --    2.60451   2.61492   2.62837   2.62899   2.64552
 Alpha virt. eigenvalues --    2.65669   2.66238   2.67751   2.67965   2.70131
 Alpha virt. eigenvalues --    2.71424   2.73262   2.75278   2.75994   2.77643
 Alpha virt. eigenvalues --    2.78834   2.80106   2.81722   2.81931   2.82391
 Alpha virt. eigenvalues --    2.83704   2.86318   2.87330   2.87797   2.89256
 Alpha virt. eigenvalues --    2.91585   2.93286   2.94242   2.94956   2.97887
 Alpha virt. eigenvalues --    3.00001   3.00113   3.02557   3.09312   3.09418
 Alpha virt. eigenvalues --    3.14625   3.17154   3.19013   3.22770   3.27888
 Alpha virt. eigenvalues --    3.29573   3.35829   3.36711   3.38897   3.39824
 Alpha virt. eigenvalues --    3.42194   3.42604   3.44184   3.47180   3.50141
 Alpha virt. eigenvalues --    3.51481   3.53465   3.55554   3.56060   3.57681
 Alpha virt. eigenvalues --    3.61128   3.61237   3.64949   3.66892   3.71770
 Alpha virt. eigenvalues --    3.81118   3.83550   3.87151   3.90261   3.97216
 Alpha virt. eigenvalues --    4.00649   4.01450   4.02297   4.09049   4.19694
 Alpha virt. eigenvalues --    4.41212   5.08099
          Condensed to atoms (all electrons):
               1          2          3          4          5          6
     1  C   10.843982  -3.468570  -0.966105   0.975000  -1.258485   0.420343
     2  C   -3.468570  27.600461  -5.006487  -0.430779   0.095687 -11.102037
     3  N   -0.966105  -5.006487  16.244292  -0.357352  -0.467164   2.577092
     4  C    0.975000  -0.430779  -0.357352   6.023265  -0.151465  -0.597969
     5  C   -1.258485   0.095687  -0.467164  -0.151465   6.533690   0.483874
     6  C    0.420343 -11.102037   2.577092  -0.597969   0.483874  33.484396
     7  C   -0.238248   1.712514  -1.452803   0.152708  -0.263237 -17.578673
     8  C   -0.075213  -0.616866   0.384512   0.023572  -0.000691   2.330818
     9  C   -0.074630  -0.143217  -0.157123  -0.043155  -0.009080  -2.248866
    10  N   -0.094842   0.577534  -0.069931   0.003682  -0.020695   0.096774
    11  C   -0.707351  -1.609408  -0.558385  -0.126264   0.221360  -5.361147
    12  O    0.001915  -0.002127  -0.002632   0.000083  -0.000840  -0.001490
    13  O    0.011939  -0.096968   0.034030   0.004726   0.001510   0.185720
    14  O    0.010941   0.149247  -0.091529  -0.051021   0.005766  -0.052678
    15  O   -0.039756  -0.010672   0.000595  -0.006355   0.011759   0.041891
    16  H    0.179615   0.547550  -1.230329  -0.096580   0.095724  -0.213189
    17  H    0.283976  -0.015904  -0.221918   0.209942  -0.317921  -0.016338
    18  H    0.191288   0.128484   0.258429  -0.020164  -0.409476  -0.054221
    19  H   -1.466291   0.801275   0.387967  -0.220731   0.131912   0.094170
    20  H    0.163388  -0.531749  -0.291256   0.073565   0.419746   0.026185
    21  H    0.030235  -0.073483  -0.130624  -0.225386   0.055205   0.129274
    22  H    0.864781  -3.101449   0.014496   0.089109  -0.056925   0.902675
    23  H   -0.087935   0.069250  -0.043112  -0.013833  -0.016774   0.037062
    24  H   -0.001538  -0.005379  -0.000415  -0.000188  -0.000059  -0.258534
    25  H    0.011652  -0.007165  -0.002222  -0.003114   0.001874   0.092551
    26  H   -0.087822  -0.258258   0.057426  -0.004865   0.005589   1.820546
    27  C   -0.578347  -0.651356   1.021883  -0.423904  -0.008793   0.693367
    28  H   -0.000982  -0.019959   0.003691  -0.002658   0.001859  -0.230883
    29  H    0.043190   0.431922  -0.343304  -0.144475   0.050999  -0.098145
    30  H    0.005602   0.013802  -0.051501   0.028444  -0.043132  -0.010637
    31  H   -0.002030  -0.005504   0.001027  -0.002963   0.000357   0.017627
    32  H   -0.000424   0.000606   0.000101   0.000075  -0.000021  -0.002454
    33  H   -0.001242   0.018338  -0.000667  -0.001907  -0.000517  -0.012182
    34  H    0.006606  -0.031226  -0.017965   0.027056   0.012119  -0.010361
    35  H    0.030298  -0.026544  -0.010015  -0.005066   0.010242   0.028671
    36  H   -0.008352   0.011372   0.003467   0.002181  -0.003957  -0.003932
    37  O   -0.001308   0.002810   0.000557   0.000417  -0.000665  -0.066094
    38  H    0.004405  -0.002551  -0.000992   0.000722  -0.000337   0.006127
    39  H    0.000015   0.000928   0.000250   0.000024   0.000032   0.009074
    40  H    0.022619   0.426362   0.266398  -0.068481  -0.045389  -0.247959
    41  H    0.077645  -0.061790  -0.516162   0.218206   0.016580  -0.014261
    42  H   -0.111948  -0.131363  -0.660817  -0.148767   0.062613   0.278241
               7          8          9         10         11         12
     1  C   -0.238248  -0.075213  -0.074630  -0.094842  -0.707351   0.001915
     2  C    1.712514  -0.616866  -0.143217   0.577534  -1.609408  -0.002127
     3  N   -1.452803   0.384512  -0.157123  -0.069931  -0.558385  -0.002632
     4  C    0.152708   0.023572  -0.043155   0.003682  -0.126264   0.000083
     5  C   -0.263237  -0.000691  -0.009080  -0.020695   0.221360  -0.000840
     6  C  -17.578673   2.330818  -2.248866   0.096774  -5.361147  -0.001490
     7  C   30.142384  -5.496857   2.405876  -0.211408  -1.898796   0.005799
     8  C   -5.496857  13.491024  -3.831981  -0.263939  -0.107417  -0.018220
     9  C    2.405876  -3.831981  11.585871   0.848763  -1.863435   0.036482
    10  N   -0.211408  -0.263939   0.848763   8.645100  -2.346034   0.006066
    11  C   -1.898796  -0.107417  -1.863435  -2.346034  20.869944  -0.019233
    12  O    0.005799  -0.018220   0.036482   0.006066  -0.019233   8.623055
    13  O   -0.084527   0.018504   0.011153  -0.029161  -0.148397  -0.077047
    14  O    0.002230   0.000140  -0.003759  -0.021364  -0.028682  -0.002850
    15  O   -0.014103   0.004461  -0.005180  -0.009601  -0.075614  -0.074348
    16  H    0.054143  -0.002802   0.000519  -0.000260   0.022697  -0.000186
    17  H   -0.008449   0.002454  -0.000627  -0.004748   0.026704  -0.000081
    18  H   -0.009295  -0.000120  -0.001320   0.008894  -0.043222  -0.000174
    19  H   -0.028849  -0.019810   0.013693   0.014754   0.258714   0.000200
    20  H   -0.024384  -0.040558   0.006724  -0.094501   0.008552  -0.001788
    21  H    0.003134   0.001343  -0.002895  -0.000832  -0.005699   0.000089
    22  H    0.077075   0.077748  -0.002502  -0.042337   0.009343  -0.000148
    23  H   -0.272180   0.138847  -0.051215   0.476715  -2.602254   0.015331
    24  H    0.277354   0.268426  -0.947541  -0.263047   0.520605   0.002843
    25  H    0.602046  -1.351270   0.487211   0.002906  -0.114434  -0.000554
    26  H   -3.163575   0.918021  -0.397506  -0.087756   0.188981   0.000207
    27  C   -0.229144   0.074697  -0.035779   0.046460  -0.137988  -0.000188
    28  H   -0.037642  -0.047084  -0.526685   0.013070   0.277570  -0.021127
    29  H   -0.009343  -0.020436   0.023164  -0.002887  -0.075542   0.000625
    30  H    0.019852   0.003953  -0.004268  -0.008305   0.014048   0.000507
    31  H   -0.010476   0.002783   0.001187   0.013329  -0.018371   0.226568
    32  H   -0.000133   0.002070  -0.004588  -0.006293   0.014884   0.176730
    33  H   -0.000136   0.001691  -0.006054   0.014149   0.017260   0.005675
    34  H    0.003032  -0.001355  -0.004205  -0.010110   0.043103  -0.006482
    35  H   -0.005306  -0.015932   0.015723   0.002520  -0.039940   0.032066
    36  H   -0.001639   0.002157  -0.001780   0.000252   0.011975  -0.001532
    37  O    0.041960  -0.048851   0.103905  -0.107729  -0.089230  -0.079859
    38  H    0.002804   0.000709  -0.006488  -0.003309  -0.025050   0.013000
    39  H   -0.003755   0.008620  -0.009893  -0.000595  -0.004826   0.004884
    40  H    0.115620  -0.033240   0.018370   0.005055  -0.040107  -0.000582
    41  H    0.078357  -0.024148   0.004592   0.005876  -0.005740  -0.000005
    42  H   -0.064120   0.003509   0.002965   0.002684   0.010723   0.000221
              13         14         15         16         17         18
     1  C    0.011939   0.010941  -0.039756   0.179615   0.283976   0.191288
     2  C   -0.096968   0.149247  -0.010672   0.547550  -0.015904   0.128484
     3  N    0.034030  -0.091529   0.000595  -1.230329  -0.221918   0.258429
     4  C    0.004726  -0.051021  -0.006355  -0.096580   0.209942  -0.020164
     5  C    0.001510   0.005766   0.011759   0.095724  -0.317921  -0.409476
     6  C    0.185720  -0.052678   0.041891  -0.213189  -0.016338  -0.054221
     7  C   -0.084527   0.002230  -0.014103   0.054143  -0.008449  -0.009295
     8  C    0.018504   0.000140   0.004461  -0.002802   0.002454  -0.000120
     9  C    0.011153  -0.003759  -0.005180   0.000519  -0.000627  -0.001320
    10  N   -0.029161  -0.021364  -0.009601  -0.000260  -0.004748   0.008894
    11  C   -0.148397  -0.028682  -0.075614   0.022697   0.026704  -0.043222
    12  O   -0.077047  -0.002850  -0.074348  -0.000186  -0.000081  -0.000174
    13  O    8.007162  -0.051950   0.000098  -0.000799  -0.000047   0.001089
    14  O   -0.051950   8.244253  -0.086084   0.034879  -0.001470  -0.001077
    15  O    0.000098  -0.086084   8.200681  -0.002041  -0.002370   0.013121
    16  H   -0.000799   0.034879  -0.002041   2.997988   0.136518  -0.338083
    17  H   -0.000047  -0.001470  -0.002370   0.136518   2.118844  -0.619887
    18  H    0.001089  -0.001077   0.013121  -0.338083  -0.619887   2.277962
    19  H    0.000558  -0.001985   0.000085  -0.039027  -0.314450   0.191328
    20  H    0.001750   0.007599   0.019610   0.074451   0.208419  -0.449150
    21  H    0.000239  -0.008349   0.001244  -0.594911  -0.237936   0.201102
    22  H   -0.003478   0.007594   0.000246   0.093979   0.064755  -0.075955
    23  H    0.029075   0.018125   0.040241  -0.013764  -0.008564   0.029004
    24  H    0.001942  -0.000302   0.000367   0.000028  -0.000025   0.000130
    25  H    0.000564   0.000054   0.000096  -0.000031   0.000129  -0.000048
    26  H   -0.000399  -0.001348  -0.000903  -0.002775   0.001309   0.001027
    27  C   -0.007616  -0.049519   0.009714  -0.258341  -0.025595   0.052805
    28  H   -0.000611   0.007563  -0.008899   0.000502   0.000394  -0.002433
    29  H   -0.007025   0.087381  -0.036468   0.109826   0.011363  -0.021482
    30  H    0.009050   0.224949   0.035263  -0.003732   0.001893   0.002441
    31  H    0.054799  -0.003841   0.007721  -0.000577  -0.000009   0.000551
    32  H    0.002098   0.000280   0.003040   0.000039   0.000012  -0.000050
    33  H    0.263083  -0.000336   0.000085   0.000311   0.000090  -0.000152
    34  H    0.318548   0.079960   0.002450  -0.000892  -0.000711  -0.000180
    35  H   -0.001252  -0.003020   0.277911   0.000781  -0.000362  -0.000356
    36  H    0.000700   0.005196   0.308484  -0.000063   0.000232  -0.001075
    37  O    0.007591   0.000149  -0.000488   0.000067  -0.000031  -0.000125
    38  H    0.002643   0.000379   0.001334   0.000010  -0.000046   0.000095
    39  H    0.000434  -0.000116   0.000787  -0.000005   0.000006   0.000013
    40  H   -0.018579   0.020490   0.001818   0.008201   0.001024  -0.004973
    41  H   -0.000042  -0.012877  -0.000076   0.049511   0.002625  -0.003796
    42  H    0.005164   0.014464   0.000939  -0.060145  -0.003780   0.015499
              19         20         21         22         23         24
     1  C   -1.466291   0.163388   0.030235   0.864781  -0.087935  -0.001538
     2  C    0.801275  -0.531749  -0.073483  -3.101449   0.069250  -0.005379
     3  N    0.387967  -0.291256  -0.130624   0.014496  -0.043112  -0.000415
     4  C   -0.220731   0.073565  -0.225386   0.089109  -0.013833  -0.000188
     5  C    0.131912   0.419746   0.055205  -0.056925  -0.016774  -0.000059
     6  C    0.094170   0.026185   0.129274   0.902675   0.037062  -0.258534
     7  C   -0.028849  -0.024384   0.003134   0.077075  -0.272180   0.277354
     8  C   -0.019810  -0.040558   0.001343   0.077748   0.138847   0.268426
     9  C    0.013693   0.006724  -0.002895  -0.002502  -0.051215  -0.947541
    10  N    0.014754  -0.094501  -0.000832  -0.042337   0.476715  -0.263047
    11  C    0.258714   0.008552  -0.005699   0.009343  -2.602254   0.520605
    12  O    0.000200  -0.001788   0.000089  -0.000148   0.015331   0.002843
    13  O    0.000558   0.001750   0.000239  -0.003478   0.029075   0.001942
    14  O   -0.001985   0.007599  -0.008349   0.007594   0.018125  -0.000302
    15  O    0.000085   0.019610   0.001244   0.000246   0.040241   0.000367
    16  H   -0.039027   0.074451  -0.594911   0.093979  -0.013764   0.000028
    17  H   -0.314450   0.208419  -0.237936   0.064755  -0.008564  -0.000025
    18  H    0.191328  -0.449150   0.201102  -0.075955   0.029004   0.000130
    19  H    2.665808  -0.820517   0.056585  -0.419995   0.108853   0.001321
    20  H   -0.820517   2.706525  -0.045649   0.317387  -0.286223  -0.005820
    21  H    0.056585  -0.045649   2.411176  -0.120210   0.000414   0.000046
    22  H   -0.419995   0.317387  -0.120210   3.393855  -0.064904  -0.002045
    23  H    0.108853  -0.286223   0.000414  -0.064904   4.877381   0.077584
    24  H    0.001321  -0.005820   0.000046  -0.002045   0.077584   2.340001
    25  H   -0.002473   0.003636  -0.000674   0.008443  -0.021577  -0.119970
    26  H    0.007572  -0.022409   0.006663  -0.112951  -0.020430  -0.009193
    27  C    0.110401  -0.162237   0.001597  -0.181082   0.111262   0.002497
    28  H   -0.000457   0.019297  -0.000179   0.002525  -0.237266  -0.180175
    29  H   -0.020969   0.053831   0.009201   0.003070  -0.033507  -0.002028
    30  H    0.003179  -0.019854  -0.001579   0.004070   0.048223   0.000312
    31  H    0.000046  -0.001553   0.000047  -0.000516   0.005143  -0.000982
    32  H    0.000048  -0.000536  -0.000010  -0.000034   0.001435  -0.000271
    33  H   -0.000167  -0.000173  -0.000183   0.000611   0.007974  -0.000574
    34  H    0.001016   0.001795   0.001547  -0.000604  -0.016140   0.001515
    35  H   -0.005202   0.027452   0.000670   0.002864   0.000545  -0.001333
    36  H    0.002105  -0.000478  -0.000187  -0.001110  -0.015438  -0.000252
    37  O    0.000424   0.003190  -0.000008  -0.000059  -0.010788   0.017219
    38  H   -0.000172   0.002647   0.000031   0.000200   0.008813   0.002024
    39  H   -0.000076   0.000408   0.000004  -0.000004  -0.001945   0.006284
    40  H   -0.001466   0.000430  -0.000620  -0.009879   0.030654  -0.002942
    41  H    0.007118   0.008257   0.033052   0.064383  -0.006123  -0.000148
    42  H    0.004358  -0.019688   0.018416  -0.017696   0.011377   0.000689
              25         26         27         28         29         30
     1  C    0.011652  -0.087822  -0.578347  -0.000982   0.043190   0.005602
     2  C   -0.007165  -0.258258  -0.651356  -0.019959   0.431922   0.013802
     3  N   -0.002222   0.057426   1.021883   0.003691  -0.343304  -0.051501
     4  C   -0.003114  -0.004865  -0.423904  -0.002658  -0.144475   0.028444
     5  C    0.001874   0.005589  -0.008793   0.001859   0.050999  -0.043132
     6  C    0.092551   1.820546   0.693367  -0.230883  -0.098145  -0.010637
     7  C    0.602046  -3.163575  -0.229144  -0.037642  -0.009343   0.019852
     8  C   -1.351270   0.918021   0.074697  -0.047084  -0.020436   0.003953
     9  C    0.487211  -0.397506  -0.035779  -0.526685   0.023164  -0.004268
    10  N    0.002906  -0.087756   0.046460   0.013070  -0.002887  -0.008305
    11  C   -0.114434   0.188981  -0.137988   0.277570  -0.075542   0.014048
    12  O   -0.000554   0.000207  -0.000188  -0.021127   0.000625   0.000507
    13  O    0.000564  -0.000399  -0.007616  -0.000611  -0.007025   0.009050
    14  O    0.000054  -0.001348  -0.049519   0.007563   0.087381   0.224949
    15  O    0.000096  -0.000903   0.009714  -0.008899  -0.036468   0.035263
    16  H   -0.000031  -0.002775  -0.258341   0.000502   0.109826  -0.003732
    17  H    0.000129   0.001309  -0.025595   0.000394   0.011363   0.001893
    18  H   -0.000048   0.001027   0.052805  -0.002433  -0.021482   0.002441
    19  H   -0.002473   0.007572   0.110401  -0.000457  -0.020969   0.003179
    20  H    0.003636  -0.022409  -0.162237   0.019297   0.053831  -0.019854
    21  H   -0.000674   0.006663   0.001597  -0.000179   0.009201  -0.001579
    22  H    0.008443  -0.112951  -0.181082   0.002525   0.003070   0.004070
    23  H   -0.021577  -0.020430   0.111262  -0.237266  -0.033507   0.048223
    24  H   -0.119970  -0.009193   0.002497  -0.180175  -0.002028   0.000312
    25  H    2.142460  -0.144713  -0.013011   0.012925   0.001173  -0.000297
    26  H   -0.144713   3.235895   0.062335   0.006308   0.001377  -0.000001
    27  C   -0.013011   0.062335   4.997859  -0.009853  -0.108435   0.025591
    28  H    0.012925   0.006308  -0.009853   1.870075   0.005481  -0.000222
    29  H    0.001173   0.001377  -0.108435   0.005481   0.690560  -0.190170
    30  H   -0.000297  -0.000001   0.025591  -0.000222  -0.190170   0.649707
    31  H    0.000199   0.000008   0.003188   0.005305   0.000938  -0.000720
    32  H    0.000023   0.000048   0.000050  -0.002828  -0.000563   0.000423
    33  H   -0.000072  -0.000121   0.000160  -0.001156   0.005802  -0.002295
    34  H   -0.000178   0.000668  -0.024888   0.004117  -0.017526  -0.001523
    35  H    0.000423  -0.000997  -0.007623  -0.002443   0.015212  -0.021205
    36  H    0.000011   0.000175   0.000593   0.003574   0.003653  -0.003063
    37  O   -0.000998   0.000611  -0.000109  -0.001535  -0.000836   0.000614
    38  H    0.000336  -0.000866  -0.000205   0.001060  -0.000452   0.000279
    39  H   -0.000298   0.000123   0.000025   0.004454   0.000144  -0.000100
[...]
 .00094106,0.00030961,-0.00060269,-0.00010947,0.00386512,-0.00805623,-0
 .00236078,0.00220683,0.00147996,0.00088855,0.00104919,0.00031300,-0.00
 060137,0.00065868,0.00102437,-0.00204754,-0.00004578,0.00001360,-0.000
 01478,-0.00000076,0.00002658,-0.00000932,0.00000416,0.00002975,0.00001
 998,-0.00000403,0.00001642,-0.00000504,-0.00001783,-0.00003305,-0.0000
 2239,0.00001104,0.00001030,-0.00000089,-0.00004810,0.00006473,-0.00002
 925,0.00015466,-0.00020628,0.00014615,0.00011502,0.00023917,0.00019891
 ,-0.00004101,-0.00003871,0.00001622,-0.00001675,-0.00001388,0.00000794
 ,-0.00002325,0.00000841,0.00000087,0.00665902,0.00296259,0.00291339,-0
 .00038244,-0.00055739,0.00020356,-0.00021541,-0.00009051,0.00030823,-0
 .00561304,0.00091392,-0.00516977,0.00253169,0.00064964,-0.00009070,0.0
 0008033,-0.00015702,-0.00017453,-0.00136549,0.00006705,0.00068900,-0.0
 0197652,-0.00099253,0.00341774,0.00022089,-0.00010404,0.00018278,-0.03
 540408,0.12579446,-0.10806302,0.03279321,-0.15587882,0.12577413,-0.000
 04729,-0.00002198,-0.00002760,-0.00003780,-0.00005493,-0.00002392,0.00
 006554,0.00004983,0.00002278,-0.00002641,-0.00000389,0.00000074,-0.000
 01869,-0.00000854,0.00001238,-0.00012496,0.00025139,0.00002952,0.00008
 347,-0.00005794,-0.00002809,-0.00003764,-0.00012372,-0.00012955,-0.000
 25924,-0.00002381,0.00006776,-0.00216074,-0.00237963,0.00024693,-0.000
 07051,-0.00041322,-0.00010844,0.00047866,-0.00029394,0.00052575,0.0000
 7862,0.00011086,0.00009833,0.00012079,0.00010159,0.00014303,0.00057031
 ,-0.00031592,0.00053198,-0.00000373,-0.00000466,0.00000647,0.00000988,
 0.00000435,-0.00000208,-0.00000795,0.00001999,-0.00000568,0.00001018,0
 .00000809,0.00000585,0.00001037,0.00000015,0.00001784,0.00001359,0.000
 01527,0.00000364,0.00000097,0.00001576,0.00001146,-0.00011342,-0.00002
 710,-0.00009021,0.00009389,-0.00005622,0.00001739,-0.00001810,-0.00001
 758,-0.00001433,-0.00000078,-0.00000056,0.00001269,-0.00001658,-0.0000
 3241,-0.00003528,0.00176724,0.00287009,-0.00311377,-0.00007408,-0.0000
 6672,0.00000834,-0.00015736,-0.00006614,-0.00021386,-0.00024517,-0.000
 20476,-0.00010688,0.00015056,0.00009513,0.00004173,0.00001088,0.000002
 95,-0.00004238,0.00002741,-0.00003849,-0.00003816,-0.00014469,0.000271
 92,-0.00046161,-0.00015581,0.00018884,-0.00002545,-0.12660626,-0.03019
 108,-0.22436167,-0.00209436,-0.00267031,-0.00232417,0.12892096,0.00001
 611,-0.00000430,0.00000242,-0.00001587,-0.00003594,-0.00002880,-0.0000
 2440,-0.00004380,0.00000880,0.00001130,0.00000056,0.00000203,0.0000112
 2,0.00002186,-0.00000102,-0.00022945,-0.00003478,-0.00009069,-0.000063
 88,0.00007694,0.00002513,0.00015956,-0.00016832,-0.00007461,-0.0004686
 5,0.00040001,0.00012787,-0.00313223,-0.00172227,0.00037324,0.00010657,
 -0.00044644,-0.00011794,0.00015683,-0.00350733,0.00040726,-0.00005250,
 -0.00001025,-0.00003782,-0.00008570,-0.00007288,-0.00005498,-0.0002866
 7,0.00001169,-0.00030105,0.00000500,0.00000122,0.00000297,-0.00000173,
 -0.00000324,0.00000117,0.00000207,-0.00001377,0.00000292,-0.00001261,-
 0.00000486,-0.00000103,-0.00000128,0.00002047,-0.00000784,-0.00000583,
 -0.00000650,-0.00000248,-0.00002292,-0.00000482,-0.00000015,0.00001314
 ,0.00008450,0.00004473,0.00002593,0.00001468,-0.00019777,-0.00004693,-
 0.00003197,-0.00002112,0.00000331,-0.00000473,-0.00000168,0.00000856,0
 .00001073,0.00001206,0.00468600,0.00263362,-0.00251843,0.00005807,0.00
 005972,-0.00001804,0.00007195,0.00004466,0.00010927,-0.00025092,0.0003
 9206,-0.00024444,0.00052374,-0.00030931,0.00041277,-0.00000032,0.00001
 194,0.00002410,0.00002161,0.00000764,-0.00000848,0.00009009,-0.0000596
 6,0.00037400,0.00016310,-0.00005202,0.00001824,-0.05390805,-0.05502679
 ,-0.07543304,0.01941835,0.00999707,0.03434125,0.03305939,0.04777600,0.
 00002821,0.00000619,0.00002959,-0.00006141,0.00003356,0.00002664,0.000
 08241,0.00000001,-0.00004218,-0.00003597,0.00002417,0.00003548,-0.0000
 0047,-0.00000822,-0.00001969,0.00008205,0.00001568,-0.00001597,-0.0000
 0508,0.00001463,0.00001315,0.00009617,0.00012460,0.00004698,0.00026756
 ,-0.00017325,-0.00006109,0.00245726,0.00260929,0.00038305,-0.00027847,
 0.00021102,0.00009499,0.00070263,0.00011936,0.00054439,0.00017395,0.00
 009879,0.00013154,0.00015955,-0.00002536,-0.00003797,0.00019152,-0.000
 06986,-0.00034228,0.00000017,-0.00000519,-0.00000340,0.00001240,-0.000
 00281,-0.00000134,-0.00000578,0.00000356,0.00001076,0.00001630,0.00000
 404,-0.00000322,-0.00001274,-0.00000522,0.00002443,0.00001287,0.000002
 67,-0.00000565,0.00002816,-0.00000400,-0.00000446,-0.00007273,-0.00004
 002,0.00004965,-0.00006262,-0.00006563,0.00001037,0.00002720,0.0000211
 9,0.00001529,0.00001049,0.00000271,0.00000437,-0.00002089,-0.00000937,
 -0.00000343,-0.00375511,-0.00418572,-0.00037470,-0.00006504,-0.0000432
 6,0.00001539,-0.00004677,0.00003094,0.00002917,-0.00005046,-0.00031849
 ,-0.00020253,-0.00024186,0.00017962,-0.00000317,-0.00000795,-0.0000090
 9,-0.00001470,-0.00015746,0.00003578,0.00002245,-0.00036012,0.00016397
 ,0.00021131,0.00004792,-0.00004576,0.00012262,-0.21977236,-0.03194630,
 -0.41293385,-0.00874799,-0.00960608,-0.01531559,0.22935375,0.04286826,
 0.42758032,-0.00007860,-0.00009376,0.00021314,0.00020699,0.00069829,-0
 .00032618,0.00933957,-0.00493479,-0.00222743,0.00052045,-0.00073924,-0
 .00108485,0.00044070,-0.00010491,-0.00042922,-0.00043900,-0.00034587,-
 0.00067961,-0.00027420,0.00048790,-0.00026031,0.00011424,0.00001558,-0
 .00015294,0.00004586,-0.00016830,-0.00000208,-0.00041540,0.00009889,0.
 00006928,0.00071310,0.00009802,0.00002446,0.00002814,-0.00001883,-0.00
 000229,0.00008210,-0.00000672,-0.00004624,0.00018221,0.00018772,-0.000
 03761,0.00005311,-0.00002313,0.00000578,-0.00005349,-0.00009512,-0.000
 02565,-0.00003736,-0.00005000,-0.00009246,0.00005048,0.00000319,0.0001
 0474,-0.00000360,-0.00000524,0.00001706,0.00004766,-0.00000612,0.00003
 236,0.00041584,-0.00009698,-0.00033399,-0.00032866,-0.00012105,-0.0001
 2433,-0.00004678,0.00004419,-0.00001335,-0.00000680,-0.00000699,0.0000
 0014,0.00002791,-0.00001999,0.00003183,-0.00004575,-0.00017973,0.00011
 138,-0.23792669,0.10435033,0.07012673,0.00007212,0.00006921,-0.0000011
 4,-0.00006816,-0.00014058,0.00011030,-0.00002651,0.00003097,-0.0000467
 5,-0.00001217,0.00000632,-0.00000086,-0.00000455,0.00000267,0.00000294
 ,0.00001644,0.00001034,0.00002526,-0.00007448,0.00004203,0.00006590,-0
 .00002748,0.00000946,0.00001150,-0.00001725,-0.00000468,0.00000019,-0.
 00002329,-0.00004074,-0.00000555,-0.00001271,0.00002509,-0.00001289,-0
 .00000302,0.00000093,0.00000503,0.25082150,0.00002692,-0.00020096,0.00
 001759,0.00021530,0.00007862,0.00072953,0.01418607,-0.01181972,-0.0064
 3756,-0.00222454,0.00029715,-0.00286088,0.00116612,-0.00012053,-0.0004
 2358,0.00016688,0.00029001,0.00020381,0.00018626,0.00013860,0.00024507
 ,0.00000432,-0.00005982,0.00001305,-0.00004587,0.00004115,-0.00002230,
 -0.00007796,-0.00005743,-0.00000887,-0.00017813,-0.00001790,0.00001650
 ,0.00006000,0.00007738,0.00013443,0.00023225,0.00029134,0.00016536,-0.
 00044427,0.00009815,0.00059133,-0.00004155,0.00001235,0.00012037,-0.00
 020899,0.00034227,0.00013676,-0.00017856,-0.00010099,-0.00038209,-0.00
 000937,-0.00002925,0.00005711,-0.00000997,0.00002228,-0.00001280,-0.00
 003888,0.00003564,-0.00004051,0.00039361,0.00000450,-0.00016247,-0.000
 27169,0.00004301,-0.00020576,-0.00000444,-0.00000522,-0.00004797,-0.00
 000692,-0.00000346,-0.00000642,0.00000465,0.00001280,-0.00001021,-0.00
 003002,-0.00010807,0.00016040,0.09913753,-0.10244884,-0.03724444,0.000
 02398,0.00003053,-0.00001664,0.00099031,0.00009138,-0.00071549,-0.0000
 4161,0.00000654,-0.00010480,-0.00012098,-0.00014395,-0.00015840,-0.000
 00829,-0.00001289,-0.00000063,-0.00013020,-0.00008565,0.00003467,-0.00
 009022,-0.00029873,-0.00015778,0.00003357,-0.00001280,-0.00005757,0.00
 003778,0.00000817,-0.00001030,-0.00000571,-0.00003601,0.00003821,-0.00
 001982,0.00003171,-0.00004490,0.00000088,0.00000214,-0.00000890,-0.111
 98015,0.11166041,0.00011293,-0.00023780,0.00022022,0.00142065,-0.00048
 915,0.00105691,0.02595123,-0.01853313,-0.01261935,-0.00330127,-0.00029
 126,-0.00451635,0.00138419,-0.00105668,-0.00050321,-0.00015781,0.00032
 481,-0.00060730,-0.00044085,0.00018721,-0.00033274,-0.00006570,0.00014
 746,0.00007776,-0.00000268,0.00002805,-0.00000359,0.00031416,0.0000576
 1,-0.00002288,-0.00044790,-0.00028923,0.00002650,-0.00002940,0.0000430
 8,-0.00002756,-0.00004707,0.00006766,-0.00009841,-0.00038694,-0.000187
 63,0.00011005,-0.00007911,0.00007568,-0.00000576,0.00003703,-0.0002877
 8,0.00016570,-0.00024854,-0.00015904,-0.00047519,-0.00004004,-0.000045
 84,-0.00011312,-0.00002574,0.00004733,0.00004726,-0.00006338,0.0000490
 4,-0.00002225,-0.00009382,0.00020569,-0.00001488,0.00000721,0.00026700
 ,-0.00014593,0.00008536,-0.00004644,-0.00002728,0.00000092,0.00001026,
 0.00000921,-0.00000330,-0.00000116,0.00002194,0.00004472,0.00014503,-0
 .00006883,0.06321136,-0.03461137,-0.07132926,-0.00021887,-0.00018252,-
 0.00004395,0.00056628,0.00032493,-0.00023138,0.00005100,-0.00000753,0.
 00001957,0.00001923,-0.00000868,0.00002353,0.00000014,-0.00000592,0.00
 000090,0.00004276,0.00002765,0.00003330,0.00006705,-0.00008684,0.00005
 701,0.00002230,-0.00002309,-0.00000164,0.00003483,0.00000696,-0.000007
 61,0.00010886,0.00011772,0.00000525,0.00001664,-0.00006518,0.00004696,
 -0.00000519,-0.00000049,-0.00001102,-0.07334118,0.04685168,0.08210633,
 0.00025993,0.00020142,0.00005982,0.00049912,-0.00108752,0.00157684,-0.
 00546990,-0.00754514,-0.00697402,0.00215825,0.00194766,-0.00000038,0.0
 0016911,0.00016016,0.00022032,-0.00000481,0.00021961,0.00008217,-0.000
 26212,-0.00049584,0.00001687,0.00003659,0.00008122,0.00003800,0.000024
 54,0.00000496,0.00000338,0.00010083,0.00005585,0.00001431,0.00006478,-
 0.00009870,0.00000471,-0.00008612,-0.00003489,-0.00005714,-0.00025996,
 -0.00005995,0.00001091,-0.00071006,-0.00067762,0.00039248,-0.00007845,
 -0.00001858,-0.00010067,-0.00005523,-0.00010657,0.00001794,-0.00001319
 ,-0.00000544,-0.00006963,-0.00003673,0.00006271,0.00013464,0.00001783,
 -0.00000150,-0.00009439,-0.00003898,0.00013416,0.00007595,0.00054512,-
 0.00114692,-0.00066911,-0.00031473,0.00088843,-0.00111488,0.00006463,-
 0.00000087,0.00004706,0.00001475,0.00001168,0.00000459,-0.00002567,-0.
 00001125,0.00001223,-0.00005502,0.00017504,-0.00012626,-0.18164632,-0.
 11816986,0.02713110,0.00001486,-0.00000881,0.00000827,0.00088767,0.001
 13589,-0.00064582,0.00015195,0.00012487,0.00012831,0.00009146,0.000071
 21,0.00007601,0.00001607,0.00001279,-0.00000085,0.00004659,0.00002792,
 -0.00003621,0.00027351,0.00000816,-0.00007152,0.00004189,0.00000280,0.
 00000889,-0.00000449,0.00000721,0.00001448,-0.00003243,0.00003017,-0.0
 0002553,0.00002966,-0.00003208,0.00002907,0.00001117,-0.00000617,0.000
 00746,-0.01709570,-0.01786019,0.00403933,0.19373809,0.00029639,0.00014
 269,0.00026645,0.00215480,0.00111346,0.00157750,-0.01471219,-0.0171349
 2,-0.00906134,-0.00309411,0.00098254,0.00137359,0.00040805,0.00021583,
 -0.00009976,0.00021920,-0.00001494,-0.00002405,-0.00002831,-0.00003295
 ,-0.00005422,-0.00010482,-0.00000125,0.00003333,-0.00001499,0.00007625
 ,0.00003742,0.00002586,-0.00003081,-0.00006171,-0.00004147,-0.00011338
 ,0.00006588,-0.00006837,-0.00000584,-0.00000275,-0.00020794,0.00013686
 ,0.00010293,-0.00100779,-0.00087786,0.00065101,-0.00009611,-0.00003187
 ,-0.00010282,0.00010190,-0.00010312,0.00009482,0.00001890,0.00002148,-
 0.00017328,0.00019785,0.00008882,0.00022438,-0.00000306,-0.00002240,-0
 .00007926,0.00000449,0.00004213,0.00006699,0.00127958,-0.00010244,-0.0
 0046290,-0.00046269,0.00084371,-0.00121447,0.00005046,0.00000075,0.000
 03222,0.00000435,0.00000117,0.00000215,-0.00001016,0.00000569,-0.00000
 677,-0.00002755,0.00001139,-0.00004603,-0.11711324,-0.15550324,0.02499
 391,0.00004390,0.00002643,-0.00000182,0.00131996,0.00129919,-0.0010575
 3,0.00013401,0.00019913,0.00014231,0.00004659,0.00001245,0.00000757,0.
 00001640,0.00000951,0.00000090,-0.00000728,-0.00003522,-0.00001862,0.0
 0034792,-0.00019298,-0.00016283,0.00006332,0.00000014,-0.00000792,-0.0
 0000977,0.00000941,0.00001453,-0.00004807,0.00000672,-0.00001252,0.000
 02313,-0.00001768,0.00000946,0.00001236,-0.00000480,0.00000637,0.01121
 356,0.01059928,-0.00152399,0.13519095,0.17079394,0.00037698,0.00020062
 ,0.00027730,-0.00143082,-0.00556784,0.00365579,-0.02540085,-0.02634936
 ,-0.00730473,-0.00406849,0.00066297,0.00167588,0.00022496,0.00020582,0
 .00005476,0.00021250,0.00055637,-0.00015157,0.00002597,-0.00004472,0.0
 0003595,-0.00009191,0.00001047,0.00001980,-0.00002766,0.00010495,0.000
 00835,0.00011959,-0.00001049,-0.00000679,-0.00006518,-0.00012150,-0.00
 007526,0.00002384,0.00003692,0.00006253,0.00005134,0.00014136,0.000107
 71,-0.00067996,-0.00052532,0.00093206,-0.00002954,-0.00000017,0.000041
 99,0.00039551,-0.00000639,-0.00023126,0.00007579,0.00009327,-0.0000803
 7,0.00009159,0.00011910,0.00004947,0.00006363,0.00002627,-0.00006457,0
 .00000235,0.00007225,0.00011471,0.00111070,0.00109546,0.00026643,0.001
 25371,0.00156539,0.00037494,0.00006484,0.00000440,0.00001324,0.0000019
 7,0.00000339,0.00000546,-0.00000357,0.00000670,0.00000133,0.00000357,0
 .00002310,0.00001541,0.02797791,0.02566549,-0.05454599,-0.00001015,-0.
 00002231,-0.00001020,0.00074149,0.00055179,-0.00156394,0.00005857,0.00
 004617,-0.00004080,-0.00005014,-0.00006704,-0.00007178,-0.00000657,-0.
 00000517,-0.00000224,-0.00007790,-0.00003485,0.00000603,0.00001616,-0.
 00015317,-0.00012324,0.00001880,-0.00000559,-0.00002959,0.00000959,0.0
 0000259,-0.00000402,0.00001519,0.,0.00001849,-0.00000677,0.00000808,-0
 .00001658,-0.00000208,0.00000149,-0.00000502,0.00554859,0.00707943,-0.
 00113482,-0.02321467,-0.01800945,0.05947598,0.00018508,0.00045713,-0.0
 0012688,0.00033750,-0.00105883,-0.00042945,-0.00377227,0.00443903,-0.0
 0502975,0.00052973,-0.00035923,0.00090374,-0.00012571,-0.00001119,0.00
 008211,0.00036911,-0.00012998,-0.00007932,-0.00002211,-0.00014591,0.00
 005906,0.00001599,-0.00001647,-0.00001339,0.00001687,0.00003756,-0.000
 00541,-0.00015341,-0.00005570,0.00001075,0.00023890,0.00013848,-0.0000
 0420,0.00006352,0.00001347,0.00008729,0.00022352,0.00000042,0.00010312
 ,0.00014389,0.00001219,0.00065271,0.00003806,-0.00001942,0.00014704,0.
 00030249,0.00004962,-0.00005645,0.00001419,-0.00002097,0.00003510,-0.0
 0002878,-0.00002254,-0.00003001,0.00001300,-0.00009947,-0.00013795,0.0
 0001844,0.00002370,0.00002654,-0.00003246,-0.00025360,-0.00003479,0.00
 004341,0.00035832,-0.00022082,0.00000395,0.00004926,-0.00001889,0.0000
 0294,-0.00000026,-0.00000475,-0.00001050,-0.00000198,-0.00000258,-0.00
 007923,-0.00002663,0.00000204,-0.06724081,0.04867978,-0.05126946,0.000
 10527,0.00010202,0.00000599,-0.00000574,0.00032466,-0.00100219,-0.0000
 1386,-0.00005929,-0.00013950,-0.00008434,-0.00006432,-0.00009097,-0.00
 001182,-0.00000545,-0.00000458,-0.00009660,-0.00001116,-0.00000636,-0.
 00025544,0.00003405,-0.00006914,-0.00000898,0.00000320,-0.00004084,0.0
 0001874,0.00000347,-0.00000957,-0.00004226,-0.00007934,0.00002549,-0.0
 0002501,0.00005616,-0.00005080,0.00000010,0.00000331,-0.00000182,-0.00
 615674,0.01716191,-0.01853940,0.00693147,-0.01611601,0.01668113,0.0685
 4990,-0.00005385,0.00048375,-0.00091201,-0.00024593,-0.00161544,-0.002
 78860,-0.00676226,0.01326204,-0.01600635,-0.00024830,0.00138525,-0.000
 73225,-0.00029858,0.00028927,0.00020345,0.00027089,0.00004758,-0.00007
 029,-0.00010628,-0.00012732,0.00000559,-0.00001570,0.00007244,0.000049
 44,-0.00003811,0.00000427,-0.00000047,0.00016815,0.00003069,-0.0000000
 8,-0.00020778,-0.00010021,-0.00001141,0.00001355,0.00000890,-0.0000151
 5,0.00005640,-0.00002381,-0.00008013,0.00022074,-0.00003358,0.00008286
 ,0.00002479,0.00002309,0.00003256,-0.00003530,-0.00006572,0.00025629,0
 .00000439,-0.00001060,0.00004094,0.00001319,-0.00002343,0.00000097,-0.
 00001516,-0.00008759,-0.00022011,-0.00001795,0.00002250,-0.00015153,0.
 00004487,-0.00040217,0.00012559,0.00019730,0.00033785,-0.00035351,0.00
 002119,-0.00000882,-0.00000327,0.00000442,0.00000876,0.00000242,-0.000
 01028,0.00000544,0.00000697,-0.00002245,0.00014284,-0.00006130,0.05208
 641,-0.17664997,0.13243284,-0.00007719,-0.00006404,-0.00001293,-0.0001
 6348,0.00025600,-0.00017229,0.00002992,-0.00001018,-0.00005307,-0.0000
 0592,0.00000091,0.00001426,-0.00000583,-0.00000438,0.00000107,0.000026
 12,0.00001293,0.00002457,-0.00008570,0.00005704,0.00008682,-0.00002165
 ,-0.00000556,0.00000445,0.00000529,-0.00000222,-0.00000617,0.00004622,
 0.00003266,0.00000233,-0.00000216,-0.00001467,0.00001161,-0.00000531,0
 .00000130,-0.00000392,0.00178829,-0.00865321,0.00915591,0.00681303,-0.
 01241324,0.01263954,-0.05338999,0.18383063,-0.00058102,0.00092639,-0.0
 0091635,0.00044722,-0.00432245,-0.00343438,-0.01109501,0.01852619,-0.0
 2527300,-0.00058332,0.00179451,0.00069173,-0.00028093,0.00002793,0.000
 12947,0.00076841,-0.00014451,0.00003062,-0.00012655,-0.00008398,0.0000
 9514,-0.00004552,0.00004272,0.00006221,-0.00004645,0.00005871,-0.00000
 923,0.00001993,-0.00005842,-0.00001213,-0.00022401,-0.00004057,0.00006
 301,0.00002199,-0.00000892,0.00002341,0.00009131,-0.00001981,-0.000004
 90,0.00003103,-0.00032786,0.00040525,0.00001898,-0.00003156,0.00006685
 ,0.00031395,-0.00074635,-0.00017489,0.00003891,-0.00004529,0.00008761,
 0.00004356,-0.00002925,0.00001924,0.00001375,-0.00019451,-0.00029752,0
 .00009235,-0.00018464,-0.00028711,0.00026575,-0.00002356,-0.00009993,0
 .00008802,-0.00016777,0.00023804,0.00002024,0.00004673,-0.00002725,0.0
 0000652,0.00000426,-0.00000408,-0.00001892,0.00000429,-0.00000332,0.00
 004754,0.00004090,-0.00006859,-0.04952046,0.12277567,-0.17378025,0.000
 03289,0.00004436,0.00000031,-0.00001644,0.00062966,-0.00075194,-0.0000
 1551,-0.00003657,-0.00007616,-0.00002156,-0.00000652,-0.00002160,-0.00
 000468,0.00000162,0.00000058,0.00000083,0.00000490,0.00001031,-0.00013
 326,0.00003757,0.00002840,-0.00000625,0.00000306,-0.00001090,0.0000010
 2,0.00001038,-0.00000964,-0.00002157,-0.00003265,0.00000866,-0.0000081
 5,0.00002282,-0.00001816,0.00000205,0.00000193,-0.00000067,0.00274029,
 -0.00745404,0.00833592,-0.00095407,0.00248031,-0.00175084,0.05859713,-
 0.13352565,0.19673607\\-0.00000181,-0.00000797,0.00000615,0.00000553,0
 .00002749,-0.00001463,0.00002560,-0.00002455,-0.00000008,-0.00000351,0
 .00000287,-0.00000094,0.00000564,0.00000115,-0.00000581,-0.00000216,0.
 00000367,-0.00000600,0.00000805,-0.00000648,-0.00000185,-0.00001237,-0
 .00000534,-0.00000162,-0.00000229,0.00000995,0.00000255,-0.00002039,0.
 00000424,-0.00000093,0.00000204,-0.00000521,-0.00000213,0.00007725,0.0
 0012725,-0.00007452,-0.00000283,0.00000462,-0.00001142,0.00000641,0.00
 000713,0.00001046,0.00000015,0.00001085,0.00000475,-0.00000100,0.00000
 016,0.00000064,-0.00000047,0.00000058,-0.00000095,0.00000174,0.0000001
 3,0.00000211,0.00000509,-0.00000245,0.00000153,-0.00000178,0.00000364,
 -0.00000173,-0.00000108,-0.00000082,-0.00000070,-0.00000481,0.00000163
 ,0.00000288,0.00000049,0.00000507,-0.00000282,0.00000009,-0.00000155,-
 0.00000123,-0.00000002,0.00000006,-0.00000077,-0.00000082,0.00000056,-
 0.00000109,-0.00000322,-0.00000054,0.00000253,0.00002329,0.00000848,0.
 00000505,0.00000019,0.00000402,0.00000962,-0.00001867,-0.00000761,-0.0
 0001829,0.00001022,0.00002368,0.00000979,-0.00009094,-0.00013641,0.000
 05875,-0.00000405,0.00000179,0.00000091,0.00000322,-0.00003660,0.00000
 544,-0.00001091,-0.00000016,0.00000842,0.00001073,-0.00000626,0.000009
 84,-0.00005947,-0.00006446,-0.00001821,0.00005863,0.00004181,0.0000295
 0,0.00000046,0.00001362,-0.00000555,0.00000028,0.00000283,-0.00000145,
 -0.00000021,-0.00000071,0.00000062,-0.00000228,-0.00000015,0.00000117\
 \\@


 The cat could very well be man's best friend
 but would never stoop to admitting it.
                               -- Doug Larson
 Job cpu time:       1 days 20 hours 15 minutes  9.9 seconds.
 Elapsed time:       0 days  1 hours 34 minutes 54.2 seconds.
 File lengths (MBytes):  RWF=   1444 Int=      0 D2E=      0 Chk=     36 Scr=      8
 Normal termination of Gaussian 16 at Wed Dec 14 05:10:53 2022.
