 Entering Gaussian System, Link 0=g16
 Input=NicPyrNa5h27.gjf
 Output=NicPyrNa5h27.log
 Initial command:
 /sw/contrib/gaussian/g16/A03/g16/l1.exe "/gscratch/scrubbed/gds001/Gau-15471.inp" -scrdir="/gscratch/scrubbed/gds001/"
 Entering Link 1 = /sw/contrib/gaussian/g16/A03/g16/l1.exe PID=     15472.
  
 Copyright (c) 1988,1990,1992,1993,1995,1998,2003,2009,2016,
            Gaussian, Inc.  All Rights Reserved.
  
 This is part of the Gaussian(R) 16 program.  It is based on
 the Gaussian(R) 09 system (copyright 2009, Gaussian, Inc.),
 the Gaussian(R) 03 system (copyright 2003, Gaussian, Inc.),
 the Gaussian(R) 98 system (copyright 1998, Gaussian, Inc.),
 the Gaussian(R) 94 system (copyright 1995, Gaussian, Inc.),
 the Gaussian 92(TM) system (copyright 1992, Gaussian, Inc.),
 the Gaussian 90(TM) system (copyright 1990, Gaussian, Inc.),
 the Gaussian 88(TM) system (copyright 1988, Gaussian, Inc.),
 the Gaussian 86(TM) system (copyright 1986, Carnegie Mellon
 University), and the Gaussian 82(TM) system (copyright 1983,
 Carnegie Mellon University). Gaussian is a federally registered
 trademark of Gaussian, Inc.
  
 This software contains proprietary and confidential information,
 including trade secrets, belonging to Gaussian, Inc.
  
 This software is provided under written license and may be
 used, copied, transmitted, or stored only in accord with that
 written license.
  
 The following legend is applicable only to US Government
 contracts under FAR:
  
                    RESTRICTED RIGHTS LEGEND
  
 Use, reproduction and disclosure by the US Government is
 subject to restrictions as set forth in subparagraphs (a)
 and (c) of the Commercial Computer Software - Restricted
 Rights clause in FAR 52.227-19.
  
 Gaussian, Inc.
 340 Quinnipiac St., Bldg. 40, Wallingford CT 06492
  
  
 ---------------------------------------------------------------
 Warning -- This program may not be used in any manner that
 competes with the business of Gaussian, Inc. or will provide
 assistance to any competitor of Gaussian, Inc.  The licensee
 of this program is prohibited from giving any competitor of
 Gaussian, Inc. access to this program.  By using this program,
 the user acknowledges that Gaussian, Inc. is engaged in the
 business of creating and licensing software in the field of
 computational chemistry and represents and warrants to the
 licensee that it is not a competitor of Gaussian, Inc. and that
 it will not use this program in any manner prohibited above.
 ---------------------------------------------------------------
  

 Cite this work as:
 Gaussian 16, Revision A.03,
 M. J. Frisch, G. W. Trucks, H. B. Schlegel, G. E. Scuseria, 
 M. A. Robb, J. R. Cheeseman, G. Scalmani, V. Barone, 
 G. A. Petersson, H. Nakatsuji, X. Li, M. Caricato, A. V. Marenich, 
 J. Bloino, B. G. Janesko, R. Gomperts, B. Mennucci, H. P. Hratchian, 
 J. V. Ortiz, A. F. Izmaylov, J. L. Sonnenberg, D. Williams-Young, 
 F. Ding, F. Lipparini, F. Egidi, J. Goings, B. Peng, A. Petrone, 
 T. Henderson, D. Ranasinghe, V. G. Zakrzewski, J. Gao, N. Rega, 
 G. Zheng, W. Liang, M. Hada, M. Ehara, K. Toyota, R. Fukuda, 
 J. Hasegawa, M. Ishida, T. Nakajima, Y. Honda, O. Kitao, H. Nakai, 
 T. Vreven, K. Throssell, J. A. Montgomery, Jr., J. E. Peralta, 
 F. Ogliaro, M. J. Bearpark, J. J. Heyd, E. N. Brothers, K. N. Kudin, 
 V. N. Staroverov, T. A. Keith, R. Kobayashi, J. Normand, 
 K. Raghavachari, A. P. Rendell, J. C. Burant, S. S. Iyengar, 
 J. Tomasi, M. Cossi, J. M. Millam, M. Klene, C. Adamo, R. Cammi, 
 J. W. Ochterski, R. L. Martin, K. Morokuma, O. Farkas, 
 J. B. Foresman, and D. J. Fox, Gaussian, Inc., Wallingford CT, 2016.
 
 ******************************************
 Gaussian 16:  ES64L-G16RevA.03 25-Dec-2016
                 4-Sep-2020 
 ******************************************
 %nprocshared=28
 Will use up to   28 processors via shared memory.
 %mem=41GB
 %chk=NicPyrNa5h27.chk
 -----------------------------
 # wB97XD/aug-cc-pVDZ Opt Freq
 -----------------------------
 1/18=20,19=15,26=3,38=1/1,3;
 2/9=110,12=2,17=6,18=5,40=1/2;
 3/5=16,7=10,11=2,25=1,30=1,71=1,74=-58/1,2,3;
 4//1;
 5/5=2,38=5/2;
 6/7=2,8=2,9=2,10=2,28=1/1;
 7//1,2,3,16;
 1/18=20,19=15,26=3/3(2);
 2/9=110/2;
 99//99;
 2/9=110/2;
 3/5=16,7=10,11=2,25=1,30=1,71=1,74=-58/1,2,3;
 4/5=5,16=3,69=1/1;
 5/5=2,38=5/2;
 7//1,2,3,16;
 1/18=20,19=15,26=3/3(-5);
 2/9=110/2;
 6/7=2,8=2,9=2,10=2,19=2,28=1/1;
 99/9=1/99;
 ------------------------------
 p-Py Nornicotine, N anti, 5H2O
 ------------------------------
 Symbolic Z-matrix:
 Charge =  1 Multiplicity = 1
 C                     0.83867   2.78946   0.36404 
 C                     0.83159   1.48927  -0.14696 
 C                    -0.40117   0.94399  -0.5132 
 N                    -1.55353   1.60796  -0.39599 
 C                    -1.53308   2.84604   0.10523 
 C                    -0.35916   3.48047   0.50026 
 C                     2.12656   0.72779  -0.28532 
 N                     2.39267  -0.15234   0.90897 
 C                     3.5248   -1.0662    0.53568 
 C                     3.51066  -1.10242  -1.00841 
 C                     2.28092  -0.2776   -1.42387 
 O                     0.47926  -1.88834   1.25136 
 O                    -1.95327  -1.24846   2.20546 
 O                    -3.19717  -2.09233  -0.14505 
 O                    -0.68062  -2.49402  -1.15411 
 H                     4.45681  -0.65642   0.93613 
 H                     4.4283   -0.65064  -1.40128 
 H                     3.46026  -2.12856  -1.3836 
 H                     1.39011  -0.91404  -1.49276 
 H                     2.41122   0.23109  -2.38359 
 H                     3.33266  -2.03702   1.00069 
 H                     2.95708   1.44672  -0.32355 
 H                    -0.47535  -0.06432  -0.92267 
 H                    -2.4965    3.3499    0.18792 
 H                    -0.38657   4.49428   0.89442 
 H                     1.77905   3.26699   0.64557 
 C                     2.61366   0.54461   2.21043 
 H                     1.52932  -0.77036   1.09449 
 H                    -0.34456  -1.67659   1.74423 
 H                     0.15725  -2.2549    0.40383 
 H                    -3.55358  -1.26244  -0.55833 
 H                    -3.91407  -2.73142  -0.14869 
 H                    -1.62576  -2.45753  -0.89557 
 H                    -0.58586  -3.2773   -1.70115 
 H                    -2.536    -1.56654   1.49042 
 H                    -2.37166  -1.50229   3.03111 
 O                    -3.869     0.26154  -1.08902 
 H                    -3.07801   0.81756  -0.89084 
 H                    -4.14637   0.4751   -1.98257 
 H                     3.42122   1.27145   2.08955 
 H                     2.88021  -0.20918   2.95665 
 H                     1.68338   1.03336   2.5081 
 
 Add virtual bond connecting atoms H28        and O12        Dist= 2.91D+00.
 Add virtual bond connecting atoms O37        and H31        Dist= 3.11D+00.
 Add virtual bond connecting atoms H29        and O13        Dist= 3.26D+00.
 Add virtual bond connecting atoms H33        and O14        Dist= 3.36D+00.
 Add virtual bond connecting atoms N4         and H38        Dist= 3.38D+00.
 Add virtual bond connecting atoms H30        and O15        Dist= 3.37D+00.
 Add virtual bond connecting atoms H35        and O14        Dist= 3.48D+00.

 GradGradGradGradGradGradGradGradGradGradGradGradGradGradGradGradGradGrad
 Berny optimization.
 Initialization pass.
                           ----------------------------
                           !    Initial Parameters    !
                           ! (Angstroms and Degrees)  !
 --------------------------                            --------------------------
 ! Name  Definition              Value          Derivative Info.                !
 --------------------------------------------------------------------------------
 ! R1    R(1,2)                  1.397          estimate D2E/DX2                !
 ! R2    R(1,6)                  1.3895         estimate D2E/DX2                !
 ! R3    R(1,26)                 1.0916         estimate D2E/DX2                !
 ! R4    R(2,3)                  1.3968         estimate D2E/DX2                !
 ! R5    R(2,7)                  1.5086         estimate D2E/DX2                !
 ! R6    R(3,4)                  1.3351         estimate D2E/DX2                !
 ! R7    R(3,23)                 1.0908         estimate D2E/DX2                !
 ! R8    R(4,5)                  1.3358         estimate D2E/DX2                !
 ! R9    R(4,38)                 1.7871         estimate D2E/DX2                !
 ! R10   R(5,6)                  1.3916         estimate D2E/DX2                !
 ! R11   R(5,24)                 1.0904         estimate D2E/DX2                !
 ! R12   R(6,25)                 1.0881         estimate D2E/DX2                !
 ! R13   R(7,8)                  1.5072         estimate D2E/DX2                !
 ! R14   R(7,11)                 1.5267         estimate D2E/DX2                !
 ! R15   R(7,22)                 1.0991         estimate D2E/DX2                !
 ! R16   R(8,9)                  1.5021         estimate D2E/DX2                !
 ! R17   R(8,27)                 1.4928         estimate D2E/DX2                !
 ! R18   R(8,28)                 1.0778         estimate D2E/DX2                !
 ! R19   R(9,10)                 1.5446         estimate D2E/DX2                !
 ! R20   R(9,16)                 1.094          estimate D2E/DX2                !
 ! R21   R(9,21)                 1.0935         estimate D2E/DX2                !
 ! R22   R(10,11)                1.5379         estimate D2E/DX2                !
 ! R23   R(10,17)                1.0957         estimate D2E/DX2                !
 ! R24   R(10,18)                1.0938         estimate D2E/DX2                !
 ! R25   R(11,19)                1.097          estimate D2E/DX2                !
 ! R26   R(11,20)                1.094          estimate D2E/DX2                !
 ! R27   R(12,28)                1.5418         estimate D2E/DX2                !
 ! R28   R(12,29)                0.9831         estimate D2E/DX2                !
 ! R29   R(12,30)                0.9779         estimate D2E/DX2                !
 ! R30   R(13,29)                1.7274         estimate D2E/DX2                !
 ! R31   R(13,35)                0.9757         estimate D2E/DX2                !
 ! R32   R(13,36)                0.9598         estimate D2E/DX2                !
 ! R33   R(14,31)                0.9933         estimate D2E/DX2                !
 ! R34   R(14,32)                0.9604         estimate D2E/DX2                !
 ! R35   R(14,33)                1.7793         estimate D2E/DX2                !
 ! R36   R(14,35)                1.8408         estimate D2E/DX2                !
 ! R37   R(15,30)                1.785          estimate D2E/DX2                !
 ! R38   R(15,33)                0.9805         estimate D2E/DX2                !
 ! R39   R(15,34)                0.9601         estimate D2E/DX2                !
 ! R40   R(27,40)                1.0932         estimate D2E/DX2                !
 ! R41   R(27,41)                1.0937         estimate D2E/DX2                !
 ! R42   R(27,42)                1.0922         estimate D2E/DX2                !
 ! R43   R(31,37)                1.6443         estimate D2E/DX2                !
 ! R44   R(37,38)                0.987          estimate D2E/DX2                !
 ! R45   R(37,39)                0.9597         estimate D2E/DX2                !
 ! A1    A(2,1,6)              119.6246         estimate D2E/DX2                !
 ! A2    A(2,1,26)             120.3868         estimate D2E/DX2                !
 ! A3    A(6,1,26)             119.9852         estimate D2E/DX2                !
 ! A4    A(1,2,3)              117.6249         estimate D2E/DX2                !
 ! A5    A(1,2,7)              119.9318         estimate D2E/DX2                !
 ! A6    A(3,2,7)              122.4433         estimate D2E/DX2                !
 ! A7    A(2,3,4)              122.9958         estimate D2E/DX2                !
 ! A8    A(2,3,23)             121.2841         estimate D2E/DX2                !
 ! A9    A(4,3,23)             115.7194         estimate D2E/DX2                !
 ! A10   A(3,4,5)              118.7278         estimate D2E/DX2                !
 ! A11   A(3,4,38)             119.4734         estimate D2E/DX2                !
 ! A12   A(5,4,38)             121.7945         estimate D2E/DX2                !
 ! A13   A(4,5,6)              122.8161         estimate D2E/DX2                !
 ! A14   A(4,5,24)             116.3091         estimate D2E/DX2                !
 ! A15   A(6,5,24)             120.8741         estimate D2E/DX2                !
 ! A16   A(1,6,5)              118.2054         estimate D2E/DX2                !
 ! A17   A(1,6,25)             121.3708         estimate D2E/DX2                !
 ! A18   A(5,6,25)             120.4208         estimate D2E/DX2                !
 ! A19   A(2,7,8)              111.9393         estimate D2E/DX2                !
 ! A20   A(2,7,11)             119.1812         estimate D2E/DX2                !
 ! A21   A(2,7,22)             108.762          estimate D2E/DX2                !
 ! A22   A(8,7,11)             100.8666         estimate D2E/DX2                !
 ! A23   A(8,7,22)             106.0274         estimate D2E/DX2                !
 ! A24   A(11,7,22)            109.1713         estimate D2E/DX2                !
 ! A25   A(7,8,9)              106.9431         estimate D2E/DX2                !
 ! A26   A(7,8,27)             116.3805         estimate D2E/DX2                !
 ! A27   A(7,8,28)             109.2555         estimate D2E/DX2                !
 ! A28   A(9,8,27)             112.901          estimate D2E/DX2                !
 ! A29   A(9,8,28)             107.3166         estimate D2E/DX2                !
 ! A30   A(27,8,28)            103.6636         estimate D2E/DX2                !
 ! A31   A(8,9,10)             104.8213         estimate D2E/DX2                !
 ! A32   A(8,9,16)             108.8589         estimate D2E/DX2                !
 ! A33   A(8,9,21)             107.5809         estimate D2E/DX2                !
 ! A34   A(10,9,16)            112.4878         estimate D2E/DX2                !
 ! A35   A(10,9,21)            113.7472         estimate D2E/DX2                !
 ! A36   A(16,9,21)            109.0618         estimate D2E/DX2                !
 ! A37   A(9,10,11)            105.3553         estimate D2E/DX2                !
 ! A38   A(9,10,17)            109.9454         estimate D2E/DX2                !
 ! A39   A(9,10,18)            111.4285         estimate D2E/DX2                !
 ! A40   A(11,10,17)           110.5898         estimate D2E/DX2                !
 ! A41   A(11,10,18)           111.9413         estimate D2E/DX2                !
 ! A42   A(17,10,18)           107.604          estimate D2E/DX2                !
 ! A43   A(7,11,10)            103.4482         estimate D2E/DX2                !
 ! A44   A(7,11,19)            110.2909         estimate D2E/DX2                !
 ! A45   A(7,11,20)            111.1037         estimate D2E/DX2                !
 ! A46   A(10,11,19)           110.802          estimate D2E/DX2                !
 ! A47   A(10,11,20)           113.0253         estimate D2E/DX2                !
 ! A48   A(19,11,20)           108.1435         estimate D2E/DX2                !
 ! A49   A(28,12,29)           117.7458         estimate D2E/DX2                !
 ! A50   A(28,12,30)           114.0719         estimate D2E/DX2                !
 ! A51   A(29,12,30)           103.8457         estimate D2E/DX2                !
 ! A52   A(29,13,35)           106.2431         estimate D2E/DX2                !
 ! A53   A(29,13,36)           124.7579         estimate D2E/DX2                !
 ! A54   A(35,13,36)           106.4911         estimate D2E/DX2                !
 ! A55   A(31,14,32)           106.652          estimate D2E/DX2                !
 ! A56   A(31,14,33)           108.2325         estimate D2E/DX2                !
 ! A57   A(31,14,35)           105.065          estimate D2E/DX2                !
 ! A58   A(32,14,33)           121.403          estimate D2E/DX2                !
 ! A59   A(32,14,35)           117.4881         estimate D2E/DX2                !
 ! A60   A(33,14,35)            96.6712         estimate D2E/DX2                !
 ! A61   A(30,15,33)           102.5524         estimate D2E/DX2                !
 ! A62   A(30,15,34)           124.0735         estimate D2E/DX2                !
 ! A63   A(33,15,34)           106.0059         estimate D2E/DX2                !
 ! A64   A(8,27,40)            108.8674         estimate D2E/DX2                !
 ! A65   A(8,27,41)            108.0085         estimate D2E/DX2                !
 ! A66   A(8,27,42)            108.6899         estimate D2E/DX2                !
 ! A67   A(40,27,41)           110.7113         estimate D2E/DX2                !
 ! A68   A(40,27,42)           111.2115         estimate D2E/DX2                !
 ! A69   A(41,27,42)           109.2723         estimate D2E/DX2                !
 ! A70   A(12,30,15)           163.9778         estimate D2E/DX2                !
 ! A71   A(13,35,14)           163.4844         estimate D2E/DX2                !
 ! A72   A(31,37,38)           107.6735         estimate D2E/DX2                !
 ! A73   A(31,37,39)           124.2086         estimate D2E/DX2                !
 ! A74   A(38,37,39)           107.0518         estimate D2E/DX2                !
 ! A75   L(8,28,12,3,-1)       187.1388         estimate D2E/DX2                !
 ! A76   L(12,29,13,1,-1)      175.7182         estimate D2E/DX2                !
 ! A77   L(14,31,37,2,-1)      168.458          estimate D2E/DX2                !
 ! A78   L(14,33,15,1,-1)      167.3456         estimate D2E/DX2                !
 ! A79   L(4,38,37,13,-1)      171.872          estimate D2E/DX2                !
 ! A80   L(8,28,12,3,-2)       170.5763         estimate D2E/DX2                !
 ! A81   L(12,29,13,1,-2)      165.938          estimate D2E/DX2                !
 ! A82   L(14,31,37,2,-2)      183.9474         estimate D2E/DX2                !
 ! A83   L(14,33,15,1,-2)      173.7686         estimate D2E/DX2                !
 ! A84   L(4,38,37,13,-2)      183.2015         estimate D2E/DX2                !
 ! D1    D(6,1,2,3)              0.5742         estimate D2E/DX2                !
 ! D2    D(6,1,2,7)           -179.4089         estimate D2E/DX2                !
 ! D3    D(26,1,2,3)          -178.7614         estimate D2E/DX2                !
 ! D4    D(26,1,2,7)             1.2555         estimate D2E/DX2                !
 ! D5    D(2,1,6,5)             -0.5983         estimate D2E/DX2                !
 ! D6    D(2,1,6,25)          -179.9671         estimate D2E/DX2                !
 ! D7    D(26,1,6,5)           178.74           estimate D2E/DX2                !
 ! D8    D(26,1,6,25)           -0.6287         estimate D2E/DX2                !
 ! D9    D(1,2,3,4)              0.0437         estimate D2E/DX2                !
 ! D10   D(1,2,3,23)           179.7327         estimate D2E/DX2                !
 ! D11   D(7,2,3,4)           -179.9737         estimate D2E/DX2                !
 ! D12   D(7,2,3,23)            -0.2847         estimate D2E/DX2                !
 ! D13   D(1,2,7,8)             94.7315         estimate D2E/DX2                !
 ! D14   D(1,2,7,11)          -148.028          estimate D2E/DX2                !
 ! D15   D(1,2,7,22)           -22.088          estimate D2E/DX2                !
 ! D16   D(3,2,7,8)            -85.2508         estimate D2E/DX2                !
 ! D17   D(3,2,7,11)            31.9898         estimate D2E/DX2                !
 ! D18   D(3,2,7,22)           157.9298         estimate D2E/DX2                !
 ! D19   D(2,3,4,5)             -0.6288         estimate D2E/DX2                !
 ! D20   D(2,3,4,38)          -179.8803         estimate D2E/DX2                !
 ! D21   D(23,3,4,5)           179.6662         estimate D2E/DX2                !
 ! D22   D(23,3,4,38)            0.4147         estimate D2E/DX2                !
 ! D23   D(3,4,5,6)              0.6047         estimate D2E/DX2                !
 ! D24   D(3,4,5,24)          -179.7122         estimate D2E/DX2                !
 ! D25   D(38,4,5,6)           179.8381         estimate D2E/DX2                !
 ! D26   D(38,4,5,24)           -0.4789         estimate D2E/DX2                !
 ! D27   D(3,4,37,31)           36.9747         estimate D2E/DX2                !
 ! D28   D(3,4,37,39)          -97.663          estimate D2E/DX2                !
 ! D29   D(5,4,37,31)         -139.6033         estimate D2E/DX2                !
 ! D30   D(5,4,37,39)           85.759          estimate D2E/DX2                !
 ! D31   D(4,5,6,1)              0.0047         estimate D2E/DX2                !
 ! D32   D(4,5,6,25)           179.3797         estimate D2E/DX2                !
 ! D33   D(24,5,6,1)          -179.6643         estimate D2E/DX2                !
 ! D34   D(24,5,6,25)           -0.2893         estimate D2E/DX2                !
 ! D35   D(2,7,8,9)            168.0145         estimate D2E/DX2                !
 ! D36   D(2,7,8,27)           -64.7435         estimate D2E/DX2                !
 ! D37   D(2,7,8,28)            52.1646         estimate D2E/DX2                !
 ! D38   D(11,7,8,9)            40.2397         estimate D2E/DX2                !
 ! D39   D(11,7,8,27)          167.4817         estimate D2E/DX2                !
 ! D40   D(11,7,8,28)          -75.6102         estimate D2E/DX2                !
 ! D41   D(22,7,8,9)           -73.5297         estimate D2E/DX2                !
 ! D42   D(22,7,8,27)           53.7123         estimate D2E/DX2                !
 ! D43   D(22,7,8,28)          170.6204         estimate D2E/DX2                !
 ! D44   D(2,7,11,10)         -164.6654         estimate D2E/DX2                !
 ! D45   D(2,7,11,19)          -46.1286         estimate D2E/DX2                !
 ! D46   D(2,7,11,20)           73.7764         estimate D2E/DX2                !
 ! D47   D(8,7,11,10)          -41.7805         estimate D2E/DX2                !
 ! D48   D(8,7,11,19)           76.7563         estimate D2E/DX2                !
 ! D49   D(8,7,11,20)         -163.3387         estimate D2E/DX2                !
 ! D50   D(22,7,11,10)          69.5894         estimate D2E/DX2                !
 ! D51   D(22,7,11,19)        -171.8738         estimate D2E/DX2                !
 ! D52   D(22,7,11,20)         -51.9688         estimate D2E/DX2                !
 ! D53   D(7,8,9,10)           -22.4645         estimate D2E/DX2                !
 ! D54   D(7,8,9,16)            98.098          estimate D2E/DX2                !
 ! D55   D(7,8,9,21)          -143.8514         estimate D2E/DX2                !
 ! D56   D(27,8,9,10)         -151.7312         estimate D2E/DX2                !
 ! D57   D(27,8,9,16)          -31.1686         estimate D2E/DX2                !
 ! D58   D(27,8,9,21)           86.882          estimate D2E/DX2                !
 ! D59   D(28,8,9,10)           94.6709         estimate D2E/DX2                !
 ! D60   D(28,8,9,16)         -144.7666         estimate D2E/DX2                !
 ! D61   D(28,8,9,21)          -26.716          estimate D2E/DX2                !
 ! D62   D(7,8,12,29)          -84.7505         estimate D2E/DX2                !
 ! D63   D(7,8,12,30)           39.7561         estimate D2E/DX2                !
 ! D64   D(9,8,12,29)          162.311          estimate D2E/DX2                !
 ! D65   D(9,8,12,30)          -73.1825         estimate D2E/DX2                !
 ! D66   D(27,8,12,29)          43.9932         estimate D2E/DX2                !
 ! D67   D(27,8,12,30)         168.4998         estimate D2E/DX2                !
 ! D68   D(7,8,27,40)          -54.7617         estimate D2E/DX2                !
 ! D69   D(7,8,27,41)         -175.0326         estimate D2E/DX2                !
 ! D70   D(7,8,27,42)           66.52           estimate D2E/DX2                !
 ! D71   D(9,8,27,40)           69.4777         estimate D2E/DX2                !
 ! D72   D(9,8,27,41)          -50.7932         estimate D2E/DX2                !
 ! D73   D(9,8,27,42)         -169.2406         estimate D2E/DX2                !
 ! D74   D(28,8,27,40)        -174.7227         estimate D2E/DX2                !
 ! D75   D(28,8,27,41)          65.0065         estimate D2E/DX2                !
 ! D76   D(28,8,27,42)         -53.4409         estimate D2E/DX2                !
 ! D77   D(8,9,10,11)           -4.3109         estimate D2E/DX2                !
 ! D78   D(8,9,10,17)          114.8732         estimate D2E/DX2                !
 ! D79   D(8,9,10,18)         -125.9143         estimate D2E/DX2                !
 ! D80   D(16,9,10,11)        -122.4373         estimate D2E/DX2                !
 ! D81   D(16,9,10,17)          -3.2532         estimate D2E/DX2                !
 ! D82   D(16,9,10,18)         115.9592         estimate D2E/DX2                !
 ! D83   D(21,9,10,11)         112.932          estimate D2E/DX2                !
 ! D84   D(21,9,10,17)        -127.8839         estimate D2E/DX2                !
 ! D85   D(21,9,10,18)          -8.6714         estimate D2E/DX2                !
 ! D86   D(9,10,11,7)           28.8318         estimate D2E/DX2                !
 ! D87   D(9,10,11,19)         -89.3501         estimate D2E/DX2                !
 ! D88   D(9,10,11,20)         149.0889         estimate D2E/DX2                !
 ! D89   D(17,10,11,7)         -89.9224         estimate D2E/DX2                !
 ! D90   D(17,10,11,19)        151.8957         estimate D2E/DX2                !
 ! D91   D(17,10,11,20)         30.3348         estimate D2E/DX2                !
 ! D92   D(18,10,11,7)         150.1017         estimate D2E/DX2                !
 ! D93   D(18,10,11,19)         31.9198         estimate D2E/DX2                !
 ! D94   D(18,10,11,20)        -89.6412         estimate D2E/DX2                !
 ! D95   D(28,12,13,35)        123.2711         estimate D2E/DX2                !
 ! D96   D(28,12,13,36)       -113.6057         estimate D2E/DX2                !
 ! D97   D(30,12,13,35)          1.8512         estimate D2E/DX2                !
 ! D98   D(30,12,13,36)        124.9744         estimate D2E/DX2                !
 ! D99   D(28,12,30,15)        -75.2838         estimate D2E/DX2                !
 ! D100  D(29,12,30,15)         54.1552         estimate D2E/DX2                !
 ! D101  D(29,13,35,14)        -27.6803         estimate D2E/DX2                !
 ! D102  D(36,13,35,14)       -162.5533         estimate D2E/DX2                !
 ! D103  D(31,14,15,30)        114.4083         estimate D2E/DX2                !
 ! D104  D(31,14,15,34)       -114.1641         estimate D2E/DX2                !
 ! D105  D(32,14,15,30)       -118.9135         estimate D2E/DX2                !
 ! D106  D(32,14,15,34)         12.5141         estimate D2E/DX2                !
 ! D107  D(35,14,15,30)          7.8597         estimate D2E/DX2                !
 ! D108  D(35,14,15,34)        139.2873         estimate D2E/DX2                !
 ! D109  D(32,14,37,38)        171.9407         estimate D2E/DX2                !
 ! D110  D(32,14,37,39)        -64.0588         estimate D2E/DX2                !
 ! D111  D(33,14,37,38)        -52.9729         estimate D2E/DX2                !
 ! D112  D(33,14,37,39)         71.0276         estimate D2E/DX2                !
 ! D113  D(35,14,37,38)         46.4566         estimate D2E/DX2                !
 ! D114  D(35,14,37,39)        170.4571         estimate D2E/DX2                !
 ! D115  D(31,14,35,13)        -89.5102         estimate D2E/DX2                !
 ! D116  D(32,14,35,13)        152.1584         estimate D2E/DX2                !
 ! D117  D(33,14,35,13)         21.449          estimate D2E/DX2                !
 ! D118  D(33,15,30,12)        -60.1825         estimate D2E/DX2                !
 ! D119  D(34,15,30,12)       -179.6307         estimate D2E/DX2                !
 --------------------------------------------------------------------------------
 Trust Radius=3.00D-01 FncErr=1.00D-07 GrdErr=1.00D-06 EigMax=2.50D+02 EigMin=1.00D-04
 Number of steps in this run=    252 maximum allowed number of steps=    252.
 GradGradGradGradGradGradGradGradGradGradGradGradGradGradGradGradGradGrad

                          Input orientation:                          
 ---------------------------------------------------------------------
 Center     Atomic      Atomic             Coordinates (Angstroms)
 Number     Number       Type             X           Y           Z
 ---------------------------------------------------------------------
      1          6           0        0.838668    2.789460    0.364038
      2          6           0        0.831594    1.489267   -0.146960
      3          6           0       -0.401171    0.943988   -0.513200
      4          7           0       -1.553527    1.607961   -0.395985
      5          6           0       -1.533077    2.846038    0.105226
      6          6           0       -0.359155    3.480467    0.500255
      7          6           0        2.126558    0.727785   -0.285319
      8          7           0        2.392670   -0.152339    0.908973
      9          6           0        3.524795   -1.066202    0.535684
     10          6           0        3.510660   -1.102415   -1.008407
     11          6           0        2.280924   -0.277598   -1.423868
     12          8           0        0.479259   -1.888343    1.251356
     13          8           0       -1.953274   -1.248458    2.205462
     14          8           0       -3.197173   -2.092334   -0.145046
     15          8           0       -0.680621   -2.494022   -1.154107
     16          1           0        4.456808   -0.656416    0.936131
     17          1           0        4.428299   -0.650638   -1.401284
     18          1           0        3.460256   -2.128564   -1.383596
     19          1           0        1.390111   -0.914039   -1.492762
     20          1           0        2.411220    0.231089   -2.383589
     21          1           0        3.332662   -2.037025    1.000686
     22          1           0        2.957078    1.446717   -0.323550
     23          1           0       -0.475352   -0.064317   -0.922671
     24          1           0       -2.496502    3.349901    0.187917
     25          1           0       -0.386567    4.494283    0.894416
     26          1           0        1.779045    3.266994    0.645566
     27          6           0        2.613660    0.544608    2.210427
     28          1           0        1.529318   -0.770356    1.094494
     29          1           0       -0.344557   -1.676590    1.744225
     30          1           0        0.157252   -2.254905    0.403830
     31          1           0       -3.553581   -1.262437   -0.558334
     32          1           0       -3.914074   -2.731420   -0.148694
     33          1           0       -1.625759   -2.457526   -0.895573
     34          1           0       -0.585861   -3.277296   -1.701151
     35          1           0       -2.535997   -1.566542    1.490422
     36          1           0       -2.371657   -1.502285    3.031110
     37          8           0       -3.869004    0.261541   -1.089022
     38          1           0       -3.078011    0.817556   -0.890835
     39          1           0       -4.146368    0.475098   -1.982565
     40          1           0        3.421221    1.271445    2.089551
     41          1           0        2.880211   -0.209185    2.956651
     42          1           0        1.683383    1.033357    2.508097
 ---------------------------------------------------------------------
                    Distance matrix (angstroms):
                    1          2          3          4          5
     1  C    0.000000
     2  C    1.397022   0.000000
     3  C    2.390087   1.396843   0.000000
     4  N    2.774197   2.401021   1.335112   0.000000
     5  C    2.386495   2.737900   2.298142   1.335839   0.000000
     6  C    1.389542   2.408661   2.731773   2.395005   1.391632
     7  C    2.516114   1.508619   2.547172   3.785496   4.246463
     8  N    3.371358   2.499365   3.321153   4.513761   5.004774
     9  C    4.702220   3.774885   4.533677   5.814509   6.408821
    10  C    4.916283   3.825742   4.442456   5.776434   6.501518
    11  C    3.831913   2.617797   3.084675   4.394871   5.161573
    12  O    4.774762   3.672557   3.451219   4.366932   5.270434
    13  O    5.243145   4.559004   3.821906   3.884128   4.620872
    14  O    6.354454   5.390625   4.143961   4.056689   5.217219
    15  O    5.703349   4.378097   3.508385   4.261805   5.552373
    16  H    5.029144   4.349623   5.316184   6.559426   6.988298
    17  H    5.275992   4.369074   5.162878   6.472568   7.073494
    18  H    5.840711   4.639810   5.010867   6.330483   7.203932
    19  H    4.179438   2.810517   2.760525   4.028450   5.023621
    20  H    4.070336   3.013427   3.451974   4.643874   5.346928
    21  H    5.469944   4.472937   5.011966   6.253915   6.951372
    22  H    2.600653   2.133232   3.400962   4.514067   4.722652
    23  H    3.395042   2.173352   1.090802   2.058245   3.262747
    24  H    3.386513   3.827574   3.266557   2.065066   1.090368
    25  H    2.165392   3.405657   3.819187   3.370131   2.157317
    26  H    1.091607   2.164734   3.390050   3.865651   3.382207
    27  C    3.405747   3.102485   4.082506   5.028872   5.188823
    28  H    3.699034   2.670940   3.041454   4.169155   4.840994
    29  H    4.821881   3.870732   3.459278   4.102485   4.955105
    30  H    5.090337   3.844077   3.374270   4.299791   5.382007
    31  H    6.046527   5.193348   3.848121   3.502250   4.626264
    32  H    7.302846   6.351029   5.097252   4.946065   6.069733
    33  H    5.932190   4.709159   3.635399   4.096705   5.397961
    34  H    6.565045   5.210068   4.389143   5.148356   6.454102
    35  H    5.624221   4.833183   3.856779   3.821158   4.732386
    36  H    5.986529   5.413901   4.735948   4.699782   5.307723
    37  O    5.537502   4.948779   3.580945   2.766691   3.682717
    38  H    4.561084   4.036032   2.706301   1.787084   2.737462
    39  H    5.976069   5.401675   4.050357   3.243985   4.099941
    40  H    3.457071   3.428643   4.635970   5.571288   5.564347
    41  H    4.458857   4.088272   4.912956   5.848095   6.078003
    42  H    2.897314   2.825372   3.671728   4.386507   4.405135
                    6          7          8          9         10
     6  C    0.000000
     7  C    3.791194   0.000000
     8  N    4.575683   1.507238   0.000000
     9  C    5.979843   2.418161   1.502064   0.000000
    10  C    6.185009   2.405873   2.414310   1.544580   0.000000
    11  C    4.979490   1.526734   2.338872   2.451317   1.537915
    12  O    5.485546   3.452403   2.606161   3.234717   3.861814
    13  O    5.273678   5.172481   4.665789   5.729801   6.340730
    14  O    6.287040   6.026181   6.010065   6.833827   6.835229
    15  O    6.207638   4.360629   4.380057   4.751798   4.418669
    16  H    6.363748   2.972880   2.124970   1.094043   2.208017
    17  H    6.603150   2.905760   3.119195   2.177351   1.095681
    18  H    7.042586   3.338217   3.209529   2.194633   1.093750
    19  H    5.132614   2.166993   2.711760   2.948665   2.183303
    20  H    5.152668   2.174966   3.314864   3.383071   2.208648
    21  H    6.657527   3.279126   2.108089   1.093453   2.222979
    22  H    3.976455   1.099131   2.096342   2.715759   2.696953
    23  H    3.821481   2.793489   3.404147   4.373985   4.119865
    24  H    2.163990   5.335928   6.057195   7.475221   7.572338
    25  H    1.088089   4.679111   5.414376   6.807822   7.080406
    26  H    2.153738   2.726700   3.483928   4.672933   4.982555
    27  C    4.514597   2.549426   1.492767   2.495924   3.725344
    28  H    4.689237   2.122500   1.077840   2.093256   2.908294
    29  H    5.304989   4.000810   3.242437   4.099394   4.771725
    30  H    5.759381   3.639991   3.110152   3.573618   3.816804
    31  H    5.815506   6.024907   6.224404   7.165109   7.080372
    32  H    7.186524   6.962327   6.895313   7.653633   7.649800
    33  H    6.229958   4.959687   4.971725   5.523811   5.313366
    34  H    7.110903   5.040086   5.044775   5.175892   4.689508
    35  H    5.584924   5.491504   5.160408   6.155897   6.559087
    36  H    5.939967   6.017130   5.387451   6.417590   7.146975
    37  O    5.020590   6.067132   6.585730   7.685755   7.505086
    38  H    4.051963   5.240443   5.840236   7.012884   6.863723
    39  H    5.435036   6.503391   7.177304   8.219728   7.878300
    40  H    4.657991   2.758935   2.116328   2.808883   3.903915
    41  H    5.490073   3.457784   2.105686   2.647838   4.113029
    42  H    3.767192   2.844811   2.113329   3.418971   4.501807
                   11         12         13         14         15
    11  C    0.000000
    12  O    3.605180   0.000000
    13  O    5.660657   2.690165   0.000000
    14  O    5.910854   3.937982   2.790036   0.000000
    15  O    3.708916   2.738324   3.802339   2.740911   0.000000
    16  H    3.232270   4.175872   6.561316   7.862203   5.842865
    17  H    2.179653   4.915621   7.354623   7.861580   5.436932
    18  H    2.195113   3.985853   6.554558   6.771756   4.163302
    19  H    1.096974   3.051082   4.996691   4.924215   2.626588
    20  H    1.093985   4.630042   6.503634   6.470196   4.300853
    21  H    3.174933   2.868249   5.478544   6.629819   4.578037
    22  H    2.154332   4.443258   6.145846   7.101518   5.426979
    23  H    2.809581   2.994119   3.656728   3.482221   2.449319
    24  H    6.211312   6.117619   5.050791   5.497247   6.264973
    25  H    5.938080   6.450967   6.095284   7.236264   7.288300
    26  H    4.135042   5.351068   6.062408   7.355964   6.517521
    27  C    3.740967   3.375609   4.906322   6.802021   5.604074
    28  H    2.673924   1.541793   3.686635   5.061996   3.593197
    29  H    4.345934   0.983073   1.727428   3.446680   3.030093
    30  H    3.429316   0.977935   2.951802   3.402920   1.785042
    31  H    5.980009   4.464363   3.193704   0.993259   3.182082
    32  H    6.784196   4.687461   3.403816   0.960412   3.394471
    33  H    4.504815   3.060127   3.344477   1.779325   0.980539
    34  H    4.158549   3.432342   4.609515   3.262598   0.960081
    35  H    5.775568   3.041788   0.975718   1.840752   3.360978
    36  H    6.556920   3.382941   0.959775   3.334307   4.621600
    37  O    6.182589   5.385793   4.099237   2.623581   4.214635
    38  H    5.495605   4.956313   3.888509   3.006303   4.096747
    39  H    6.495289   6.118866   5.031886   3.296840   4.638256
    40  H    4.005487   4.397951   5.937048   7.753165   6.444002
    41  H    4.421851   3.390011   5.000695   7.078232   5.899011
    42  H    4.187602   3.400830   4.303899   6.374083   5.607375
                   16         17         18         19         20
    16  H    0.000000
    17  H    2.337596   0.000000
    18  H    2.922579   1.766829   0.000000
    19  H    3.920526   3.050956   2.402600   0.000000
    20  H    3.999079   2.410596   2.769192   1.774135   0.000000
    21  H    1.781559   2.981937   2.389448   3.354383   4.176926
    22  H    2.873875   2.779370   3.762914   3.065226   2.453461
    23  H    5.303954   4.961717   4.467950   2.127671   3.248668
    24  H    8.059710   8.153695   8.244161   6.009295   6.358095
    25  H    7.070341   7.411031   7.990587   6.172937   6.061992
    26  H    4.758990   5.153250   6.004666   4.712192   4.334991
    27  C    2.542338   4.214971   4.558462   4.163932   4.609150
    28  H    2.933983   3.827183   3.422599   2.594979   3.725279
    29  H    4.974623   5.807492   4.946124   3.750819   5.317179
    30  H    4.617867   4.906521   3.757751   2.629624   4.362367
    31  H    8.171109   8.049551   7.115135   5.043275   6.414127
    32  H    8.692189   8.688718   7.501277   5.765741   7.333523
    33  H    6.602784   6.338155   5.119954   3.440125   5.073464
    34  H    6.265204   5.668426   4.217996   3.087535   4.664438
    35  H    7.073534   7.596201   6.673148   4.973879   6.535625
    36  H    7.192522   8.161545   7.341190   5.912897   7.429634
    37  O    8.617600   8.353132   7.714754   5.404006   6.412335
    38  H    7.892015   7.665562   7.188280   4.829581   5.718734
    39  H    9.154985   8.667761   8.062168   5.729067   6.574368
    40  H    2.473756   4.110297   4.860487   4.662050   4.702278
    41  H    2.601571   4.645756   4.781026   4.744944   5.378843
    42  H    3.608088   5.064945   5.319802   4.459286   5.010187
                   21         22         23         24         25
    21  H    0.000000
    22  H    3.745814   0.000000
    23  H    4.700197   3.797861   0.000000
    24  H    7.978641   5.798728   4.120114   0.000000
    25  H    7.516777   4.685196   4.908210   2.502114   0.000000
    26  H    5.538272   2.374943   4.317326   4.300770   2.501607
    27  C    2.940283   2.711601   4.441744   6.170411   5.131587
    28  H    2.205742   2.994121   2.930213   5.831434   5.605985
    29  H    3.768913   4.993149   3.119113   5.684943   6.229255
    30  H    3.238354   4.697884   2.637891   6.205069   6.788811
    31  H    7.102878   7.055730   3.323210   4.790404   6.729063
    32  H    7.370105   8.043639   4.420100   6.253422   8.108154
    33  H    5.325275   6.047538   2.655489   5.971461   7.284731
    34  H    4.918640   6.063539   3.307790   7.151144   8.195982
    35  H    5.907821   6.522584   3.510834   5.086206   6.458241
    36  H    6.078472   6.953112   4.614771   5.625215   6.668199
    37  O    7.843104   6.970365   3.413317   3.612797   5.829022
    38  H    7.267958   6.094256   2.748190   2.813295   4.893804
    39  H    8.434835   7.359030   3.858847   3.962012   6.210231
    40  H    3.484171   2.463576   5.103040   6.554055   5.129744
    41  H    2.715052   3.675274   5.131270   7.017266   6.086646
    42  H    3.797322   3.132314   4.199428   5.312349   4.343577
                   26         27         28         29         30
    26  H    0.000000
    27  C    3.249117   0.000000
    28  H    4.069901   2.037212   0.000000
    29  H    5.491426   3.728553   2.180555   0.000000
    30  H    5.760210   4.139445   2.136227   1.543671   0.000000
    31  H    7.099438   6.997593   5.367480   3.971289   3.959929
    32  H    8.308034   7.675228   5.917922   4.175795   4.136187
    33  H    6.836514   6.052497   4.094071   3.036424   2.215543
    34  H    7.343541   6.335955   4.309798   3.806718   2.455289
    35  H    6.534251   5.611981   4.161425   2.208831   2.984647
    36  H    6.757601   5.451300   4.416312   2.407403   3.723495
    37  O    6.628876   7.279521   5.913919   4.919895   4.977132
    38  H    5.652545   6.487484   5.262174   4.542695   4.645762
    39  H    7.057781   7.955124   6.575170   5.742168   5.627517
    40  H    2.960413   1.093187   2.956076   4.794918   5.092180
    41  H    4.317117   1.093665   2.368006   3.744647   4.256333
    42  H    2.909863   1.092199   2.296822   3.469849   4.191621
                   31         32         33         34         35
    31  H    0.000000
    32  H    1.567058   0.000000
    33  H    2.293134   2.422650   0.000000
    34  H    3.764711   3.712830   1.549957   0.000000
    35  H    2.307674   2.437773   2.704692   4.112888   0.000000
    36  H    3.786632   3.741788   4.109463   5.360413   1.550760
    37  O    1.644272   3.137525   3.530283   4.865912   3.431082
    38  H    2.159420   3.720888   3.582628   4.861608   3.412929
    39  H    2.323544   3.701189   4.016878   5.180431   4.338574
    40  H    7.879068   8.650966   6.948971   7.149627   6.625826
    41  H    7.406628   7.884615   6.340223   6.566740   5.773002
    42  H    6.488410   7.250077   5.892508   6.438087   5.059477
                   36         37         38         39         40
    36  H    0.000000
    37  O    4.725317   0.000000
    38  H    4.611101   0.986965   0.000000
    39  H    5.674203   0.959665   1.565420   0.000000
    40  H    6.491344   8.016895   7.164407   8.630452   0.000000
    41  H    5.409230   7.882954   7.166432   8.616084   1.799116
    42  H    4.811068   6.660628   5.854074   7.379952   1.803315
                   41         42
    41  H    0.000000
    42  H    1.782557   0.000000
 Stoichiometry    C10H25N2O5(1+)
 Framework group  C1[X(C10H25N2O5)]
 Deg. of freedom   120
 Full point group                 C1      NOp   1
 Largest Abelian subgroup         C1      NOp   1
 Largest concise Abelian subgroup C1      NOp   1
                         Standard orientation:                         
 ---------------------------------------------------------------------
 Center     Atomic      Atomic             Coordinates (Angstroms)
 Number     Number       Type             X           Y           Z
 ---------------------------------------------------------------------
      1          6           0        0.821751    2.725055    0.070095
      2          6           0        0.715587    1.410773   -0.391493
      3          6           0       -0.566018    0.911215   -0.634602
      4          7           0       -1.674695    1.630883   -0.446354
      5          6           0       -1.558717    2.882217    0.006612
      6          6           0       -0.329422    3.474417    0.280058
      7          6           0        1.960246    0.586514   -0.609096
      8          7           0        2.287890   -0.265974    0.589937
      9          6           0        3.344070   -1.242459    0.157318
     10          6           0        3.198284   -1.327715   -1.378002
     11          6           0        1.974608   -0.461062   -1.719635
     12          8           0        0.337097   -1.900265    1.151701
     13          8           0       -1.976503   -1.118843    2.280251
     14          8           0       -3.449319   -1.979947    0.072625
     15          8           0       -1.046442   -2.529180   -1.126172
     16          1           0        4.323316   -0.863255    0.464258
     17          1           0        4.098161   -0.931485   -1.861469
     18          1           0        3.072246   -2.362017   -1.710600
     19          1           0        1.054554   -1.057775   -1.691637
     20          1           0        2.045352    0.009913   -2.704511
     21          1           0        3.150145   -2.187939    0.671225
     22          1           0        2.814805    1.264908   -0.741757
     23          1           0       -0.717846   -0.105284   -1.000015
     24          1           0       -2.489124    3.432231    0.150595
     25          1           0       -0.279783    4.500594    0.638434
     26          1           0        1.802220    3.167685    0.255473
     27          6           0        2.647632    0.461648    1.842735
     28          1           0        1.417412   -0.837358    0.868377
     29          1           0       -0.432346   -1.635101    1.703134
     30          1           0       -0.070704   -2.278755    0.347463
     31          1           0       -3.803187   -1.148293   -0.339311
     32          1           0       -4.190858   -2.585192    0.151304
     33          1           0       -1.963969   -2.440971   -0.791776
     34          1           0       -1.031984   -3.333200   -1.650670
     35          1           0       -2.630592   -1.432680    1.627794
     36          1           0       -2.334354   -1.326438    3.146284
     37          8           0       -4.096230    0.370682   -0.896511
     38          1           0       -3.268115    0.895850   -0.784591
     39          1           0       -4.438460    0.567861   -1.771129
     40          1           0        3.472710    1.146328    1.629382
     41          1           0        2.943392   -0.279165    2.590950
     42          1           0        1.767694    1.001976    2.198619
 ---------------------------------------------------------------------
 Rotational constants (GHZ):           0.4544853           0.3091064           0.2385236
 Standard basis: Aug-CC-pVDZ (5D, 7F)
 There are   650 symmetry adapted cartesian basis functions of A   symmetry.
 There are   616 symmetry adapted basis functions of A   symmetry.
   616 basis functions,  1006 primitive gaussians,   650 cartesian basis functions
    69 alpha electrons       69 beta electrons
       nuclear repulsion energy      1409.2001582376 Hartrees.
 NAtoms=   42 NActive=   42 NUniq=   42 SFac= 1.00D+00 NAtFMM=   60 NAOKFM=F Big=F
 Integral buffers will be    131072 words long.
 Raffenetti 2 integral format.
 Two-electron integral symmetry is turned on.
 Nuclear repulsion after empirical dispersion term =     1409.1654572884 Hartrees.
 One-electron integrals computed using PRISM.
 NBasis=   616 RedAO= T EigKep=  1.79D-06  NBF=   616
 NBsUse=   616 1.00D-06 EigRej= -1.00D+00 NBFU=   616
 ExpMin= 2.97D-02 ExpMax= 1.17D+04 ExpMxC= 4.01D+02 IAcc=3 IRadAn=         5 AccDes= 0.00D+00
 Harris functional with IExCor= 4639 and IRadAn=       5 diagonalized for initial guess.
 HarFok:  IExCor= 4639 AccDes= 0.00D+00 IRadAn=         5 IDoV= 1 UseB2=F ITyADJ=14
 ICtDFT=  3500011 ScaDFX=  1.000000  1.000000  1.000000  1.000000
 FoFCou: FMM=F IPFlag=           0 FMFlag=      100000 FMFlg1=           0
         NFxFlg=           0 DoJE=T BraDBF=F KetDBF=T FulRan=T
         wScrn=  0.000000 ICntrl=       500 IOpCl=  0 I1Cent=   200000004 NGrid=           0
         NMat0=    1 NMatS0=      1 NMatT0=    0 NMatD0=    1 NMtDS0=    0 NMtDT0=    0
 Petite list used in FoFCou.
 Requested convergence on RMS density matrix=1.00D-08 within 128 cycles.
 Requested convergence on MAX density matrix=1.00D-06.
 Requested convergence on             energy=1.00D-06.
 No special actions if energy rises.
 SCF Done:  E(RwB97XD) =  -881.480343981     A.U. after   15 cycles
            NFock= 15  Conv=0.32D-08     -V/T= 2.0062

 **********************************************************************

            Population analysis using the SCF density.

 **********************************************************************

 Orbital symmetries:
       Occupied  (A) (A) (A) (A) (A) (A) (A) (A) (A) (A) (A) (A)
                 (A) (A) (A) (A) (A) (A) (A) (A) (A) (A) (A) (A)
                 (A) (A) (A) (A) (A) (A) (A) (A) (A) (A) (A) (A)
                 (A) (A) (A) (A) (A) (A) (A) (A) (A) (A) (A) (A)
                 (A) (A) (A) (A) (A) (A) (A) (A) (A) (A) (A) (A)
                 (A) (A) (A) (A) (A) (A) (A) (A) (A)
       Virtual   (A) (A) (A) (A) (A) (A) (A) (A) (A) (A) (A) (A)
                 (A) (A) (A) (A) (A) (A) (A) (A) (A) (A) (A) (A)
                 (A) (A) (A) (A) (A) (A) (A) (A) (A) (A) (A) (A)
                 (A) (A) (A) (A) (A) (A) (A) (A) (A) (A) (A) (A)
                 (A) (A) (A) (A) (A) (A) (A) (A) (A) (A) (A) (A)
                 (A) (A) (A) (A) (A) (A) (A) (A) (A) (A) (A) (A)
                 (A) (A) (A) (A) (A) (A) (A) (A) (A) (A) (A) (A)
                 (A) (A) (A) (A) (A) (A) (A) (A) (A) (A) (A) (A)
                 (A) (A) (A) (A) (A) (A) (A) (A) (A) (A) (A) (A)
                 (A) (A) (A) (A) (A) (A) (A) (A) (A) (A) (A) (A)
                 (A) (A) (A) (A) (A) (A) (A) (A) (A) (A) (A) (A)
                 (A) (A) (A) (A) (A) (A) (A) (A) (A) (A) (A) (A)
                 (A) (A) (A) (A) (A) (A) (A) (A) (A) (A) (A) (A)
                 (A) (A) (A) (A) (A) (A) (A) (A) (A) (A) (A) (A)
                 (A) (A) (A) (A) (A) (A) (A) (A) (A) (A) (A) (A)
                 (A) (A) (A) (A) (A) (A) (A) (A) (A) (A) (A) (A)
                 (A) (A) (A) (A) (A) (A) (A) (A) (A) (A) (A) (A)
                 (A) (A) (A) (A) (A) (A) (A) (A) (A) (A) (A) (A)
                 (A) (A) (A) (A) (A) (A) (A) (A) (A) (A) (A) (A)
                 (A) (A) (A) (A) (A) (A) (A) (A) (A) (A) (A) (A)
                 (A) (A) (A) (A) (A) (A) (A) (A) (A) (A) (A) (A)
                 (A) (A) (A) (A) (A) (A) (A) (A) (A) (A) (A) (A)
                 (A) (A) (A) (A) (A) (A) (A) (A) (A) (A) (A) (A)
                 (A) (A) (A) (A) (A) (A) (A) (A) (A) (A) (A) (A)
                 (A) (A) (A) (A) (A) (A) (A) (A) (A) (A) (A) (A)
                 (A) (A) (A) (A) (A) (A) (A) (A) (A) (A) (A) (A)
                 (A) (A) (A) (A) (A) (A) (A) (A) (A) (A) (A) (A)
                 (A) (A) (A) (A) (A) (A) (A) (A) (A) (A) (A) (A)
                 (A) (A) (A) (A) (A) (A) (A) (A) (A) (A) (A) (A)
                 (A) (A) (A) (A) (A) (A) (A) (A) (A) (A) (A) (A)
                 (A) (A) (A) (A) (A) (A) (A) (A) (A) (A) (A) (A)
                 (A) (A) (A) (A) (A) (A) (A) (A) (A) (A) (A) (A)
                 (A) (A) (A) (A) (A) (A) (A) (A) (A) (A) (A) (A)
                 (A) (A) (A) (A) (A) (A) (A) (A) (A) (A) (A) (A)
                 (A) (A) (A) (A) (A) (A) (A) (A) (A) (A) (A) (A)
                 (A) (A) (A) (A) (A) (A) (A) (A) (A) (A) (A) (A)
                 (A) (A) (A) (A) (A) (A) (A) (A) (A) (A) (A) (A)
                 (A) (A) (A) (A) (A) (A) (A) (A) (A) (A) (A) (A)
                 (A) (A) (A) (A) (A) (A) (A) (A) (A) (A) (A) (A)
                 (A) (A) (A) (A) (A) (A) (A) (A) (A) (A) (A) (A)
                 (A) (A) (A) (A) (A) (A) (A) (A) (A) (A) (A) (A)
                 (A) (A) (A) (A) (A) (A) (A) (A) (A) (A) (A) (A)
                 (A) (A) (A) (A) (A) (A) (A) (A) (A) (A) (A) (A)
                 (A) (A) (A) (A) (A) (A) (A) (A) (A) (A) (A) (A)
                 (A) (A) (A) (A) (A) (A) (A) (A) (A) (A) (A) (A)
                 (A) (A) (A) (A) (A) (A) (A)
 The electronic state is 1-A.
 Alpha  occ. eigenvalues --  -19.38850 -19.38732 -19.37708 -19.37399 -19.36773
 Alpha  occ. eigenvalues --  -14.66715 -14.58138 -10.48803 -10.47152 -10.47143
 Alpha  occ. eigenvalues --  -10.46138 -10.45918 -10.44730 -10.44674 -10.43118
 Alpha  occ. eigenvalues --  -10.42996 -10.42928  -1.24200  -1.23667  -1.22688
 Alpha  occ. eigenvalues --   -1.22255  -1.20954  -1.20620  -1.17803  -1.05702
 Alpha  occ. eigenvalues --   -1.03651  -1.00672  -0.96177  -0.93268  -0.87779
 Alpha  occ. eigenvalues --   -0.85392  -0.83878  -0.82298  -0.76987  -0.75013
 Alpha  occ. eigenvalues --   -0.74065  -0.73914  -0.73335  -0.73139  -0.72432
 Alpha  occ. eigenvalues --   -0.71555  -0.70842  -0.69801  -0.67811  -0.65938
 Alpha  occ. eigenvalues --   -0.64939  -0.64642  -0.62981  -0.62172  -0.61882
 Alpha  occ. eigenvalues --   -0.61635  -0.61401  -0.60111  -0.59872  -0.59106
 Alpha  occ. eigenvalues --   -0.58184  -0.57229  -0.56844  -0.55848  -0.55623
 Alpha  occ. eigenvalues --   -0.54412  -0.52537  -0.51984  -0.51389  -0.50624
 Alpha  occ. eigenvalues --   -0.50350  -0.49493  -0.47488  -0.46382
 Alpha virt. eigenvalues --   -0.09378  -0.08109  -0.06229  -0.05554  -0.04770
 Alpha virt. eigenvalues --   -0.04449  -0.03530  -0.03197  -0.03112  -0.02675
 Alpha virt. eigenvalues --   -0.01961  -0.01519  -0.01330  -0.00746  -0.00531
 Alpha virt. eigenvalues --   -0.00164   0.00160   0.00546   0.01042   0.01302
 Alpha virt. eigenvalues --    0.01504   0.01847   0.02409   0.02494   0.03058
 Alpha virt. eigenvalues --    0.03186   0.03555   0.03800   0.04005   0.04399
 Alpha virt. eigenvalues --    0.04436   0.05042   0.05420   0.05662   0.05760
 Alpha virt. eigenvalues --    0.05833   0.06107   0.06590   0.06876   0.07296
 Alpha virt. eigenvalues --    0.07540   0.07608   0.07793   0.07926   0.08003
 Alpha virt. eigenvalues --    0.08472   0.08565   0.08675   0.09135   0.09535
 Alpha virt. eigenvalues --    0.09588   0.09926   0.10530   0.10769   0.10882
 Alpha virt. eigenvalues --    0.11075   0.11394   0.11543   0.12075   0.12502
 Alpha virt. eigenvalues --    0.12917   0.13356   0.13580   0.13742   0.14196
 Alpha virt. eigenvalues --    0.14602   0.14750   0.15123   0.15421   0.15637
 Alpha virt. eigenvalues --    0.16081   0.16288   0.16632   0.16938   0.17387
 Alpha virt. eigenvalues --    0.17527   0.17743   0.18125   0.18305   0.18499
 Alpha virt. eigenvalues --    0.18623   0.18973   0.19557   0.19847   0.19946
 Alpha virt. eigenvalues --    0.20109   0.20455   0.20613   0.20689   0.21077
 Alpha virt. eigenvalues --    0.21208   0.21418   0.21871   0.22187   0.22613
 Alpha virt. eigenvalues --    0.22847   0.23187   0.23441   0.23658   0.24029
 Alpha virt. eigenvalues --    0.24215   0.24471   0.24992   0.25699   0.25772
 Alpha virt. eigenvalues --    0.26261   0.26466   0.26755   0.26873   0.27282
 Alpha virt. eigenvalues --    0.27454   0.27796   0.27953   0.28401   0.28628
 Alpha virt. eigenvalues --    0.29293   0.29498   0.29937   0.30137   0.30559
 Alpha virt. eigenvalues --    0.30849   0.31413   0.31474   0.32236   0.32583
 Alpha virt. eigenvalues --    0.32843   0.32959   0.33260   0.33886   0.34092
 Alpha virt. eigenvalues --    0.34590   0.35064   0.35418   0.36039   0.36515
 Alpha virt. eigenvalues --    0.36701   0.37638   0.37741   0.37976   0.38370
 Alpha virt. eigenvalues --    0.39189   0.39676   0.39892   0.40183   0.40665
 Alpha virt. eigenvalues --    0.41203   0.41792   0.42254   0.42404   0.42819
 Alpha virt. eigenvalues --    0.42883   0.43419   0.43562   0.43844   0.44032
 Alpha virt. eigenvalues --    0.44836   0.45187   0.45524   0.45807   0.46130
 Alpha virt. eigenvalues --    0.46274   0.46745   0.47049   0.47499   0.47715
 Alpha virt. eigenvalues --    0.48555   0.48805   0.49538   0.49633   0.50159
 Alpha virt. eigenvalues --    0.50662   0.50810   0.50974   0.51400   0.51904
 Alpha virt. eigenvalues --    0.52118   0.52269   0.52488   0.52796   0.53195
 Alpha virt. eigenvalues --    0.53516   0.53656   0.54233   0.54460   0.54711
 Alpha virt. eigenvalues --    0.55273   0.55497   0.55871   0.56222   0.56665
 Alpha virt. eigenvalues --    0.56924   0.57149   0.57472   0.57865   0.58357
 Alpha virt. eigenvalues --    0.58996   0.59199   0.59551   0.59819   0.60481
 Alpha virt. eigenvalues --    0.60803   0.60984   0.61674   0.62143   0.62360
 Alpha virt. eigenvalues --    0.62727   0.63506   0.63604   0.64050   0.64269
 Alpha virt. eigenvalues --    0.64665   0.65444   0.65754   0.66662   0.66672
 Alpha virt. eigenvalues --    0.66809   0.67299   0.68130   0.68418   0.68842
 Alpha virt. eigenvalues --    0.69374   0.69901   0.70302   0.70611   0.71238
 Alpha virt. eigenvalues --    0.71432   0.72064   0.72340   0.72861   0.73141
 Alpha virt. eigenvalues --    0.73338   0.73690   0.74348   0.74948   0.75636
 Alpha virt. eigenvalues --    0.76025   0.76301   0.76856   0.77477   0.77997
 Alpha virt. eigenvalues --    0.78669   0.78921   0.79568   0.80084   0.80464
 Alpha virt. eigenvalues --    0.81042   0.81495   0.81763   0.82269   0.82675
 Alpha virt. eigenvalues --    0.83334   0.83716   0.84655   0.85272   0.85393
 Alpha virt. eigenvalues --    0.86205   0.86740   0.87555   0.88045   0.89434
 Alpha virt. eigenvalues --    0.89751   0.90959   0.91796   0.91957   0.92524
 Alpha virt. eigenvalues --    0.93036   0.93719   0.94176   0.94580   0.95294
 Alpha virt. eigenvalues --    0.95679   0.96994   0.97675   0.98060   0.98576
 Alpha virt. eigenvalues --    0.99379   1.00648   1.00748   1.01505   1.01974
 Alpha virt. eigenvalues --    1.02385   1.02956   1.03472   1.04481   1.04946
 Alpha virt. eigenvalues --    1.06009   1.06296   1.06980   1.07112   1.08136
 Alpha virt. eigenvalues --    1.08311   1.09308   1.09953   1.10759   1.10853
 Alpha virt. eigenvalues --    1.12310   1.13535   1.14625   1.15027   1.15575
 Alpha virt. eigenvalues --    1.16375   1.17100   1.17789   1.18365   1.18718
 Alpha virt. eigenvalues --    1.19635   1.20644   1.21289   1.21340   1.22122
 Alpha virt. eigenvalues --    1.24075   1.24548   1.25966   1.26372   1.27369
 Alpha virt. eigenvalues --    1.28326   1.28981   1.29627   1.30186   1.30944
 Alpha virt. eigenvalues --    1.31468   1.33625   1.33750   1.34516   1.35334
 Alpha virt. eigenvalues --    1.35899   1.36798   1.37438   1.37902   1.38558
 Alpha virt. eigenvalues --    1.39347   1.40437   1.40837   1.42408   1.43512
 Alpha virt. eigenvalues --    1.44110   1.45149   1.46143   1.46451   1.46605
 Alpha virt. eigenvalues --    1.47673   1.48718   1.49965   1.50315   1.51246
 Alpha virt. eigenvalues --    1.52629   1.52940   1.53336   1.54746   1.55452
 Alpha virt. eigenvalues --    1.56158   1.56583   1.57692   1.57944   1.59295
 Alpha virt. eigenvalues --    1.59564   1.60557   1.61400   1.62628   1.63238
 Alpha virt. eigenvalues --    1.63820   1.64227   1.65240   1.66076   1.66563
 Alpha virt. eigenvalues --    1.67589   1.68324   1.69208   1.70174   1.70556
 Alpha virt. eigenvalues --    1.71808   1.72594   1.72970   1.73615   1.74070
 Alpha virt. eigenvalues --    1.74489   1.75816   1.76727   1.77419   1.78547
 Alpha virt. eigenvalues --    1.78745   1.80364   1.80599   1.80680   1.81501
 Alpha virt. eigenvalues --    1.82621   1.82806   1.83441   1.84044   1.84597
 Alpha virt. eigenvalues --    1.85662   1.85836   1.86600   1.87499   1.87947
 Alpha virt. eigenvalues --    1.88814   1.89188   1.90520   1.91918   1.92478
 Alpha virt. eigenvalues --    1.92812   1.93271   1.94598   1.95186   1.95645
 Alpha virt. eigenvalues --    1.96333   1.96941   1.97613   1.98354   1.99454
 Alpha virt. eigenvalues --    1.99781   2.00763   2.01225   2.01553   2.02400
 Alpha virt. eigenvalues --    2.03529   2.04332   2.06334   2.07112   2.07372
 Alpha virt. eigenvalues --    2.07971   2.08484   2.09573   2.10476   2.10867
 Alpha virt. eigenvalues --    2.12746   2.13913   2.14022   2.14694   2.15937
 Alpha virt. eigenvalues --    2.18107   2.18961   2.19592   2.20363   2.21205
 Alpha virt. eigenvalues --    2.22040   2.22852   2.23580   2.23962   2.25247
 Alpha virt. eigenvalues --    2.25799   2.26108   2.26634   2.28007   2.28676
 Alpha virt. eigenvalues --    2.29461   2.31000   2.31727   2.33410   2.34205
 Alpha virt. eigenvalues --    2.35160   2.35519   2.36348   2.37254   2.39225
 Alpha virt. eigenvalues --    2.39462   2.39634   2.42820   2.43869   2.46015
 Alpha virt. eigenvalues --    2.46881   2.48448   2.48943   2.51027   2.52239
 Alpha virt. eigenvalues --    2.52784   2.53601   2.53836   2.54360   2.55374
 Alpha virt. eigenvalues --    2.56002   2.57343   2.58101   2.58318   2.59431
 Alpha virt. eigenvalues --    2.60168   2.60876   2.61391   2.62787   2.63672
 Alpha virt. eigenvalues --    2.65574   2.66981   2.67967   2.68764   2.69464
 Alpha virt. eigenvalues --    2.71768   2.73260   2.74381   2.75947   2.76530
 Alpha virt. eigenvalues --    2.76682   2.78212   2.79669   2.80673   2.81414
 Alpha virt. eigenvalues --    2.81915   2.83483   2.84827   2.86446   2.87977
 Alpha virt. eigenvalues --    2.89159   2.91365   2.92104   2.93200   2.94135
 Alpha virt. eigenvalues --    2.95780   2.97584   3.02457   3.05504   3.09861
 Alpha virt. eigenvalues --    3.13729   3.14806   3.18934   3.24027   3.28179
 Alpha virt. eigenvalues --    3.34200   3.36649   3.37446   3.38105   3.39283
 Alpha virt. eigenvalues --    3.39662   3.41213   3.42933   3.45687   3.48505
 Alpha virt. eigenvalues --    3.51556   3.52972   3.53616   3.54930   3.57031
 Alpha virt. eigenvalues --    3.58070   3.60711   3.70033   3.72011   3.82270
 Alpha virt. eigenvalues --    3.83579   3.85636   3.86661   3.94401   3.97904
 Alpha virt. eigenvalues --    4.00747   4.02663   4.04785   4.10330   4.15505
 Alpha virt. eigenvalues --    4.36003   4.39414
          Condensed to atoms (all electrons):
               1          2          3          4          5          6
     1  C   27.837312 -14.378905  -0.888039  -0.403951   2.443229  -5.355680
     2  C  -14.378905  28.699833  -6.717687   0.310962  -2.530790   2.479275
     3  C   -0.888039  -6.717687  21.017006  -1.403967  -1.519530  -0.713977
     4  N   -0.403951   0.310962  -1.403967   8.061709   0.502802   0.119724
     5  C    2.443229  -2.530790  -1.519530   0.502802  11.484038  -3.601916
     6  C   -5.355680   2.479275  -0.713977   0.119724  -3.601916  13.048825
     7  C   -0.524877  -8.045953  -2.353831   0.616180  -0.392300  -0.290096
     8  N   -0.643892   1.160837  -0.926855   0.021152   0.005095   0.171712
     9  C   -0.009956  -0.162260  -0.124657   0.024938  -0.033274   0.037938
    10  C   -0.153682   0.236679   0.044420  -0.023405  -0.030761  -0.006841
    11  C   -0.607788   0.626968  -0.369877  -0.073856  -0.235351  -0.016366
    12  O    0.058221  -0.093751  -0.118824   0.007960   0.000483  -0.005458
    13  O   -0.027971   0.104939  -0.150487   0.031485   0.017053  -0.005932
    14  O    0.004056  -0.039155   0.026663   0.003395   0.021375  -0.001760
    15  O   -0.005733   0.040785  -0.043482  -0.000949  -0.000487   0.000524
    16  H    0.020926  -0.049588  -0.029423   0.001338  -0.002735   0.003854
    17  H   -0.014072   0.015946   0.020245  -0.001039   0.000856  -0.005004
    18  H    0.012397  -0.094477  -0.013020   0.000113  -0.001942   0.002247
    19  H    0.022216   0.152221  -0.229665   0.005847  -0.004772  -0.071051
    20  H   -0.039850   0.056143   0.222443  -0.012998   0.009964   0.001614
    21  H    0.009549   0.009287   0.047577  -0.000306   0.000066  -0.001401
    22  H   -0.046339   1.521308   0.183592  -0.036484  -0.001811   0.025106
    23  H   -0.272072  -0.107825  -1.046252  -0.024729   0.011239   0.086223
    24  H    0.142186  -0.097838   0.325031  -0.173668  -0.855102   0.296853
    25  H    0.744716  -0.155047   0.089940  -0.063957   0.503140  -1.411007
    26  H   -3.100817   1.782207  -0.060838  -0.030969  -0.360958   0.915496
    27  C   -0.214698   0.305086  -0.020278  -0.004789  -0.027496   0.110784
    28  H   -0.133910   0.061272  -0.258618  -0.000606   0.000466  -0.023084
    29  H   -0.001924  -0.013525   0.024849  -0.003237  -0.006577   0.005734
    30  H    0.010560  -0.005101   0.009626   0.003050   0.004649   0.003202
    31  H   -0.006672   0.011291  -0.004568  -0.007397  -0.011965   0.005927
    32  H    0.001620  -0.001414   0.009109  -0.001171  -0.001149  -0.000425
    33  H   -0.003303   0.018757  -0.041312  -0.001781   0.000853  -0.008010
    34  H   -0.002260   0.000483   0.012572   0.001217  -0.000497   0.002039
    35  H   -0.024208   0.054023  -0.050594   0.009457  -0.004054   0.007459
    36  H    0.003682  -0.019819   0.030385  -0.003535  -0.002573  -0.000422
    37  O    0.018978  -0.031924  -0.094083  -0.003258   0.057152  -0.025197
    38  H    0.086648  -0.007915  -0.264162   0.186998   0.182992  -0.131886
    39  H   -0.010769   0.009397   0.008870  -0.001253  -0.024272   0.015286
    40  H    0.115546  -0.016963   0.076447  -0.001537   0.009834  -0.022243
    41  H   -0.026653   0.094952   0.031279  -0.001103   0.004982   0.003367
    42  H   -0.039104   0.019900  -0.034118  -0.003487  -0.016268  -0.000680
               7          8          9         10         11         12
     1  C   -0.524877  -0.643892  -0.009956  -0.153682  -0.607788   0.058221
     2  C   -8.045953   1.160837  -0.162260   0.236679   0.626968  -0.093751
     3  C   -2.353831  -0.926855  -0.124657   0.044420  -0.369877  -0.118824
     4  N    0.616180   0.021152   0.024938  -0.023405  -0.073856   0.007960
     5  C   -0.392300   0.005095  -0.033274  -0.030761  -0.235351   0.000483
     6  C   -0.290096   0.171712   0.037938  -0.006841  -0.016366  -0.005458
     7  C   25.079193  -1.463337  -0.417654   0.031539  -2.601832   0.258353
     8  N   -1.463337  10.921765  -0.110288  -0.066763  -1.104728  -0.378801
     9  C   -0.417654  -0.110288   5.891409  -0.329770   0.475733  -0.007096
    10  C    0.031539  -0.066763  -0.329770   6.728348  -0.992154  -0.003351
    11  C   -2.601832  -1.104728   0.475733  -0.992154  10.103275  -0.058672
    12  O    0.258353  -0.378801  -0.007096  -0.003351  -0.058672   8.611516
    13  O   -0.032695   0.034047   0.000874   0.000442   0.005619  -0.133803
    14  O    0.007598   0.000014   0.000740   0.000235  -0.007659  -0.026391
    15  O   -0.046493   0.017787   0.005662   0.025252  -0.057185  -0.112879
    16  H   -0.019349   0.078954  -0.116969   0.043018   0.196550  -0.016534
    17  H   -0.111232   0.095131   0.145805  -0.210289   0.111084  -0.004043
    18  H    0.266637  -0.242867   0.294175  -0.427542   0.111724   0.016936
    19  H   -0.595439  -0.137945   0.069300   0.016112   0.202104   0.025082
    20  H    0.471223   0.309195  -0.123901   0.223174  -1.258888  -0.001243
    21  H    0.086061  -0.580312  -0.308367   0.047769   0.093338   0.054622
    22  H   -4.057815  -0.244353   0.090693  -0.154541   0.705949   0.009611
    23  H   -0.438350   0.057516   0.009538   0.058882   0.102048  -0.071925
    24  H   -0.007668   0.001700  -0.000479  -0.000098   0.002988  -0.000807
    25  H   -0.007896  -0.007277  -0.001294   0.000435   0.007875   0.000084
    26  H   -0.149849   0.043656  -0.011015   0.017284  -0.046163   0.001461
    27  C   -0.332814   0.905081  -0.059508  -0.037904  -0.222922  -0.060538
    28  H    0.204941   0.115217  -0.375725   0.137868  -0.142939   0.113112
    29  H   -0.038228  -0.004080   0.037505  -0.005061   0.028446   0.262120
    30  H    0.013279   0.052398  -0.000467  -0.004410  -0.013031   0.188380
    31  H   -0.000198  -0.000342   0.000610   0.000401   0.001032  -0.000830
    32  H    0.001211  -0.000752  -0.000010  -0.000314  -0.000127   0.002825
    33  H   -0.022189   0.001161  -0.003653   0.002556   0.029055   0.006472
    34  H    0.014231   0.009081   0.001852  -0.001163  -0.018429   0.001398
    35  H   -0.011842   0.008832  -0.000744   0.000800   0.003454  -0.003179
    36  H    0.003871  -0.002006  -0.000655   0.000176  -0.000797   0.010659
    37  O    0.003630   0.000410   0.000203  -0.000279  -0.003403   0.000248
    38  H   -0.008847  -0.000308  -0.000607  -0.002480  -0.005843   0.003426
    39  H    0.001766   0.000205  -0.000008   0.000286   0.000960  -0.000056
    40  H   -0.111134  -0.177720   0.237091  -0.078106   0.082978  -0.019947
    41  H   -0.142770  -0.116928  -0.013754   0.046696  -0.082800   0.024748
    42  H    0.188759  -0.074793  -0.157883  -0.004380   0.079851   0.003553
              13         14         15         16         17         18
     1  C   -0.027971   0.004056  -0.005733   0.020926  -0.014072   0.012397
     2  C    0.104939  -0.039155   0.040785  -0.049588   0.015946  -0.094477
     3  C   -0.150487   0.026663  -0.043482  -0.029423   0.020245  -0.013020
     4  N    0.031485   0.003395  -0.000949   0.001338  -0.001039   0.000113
     5  C    0.017053   0.021375  -0.000487  -0.002735   0.000856  -0.001942
     6  C   -0.005932  -0.001760   0.000524   0.003854  -0.005004   0.002247
     7  C   -0.032695   0.007598  -0.046493  -0.019349  -0.111232   0.266637
     8  N    0.034047   0.000014   0.017787   0.078954   0.095131  -0.242867
     9  C    0.000874   0.000740   0.005662  -0.116969   0.145805   0.294175
    10  C    0.000442   0.000235   0.025252   0.043018  -0.210289  -0.427542
    11  C    0.005619  -0.007659  -0.057185   0.196550   0.111084   0.111724
    12  O   -0.133803  -0.026391  -0.112879  -0.016534  -0.004043   0.016936
    13  O    7.812154  -0.039958   0.001270  -0.000632   0.000124  -0.000111
    14  O   -0.039958   8.349498  -0.069240  -0.000048   0.000024   0.000046
    15  O    0.001270  -0.069240   7.988447  -0.000842   0.000632  -0.000457
    16  H   -0.000632  -0.000048  -0.000842   2.151950  -0.370045   0.157251
    17  H    0.000124   0.000024   0.000632  -0.370045   2.107390  -0.581169
    18  H   -0.000111   0.000046  -0.000457   0.157251  -0.581169   2.140936
    19  H    0.003574  -0.015789   0.017612  -0.022482   0.168853  -0.193206
    20  H   -0.000046  -0.000240   0.009470   0.021200  -0.225557   0.062305
    21  H    0.001036   0.000519   0.007161  -0.597238   0.153995  -0.223927
    22  H   -0.000824   0.000081  -0.001732  -0.030322   0.023765   0.001107
    23  H    0.002205   0.059515   0.029584  -0.012170   0.013242  -0.015977
    24  H   -0.001287   0.002635   0.000212  -0.000044   0.000000   0.000032
    25  H   -0.000019  -0.000129   0.000004  -0.000372   0.000281  -0.000059
    26  H   -0.000981   0.000224  -0.000442   0.001716  -0.001067   0.000952
    27  C   -0.000016   0.000753   0.001976   0.061148  -0.001715  -0.001689
    28  H    0.001937  -0.013702  -0.023646  -0.086577  -0.031746   0.014462
    29  H    0.010301   0.002698   0.016559   0.000173   0.000155  -0.001321
    30  H    0.011611   0.009735   0.019195  -0.000080   0.001266   0.001490
    31  H    0.002998   0.305785   0.001949   0.000019  -0.000041   0.000168
    32  H   -0.001818   0.293947   0.001529   0.000001   0.000002  -0.000053
    33  H    0.005885  -0.055574   0.322411   0.000363  -0.000943   0.001406
    34  H    0.000330   0.008214   0.330141  -0.000310   0.000859  -0.001217
    35  H    0.328879  -0.009630   0.002335  -0.000087   0.000001   0.000071
    36  H    0.337164   0.001258   0.000410  -0.000035   0.000027  -0.000033
    37  O    0.001913  -0.097377  -0.000694  -0.000001  -0.000007  -0.000109
    38  H    0.000793  -0.009142  -0.000419  -0.000007  -0.000028  -0.000347
    39  H   -0.000057   0.008152  -0.000432   0.000007   0.000000   0.000034
    40  H    0.000197   0.000031   0.000039   0.014537   0.015022  -0.009998
    41  H    0.001037   0.000236  -0.000026  -0.027602   0.001654   0.001384
    42  H   -0.002121  -0.000324   0.001262   0.020483  -0.007042   0.005287
              19         20         21         22         23         24
     1  C    0.022216  -0.039850   0.009549  -0.046339  -0.272072   0.142186
     2  C    0.152221   0.056143   0.009287   1.521308  -0.107825  -0.097838
     3  C   -0.229665   0.222443   0.047577   0.183592  -1.046252   0.325031
     4  N    0.005847  -0.012998  -0.000306  -0.036484  -0.024729  -0.173668
     5  C   -0.004772   0.009964   0.000066  -0.001811   0.011239  -0.855102
     6  C   -0.071051   0.001614  -0.001401   0.025106   0.086223   0.296853
     7  C   -0.595439   0.471223   0.086061  -4.057815  -0.438350  -0.007668
     8  N   -0.137945   0.309195  -0.580312  -0.244353   0.057516   0.001700
     9  C    0.069300  -0.123901  -0.308367   0.090693   0.009538  -0.000479
    10  C    0.016112   0.223174   0.047769  -0.154541   0.058882  -0.000098
    11  C    0.202104  -1.258888   0.093338   0.705949   0.102048   0.002988
    12  O    0.025082  -0.001243   0.054622   0.009611  -0.071925  -0.000807
    13  O    0.003574  -0.000046   0.001036  -0.000824   0.002205  -0.001287
    14  O   -0.015789  -0.000240   0.000519   0.000081   0.059515   0.002635
    15  O    0.017612   0.009470   0.007161  -0.001732   0.029584   0.000212
    16  H   -0.022482   0.021200  -0.597238  -0.030322  -0.012170  -0.000044
    17  H    0.168853  -0.225557   0.153995   0.023765   0.013242   0.000000
    18  H   -0.193206   0.062305  -0.223927   0.001107  -0.015977   0.000032
    19  H    2.612330  -0.603446   0.050523   0.207893  -0.125424  -0.003868
    20  H   -0.603446   2.469163  -0.026624  -0.208832   0.010157   0.001074
    21  H    0.050523  -0.026624   2.565750   0.045057   0.019630   0.000101
    22  H    0.207893  -0.208832   0.045057   4.031062   0.002323  -0.000071
    23  H   -0.125424   0.010157   0.019630   0.002323   3.825203   0.035378
    24  H   -0.003868   0.001074   0.000101  -0.000071   0.035378   2.232022
    25  H    0.003934  -0.001913  -0.000049  -0.000160  -0.018441  -0.142903
    26  H   -0.016203   0.007327  -0.002040  -0.108688  -0.019966  -0.008126
    27  C   -0.076102   0.051543  -0.156241  -0.034724   0.019570   0.001847
    28  H    0.048770   0.044727   0.161946  -0.040700  -0.100343  -0.003799
    29  H    0.022121  -0.004512   0.003706   0.001970   0.001870   0.000179
    30  H   -0.012419   0.003552  -0.005267   0.002430   0.000840   0.000196
    31  H    0.001803   0.000113  -0.000000  -0.000063  -0.011041   0.002050
    32  H    0.000353  -0.000018  -0.000022   0.000063   0.001178  -0.000213
    33  H    0.020449   0.001340  -0.000646   0.000002  -0.012481  -0.000554
    34  H   -0.010153   0.000332  -0.000212  -0.000421  -0.001174  -0.000068
    35  H    0.000044   0.000459  -0.000384  -0.000732  -0.015027   0.000286
    36  H   -0.000518  -0.000031  -0.000027   0.000107   0.009898  -0.000419
    37  O    0.004865   0.000029   0.000080  -0.000003  -0.015342   0.000463
    38  H    0.010796  -0.001278  -0.000006   0.001025  -0.021813  -0.086581
    39  H   -0.000790   0.000146  -0.000021  -0.000055  -0.001793   0.006331
    40  H    0.005664   0.000725   0.025382   0.013417   0.007690   0.000117
    41  H   -0.020421   0.001336  -0.025585  -0.009428   0.008746   0.000678
    42  H    0.006182   0.003299  -0.014886   0.046229  -0.001723  -0.002913
              25         26         27         28         29         30
     1  C    0.744716  -3.100817  -0.214698  -0.133910  -0.001924   0.010560
     2  C   -0.155047   1.782207   0.305086   0.061272  -0.013525  -0.005101
     3  C    0.089940  -0.060838  -0.020278  -0.258618   0.024849   0.009626
     4  N   -0.063957  -0.030969  -0.004789  -0.000606  -0.003237   0.003050
     5  C    0.503140  -0.360958  -0.027496   0.000466  -0.006577   0.004649
     6  C   -1.411007   0.915496   0.110784  -0.023084   0.005734   0.003202
     7  C   -0.007896  -0.149849  -0.332814   0.204941  -0.038228   0.013279
     8  N   -0.007277   0.043656   0.905081   0.115217  -0.004080   0.052398
     9  C   -0.001294  -0.011015  -0.059508  -0.375725   0.037505  -0.000467
    10  C    0.000435   0.017284  -0.037904   0.137868  -0.005061  -0.004410
    11  C    0.007875  -0.046163  -0.222922  -0.142939   0.028446  -0.013031
    12  O    0.000084   0.001461  -0.060538   0.113112   0.262120   0.188380
    13  O   -0.000019  -0.000981  -0.000016   0.001937   0.010301   0.011611
    14  O   -0.000129   0.000224   0.000753  -0.013702   0.002698   0.009735
    15  O    0.000004  -0.000442   0.001976  -0.023646   0.016559   0.019195
    16  H   -0.000372   0.001716   0.061148  -0.086577   0.000173  -0.000080
    17  H    0.000281  -0.001067  -0.001715  -0.031746   0.000155   0.001266
    18  H   -0.000059   0.000952  -0.001689   0.014462  -0.001321   0.001490
    19  H    0.003934  -0.016203  -0.076102   0.048770   0.022121  -0.012419
    20  H   -0.001913   0.007327   0.051543   0.044727  -0.004512   0.003552
    21  H   -0.000049  -0.002040  -0.156241   0.161946   0.003706  -0.005267
    22  H   -0.000160  -0.108688  -0.034724  -0.040700   0.001970   0.002430
    23  H   -0.018441  -0.019966   0.019570  -0.100343   0.001870   0.000840
    24  H   -0.142903  -0.008126   0.001847  -0.003799   0.000179   0.000196
    25  H    2.205022  -0.134110  -0.009359   0.006859  -0.000303  -0.000036
    26  H   -0.134110   3.238976   0.044084   0.020210  -0.000962  -0.000275
    27  C   -0.009359   0.044084   4.445544  -0.293801  -0.004679   0.009827
    28  H    0.006859   0.020210  -0.293801   1.600749  -0.037866  -0.039302
    29  H   -0.000303  -0.000962  -0.004679  -0.037866   0.495396  -0.094916
    30  H   -0.000036  -0.000275   0.009827  -0.039302  -0.094916   0.575545
    31  H   -0.000188  -0.000251  -0.000117  -0.000285   0.000770  -0.002177
    32  H    0.000014   0.000042   0.000024   0.000869  -0.000745   0.000778
    33  H    0.000140  -0.000387  -0.003659   0.015735  -0.000324  -0.009547
    34  H    0.000008   0.000021   0.001733  -0.005011   0.000888  -0.001393
    35  H   -0.000218   0.000086   0.001331   0.007327  -0.011640   0.003193
    36  H    0.000133  -0.000010  -0.000809   0.003289  -0.007096   0.001736
    37  O   -0.000283   0.000177  -0.000146  -0.001722   0.000765  -0.000669
    38  H    0.012757  -0.004179  -0.001777  -0.002215  -0.000039  -0.000238
    39  H   -0.000610   0.000257   0.000128   0.000403   0.000167  -0.000109
    40  H    0.000507  -0.008127   0.098284  -0.214935   0.005368   0.003362
[...]
 001022,0.00010295,0.00023165,-0.00001183,-0.00010019,0.00015807,0.0000
 5235,0.00019451,0.00018307,0.00037086,0.00291012,-0.00378356,0.0025490
 5,0.00002675,-0.00032297,-0.00004134,0.00059020,-0.00023098,0.00005661
 ,0.00005543,-0.00008968,0.00001426,0.00035829,0.00075519,0.00063692,0.
 00002187,0.00003623,-0.00002608,-0.03728385,-0.00081788,-0.05374131,0.
 06362700,0.02362111,0.06936631,0.00004980,-0.00002216,0.00001849,0.000
 01102,0.00018677,-0.00011335,-0.00009097,-0.00009621,-0.00008272,-0.00
 115626,-0.00157104,0.00136938,-0.00018040,-0.00029163,-0.00012088,0.00
 003003,-0.00002386,-0.00017533,-0.00008149,0.00005487,-0.00005474,0.00
 005871,-0.00001270,0.00002486,-0.00003191,0.00000551,0.00001318,-0.000
 00106,0.00000984,-0.00000454,-0.00001579,-0.00002944,0.00001803,0.0000
 6860,-0.00001931,0.00013032,0.00005955,-0.00002785,0.00015458,0.000650
 20,-0.00095569,0.00041978,0.00023734,-0.00025625,0.00020439,0.00000318
 ,0.00000679,0.00000056,0.00001315,-0.00000004,0.00000327,-0.00000697,-
 0.00000231,0.00000394,-0.00000988,0.00002034,-0.00000627,-0.00001180,0
 .00000067,0.00000512,-0.00000037,-0.00000452,0.00000187,0.00001652,0.0
 0000390,0.00001584,-0.00005632,0.00009631,-0.00004338,0.00001726,-0.00
 005972,0.00003904,0.00000231,0.00000036,-0.00000762,0.00001036,0.00000
 405,0.00001966,-0.00001198,-0.00002604,-0.00002562,-0.00004439,-0.0000
 1624,-0.00001066,0.00000221,0.00001889,-0.00004329,-0.00008289,0.00000
 585,-0.00014962,-0.00125674,0.00182792,-0.00072222,0.00017132,0.000142
 32,0.00004519,-0.00010061,0.00020511,-0.00017121,-0.00003942,0.0000974
 6,0.00000539,-0.00010923,0.00002863,-0.00016747,0.00001342,0.00001616,
 -0.00004684,-0.08443986,0.01724077,-0.14661248,-0.00784597,0.01370594,
 -0.03282693,0.09415776,-0.00002916,0.00005175,0.00001874,-0.00002940,-
 0.00003044,-0.00015032,0.00013475,-0.00003065,-0.00002072,-0.00159188,
 -0.00144644,0.00070158,-0.00055033,0.00028890,-0.00005084,0.00012838,-
 0.00018951,-0.00009960,-0.00006200,0.00002621,-0.00002189,-0.00000048,
 -0.00004770,-0.00000252,-0.00000885,0.00000659,0.00001471,-0.00000144,
 0.00000118,-0.00000587,0.00003484,0.00000583,0.00001241,-0.00003303,-0
 .00007800,-0.00011745,0.00002542,-0.00006177,-0.00001631,0.00057371,-0
 .00488521,-0.00057213,-0.00012145,0.00011753,-0.00035561,-0.00000085,-
 0.00000347,-0.00000293,-0.00000206,-0.00000105,-0.00000152,0.00000840,
 -0.00000968,0.00000359,0.00000540,0.00000889,0.00000863,-0.00000238,0.
 00000308,0.00000290,0.00000654,-0.00000045,-0.00000020,-0.00000443,-0.
 00000430,-0.00000430,0.00004015,0.00000340,0.00012010,-0.00000369,-0.0
 0016562,-0.00013024,-0.00004083,-0.00002672,-0.00001226,0.00001188,-0.
 00000915,0.00001163,-0.00000177,0.00000694,0.00001159,0.00005041,0.000
 05937,0.00000112,-0.00005230,0.00001978,0.00003176,0.00006960,0.000043
 04,0.00016263,0.00038017,0.00645125,0.00402481,0.00040308,-0.00068172,
 0.00053704,-0.00007330,-0.00014692,0.00038876,0.00009775,-0.00007310,0
 .00005063,-0.00003420,0.00012840,-0.00001528,0.00000470,0.00001047,0.0
 0000380,0.03712915,-0.06556055,0.14340206,-0.00619542,0.00823792,-0.02
 306703,-0.03026505,0.05797960,0.00003165,0.00004387,0.00001303,0.00010
 013,-0.00000296,-0.00004521,-0.00014317,0.00018716,0.00004754,0.000707
 00,0.00025653,0.00046498,-0.00010784,-0.00012345,-0.00004296,0.0001370
 6,0.00000010,-0.00000053,-0.00006868,0.00007529,0.00000126,0.00004868,
 -0.00003581,-0.00001097,-0.00003231,0.00001379,0.00002641,-0.00000001,
 -0.00000450,-0.00001350,0.00001262,-0.00001147,0.00002745,0.00005233,-
 0.00006114,-0.00003111,0.00006006,-0.00001529,0.00007928,0.00051017,-0
 .00230159,0.00078600,0.00009200,-0.00004247,-0.00024023,0.00000181,-0.
 00000046,-0.00000335,0.00000755,-0.00000024,-0.00000019,0.00000171,-0.
 00000721,0.00000582,-0.00000280,0.00000094,0.00002412,0.00001579,0.000
 00992,0.00000358,0.00000407,-0.00000432,-0.00000308,0.00001908,-0.0000
 0816,0.00000229,-0.00007667,-0.00001887,0.00004218,-0.00006343,-0.0001
 0447,-0.00001979,0.00001488,0.00001641,0.00001082,0.00002189,-0.000000
 42,0.00001194,-0.00001091,-0.00000106,-0.00000198,-0.00002116,0.000008
 91,0.00000043,-0.00006062,0.00003248,0.00000251,-0.00000157,0.00004171
 ,0.00005364,0.00003564,0.00300344,-0.00159606,-0.00006017,-0.00008521,
 0.00011856,-0.00019012,0.00010299,0.00018784,0.00002734,-0.00003412,0.
 00007553,-0.00002658,0.00000280,-0.00013285,-0.00000762,0.00001088,-0.
 00001163,-0.18187417,0.11872424,-0.44339746,0.00193077,0.00518700,-0.0
 0806218,0.17891654,-0.12485561,0.45164755,-0.00025263,-0.00039980,-0.0
 0000909,-0.00008947,0.00012253,-0.00010169,-0.00007180,-0.00002859,-0.
 00004403,0.00019106,0.00003300,0.00001565,-0.00000278,0.00000102,0.000
 00072,0.00002949,0.00010501,0.00007769,-0.00002223,-0.00031528,0.00070
 884,-0.00260005,-0.00146762,-0.00121702,0.00152940,0.00118462,0.000424
 70,0.00007895,0.00008788,0.00006447,0.00026521,0.00018947,-0.00011150,
 -0.00029996,-0.00033394,-0.00004752,-0.00011446,-0.00002503,-0.0000520
 5,-0.00003294,0.00002524,-0.00005635,-0.00002622,0.00001515,-0.0000876
 3,0.00023808,-0.00032183,-0.00001083,-0.00001119,-0.00003063,-0.000038
 99,-0.00002125,0.00000954,0.00002725,-0.00005543,0.00011358,0.00009350
 ,-0.00000403,-0.00003020,-0.00005152,-0.00005972,0.00003606,0.00004971
 ,0.00005497,0.00025683,-0.00067241,0.00002460,0.00001990,0.00002294,0.
 00002035,0.00000893,0.00000327,-0.00001399,0.00000141,-0.00000160,0.00
 012382,0.00022226,-0.00012638,-0.21255391,-0.13623434,0.00995003,0.001
 51496,0.00119528,-0.00022481,0.00010773,0.00005844,-0.00000095,0.00003
 231,0.00000887,0.00014636,0.00001343,-0.00005883,0.00002670,0.00000456
 ,0.00000203,0.00000404,0.00001382,-0.00000694,0.00001926,-0.00000757,0
 .00000008,0.00000597,0.00004211,-0.00000288,0.00007277,0.00001736,0.00
 001134,-0.00000619,0.00003213,0.00006196,-0.00000480,-0.00006468,-0.00
 004905,-0.00000906,-0.00000114,-0.00000307,-0.00000084,0.22260704,0.00
 002189,0.00010949,-0.00005947,-0.00009644,-0.00009452,-0.00003300,0.00
 010363,-0.00003970,-0.00001748,-0.00008841,0.00004853,0.00000609,-0.00
 001524,-0.00001674,-0.00000916,0.00000157,-0.00001621,-0.00003700,0.00
 087638,0.00058227,0.00116561,-0.01347219,-0.01394094,-0.00279863,-0.00
 211032,0.00014878,0.00075348,0.00034509,0.00026855,0.00002930,0.000197
 23,0.00019719,0.00013875,-0.00076684,-0.00066238,0.00026574,-0.0001005
 9,0.00006339,0.00005676,-0.00002423,0.00000353,-0.00000360,-0.00003575
 ,-0.00000996,-0.00010486,0.00092519,-0.00023976,-0.00045236,0.00000493
 ,-0.00000140,-0.00008115,0.00006408,0.00002932,0.00016184,0.00000639,0
 .00003090,0.00011691,0.00002352,-0.00003741,-0.00003113,0.00007035,0.0
 0001872,0.00000133,-0.00001076,0.00054419,-0.00044264,0.00000650,-0.00
 000452,0.00000594,-0.00000875,-0.00000374,0.00000490,0.00000929,0.0000
 0064,0.00000695,0.00000264,-0.00006520,0.00012206,-0.13239572,-0.15963
 638,0.00790692,0.00205212,0.00100497,-0.00264163,0.00019611,-0.0002099
 0,-0.00010596,0.00004262,0.00009072,0.00017161,0.00000605,-0.00001089,
 0.00000408,0.00000397,0.00000369,0.00000031,0.00003134,-0.00000164,0.0
 0000805,-0.00001768,0.00000377,0.00000605,0.00002681,0.00000302,0.0000
 0104,-0.00000072,-0.00000732,-0.00000804,-0.00002195,-0.00000028,-0.00
 000540,0.00002600,0.00001033,0.00000233,0.00000437,0.00000039,0.000003
 90,0.14799949,0.17125364,-0.00006971,-0.00005679,0.00002201,0.00020726
 ,0.00025201,-0.00012086,-0.00006105,-0.00011848,-0.00002663,0.00008846
 ,0.00001121,0.00003302,-0.00001051,0.00002757,-0.00000558,0.00000691,0
 .00004774,0.00002224,-0.00140085,-0.00222218,0.00228204,-0.02870184,-0
 .02729038,-0.00630954,-0.00239443,0.00093909,0.00096363,0.00009869,0.0
 0022781,0.00018234,0.00029407,0.00015676,0.00000259,-0.00126858,-0.000
 96040,0.00086281,-0.00003722,0.00008339,0.00014914,-0.00000686,0.00002
 447,0.00003143,-0.00003953,0.00001441,-0.00003562,0.00075781,0.0001333
 8,0.00019788,-0.00000641,0.00000591,-0.00002089,-0.00001195,0.00006298
 ,0.00007383,0.00004691,0.00011124,0.00011946,0.00006035,0.00001422,-0.
 00002970,0.00027354,-0.00001401,-0.00005656,0.00057512,0.00064619,-0.0
 0035951,0.00003464,-0.00000811,0.00001345,0.00000948,0.00000481,-0.000
 00203,0.00000298,-0.00000237,0.00000665,-0.00004081,0.00010369,-0.0000
 2903,0.01766661,0.01472972,-0.04968903,0.00252901,-0.00000166,-0.00552
 893,0.00002906,-0.00035412,-0.00030095,0.00006157,0.00004892,0.0000696
 9,0.00000048,-0.00002015,-0.00000119,-0.00000201,-0.00000429,-0.000003
 08,0.00003137,-0.00001386,-0.00000929,-0.00000286,0.00000032,-0.000000
 44,0.00000339,-0.00001548,-0.00004933,-0.00004918,-0.00001307,-0.00002
 080,0.00003455,0.00002839,0.00001402,-0.00004869,-0.00002922,-0.000018
 13,-0.00000618,-0.00000125,-0.00000435,-0.00994621,-0.00372855,0.05665
 378,-0.00017842,-0.00020773,-0.00006487,0.00018157,-0.00006341,-0.0001
 7009,0.00028362,0.00008241,0.00002068,-0.00014162,0.00003108,0.0000492
 3,0.00000384,-0.00004376,-0.00003959,0.00010775,-0.00001556,-0.0000262
 1,-0.00022068,-0.00031317,0.00012070,-0.00207970,0.00202351,-0.0019459
 4,0.00045730,-0.00033022,0.00069659,-0.00015459,-0.00002820,-0.0000021
 9,0.00040959,0.00025694,-0.00008967,-0.00000171,0.00000099,0.00066945,
 0.00018734,0.00000993,0.00018900,0.00004191,-0.00003234,0.00010189,0.0
 0002884,-0.00001616,0.00015735,-0.00006935,-0.00031229,0.00003262,0.00
 000438,-0.00001832,0.00000481,0.00000570,-0.00001455,-0.00004996,-0.00
 002878,0.00007769,0.00007731,0.00001245,-0.00009081,-0.00003881,0.0002
 8111,0.00015948,0.00011179,0.00017741,0.00028754,-0.00028063,-0.000003
 13,0.00001951,-0.00001936,-0.00000093,0.00000261,0.00000382,-0.0000110
 8,0.00000291,0.00000242,-0.00003102,0.00003285,0.00002655,-0.05629232,
 0.03120919,-0.03279917,0.00011443,0.00065174,-0.00078344,-0.00022659,-
 0.00009206,-0.00022336,-0.00000338,-0.00000851,-0.00026429,-0.00001523
 ,0.00008421,-0.00003836,-0.00000618,-0.00000408,-0.00000989,-0.0000065
 2,0.00001273,-0.00003508,0.00002270,-0.00000489,-0.00000735,-0.0000499
 2,0.00000369,-0.00013373,-0.00008657,-0.00002515,-0.00003052,-0.000040
 60,-0.00007867,0.00000981,0.00008356,0.00005918,0.00001320,0.00000236,
 0.00000201,-0.00000024,0.00542720,-0.01637348,0.01806876,0.05409851,-0
 .00007323,-0.00010583,0.00004251,0.00022877,-0.00005910,0.00008419,-0.
 00025275,-0.00001956,0.00001531,0.00014828,-0.00003820,-0.00001239,-0.
 00001359,0.00006841,0.00002236,-0.00010534,0.00011289,0.00006306,0.000
 06798,-0.00266815,-0.00188725,-0.00367749,0.01369802,-0.01877212,-0.00
 039536,0.00138991,-0.00055951,-0.00018367,0.00016844,0.00015343,0.0001
 3013,0.00069047,-0.00113082,0.00009127,-0.00004636,0.00018551,0.000029
 22,-0.00001666,-0.00006315,0.00000461,0.00001414,-0.00001111,0.0000067
 4,0.00001202,0.00004860,0.00002552,-0.00025326,0.00018996,0.00000845,-
 0.00000293,0.00002352,0.00001836,-0.00002542,0.00000279,-0.00002709,0.
 00002220,0.00001147,-0.00004072,-0.00023538,-0.00031140,-0.00008162,-0
 .00006782,0.00008638,0.00023590,0.00018232,-0.00020108,0.00001951,0.00
 000691,-0.00000496,0.00001250,0.00000757,-0.00000134,-0.00000793,0.000
 00301,0.00000479,0.00005818,0.00014109,-0.00008819,0.03325613,-0.19066
 698,0.14335332,0.00006835,0.00084605,0.00035041,-0.00004315,0.00006124
 ,0.00005849,0.00004227,-0.00000342,-0.00008418,-0.00000104,-0.00002100
 ,0.00000655,-0.00000248,-0.00000287,0.00000065,-0.00001185,-0.00000746
 ,-0.00000441,0.00000822,0.00000168,-0.00000442,-0.00000727,-0.00000775
 ,0.00001643,0.00000836,0.00001566,0.00002032,0.00004828,0.00003491,0.0
 0001041,-0.00006974,-0.00004006,-0.00001844,-0.00000667,-0.00000129,-0
 .00000504,0.00550005,-0.01130891,0.01228271,-0.03472229,0.19668811,-0.
 00006686,-0.00010084,0.00011687,0.00052398,-0.00026006,0.00019547,-0.0
 0020655,0.00005870,0.00006709,0.00001652,-0.00007186,0.00000410,0.0000
 1107,0.00010340,-0.00001923,-0.00011409,0.00005918,0.00007770,0.000180
 66,-0.00541960,-0.00168464,-0.00609755,0.02099371,-0.02882105,-0.00075
 434,0.00157237,0.00093085,-0.00028268,0.00002304,-0.00005477,-0.000130
 46,0.00127008,-0.00124008,-0.00007710,-0.00027198,0.00039084,0.0000830
 2,-0.00000688,-0.00000461,0.00001603,-0.00001096,0.00002676,0.00001263
 ,-0.00002161,0.00010924,0.00024810,-0.00003007,-0.00005743,0.00003385,
 -0.00001881,0.00009928,0.00006289,-0.00003599,0.00002777,0.00002620,-0
 .00006145,-0.00005450,0.00004007,-0.00042949,-0.00038163,0.00025365,-0
 .00066531,-0.00018226,0.00006381,-0.00006898,0.00017158,0.00002339,0.0
 0001970,-0.00001678,0.00000585,0.00000546,-0.00000327,-0.00001408,0.00
 000974,-0.00000542,0.00005811,0.00003137,-0.00006438,-0.03120685,0.131
 14937,-0.18177551,0.00043506,0.00121201,-0.00009463,-0.00017740,-0.000
 05069,-0.00001745,-0.00001662,-0.00003715,-0.00016128,-0.00000557,0.00
 002536,-0.00001160,-0.00000354,-0.00000049,-0.00000142,-0.00000818,0.0
 0000038,-0.00001482,0.00000850,0.00000799,-0.00000808,-0.00001473,0.00
 000496,-0.00003432,0.00000011,0.00000281,0.00001746,-0.00000566,-0.000
 01981,0.00000581,0.00001300,0.00001144,-0.00000154,0.00000121,0.000000
 13,-0.00000122,-0.00004961,-0.00042582,0.00108363,0.03624937,-0.143399
 56,0.20496456,-0.00016397,0.00049651,-0.00049295,-0.00016393,-0.000190
 61,-0.00095843,0.00050741,-0.00003551,-0.00002663,-0.00032658,0.000213
 98,0.00010922,-0.00016094,-0.00019315,-0.00003363,0.00028811,-0.000065
 90,-0.00009927,-0.00018381,0.00045141,-0.00002741,0.00628019,-0.004307
 58,-0.00157123,0.00004587,-0.00049567,-0.00102715,0.00046764,0.0000205
 6,-0.00030590,-0.00006094,0.00001111,0.00012062,0.00001657,0.00020470,
 0.00008670,0.00004595,0.00006795,0.00004122,0.00001867,-0.00001117,0.0
 0003991,0.00000701,-0.00000897,0.00003058,0.00046993,0.00004824,-0.000
 10433,-0.00001885,-0.00003889,-0.00011127,0.00002634,-0.00001021,0.000
 07928,0.00000066,0.00000527,-0.00000701,0.00000602,-0.00001297,0.00001
 790,-0.00005841,0.00005302,-0.00002417,-0.00009653,0.00004220,-0.00004
 269,-0.00001301,-0.00000091,-0.00001423,-0.00001225,-0.00000797,0.0000
 0183,0.00001027,-0.00000550,0.00001348,-0.00014507,-0.00016306,0.00018
 855,-0.25850862,0.11759747,0.04760263,0.00046415,-0.00012210,0.0003604
 7,0.00005129,-0.00002854,0.00000427,-0.00001160,0.00003165,-0.00005643
 ,-0.00000804,0.00003182,-0.00001623,-0.00000419,-0.00000208,-0.0000028
 5,0.00000055,0.00000435,-0.00001176,0.00000092,-0.00000131,-0.00000158
 ,-0.00002069,0.00001163,-0.00005668,0.00000574,-0.00000898,0.00001545,
 -0.00001639,-0.00003199,0.00000627,0.00004221,0.00002857,-0.00000530,0
 .00000037,0.00000103,0.00000013,-0.01606314,0.01249151,0.00322385,-0.0
 0228326,-0.00029383,0.00086479,0.26956434,0.00016767,-0.00009408,0.000
 46194,-0.00001929,0.00024742,0.00069750,0.00002613,0.00001649,0.000023
 72,-0.00020830,-0.00005092,0.00000209,0.00007727,0.00003192,-0.0000279
 6,0.00003437,-0.00011649,-0.00007607,0.00007887,0.00007478,0.00071781,
 0.01411190,-0.01111773,-0.00495553,-0.00212484,0.00016671,-0.00257663,
 0.00097834,-0.00013548,-0.00004185,0.00010030,-0.00014811,0.00013986,-
 0.00024905,0.00011046,0.00051595,0.00018900,0.00010615,0.00022344,0.00
 004320,-0.00002745,0.00013234,-0.00000720,-0.00001400,0.00014057,0.000
 24418,0.00004231,0.00001293,-0.00007071,-0.00009879,-0.00030909,0.0000
 2767,-0.00003515,-0.00004583,-0.00000846,0.00003110,-0.00001940,-0.000
 03308,0.00004397,-0.00000872,-0.00007558,0.00025700,0.00016701,-0.0000
 9941,0.00003969,-0.00014985,-0.00002287,-0.00002395,-0.00004505,-0.000
 01053,-0.00000632,0.00000021,0.00000547,-0.00001454,0.00000605,-0.0001
 1578,-0.00008688,0.00007595,0.11198872,-0.11291997,-0.02660176,0.00115
 380,0.00014214,-0.00023319,-0.00013262,-0.00033991,-0.00022951,-0.0000
 5027,0.00001795,-0.00021216,-0.00002161,0.00009338,-0.00004787,-0.0000
 0463,-0.00000484,-0.00000972,0.00001682,0.00000288,-0.00004451,0.00002
 528,0.00000017,-0.00000739,-0.00005906,0.00000722,-0.00018310,-0.00005
 819,-0.00002790,-0.00000990,-0.00005349,-0.00009499,0.00001360,0.00010
 469,0.00007569,0.00001184,0.00000390,0.00000319,0.00000150,-0.01796197
 ,0.01189178,0.00489742,0.01778545,-0.00856663,-0.00515377,-0.12577609,
 0.12052174,-0.00035128,0.00071375,-0.00033263,0.00000317,-0.00007921,-
 0.00074364,-0.00046259,-0.00016099,-0.00005128,0.00023699,0.00001250,0
 .00002486,-0.00004800,-0.00000933,-0.00001594,0.00005014,0.00013406,0.
 00003944,0.00118513,-0.00059459,0.00125887,0.02994559,-0.01926573,-0.0
 1092146,-0.00327479,-0.00043631,-0.00435897,0.00128046,-0.00095945,-0.
 00027973,0.00009381,-0.00030714,0.00019847,-0.00033207,-0.00013048,-0.
 00003573,-0.00006316,0.00001366,-0.00015559,-0.00002586,0.00008125,-0.
 00005822,-0.00007151,0.00007313,-0.00001056,-0.00007912,0.00019461,-0.
 00010598,-0.00009247,-0.00014023,-0.00039029,0.00000585,-0.00001283,-0
 .00023628,-0.00004011,0.00001915,-0.00002746,-0.00001902,0.00006187,0.
 00000902,0.00011165,-0.00036979,-0.00007073,-0.00000411,0.00012361,-0.
 00020225,0.00004756,-0.00001994,0.00000921,0.00001969,-0.00000413,0.00
 000428,0.00000569,-0.00001697,0.00002658,0.00004062,0.00006196,-0.0000
 2989,0.03708962,-0.02174888,-0.05758035,0.00087598,0.00070836,0.000742
 62,0.00001510,-0.00008379,0.00005732,0.00005178,-0.00003391,0.00007149
 ,0.00000568,-0.00011962,0.00003894,-0.00000031,-0.00000907,0.00000637,
 0.00001831,-0.00004056,-0.00000050,0.00002492,0.00000159,-0.00000438,0
 .00002419,-0.00002645,0.00007559,0.00004392,0.00004638,0.00004397,0.00
 015319,0.00014610,0.00002599,-0.00023995,-0.00013714,-0.00005857,-0.00
 001928,-0.00000472,-0.00001407,0.00115723,0.00004595,-0.00016211,-0.01
 955264,0.00952618,0.00642292,-0.04781004,0.03274715,0.06679065\\0.0000
 0170,-0.00000187,-0.00000234,-0.00000037,0.00001009,-0.00000190,0.0000
 0093,0.00000127,0.00000212,0.00000240,-0.00000899,-0.00000062,-0.00000
 303,0.00000110,0.00000009,0.00000082,0.00000055,-0.00000022,-0.0000036
 2,-0.00001397,0.00002587,0.00000475,0.00000023,-0.00002174,-0.00000649
 ,-0.00000145,0.00000924,-0.00000069,-0.00000224,-0.00000589,0.00000010
 ,0.00000387,-0.00001067,0.00000122,0.00000309,-0.00000575,0.00000182,0
 .00000478,0.00000588,0.00000734,-0.00001002,0.00001410,-0.00000143,-0.
 00000202,0.00000558,0.00000122,0.00000007,-0.00000265,-0.00000058,0.00
 000278,0.00000008,-0.00000154,-0.00000090,0.00000163,0.00000113,0.0000
 0028,0.00000059,0.00000299,-0.00000178,-0.00000044,-0.00000174,-0.0000
 0089,-0.00000016,0.00000077,-0.00000077,-0.00000239,0.00000064,-0.0000
 0053,0.00000002,0.00000042,0.00000019,0.00000005,0.00000029,-0.0000000
 7,-0.00000056,0.00000015,-0.00000067,0.00000072,-0.00000362,0.00000337
 ,0.00000947,0.00000136,-0.00000243,0.00000093,-0.00001734,0.00000169,0
 .00000967,0.00000696,-0.00000045,-0.00000486,0.00000411,0.00000385,-0.
 00000256,-0.00000788,0.00000455,-0.00000063,-0.00000170,0.00000395,0.0
 0000106,-0.00000024,0.00000071,0.00000008,0.00000729,-0.00000091,-0.00
 002051,0.00000343,-0.00000286,0.00000142,-0.00001194,0.00000417,-0.000
 00622,0.00000568,-0.00000147,0.00000438,0.00000044,0.00000238,0.000001
 81,-0.00000019,0.00000088,-0.00000080,0.00000478,0.00000030,-0.0000017
 5,-0.00000033,0.00000016,-0.00000214\\\@


 I MET A TRAVELLER FROM AN ANTIQUE LAND
 WHO SAID... TWO VAST AND TRUNKLESS LEGS OF STONE
 STAND IN THE DESERT..... NEAR THEM,  ON THE SAND,
 HALF SUNK,  A SHATTERED VISAGE LIES,  WHOSE FROWN,
 AND WRINKLED LIP,  AND SNEER OF COLD COMMAND
 TELL THAT ITS SCULPTOR WELL THOSE PASSIONS READ
 WHICH YET SURVIVE,  STAMPED ON THESE LIFELESS THINGS
 THE HAND THAT MOCKED THEM,  AND THE HEART THAT FED-
 AND ON THE PEDESTAL THESE WORDS APPEAR 
 MY NAME IS OZYMANDIAS, KING OF KINGS--   
 LOOK ON MY WORKS YE MIGHTY AND DESPAIR. 
 NOTHING BESIDE REMAINS,  ROUND THE DECAY 
 OF THAT COLOSSAL WRECK,  BOUNDLESS AND BARE
 THE LONE AND LEVEL SANDS STRETCH FAR AWAY.
                                    SHELLEY
 Job cpu time:       1 days 19 hours 49 minutes 57.1 seconds.
 Elapsed time:       0 days  1 hours 34 minutes  1.2 seconds.
 File lengths (MBytes):  RWF=   1444 Int=      0 D2E=      0 Chk=     36 Scr=      8
 Normal termination of Gaussian 16 at Fri Sep  4 20:13:42 2020.
