 Entering Gaussian System, Link 0=g16
 Input=NicPyr5h3bMidDonMid.gjf
 Output=NicPyr5h3bMidDonMid.log
 Initial command:
 /sw/contrib/gaussian/g16/A03/g16/l1.exe "/gscratch/scrubbed/gds001/Gau-31055.inp" -scrdir="/gscratch/scrubbed/gds001/"
 Entering Link 1 = /sw/contrib/gaussian/g16/A03/g16/l1.exe PID=     31056.
  
 Copyright (c) 1988,1990,1992,1993,1995,1998,2003,2009,2016,
            Gaussian, Inc.  All Rights Reserved.
  
 This is part of the Gaussian(R) 16 program.  It is based on
 the Gaussian(R) 09 system (copyright 2009, Gaussian, Inc.),
 the Gaussian(R) 03 system (copyright 2003, Gaussian, Inc.),
 the Gaussian(R) 98 system (copyright 1998, Gaussian, Inc.),
 the Gaussian(R) 94 system (copyright 1995, Gaussian, Inc.),
 the Gaussian 92(TM) system (copyright 1992, Gaussian, Inc.),
 the Gaussian 90(TM) system (copyright 1990, Gaussian, Inc.),
 the Gaussian 88(TM) system (copyright 1988, Gaussian, Inc.),
 the Gaussian 86(TM) system (copyright 1986, Carnegie Mellon
 University), and the Gaussian 82(TM) system (copyright 1983,
 Carnegie Mellon University). Gaussian is a federally registered
 trademark of Gaussian, Inc.
  
 This software contains proprietary and confidential information,
 including trade secrets, belonging to Gaussian, Inc.
  
 This software is provided under written license and may be
 used, copied, transmitted, or stored only in accord with that
 written license.
  
 The following legend is applicable only to US Government
 contracts under FAR:
  
                    RESTRICTED RIGHTS LEGEND
  
 Use, reproduction and disclosure by the US Government is
 subject to restrictions as set forth in subparagraphs (a)
 and (c) of the Commercial Computer Software - Restricted
 Rights clause in FAR 52.227-19.
  
 Gaussian, Inc.
 340 Quinnipiac St., Bldg. 40, Wallingford CT 06492
  
  
 ---------------------------------------------------------------
 Warning -- This program may not be used in any manner that
 competes with the business of Gaussian, Inc. or will provide
 assistance to any competitor of Gaussian, Inc.  The licensee
 of this program is prohibited from giving any competitor of
 Gaussian, Inc. access to this program.  By using this program,
 the user acknowledges that Gaussian, Inc. is engaged in the
 business of creating and licensing software in the field of
 computational chemistry and represents and warrants to the
 licensee that it is not a competitor of Gaussian, Inc. and that
 it will not use this program in any manner prohibited above.
 ---------------------------------------------------------------
  

 Cite this work as:
 Gaussian 16, Revision A.03,
 M. J. Frisch, G. W. Trucks, H. B. Schlegel, G. E. Scuseria, 
 M. A. Robb, J. R. Cheeseman, G. Scalmani, V. Barone, 
 G. A. Petersson, H. Nakatsuji, X. Li, M. Caricato, A. V. Marenich, 
 J. Bloino, B. G. Janesko, R. Gomperts, B. Mennucci, H. P. Hratchian, 
 J. V. Ortiz, A. F. Izmaylov, J. L. Sonnenberg, D. Williams-Young, 
 F. Ding, F. Lipparini, F. Egidi, J. Goings, B. Peng, A. Petrone, 
 T. Henderson, D. Ranasinghe, V. G. Zakrzewski, J. Gao, N. Rega, 
 G. Zheng, W. Liang, M. Hada, M. Ehara, K. Toyota, R. Fukuda, 
 J. Hasegawa, M. Ishida, T. Nakajima, Y. Honda, O. Kitao, H. Nakai, 
 T. Vreven, K. Throssell, J. A. Montgomery, Jr., J. E. Peralta, 
 F. Ogliaro, M. J. Bearpark, J. J. Heyd, E. N. Brothers, K. N. Kudin, 
 V. N. Staroverov, T. A. Keith, R. Kobayashi, J. Normand, 
 K. Raghavachari, A. P. Rendell, J. C. Burant, S. S. Iyengar, 
 J. Tomasi, M. Cossi, J. M. Millam, M. Klene, C. Adamo, R. Cammi, 
 J. W. Ochterski, R. L. Martin, K. Morokuma, O. Farkas, 
 J. B. Foresman, and D. J. Fox, Gaussian, Inc., Wallingford CT, 2016.
 
 ******************************************
 Gaussian 16:  ES64L-G16RevA.03 25-Dec-2016
                 6-Dec-2022 
 ******************************************
 %nprocshared=28
 Will use up to   28 processors via shared memory.
 %mem=41GB
 -----------------------------
 # wB97XD/aug-cc-pVDZ opt freq
 -----------------------------
 1/18=20,19=15,26=3,38=1/1,3;
 2/9=110,12=2,17=6,18=5,40=1/2;
 3/5=16,7=10,11=2,25=1,30=1,71=1,74=-58/1,2,3;
 4//1;
 5/5=2,38=5/2;
 6/7=2,8=2,9=2,10=2,28=1/1;
 7//1,2,3,16;
 1/18=20,19=15,26=3/3(2);
 2/9=110/2;
 99//99;
 2/9=110/2;
 3/5=16,7=10,11=2,25=1,30=1,71=1,74=-58/1,2,3;
 4/5=5,16=3,69=1/1;
 5/5=2,38=5/2;
 7//1,2,3,16;
 1/18=20,19=15,26=3/3(-5);
 2/9=110/2;
 6/7=2,8=2,9=2,10=2,19=2,28=1/1;
 99/9=1/99;
 ----
 blah
 ----
 Symbolic Z-matrix:
 Charge =  1 Multiplicity = 1
 N                     1.84874  -0.01889   0.70253 
 C                     1.52626   0.99719  -0.38703 
 C                     1.9375    0.29361  -1.67863 
 C                     3.18383  -0.48535  -1.25788 
 C                     2.80494  -1.03706   0.11505 
 C                     0.10564   1.4866   -0.28014 
 C                    -0.9693    0.62707  -0.5228 
 N                    -2.24453   1.00307  -0.41816 
 C                    -2.50936   2.27118  -0.08384 
 C                    -1.51249   3.21001   0.16119 
 C                    -0.18396   2.80553   0.0677 
 O                    -0.19344  -1.34022   1.944 
 O                    -1.90878  -2.92105   0.54787 
 O                    -3.76456  -1.30504  -0.39243 
 H                     3.64934  -1.16485   0.79781 
 H                     4.05225   0.18278  -1.18532 
 H                     3.43615  -1.2927   -1.95193 
 H                     1.14882  -0.39178  -2.00705 
 H                     2.12531   1.02425  -2.47169 
 H                     2.24824  -1.97395   0.02772 
 H                     2.20905   1.83809  -0.20735 
 H                    -0.79575  -0.41309  -0.80761 
 H                    -3.56276   2.54239  -0.01031 
 H                    -1.77426   4.23326   0.42292 
 H                     0.62104   3.5171    0.25797 
 C                     2.34139   0.6202    1.94417 
 H                     0.97758  -0.51867   0.98654 
 H                    -0.64003  -0.97836   2.71275 
 H                    -0.84149  -1.94048   1.51705 
 H                    -3.36656  -0.40817  -0.48392 
 H                    -4.32482  -1.44639  -1.15864 
 H                    -2.67077  -2.40042   0.18287 
 H                    -2.2716   -3.73028   0.91582 
 H                    -0.51593  -2.85859  -0.62275 
 O                     0.24559  -2.51763  -1.12572 
 H                     0.32084  -3.09033  -1.89248 
 H                     3.30688   1.09691   1.74597 
 H                     2.45094  -0.14717   2.71573 
 H                     1.61094   1.36892   2.2688 
 O                    -3.14506  -5.13858   1.54845 
 H                    -2.9366   -6.08964   1.56849 
 H                    -4.03074  -5.11549   1.95356 
 
 Add virtual bond connecting atoms H32        and O14        Dist= 3.12D+00.
 Add virtual bond connecting atoms H27        and O12        Dist= 3.25D+00.
 Add virtual bond connecting atoms N8         and H30        Dist= 3.41D+00.
 Add virtual bond connecting atoms H29        and O13        Dist= 3.29D+00.
 Add virtual bond connecting atoms O40        and H33        Dist= 3.35D+00.
 Add virtual bond connecting atoms H34        and O13        Dist= 3.44D+00.

 GradGradGradGradGradGradGradGradGradGradGradGradGradGradGradGradGradGrad
 Berny optimization.
 Initialization pass.
                           ----------------------------
                           !    Initial Parameters    !
                           ! (Angstroms and Degrees)  !
 --------------------------                            --------------------------
 ! Name  Definition              Value          Derivative Info.                !
 --------------------------------------------------------------------------------
 ! R1    R(1,2)                  1.5243         estimate D2E/DX2                !
 ! R2    R(1,5)                  1.5153         estimate D2E/DX2                !
 ! R3    R(1,26)                 1.4808         estimate D2E/DX2                !
 ! R4    R(1,27)                 1.0437         estimate D2E/DX2                !
 ! R5    R(2,3)                  1.5272         estimate D2E/DX2                !
 ! R6    R(2,6)                  1.5064         estimate D2E/DX2                !
 ! R7    R(2,21)                 1.098          estimate D2E/DX2                !
 ! R8    R(3,4)                  1.5288         estimate D2E/DX2                !
 ! R9    R(3,18)                 1.0953         estimate D2E/DX2                !
 ! R10   R(3,19)                 1.0946         estimate D2E/DX2                !
 ! R11   R(4,5)                  1.5274         estimate D2E/DX2                !
 ! R12   R(4,16)                 1.0981         estimate D2E/DX2                !
 ! R13   R(4,17)                 1.0942         estimate D2E/DX2                !
 ! R14   R(5,15)                 1.0934         estimate D2E/DX2                !
 ! R15   R(5,20)                 1.0933         estimate D2E/DX2                !
 ! R16   R(6,7)                  1.3976         estimate D2E/DX2                !
 ! R17   R(6,11)                 1.3944         estimate D2E/DX2                !
 ! R18   R(7,8)                  1.3336         estimate D2E/DX2                !
 ! R19   R(7,22)                 1.0923         estimate D2E/DX2                !
 ! R20   R(8,9)                  1.3379         estimate D2E/DX2                !
 ! R21   R(8,30)                 1.8041         estimate D2E/DX2                !
 ! R22   R(9,10)                 1.3911         estimate D2E/DX2                !
 ! R23   R(9,23)                 1.0902         estimate D2E/DX2                !
 ! R24   R(10,11)                1.3919         estimate D2E/DX2                !
 ! R25   R(10,24)                1.0881         estimate D2E/DX2                !
 ! R26   R(11,25)                1.0911         estimate D2E/DX2                !
 ! R27   R(12,27)                1.7213         estimate D2E/DX2                !
 ! R28   R(12,28)                0.9599         estimate D2E/DX2                !
 ! R29   R(12,29)                0.9811         estimate D2E/DX2                !
 ! R30   R(13,29)                1.7435         estimate D2E/DX2                !
 ! R31   R(13,32)                0.9924         estimate D2E/DX2                !
 ! R32   R(13,33)                0.9601         estimate D2E/DX2                !
 ! R33   R(13,34)                1.8205         estimate D2E/DX2                !
 ! R34   R(14,30)                0.9855         estimate D2E/DX2                !
 ! R35   R(14,31)                0.9597         estimate D2E/DX2                !
 ! R36   R(14,32)                1.6514         estimate D2E/DX2                !
 ! R37   R(26,37)                1.0949         estimate D2E/DX2                !
 ! R38   R(26,38)                1.0937         estimate D2E/DX2                !
 ! R39   R(26,39)                1.0952         estimate D2E/DX2                !
 ! R40   R(33,40)                1.7738         estimate D2E/DX2                !
 ! R41   R(34,35)                0.9742         estimate D2E/DX2                !
 ! R42   R(35,36)                0.96           estimate D2E/DX2                !
 ! R43   R(40,41)                0.9738         estimate D2E/DX2                !
 ! R44   R(40,42)                0.9742         estimate D2E/DX2                !
 ! A1    A(2,1,5)              107.7145         estimate D2E/DX2                !
 ! A2    A(2,1,26)             112.4597         estimate D2E/DX2                !
 ! A3    A(2,1,27)             109.7009         estimate D2E/DX2                !
 ! A4    A(5,1,26)             113.8994         estimate D2E/DX2                !
 ! A5    A(5,1,27)             108.0867         estimate D2E/DX2                !
 ! A6    A(26,1,27)            104.8433         estimate D2E/DX2                !
 ! A7    A(1,2,3)              103.9132         estimate D2E/DX2                !
 ! A8    A(1,2,6)              111.4301         estimate D2E/DX2                !
 ! A9    A(1,2,21)             105.187          estimate D2E/DX2                !
 ! A10   A(3,2,6)              117.6222         estimate D2E/DX2                !
 ! A11   A(3,2,21)             108.8912         estimate D2E/DX2                !
 ! A12   A(6,2,21)             109.0276         estimate D2E/DX2                !
 ! A13   A(2,3,4)              102.7972         estimate D2E/DX2                !
 ! A14   A(2,3,18)             110.3638         estimate D2E/DX2                !
 ! A15   A(2,3,19)             110.5761         estimate D2E/DX2                !
 ! A16   A(4,3,18)             110.5311         estimate D2E/DX2                !
 ! A17   A(4,3,19)             113.5563         estimate D2E/DX2                !
 ! A18   A(18,3,19)            108.9059         estimate D2E/DX2                !
 ! A19   A(3,4,5)              103.2507         estimate D2E/DX2                !
 ! A20   A(3,4,16)             110.6648         estimate D2E/DX2                !
 ! A21   A(3,4,17)             112.9162         estimate D2E/DX2                !
 ! A22   A(5,4,16)             110.8896         estimate D2E/DX2                !
 ! A23   A(5,4,17)             111.1526         estimate D2E/DX2                !
 ! A24   A(16,4,17)            107.9685         estimate D2E/DX2                !
 ! A25   A(1,5,4)              105.2076         estimate D2E/DX2                !
 ! A26   A(1,5,15)             108.8905         estimate D2E/DX2                !
 ! A27   A(1,5,20)             106.5857         estimate D2E/DX2                !
 ! A28   A(4,5,15)             114.3268         estimate D2E/DX2                !
 ! A29   A(4,5,20)             111.3498         estimate D2E/DX2                !
 ! A30   A(15,5,20)            110.0577         estimate D2E/DX2                !
 ! A31   A(2,6,7)              120.8799         estimate D2E/DX2                !
 ! A32   A(2,6,11)             121.3902         estimate D2E/DX2                !
 ! A33   A(7,6,11)             117.7295         estimate D2E/DX2                !
 ! A34   A(6,7,8)              123.2611         estimate D2E/DX2                !
 ! A35   A(6,7,22)             120.5786         estimate D2E/DX2                !
 ! A36   A(8,7,22)             116.1589         estimate D2E/DX2                !
 ! A37   A(7,8,9)              118.432          estimate D2E/DX2                !
 ! A38   A(7,8,30)             111.7955         estimate D2E/DX2                !
 ! A39   A(9,8,30)             128.86           estimate D2E/DX2                !
 ! A40   A(8,9,10)             122.8087         estimate D2E/DX2                !
 ! A41   A(8,9,23)             116.3523         estimate D2E/DX2                !
 ! A42   A(10,9,23)            120.839          estimate D2E/DX2                !
 ! A43   A(9,10,11)            118.4264         estimate D2E/DX2                !
 ! A44   A(9,10,24)            120.3049         estimate D2E/DX2                !
 ! A45   A(11,10,24)           121.2683         estimate D2E/DX2                !
 ! A46   A(6,11,10)            119.3307         estimate D2E/DX2                !
 ! A47   A(6,11,25)            120.4719         estimate D2E/DX2                !
 ! A48   A(10,11,25)           120.1958         estimate D2E/DX2                !
 ! A49   A(27,12,28)           125.596          estimate D2E/DX2                !
 ! A50   A(27,12,29)           119.9545         estimate D2E/DX2                !
 ! A51   A(28,12,29)           105.7747         estimate D2E/DX2                !
 ! A52   A(29,13,32)           112.297          estimate D2E/DX2                !
 ! A53   A(29,13,33)           119.4925         estimate D2E/DX2                !
 ! A54   A(29,13,34)            82.5186         estimate D2E/DX2                !
 ! A55   A(32,13,33)           107.0344         estimate D2E/DX2                !
 ! A56   A(32,13,34)           109.4473         estimate D2E/DX2                !
 ! A57   A(33,13,34)           124.3638         estimate D2E/DX2                !
 ! A58   A(30,14,31)           107.2001         estimate D2E/DX2                !
 ! A59   A(30,14,32)           111.6232         estimate D2E/DX2                !
 ! A60   A(31,14,32)           124.5497         estimate D2E/DX2                !
 ! A61   A(1,26,37)            109.239          estimate D2E/DX2                !
 ! A62   A(1,26,38)            108.7858         estimate D2E/DX2                !
 ! A63   A(1,26,39)            108.765          estimate D2E/DX2                !
 ! A64   A(37,26,38)           110.1745         estimate D2E/DX2                !
 ! A65   A(37,26,39)           110.129          estimate D2E/DX2                !
 ! A66   A(38,26,39)           109.7152         estimate D2E/DX2                !
 ! A67   A(1,27,12)            161.3921         estimate D2E/DX2                !
 ! A68   A(8,30,14)            163.6774         estimate D2E/DX2                !
 ! A69   A(13,34,35)           160.3921         estimate D2E/DX2                !
 ! A70   A(34,35,36)           105.3583         estimate D2E/DX2                !
 ! A71   A(33,40,41)           132.6327         estimate D2E/DX2                !
 ! A72   A(33,40,42)           125.2507         estimate D2E/DX2                !
 ! A73   A(41,40,42)           102.0752         estimate D2E/DX2                !
 ! A74   L(12,29,13,3,-1)      172.048          estimate D2E/DX2                !
 ! A75   L(13,32,14,2,-1)      170.3618         estimate D2E/DX2                !
 ! A76   L(13,33,40,31,-1)     172.951          estimate D2E/DX2                !
 ! A77   L(12,29,13,3,-2)      180.6607         estimate D2E/DX2                !
 ! A78   L(13,32,14,2,-2)      182.9095         estimate D2E/DX2                !
 ! A79   L(13,33,40,31,-2)     182.1553         estimate D2E/DX2                !
 ! D1    D(5,1,2,3)             17.7691         estimate D2E/DX2                !
 ! D2    D(5,1,2,6)            145.3846         estimate D2E/DX2                !
 ! D3    D(5,1,2,21)           -96.6163         estimate D2E/DX2                !
 ! D4    D(26,1,2,3)           144.0859         estimate D2E/DX2                !
 ! D5    D(26,1,2,6)           -88.2986         estimate D2E/DX2                !
 ! D6    D(26,1,2,21)           29.7004         estimate D2E/DX2                !
 ! D7    D(27,1,2,3)           -99.6532         estimate D2E/DX2                !
 ! D8    D(27,1,2,6)            27.9623         estimate D2E/DX2                !
 ! D9    D(27,1,2,21)          145.9613         estimate D2E/DX2                !
 ! D10   D(2,1,5,4)              7.846          estimate D2E/DX2                !
 ! D11   D(2,1,5,15)           130.8167         estimate D2E/DX2                !
 ! D12   D(2,1,5,20)          -110.4883         estimate D2E/DX2                !
 ! D13   D(26,1,5,4)          -117.6189         estimate D2E/DX2                !
 ! D14   D(26,1,5,15)            5.3519         estimate D2E/DX2                !
 ! D15   D(26,1,5,20)          124.0468         estimate D2E/DX2                !
 ! D16   D(27,1,5,4)           126.3099         estimate D2E/DX2                !
 ! D17   D(27,1,5,15)         -110.7193         estimate D2E/DX2                !
 ! D18   D(27,1,5,20)            7.9756         estimate D2E/DX2                !
 ! D19   D(2,1,26,37)          -65.7078         estimate D2E/DX2                !
 ! D20   D(2,1,26,38)          173.9909         estimate D2E/DX2                !
 ! D21   D(2,1,26,39)           54.5256         estimate D2E/DX2                !
 ! D22   D(5,1,26,37)           57.2014         estimate D2E/DX2                !
 ! D23   D(5,1,26,38)          -63.0999         estimate D2E/DX2                !
 ! D24   D(5,1,26,39)          177.4348         estimate D2E/DX2                !
 ! D25   D(27,1,26,37)         175.1533         estimate D2E/DX2                !
 ! D26   D(27,1,26,38)          54.852          estimate D2E/DX2                !
 ! D27   D(27,1,26,39)         -64.6133         estimate D2E/DX2                !
 ! D28   D(2,1,27,12)         -147.131          estimate D2E/DX2                !
 ! D29   D(5,1,27,12)           95.6795         estimate D2E/DX2                !
 ! D30   D(26,1,27,12)         -26.1543         estimate D2E/DX2                !
 ! D31   D(1,2,3,4)            -36.3766         estimate D2E/DX2                !
 ! D32   D(1,2,3,18)            81.5238         estimate D2E/DX2                !
 ! D33   D(1,2,3,19)          -157.912          estimate D2E/DX2                !
 ! D34   D(6,2,3,4)           -160.0498         estimate D2E/DX2                !
 ! D35   D(6,2,3,18)           -42.1495         estimate D2E/DX2                !
 ! D36   D(6,2,3,19)            78.4148         estimate D2E/DX2                !
 ! D37   D(21,2,3,4)            75.3406         estimate D2E/DX2                !
 ! D38   D(21,2,3,18)         -166.7591         estimate D2E/DX2                !
 ! D39   D(21,2,3,19)          -46.1948         estimate D2E/DX2                !
 ! D40   D(1,2,6,7)            -67.1172         estimate D2E/DX2                !
 ! D41   D(1,2,6,11)           112.6348         estimate D2E/DX2                !
 ! D42   D(3,2,6,7)             52.6797         estimate D2E/DX2                !
 ! D43   D(3,2,6,11)          -127.5683         estimate D2E/DX2                !
 ! D44   D(21,2,6,7)           177.2213         estimate D2E/DX2                !
 ! D45   D(21,2,6,11)           -3.0267         estimate D2E/DX2                !
 ! D46   D(2,3,4,5)             41.4586         estimate D2E/DX2                !
 ! D47   D(2,3,4,16)           -77.248          estimate D2E/DX2                !
 ! D48   D(2,3,4,17)           161.5936         estimate D2E/DX2                !
 ! D49   D(18,3,4,5)           -76.3236         estimate D2E/DX2                !
 ! D50   D(18,3,4,16)          164.9697         estimate D2E/DX2                !
 ! D51   D(18,3,4,17)           43.8114         estimate D2E/DX2                !
 ! D52   D(19,3,4,5)           160.9437         estimate D2E/DX2                !
 ! D53   D(19,3,4,16)           42.2371         estimate D2E/DX2                !
 ! D54   D(19,3,4,17)          -78.9213         estimate D2E/DX2                !
 ! D55   D(3,4,5,1)            -30.3895         estimate D2E/DX2                !
 ! D56   D(3,4,5,15)          -149.802          estimate D2E/DX2                !
 ! D57   D(3,4,5,20)            84.6891         estimate D2E/DX2                !
 ! D58   D(16,4,5,1)            88.1609         estimate D2E/DX2                !
 ! D59   D(16,4,5,15)          -31.2516         estimate D2E/DX2                !
 ! D60   D(16,4,5,20)         -156.7605         estimate D2E/DX2                !
 ! D61   D(17,4,5,1)          -151.725          estimate D2E/DX2                !
 ! D62   D(17,4,5,15)           88.8625         estimate D2E/DX2                !
 ! D63   D(17,4,5,20)          -36.6464         estimate D2E/DX2                !
 ! D64   D(2,6,7,8)            178.7402         estimate D2E/DX2                !
 ! D65   D(2,6,7,22)            -0.8154         estimate D2E/DX2                !
 ! D66   D(11,6,7,8)            -1.0207         estimate D2E/DX2                !
 ! D67   D(11,6,7,22)          179.4237         estimate D2E/DX2                !
 ! D68   D(2,6,11,10)         -179.6461         estimate D2E/DX2                !
 ! D69   D(2,6,11,25)            0.8022         estimate D2E/DX2                !
 ! D70   D(7,6,11,10)            0.1135         estimate D2E/DX2                !
 ! D71   D(7,6,11,25)         -179.4382         estimate D2E/DX2                !
 ! D72   D(6,7,8,9)              1.0358         estimate D2E/DX2                !
 ! D73   D(6,7,8,30)          -168.9978         estimate D2E/DX2                !
 ! D74   D(22,7,8,9)          -179.3905         estimate D2E/DX2                !
 ! D75   D(22,7,8,30)           10.5759         estimate D2E/DX2                !
 ! D76   D(7,8,9,10)            -0.1432         estimate D2E/DX2                !
 ! D77   D(7,8,9,23)           179.8541         estimate D2E/DX2                !
 ! D78   D(30,8,9,10)          167.947          estimate D2E/DX2                !
 ! D79   D(30,8,9,23)          -12.0558         estimate D2E/DX2                !
 ! D80   D(7,8,30,14)           32.7609         estimate D2E/DX2                !
 ! D81   D(9,8,30,14)         -135.9679         estimate D2E/DX2                !
 ! D82   D(8,9,10,11)           -0.7121         estimate D2E/DX2                !
 ! D83   D(8,9,10,24)          179.5198         estimate D2E/DX2                !
 ! D84   D(23,9,10,11)         179.2908         estimate D2E/DX2                !
 ! D85   D(23,9,10,24)          -0.4773         estimate D2E/DX2                !
 ! D86   D(9,10,11,6)            0.6953         estimate D2E/DX2                !
 ! D87   D(9,10,11,25)        -179.7517         estimate D2E/DX2                !
 ! D88   D(24,10,11,6)        -179.539          estimate D2E/DX2                !
 ! D89   D(24,10,11,25)          0.014          estimate D2E/DX2                !
 ! D90   D(27,12,13,32)        -84.0291         estimate D2E/DX2                !
 ! D91   D(27,12,13,33)        147.5993         estimate D2E/DX2                !
 ! D92   D(27,12,13,34)         23.0803         estimate D2E/DX2                !
 ! D93   D(28,12,13,32)         63.9415         estimate D2E/DX2                !
 ! D94   D(28,12,13,33)        -64.4302         estimate D2E/DX2                !
 ! D95   D(28,12,13,34)        171.0508         estimate D2E/DX2                !
 ! D96   D(28,12,27,1)          60.9766         estimate D2E/DX2                !
 ! D97   D(29,12,27,1)        -156.0461         estimate D2E/DX2                !
 ! D98   D(29,13,14,30)         29.4057         estimate D2E/DX2                !
 ! D99   D(29,13,14,31)        158.913          estimate D2E/DX2                !
 ! D100  D(33,13,14,30)        162.4022         estimate D2E/DX2                !
 ! D101  D(33,13,14,31)        -68.0905         estimate D2E/DX2                !
 ! D102  D(34,13,14,30)        -57.5898         estimate D2E/DX2                !
 ! D103  D(34,13,14,31)         71.9175         estimate D2E/DX2                !
 ! D104  D(29,13,40,41)        -93.1623         estimate D2E/DX2                !
 ! D105  D(29,13,40,42)         91.8439         estimate D2E/DX2                !
 ! D106  D(32,13,40,41)        140.3412         estimate D2E/DX2                !
 ! D107  D(32,13,40,42)        -34.6527         estimate D2E/DX2                !
 ! D108  D(34,13,40,41)         13.5889         estimate D2E/DX2                !
 ! D109  D(34,13,40,42)       -161.405          estimate D2E/DX2                !
 ! D110  D(29,13,34,35)        -37.0149         estimate D2E/DX2                !
 ! D111  D(32,13,34,35)         74.0516         estimate D2E/DX2                !
 ! D112  D(33,13,34,35)       -157.7936         estimate D2E/DX2                !
 ! D113  D(31,14,30,8)        -146.3964         estimate D2E/DX2                !
 ! D114  D(32,14,30,8)          -6.8159         estimate D2E/DX2                !
 ! D115  D(13,34,35,36)       -159.7539         estimate D2E/DX2                !
 --------------------------------------------------------------------------------
 Trust Radius=3.00D-01 FncErr=1.00D-07 GrdErr=1.00D-06 EigMax=2.50D+02 EigMin=1.00D-04
 Number of steps in this run=    248 maximum allowed number of steps=    252.
 GradGradGradGradGradGradGradGradGradGradGradGradGradGradGradGradGradGrad

                          Input orientation:                          
 ---------------------------------------------------------------------
 Center     Atomic      Atomic             Coordinates (Angstroms)
 Number     Number       Type             X           Y           Z
 ---------------------------------------------------------------------
      1          7           0        1.848737   -0.018892    0.702526
      2          6           0        1.526256    0.997189   -0.387031
      3          6           0        1.937500    0.293610   -1.678632
      4          6           0        3.183827   -0.485346   -1.257876
      5          6           0        2.804938   -1.037064    0.115048
      6          6           0        0.105635    1.486596   -0.280143
      7          6           0       -0.969300    0.627069   -0.522801
      8          7           0       -2.244526    1.003068   -0.418155
      9          6           0       -2.509357    2.271179   -0.083836
     10          6           0       -1.512488    3.210010    0.161192
     11          6           0       -0.183960    2.805527    0.067700
     12          8           0       -0.193440   -1.340219    1.943997
     13          8           0       -1.908776   -2.921051    0.547874
     14          8           0       -3.764562   -1.305040   -0.392429
     15          1           0        3.649335   -1.164845    0.797808
     16          1           0        4.052250    0.182782   -1.185318
     17          1           0        3.436146   -1.292700   -1.951934
     18          1           0        1.148824   -0.391778   -2.007050
     19          1           0        2.125313    1.024246   -2.471688
     20          1           0        2.248236   -1.973954    0.027724
     21          1           0        2.209045    1.838090   -0.207347
     22          1           0       -0.795750   -0.413089   -0.807606
     23          1           0       -3.562758    2.542386   -0.010312
     24          1           0       -1.774264    4.233261    0.422916
     25          1           0        0.621035    3.517100    0.257972
     26          6           0        2.341392    0.620202    1.944168
     27          1           0        0.977577   -0.518667    0.986543
     28          1           0       -0.640029   -0.978361    2.712750
     29          1           0       -0.841489   -1.940482    1.517046
     30          1           0       -3.366557   -0.408170   -0.483915
     31          1           0       -4.324816   -1.446386   -1.158635
     32          1           0       -2.670773   -2.400417    0.182867
     33          1           0       -2.271602   -3.730284    0.915815
     34          1           0       -0.515928   -2.858585   -0.622751
     35          8           0        0.245588   -2.517633   -1.125722
     36          1           0        0.320842   -3.090326   -1.892480
     37          1           0        3.306881    1.096913    1.745972
     38          1           0        2.450935   -0.147171    2.715732
     39          1           0        1.610944    1.368924    2.268802
     40          8           0       -3.145055   -5.138581    1.548452
     41          1           0       -2.936600   -6.089644    1.568495
     42          1           0       -4.030738   -5.115488    1.953562
 ---------------------------------------------------------------------
                    Distance matrix (angstroms):
                    1          2          3          4          5
     1  N    0.000000
     2  C    1.524319   0.000000
     3  C    2.403217   1.527213   0.000000
     4  C    2.417275   2.388268   1.528770   0.000000
     5  C    1.515297   2.454648   2.395919   1.527374   0.000000
     6  C    2.504104   1.506356   2.595133   3.784149   3.716352
     7  C    3.140068   2.526504   3.145890   4.361911   4.173855
     8  N    4.365218   3.770915   4.425096   5.691004   5.472068
     9  C    4.985557   4.242776   5.121395   6.433440   6.263047
    10  C    4.692194   3.798827   4.877782   6.142051   6.056396
    11  C    3.537259   2.530159   3.722901   4.891726   4.868394
    12  O    2.730868   3.722166   4.509295   4.731673   3.525227
    13  O    4.750300   5.293968   5.484999   5.926888   5.094688
    14  O    5.861930   5.770012   6.059993   7.049894   6.594519
    15  H    2.136455   3.253567   3.345179   2.214555   1.093387
    16  H    2.908625   2.771492   2.174353   1.098098   2.175951
    17  H    3.344938   3.367520   2.199321   1.094167   2.176278
    18  H    2.823247   2.167059   1.095274   2.170542   2.768105
    19  H    3.352651   2.169193   1.094550   2.207410   3.376698
    20  H    2.106472   3.085607   2.854830   2.178084   1.093300
    21  H    2.099065   1.097999   2.150310   2.729866   2.953902
    22  H    3.070700   2.749087   2.954448   4.005621   3.769030
    23  H    6.029309   5.331755   6.171963   7.499332   7.305870
    24  H    5.593311   4.692719   5.806423   7.047906   6.988576
    25  H    3.769366   2.754161   3.984269   4.988514   5.052749
    26  C    1.480819   2.498210   3.659846   3.490705   2.511391
    27  H    1.043724   2.117917   2.946931   3.147390   2.089853
    28  H    3.339991   4.266642   5.248409   5.534511   4.315009
    29  H    3.404889   4.226303   4.788142   5.101057   4.009762
    30  H    5.362693   5.091566   5.482049   6.596401   6.232304
    31  H    6.604121   6.387603   6.520321   7.570546   7.254185
    32  H    5.134947   5.429877   5.653242   6.326103   5.643292
    33  H    5.549515   6.202430   6.374905   6.709416   5.802234
    34  H    3.925794   4.369562   4.131649   4.441152   3.858813
    35  O    3.486586   3.813102   3.327366   3.575039   3.206535
    36  H    4.301421   4.519644   3.756373   3.922413   3.796944
    37  H    2.111867   2.780337   3.774707   3.397321   2.732347
    38  H    2.105254   3.433909   4.446160   4.054757   2.771423
    39  H    2.106134   2.683059   4.104287   4.283659   3.442827
    40  O    7.201720   7.950781   8.108954   8.341632   7.367463
    41  H    7.778392   8.600254   8.662945   8.766764   7.785007
    42  H    7.880902   8.586232   8.835782   9.154316   8.169465
                    6          7          8          9         10
     6  C    0.000000
     7  C    1.397553   0.000000
     8  N    2.403353   1.333614   0.000000
     9  C    2.737205   2.295117   1.337913   0.000000
    10  C    2.404840   2.726625   2.396271   1.391111   0.000000
    11  C    1.394431   2.389797   2.780440   2.390808   1.391881
    12  O    3.609311   3.249196   3.908671   4.745290   5.061903
    13  O    4.916382   3.823364   4.055200   5.264884   6.156011
    14  O    4.773287   3.400519   2.763790   3.802645   5.075826
    15  H    4.555209   5.127061   6.396562   7.107253   6.796253
    16  H    4.253827   5.084514   6.396155   6.973475   6.476381
    17  H    4.648836   5.013570   6.316096   7.179138   7.016315
    18  H    2.756581   2.779837   3.998125   4.916541   4.975614
    19  H    3.015914   3.678660   4.828347   5.360676   4.994319
    20  H    4.081780   4.173840   5.407992   6.377170   6.405805
    21  H    2.133818   3.415840   4.536077   4.739846   3.983440
    22  H    2.167837   1.092320   2.063038   3.265821   3.818263
    23  H    3.826827   3.264523   2.067262   1.090235   2.163040
    24  H    3.401835   3.814049   3.370859   2.155673   1.088149
    25  H    2.162903   3.389845   3.871556   3.386518   2.157682
    26  C    3.270597   4.128761   5.172794   5.510743   4.973781
    27  H    2.527025   2.716829   3.830248   4.592130   4.559020
    28  H    3.948346   3.626929   4.037702   4.677049   4.981374
    29  H    3.983942   3.281711   3.791834   4.804445   5.368067
    30  H    3.960780   2.611527   1.804126   2.841437   4.116426
    31  H    5.385446   3.995371   3.297839   4.274503   5.597603
    32  H    4.799134   3.543818   3.482330   4.681986   5.728786
    33  H    5.856399   4.769919   4.917807   6.088792   7.022349
    34  H    4.402763   3.516436   4.235832   5.529798   6.199641
    35  O    4.094929   3.424707   4.369972   5.622096   6.128040
    36  H    4.857382   4.166475   5.050804   6.326686   6.875529
    37  H    3.808539   4.863518   5.959058   6.209325   5.495728
    38  H    4.140639   4.773421   5.761220   6.187931   5.788356
    39  H    2.962587   3.873120   4.713623   4.829684   4.193739
    40  O    7.602876   6.501286   6.511402   7.614002   8.619092
    41  H    8.370906   7.304658   7.398129   8.533235   9.512737
    42  H    8.104723   6.962883   6.800906   7.812070   8.880771
                   11         12         13         14         15
    11  C    0.000000
    12  O    4.550581   0.000000
    13  O    5.999938   2.718560   0.000000
    14  O    5.470758   4.267673   2.634313   0.000000
    15  H    5.566962   4.013904   5.834323   7.510139   0.000000
    16  H    5.137540   5.489811   6.940574   7.996552   2.431302
    17  H    5.829198   5.324888   6.121173   7.367659   2.760956
    18  H    4.037779   4.279251   4.719510   5.251896   3.836328
    19  H    3.867065   5.519564   6.399765   6.666297   4.219522
    20  H    5.362892   3.167886   4.295148   6.064463   1.791861
    21  H    2.595777   4.527898   6.338472   6.752592   3.478849
    22  H    3.391156   2.965412   3.060396   3.127586   4.785527
    23  H    3.389927   5.499659   5.735536   3.871618   8.149289
    24  H    2.166488   5.989689   7.156667   5.941284   7.661300
    25  H    1.091126   5.205727   6.923422   6.550536   5.602020
    26  C    3.830689   3.204469   5.705615   6.815344   2.492238
    27  H    3.639190   1.721321   3.780861   5.000783   2.755260
    28  H    4.639191   0.959877   3.173397   4.417189   4.701109
    29  H    5.005752   0.981107   1.743534   3.548836   4.613720
    30  H    4.556430   4.102700   3.082902   0.985471   7.172037
    31  H    6.060474   5.167772   3.305156   0.959654   8.215474
    32  H    5.770559   3.219127   0.992436   1.651421   6.469046
    33  H    6.913347   3.329914   0.960147   3.134045   6.453906
    34  H    5.715688   2.999605   1.820519   3.608348   4.715523
    35  O    5.472184   3.316960   2.757708   4.253164   4.137088
    36  H    6.233636   4.248049   3.309861   4.704033   4.692973
    37  H    4.233430   4.269786   6.691977   7.768362   2.476255
    38  H    4.761635   3.001942   5.603668   7.045121   2.479971
    39  H    3.182822   3.271201   5.809811   6.567214   3.569152
    40  O    8.606368   4.826598   2.728916   4.341296   7.906819
    41  H    9.431515   5.497542   3.483973   5.236715   8.259670
    42  H    9.005369   5.383085   3.360690   4.482638   8.713603
                   16         17         18         19         20
    16  H    0.000000
    17  H    1.773226   0.000000
    18  H    3.071684   2.458971   0.000000
    19  H    2.464933   2.712317   1.781725   0.000000
    20  H    3.062262   2.407132   2.802194   3.905301   0.000000
    21  H    2.663433   3.788299   3.055374   2.407612   3.819486
    22  H    4.899064   4.471258   2.284839   3.656188   3.521353
    23  H    8.058332   8.213552   5.898753   6.381009   7.359784
    24  H    7.276061   7.957671   5.986666   5.820929   7.407172
    25  H    4.997399   5.995224   4.548430   3.991017   5.731708
    26  C    3.593335   4.476303   4.249523   4.439564   3.226621
    27  H    3.829181   3.908751   3.001171   3.956923   2.156796
    28  H    6.209724   6.202684   5.081396   6.207733   4.067265
    29  H    5.979942   5.545413   4.333484   5.788050   3.430102
    30  H    7.475285   7.015286   4.765383   6.013626   5.851440
    31  H    8.534057   7.802914   5.638505   7.030810   6.700059
    32  H    7.331022   6.563450   4.839389   6.463545   4.939898
    33  H    7.727739   6.836972   5.602506   7.308460   4.929740
    34  H    5.516760   4.453943   3.282197   5.046890   2.974272
    35  O    4.667598   3.516070   2.472212   4.229645   2.374157
    36  H    5.013653   3.597237   2.825038   4.530044   2.940802
    37  H    3.159695   4.404710   4.578055   4.380644   3.674688
    38  H    4.229807   4.906117   4.905099   5.327999   3.256318
    39  H    4.392932   5.313212   4.647207   4.780756   4.074728
    40  O    9.359039   8.387831   7.321962   9.050898   6.435454
    41  H    9.786257   8.718714   7.870253   9.620471   6.796720
    42  H   10.161640   9.253160   8.051568   9.755826   7.280358
                   21         22         23         24         25
    21  H    0.000000
    22  H    3.802224   0.000000
    23  H    5.817952   4.126360   0.000000
    24  H    4.690504   4.905124   2.499091   0.000000
    25  H    2.357408   4.311510   4.304203   2.505504   0.000000
    26  C    2.475840   4.299024   6.509514   5.683927   3.767612
    27  H    2.914823   2.524838   5.565825   5.520066   4.116473
    28  H    4.957478   3.568850   5.324760   5.804380   5.274977
    29  H    5.153338   2.781911   5.462072   6.338950   5.788734
    30  H    6.017434   2.591110   2.994758   4.990052   5.644380
    31  H    7.374556   3.693945   4.220152   6.423785   7.148735
    32  H    6.475325   2.906238   5.026356   6.698286   6.771901
    33  H    7.234948   4.018968   6.470795   7.994269   7.831008
    34  H    5.445805   2.468385   6.231271   7.278125   6.535879
    35  O    4.865275   2.369533   6.430508   7.214752   6.202707
    36  H    5.540241   3.096987   7.095939   7.961498   6.955044
    37  H    2.360094   5.062850   7.236426   6.115978   3.909631
    38  H    3.541774   4.798498   7.129484   6.503653   4.776610
    39  H    2.590204   4.293254   5.773956   4.803265   3.104516
    40  O    8.967896   5.779318   7.848661   9.538204   9.527308
    41  H    9.616665   6.515548   8.797537  10.451112  10.327815
    42  H    9.589404   6.340486   7.919523   9.738258   9.951663
                   26         27         28         29         30
    26  C    0.000000
    27  H    2.018430   0.000000
    28  H    3.469149   2.409929   0.000000
    29  H    4.107343   2.368964   1.547892   0.000000
    30  H    6.287592   4.587587   4.240016   3.567603   0.000000
    31  H    7.637834   5.794637   5.365102   4.420064   1.565695
    32  H    6.111311   4.182982   3.542100   2.310380   2.213089
    33  H    6.423702   4.569097   3.669344   2.368564   3.767574
    34  H    5.182211   3.208676   3.830954   2.351092   3.761635
    35  O    4.864425   2.998889   4.229367   2.915315   4.231943
    36  H    5.707058   3.915802   5.156725   3.781273   4.772308
    37  H    1.094853   2.934704   4.562841   5.146567   7.195307
    38  H    1.093696   2.301931   3.200772   3.936098   6.644477
    39  H    1.095229   2.368194   3.282334   4.187091   5.959113
    40  O    7.963748   6.217350   4.993814   3.941477   5.153287
    41  H    8.545195   6.833391   5.719158   4.648406   6.056104
    42  H    8.573347   6.866521   5.402694   4.521341   5.342404
                   31         32         33         34         35
    31  H    0.000000
    32  H    2.333594   0.000000
    33  H    3.706106   1.570063   0.000000
    34  H    4.097451   2.345697   2.491874   0.000000
    35  O    4.694385   3.198641   3.460439   0.974235   0.000000
    36  H    4.982289   3.705779   3.875156   1.538213   0.959978
    37  H    8.552655   7.099786   7.423642   5.989214   5.539231
    38  H    7.912615   6.142020   6.195220   5.224893   5.023884
    39  H    7.409895   6.073891   6.550318   5.545854   5.337819
    40  O    4.727839   3.096338   1.773824   4.101806   5.051439
    41  H    5.560956   3.949813   2.536689   4.593577   5.490390
    42  H    4.820224   3.515178   2.467847   4.907636   5.875186
                   36         37         38         39         40
    36  H    0.000000
    37  H    6.299820   0.000000
    38  H    5.868141   1.794665   0.000000
    39  H    6.234223   1.795423   1.789937   0.000000
    40  O    5.296018   8.974847   7.588928   8.092346   0.000000
    41  H    5.620070   9.521510   8.102757   8.763608   0.973846
    42  H    6.150575   9.616532   8.202266   8.600904   0.974209
                   41         42
    41  H    0.000000
    42  H    1.514726   0.000000
 Stoichiometry    C10H25N2O5(1+)
 Framework group  C1[X(C10H25N2O5)]
 Deg. of freedom   120
 Full point group                 C1      NOp   1
 Largest Abelian subgroup         C1      NOp   1
 Largest concise Abelian subgroup C1      NOp   1
                         Standard orientation:                         
 ---------------------------------------------------------------------
 Center     Atomic      Atomic             Coordinates (Angstroms)
 Number     Number       Type             X           Y           Z
 ---------------------------------------------------------------------
      1          7           0        1.611351   -1.287816    0.737938
      2          6           0        2.256021   -0.295406   -0.222829
      3          6           0        2.208505   -1.007597   -1.572979
      4          6           0        2.457767   -2.467680   -1.194605
      5          6           0        1.622888   -2.648658    0.071528
      6          6           0        1.610918    1.062402   -0.126359
      7          6           0        0.289497    1.259476   -0.536438
      8          7           0       -0.335821    2.434195   -0.449615
      9          6           0        0.340693    3.481630    0.035379
     10          6           0        1.664451    3.395492    0.454229
     11          6           0        2.304770    2.162028    0.377458
     12          8           0       -0.901243   -0.790750    1.685271
     13          8           0       -3.026141   -0.565899    0.004551
     14          8           0       -3.031137    1.939619   -0.809057
     15          1           0        2.024275   -3.383669    0.774481
     16          1           0        3.522865   -2.638318   -0.989012
     17          1           0        2.148115   -3.168959   -1.975326
     18          1           0        1.219779   -0.892613   -2.029951
     19          1           0        2.962733   -0.596638   -2.251427
     20          1           0        0.583272   -2.887678   -0.167999
     21          1           0        3.302062   -0.218640    0.101989
     22          1           0       -0.294132    0.432448   -0.947004
     23          1           0       -0.202202    4.425553    0.089096
     24          1           0        2.178241    4.275844    0.835108
     25          1           0        3.341579    2.060786    0.702009
     26          6           0        2.242796   -1.270317    2.077264
     27          1           0        0.617335   -1.018442    0.907437
     28          1           0       -1.052654   -0.260304    2.470806
     29          1           0       -1.719408   -0.713330    1.149376
     30          1           0       -2.105918    2.275366   -0.760100
     31          1           0       -3.417280    2.288359   -1.615413
     32          1           0       -3.132746    0.363219   -0.327570
     33          1           0       -3.901074   -0.881606    0.242674
     34          1           0       -1.867153   -1.465603   -1.073211
     35          8           0       -1.033036   -1.753414   -1.486185
     36          1           0       -1.288093   -2.161078   -2.317036
     37          1           0        3.274135   -1.628377    1.994580
     38          1           0        1.670273   -1.920237    2.745092
     39          1           0        2.229620   -0.244079    2.459610
     40          8           0       -5.589588   -1.255778    0.636838
     41          1           0       -6.125818   -2.063100    0.541634
     42          1           0       -6.237178   -0.622005    0.994668
 ---------------------------------------------------------------------
 Rotational constants (GHZ):           0.4214903           0.2885819           0.2095771
 Standard basis: Aug-CC-pVDZ (5D, 7F)
 There are   650 symmetry adapted cartesian basis functions of A   symmetry.
 There are   616 symmetry adapted basis functions of A   symmetry.
   616 basis functions,  1006 primitive gaussians,   650 cartesian basis functions
    69 alpha electrons       69 beta electrons
       nuclear repulsion energy      1389.3604953573 Hartrees.
 NAtoms=   42 NActive=   42 NUniq=   42 SFac= 1.00D+00 NAtFMM=   60 NAOKFM=F Big=F
 Integral buffers will be    131072 words long.
 Raffenetti 2 integral format.
 Two-electron integral symmetry is turned on.
 Nuclear repulsion after empirical dispersion term =     1389.3264888354 Hartrees.
 One-electron integrals computed using PRISM.
 NBasis=   616 RedAO= T EigKep=  1.92D-06  NBF=   616
 NBsUse=   616 1.00D-06 EigRej= -1.00D+00 NBFU=   616
 ExpMin= 2.97D-02 ExpMax= 1.17D+04 ExpMxC= 4.01D+02 IAcc=3 IRadAn=         5 AccDes= 0.00D+00
 Harris functional with IExCor= 4639 and IRadAn=       5 diagonalized for initial guess.
 HarFok:  IExCor= 4639 AccDes= 0.00D+00 IRadAn=         5 IDoV= 1 UseB2=F ITyADJ=14
 ICtDFT=  3500011 ScaDFX=  1.000000  1.000000  1.000000  1.000000
 FoFCou: FMM=F IPFlag=           0 FMFlag=      100000 FMFlg1=           0
         NFxFlg=           0 DoJE=T BraDBF=F KetDBF=T FulRan=T
         wScrn=  0.000000 ICntrl=       500 IOpCl=  0 I1Cent=   200000004 NGrid=           0
         NMat0=    1 NMatS0=      1 NMatT0=    0 NMatD0=    1 NMtDS0=    0 NMtDT0=    0
 Petite list used in FoFCou.
 Requested convergence on RMS density matrix=1.00D-08 within 128 cycles.
 Requested convergence on MAX density matrix=1.00D-06.
 Requested convergence on             energy=1.00D-06.
 No special actions if energy rises.
 SCF Done:  E(RwB97XD) =  -881.474615393     A.U. after   15 cycles
            NFock= 15  Conv=0.26D-08     -V/T= 2.0062

 **********************************************************************

            Population analysis using the SCF density.

 **********************************************************************

 Orbital symmetries:
       Occupied  (A) (A) (A) (A) (A) (A) (A) (A) (A) (A) (A) (A)
                 (A) (A) (A) (A) (A) (A) (A) (A) (A) (A) (A) (A)
                 (A) (A) (A) (A) (A) (A) (A) (A) (A) (A) (A) (A)
                 (A) (A) (A) (A) (A) (A) (A) (A) (A) (A) (A) (A)
                 (A) (A) (A) (A) (A) (A) (A) (A) (A) (A) (A) (A)
                 (A) (A) (A) (A) (A) (A) (A) (A) (A)
       Virtual   (A) (A) (A) (A) (A) (A) (A) (A) (A) (A) (A) (A)
                 (A) (A) (A) (A) (A) (A) (A) (A) (A) (A) (A) (A)
                 (A) (A) (A) (A) (A) (A) (A) (A) (A) (A) (A) (A)
                 (A) (A) (A) (A) (A) (A) (A) (A) (A) (A) (A) (A)
                 (A) (A) (A) (A) (A) (A) (A) (A) (A) (A) (A) (A)
                 (A) (A) (A) (A) (A) (A) (A) (A) (A) (A) (A) (A)
                 (A) (A) (A) (A) (A) (A) (A) (A) (A) (A) (A) (A)
                 (A) (A) (A) (A) (A) (A) (A) (A) (A) (A) (A) (A)
                 (A) (A) (A) (A) (A) (A) (A) (A) (A) (A) (A) (A)
                 (A) (A) (A) (A) (A) (A) (A) (A) (A) (A) (A) (A)
                 (A) (A) (A) (A) (A) (A) (A) (A) (A) (A) (A) (A)
                 (A) (A) (A) (A) (A) (A) (A) (A) (A) (A) (A) (A)
                 (A) (A) (A) (A) (A) (A) (A) (A) (A) (A) (A) (A)
                 (A) (A) (A) (A) (A) (A) (A) (A) (A) (A) (A) (A)
                 (A) (A) (A) (A) (A) (A) (A) (A) (A) (A) (A) (A)
                 (A) (A) (A) (A) (A) (A) (A) (A) (A) (A) (A) (A)
                 (A) (A) (A) (A) (A) (A) (A) (A) (A) (A) (A) (A)
                 (A) (A) (A) (A) (A) (A) (A) (A) (A) (A) (A) (A)
                 (A) (A) (A) (A) (A) (A) (A) (A) (A) (A) (A) (A)
                 (A) (A) (A) (A) (A) (A) (A) (A) (A) (A) (A) (A)
                 (A) (A) (A) (A) (A) (A) (A) (A) (A) (A) (A) (A)
                 (A) (A) (A) (A) (A) (A) (A) (A) (A) (A) (A) (A)
                 (A) (A) (A) (A) (A) (A) (A) (A) (A) (A) (A) (A)
                 (A) (A) (A) (A) (A) (A) (A) (A) (A) (A) (A) (A)
                 (A) (A) (A) (A) (A) (A) (A) (A) (A) (A) (A) (A)
                 (A) (A) (A) (A) (A) (A) (A) (A) (A) (A) (A) (A)
                 (A) (A) (A) (A) (A) (A) (A) (A) (A) (A) (A) (A)
                 (A) (A) (A) (A) (A) (A) (A) (A) (A) (A) (A) (A)
                 (A) (A) (A) (A) (A) (A) (A) (A) (A) (A) (A) (A)
                 (A) (A) (A) (A) (A) (A) (A) (A) (A) (A) (A) (A)
                 (A) (A) (A) (A) (A) (A) (A) (A) (A) (A) (A) (A)
                 (A) (A) (A) (A) (A) (A) (A) (A) (A) (A) (A) (A)
                 (A) (A) (A) (A) (A) (A) (A) (A) (A) (A) (A) (A)
                 (A) (A) (A) (A) (A) (A) (A) (A) (A) (A) (A) (A)
                 (A) (A) (A) (A) (A) (A) (A) (A) (A) (A) (A) (A)
                 (A) (A) (A) (A) (A) (A) (A) (A) (A) (A) (A) (A)
                 (A) (A) (A) (A) (A) (A) (A) (A) (A) (A) (A) (A)
                 (A) (A) (A) (A) (A) (A) (A) (A) (A) (A) (A) (A)
                 (A) (A) (A) (A) (A) (A) (A) (A) (A) (A) (A) (A)
                 (A) (A) (A) (A) (A) (A) (A) (A) (A) (A) (A) (A)
                 (A) (A) (A) (A) (A) (A) (A) (A) (A) (A) (A) (A)
                 (A) (A) (A) (A) (A) (A) (A) (A) (A) (A) (A) (A)
                 (A) (A) (A) (A) (A) (A) (A) (A) (A) (A) (A) (A)
                 (A) (A) (A) (A) (A) (A) (A) (A) (A) (A) (A) (A)
                 (A) (A) (A) (A) (A) (A) (A) (A) (A) (A) (A) (A)
                 (A) (A) (A) (A) (A) (A) (A)
 The electronic state is 1-A.
 Alpha  occ. eigenvalues --  -19.39221 -19.38404 -19.36648 -19.36244 -19.35698
 Alpha  occ. eigenvalues --  -14.67434 -14.57775 -10.48554 -10.47285 -10.46254
 Alpha  occ. eigenvalues --  -10.45630 -10.45565 -10.44396 -10.44291 -10.42787
 Alpha  occ. eigenvalues --  -10.42442 -10.42302  -1.23867  -1.23064  -1.22523
 Alpha  occ. eigenvalues --   -1.21315  -1.20767  -1.19233  -1.17426  -1.05587
 Alpha  occ. eigenvalues --   -1.03442  -1.00389  -0.95811  -0.93604  -0.86946
 Alpha  occ. eigenvalues --   -0.85055  -0.83306  -0.82380  -0.77141  -0.74267
 Alpha  occ. eigenvalues --   -0.73996  -0.73116  -0.72529  -0.72444  -0.71679
 Alpha  occ. eigenvalues --   -0.71023  -0.70060  -0.69677  -0.66983  -0.64977
 Alpha  occ. eigenvalues --   -0.64760  -0.64402  -0.63057  -0.62077  -0.61930
 Alpha  occ. eigenvalues --   -0.61228  -0.61124  -0.59212  -0.59028  -0.58249
 Alpha  occ. eigenvalues --   -0.57529  -0.57133  -0.56320  -0.55466  -0.54889
 Alpha  occ. eigenvalues --   -0.53856  -0.51991  -0.51924  -0.50348  -0.49968
 Alpha  occ. eigenvalues --   -0.49393  -0.49151  -0.47078  -0.45854
 Alpha virt. eigenvalues --   -0.08881  -0.07866  -0.06084  -0.05251  -0.04635
 Alpha virt. eigenvalues --   -0.04268  -0.03937  -0.02933  -0.02859  -0.02502
 Alpha virt. eigenvalues --   -0.02120  -0.01696  -0.01129  -0.00607  -0.00524
 Alpha virt. eigenvalues --   -0.00254   0.00381   0.00862   0.01099   0.01319
 Alpha virt. eigenvalues --    0.01665   0.01906   0.02670   0.02887   0.03136
 Alpha virt. eigenvalues --    0.03291   0.04019   0.04201   0.04496   0.04566
 Alpha virt. eigenvalues --    0.04856   0.05279   0.05531   0.05658   0.05776
 Alpha virt. eigenvalues --    0.06080   0.06355   0.06579   0.06723   0.07051
 Alpha virt. eigenvalues --    0.07359   0.07448   0.07643   0.07881   0.08224
 Alpha virt. eigenvalues --    0.08474   0.08756   0.09161   0.09449   0.09732
 Alpha virt. eigenvalues --    0.09829   0.10550   0.10780   0.11255   0.11417
 Alpha virt. eigenvalues --    0.11605   0.12009   0.12278   0.12425   0.12886
 Alpha virt. eigenvalues --    0.13148   0.13481   0.13544   0.13932   0.14110
 Alpha virt. eigenvalues --    0.14386   0.14542   0.15196   0.15255   0.15501
 Alpha virt. eigenvalues --    0.15879   0.16481   0.16665   0.16873   0.17408
 Alpha virt. eigenvalues --    0.17686   0.17802   0.18151   0.18255   0.18507
 Alpha virt. eigenvalues --    0.18655   0.19104   0.19418   0.19491   0.19656
 Alpha virt. eigenvalues --    0.19939   0.20183   0.20350   0.20697   0.21010
 Alpha virt. eigenvalues --    0.21731   0.21889   0.22046   0.22185   0.22402
 Alpha virt. eigenvalues --    0.23125   0.23169   0.23449   0.24023   0.24388
 Alpha virt. eigenvalues --    0.24708   0.25154   0.25446   0.25737   0.25860
 Alpha virt. eigenvalues --    0.26361   0.26420   0.26954   0.27394   0.27948
 Alpha virt. eigenvalues --    0.28110   0.28419   0.28640   0.29080   0.29160
 Alpha virt. eigenvalues --    0.29496   0.29779   0.30300   0.30515   0.30846
 Alpha virt. eigenvalues --    0.31377   0.31843   0.31946   0.32024   0.32435
 Alpha virt. eigenvalues --    0.32749   0.33228   0.33578   0.33757   0.34187
 Alpha virt. eigenvalues --    0.34607   0.35330   0.35565   0.36317   0.36590
 Alpha virt. eigenvalues --    0.36897   0.37177   0.37314   0.37927   0.38143
 Alpha virt. eigenvalues --    0.38389   0.38775   0.39378   0.39982   0.40311
 Alpha virt. eigenvalues --    0.40704   0.41364   0.41497   0.41865   0.42129
 Alpha virt. eigenvalues --    0.42284   0.42742   0.43486   0.43563   0.44008
 Alpha virt. eigenvalues --    0.44317   0.44716   0.45352   0.45518   0.45681
 Alpha virt. eigenvalues --    0.46524   0.47011   0.47299   0.47814   0.48004
 Alpha virt. eigenvalues --    0.48261   0.48899   0.49071   0.49501   0.49742
 Alpha virt. eigenvalues --    0.50004   0.50751   0.51100   0.51560   0.51761
 Alpha virt. eigenvalues --    0.51992   0.52294   0.52698   0.53142   0.53346
 Alpha virt. eigenvalues --    0.53804   0.53852   0.54224   0.54413   0.54736
 Alpha virt. eigenvalues --    0.54970   0.55185   0.55478   0.55891   0.56026
 Alpha virt. eigenvalues --    0.56671   0.56978   0.57480   0.57722   0.58168
 Alpha virt. eigenvalues --    0.58553   0.58939   0.59479   0.59727   0.60148
 Alpha virt. eigenvalues --    0.60548   0.60941   0.61127   0.61614   0.61834
 Alpha virt. eigenvalues --    0.62455   0.62535   0.63278   0.63583   0.64030
 Alpha virt. eigenvalues --    0.64293   0.65026   0.65585   0.66329   0.66580
 Alpha virt. eigenvalues --    0.66771   0.67326   0.67636   0.68354   0.68778
 Alpha virt. eigenvalues --    0.69084   0.69449   0.70272   0.70647   0.71102
 Alpha virt. eigenvalues --    0.71246   0.71676   0.72155   0.72852   0.73241
 Alpha virt. eigenvalues --    0.73632   0.74108   0.74561   0.74858   0.75161
 Alpha virt. eigenvalues --    0.76195   0.76387   0.76981   0.77215   0.77913
 Alpha virt. eigenvalues --    0.78865   0.79140   0.79915   0.80314   0.80532
 Alpha virt. eigenvalues --    0.81286   0.81465   0.81754   0.81894   0.83060
 Alpha virt. eigenvalues --    0.83347   0.83914   0.84637   0.85750   0.86280
 Alpha virt. eigenvalues --    0.86774   0.87486   0.87889   0.88668   0.89001
 Alpha virt. eigenvalues --    0.89377   0.89865   0.90245   0.90693   0.91529
 Alpha virt. eigenvalues --    0.92170   0.92664   0.93622   0.94095   0.94623
 Alpha virt. eigenvalues --    0.95553   0.96091   0.97046   0.97396   0.98503
 Alpha virt. eigenvalues --    0.98738   0.99283   1.00531   1.01122   1.01814
 Alpha virt. eigenvalues --    1.03029   1.03459   1.04025   1.04722   1.05086
 Alpha virt. eigenvalues --    1.05579   1.06215   1.06686   1.07974   1.08244
 Alpha virt. eigenvalues --    1.09442   1.10132   1.10254   1.11171   1.11312
 Alpha virt. eigenvalues --    1.11914   1.13092   1.13382   1.14686   1.14866
 Alpha virt. eigenvalues --    1.15529   1.16167   1.16752   1.17607   1.18404
 Alpha virt. eigenvalues --    1.18777   1.18953   1.20996   1.21066   1.22085
 Alpha virt. eigenvalues --    1.22337   1.22737   1.23804   1.25039   1.26124
 Alpha virt. eigenvalues --    1.26622   1.26976   1.28636   1.30182   1.31184
 Alpha virt. eigenvalues --    1.32281   1.32740   1.33104   1.34521   1.35149
 Alpha virt. eigenvalues --    1.35646   1.36498   1.37333   1.38202   1.38583
 Alpha virt. eigenvalues --    1.39240   1.40149   1.40709   1.41492   1.41947
 Alpha virt. eigenvalues --    1.43440   1.43942   1.45323   1.45925   1.46516
 Alpha virt. eigenvalues --    1.47623   1.48431   1.49215   1.50359   1.50419
 Alpha virt. eigenvalues --    1.51001   1.52561   1.53140   1.54348   1.54521
 Alpha virt. eigenvalues --    1.56210   1.56554   1.57803   1.58387   1.59725
 Alpha virt. eigenvalues --    1.59987   1.60236   1.60688   1.62141   1.62450
 Alpha virt. eigenvalues --    1.63113   1.64371   1.65494   1.66289   1.66974
 Alpha virt. eigenvalues --    1.68410   1.68737   1.69249   1.69456   1.70505
 Alpha virt. eigenvalues --    1.72010   1.72441   1.73313   1.73952   1.74307
 Alpha virt. eigenvalues --    1.75592   1.76069   1.77887   1.78214   1.78710
 Alpha virt. eigenvalues --    1.78867   1.80042   1.80621   1.81152   1.81324
 Alpha virt. eigenvalues --    1.82346   1.82801   1.83273   1.83919   1.84460
 Alpha virt. eigenvalues --    1.85438   1.85783   1.86366   1.86885   1.87171
 Alpha virt. eigenvalues --    1.87778   1.89474   1.90151   1.90800   1.91809
 Alpha virt. eigenvalues --    1.92821   1.93080   1.93806   1.94607   1.94857
 Alpha virt. eigenvalues --    1.95572   1.96323   1.98203   1.98817   1.99031
 Alpha virt. eigenvalues --    1.99582   1.99959   2.01382   2.02151   2.02733
 Alpha virt. eigenvalues --    2.03489   2.04521   2.05027   2.06477   2.07371
 Alpha virt. eigenvalues --    2.08292   2.09313   2.10641   2.10900   2.11328
 Alpha virt. eigenvalues --    2.12219   2.13150   2.13567   2.14169   2.15106
 Alpha virt. eigenvalues --    2.15805   2.16040   2.17395   2.19446   2.19667
 Alpha virt. eigenvalues --    2.21054   2.21760   2.22729   2.23760   2.24926
 Alpha virt. eigenvalues --    2.25529   2.26212   2.26612   2.27656   2.28163
 Alpha virt. eigenvalues --    2.28411   2.29522   2.30504   2.30999   2.32304
 Alpha virt. eigenvalues --    2.33308   2.33526   2.35661   2.36195   2.38630
 Alpha virt. eigenvalues --    2.40793   2.41546   2.43048   2.43951   2.44398
 Alpha virt. eigenvalues --    2.47058   2.47801   2.49948   2.51048   2.52263
 Alpha virt. eigenvalues --    2.52911   2.55120   2.55646   2.56573   2.57249
 Alpha virt. eigenvalues --    2.57695   2.57968   2.58283   2.60300   2.60924
 Alpha virt. eigenvalues --    2.61552   2.62953   2.63816   2.64843   2.65076
 Alpha virt. eigenvalues --    2.66444   2.68190   2.68739   2.70458   2.71242
 Alpha virt. eigenvalues --    2.72328   2.73832   2.75344   2.76190   2.77752
 Alpha virt. eigenvalues --    2.78828   2.79617   2.80901   2.83258   2.84265
 Alpha virt. eigenvalues --    2.84893   2.86319   2.87261   2.87722   2.89518
 Alpha virt. eigenvalues --    2.90882   2.92030   2.92334   2.93831   2.96306
 Alpha virt. eigenvalues --    2.96809   2.98793   3.03145   3.04047   3.07646
 Alpha virt. eigenvalues --    3.10884   3.13273   3.18458   3.25664   3.28747
 Alpha virt. eigenvalues --    3.29500   3.35094   3.36022   3.40949   3.41551
 Alpha virt. eigenvalues --    3.42776   3.44724   3.44859   3.45724   3.46240
 Alpha virt. eigenvalues --    3.49069   3.52724   3.54439   3.56325   3.57825
 Alpha virt. eigenvalues --    3.59676   3.61269   3.65705   3.67306   3.71469
 Alpha virt. eigenvalues --    3.80500   3.84776   3.85017   3.90112   3.91181
 Alpha virt. eigenvalues --    3.99014   4.04563   4.07594   4.09782   4.15064
 Alpha virt. eigenvalues --    4.17427   4.46866
          Condensed to atoms (all electrons):
               1          2          3          4          5          6
     1  N   12.872760  -3.082576  -1.106529   0.356457  -0.081086   0.693520
     2  C   -3.082576  25.021910  -1.259716  -0.785611  -0.241322  -8.167038
     3  C   -1.106529  -1.259716   6.993168  -0.138144   0.418453   1.152762
     4  C    0.356457  -0.785611  -0.138144   6.608901  -0.453301   0.435694
     5  C   -0.081086  -0.241322   0.418453  -0.453301   5.950608  -0.061894
     6  C    0.693520  -8.167038   1.152762   0.435694  -0.061894  26.403330
     7  C   -0.240653  -1.277084  -0.394340  -0.170673  -0.035322  -6.048614
     8  N   -0.074999   0.553345  -0.078363   0.039450  -0.011694   0.176945
     9  C    0.015684  -0.776931  -0.137460  -0.009030  -0.052937  -1.978396
    10  C   -0.039264   0.533431   0.004263  -0.044696   0.069556   1.286499
    11  C   -0.157725  -1.325874  -0.696594  -0.022353  -0.189112 -11.269628
    12  O   -0.267583  -0.106628   0.030963   0.005683  -0.026730   0.173773
    13  O    0.032685  -0.025648  -0.008361   0.007766  -0.002942  -0.022920
    14  O   -0.000550   0.007052  -0.002678  -0.001508   0.001142  -0.071073
    15  H   -0.745281   0.583768   0.062984  -0.165849   0.047717  -0.090540
    16  H   -0.129616  -0.065220   0.014813  -0.080147  -0.086055   0.067685
    17  H    0.034214   0.163665   0.145081  -0.452181   0.303148  -0.067831
    18  H   -0.332419  -0.521874   0.102016   0.113716  -0.055416   0.296836
    19  H    0.584032  -0.235141  -0.609862   0.045680  -0.116185   0.150195
    20  H   -0.437333  -0.006115   0.015056   0.228109  -0.673953  -0.020421
    21  H   -0.446181  -3.404211   0.557255  -0.226156   0.186709   1.315566
    22  H   -0.201660  -0.287938   0.095911   0.023664   0.004146  -0.482768
    23  H    0.004849  -0.010438  -0.000379  -0.000156  -0.000950  -0.147421
    24  H   -0.008388   0.001795   0.007364  -0.001153   0.000527  -0.058295
    25  H    0.029984   0.064060  -0.020578   0.011700  -0.000195   1.358126
    26  C    0.889803  -0.194830  -0.270946   0.018199  -0.217516  -0.264105
    27  H   -0.296765  -0.155043   0.249136  -0.213305   0.171402   0.151587
    28  H   -0.005520   0.025136  -0.002051   0.001119   0.004817  -0.032045
    29  H    0.060039  -0.055856   0.004536   0.009018  -0.017269   0.046423
    30  H   -0.002629   0.004508  -0.009826  -0.003275   0.000561  -0.023946
    31  H    0.000623  -0.001771   0.001632   0.000544  -0.000090   0.014069
    32  H   -0.002946   0.004187   0.005700  -0.002865  -0.000315   0.019240
    33  H   -0.003031   0.009459  -0.002233  -0.001991   0.004295  -0.010652
    34  H   -0.029285  -0.061241   0.024237   0.026667   0.001677   0.054857
    35  O    0.025507  -0.026725  -0.094627   0.054711  -0.145799   0.031874
    36  H    0.011619   0.038425  -0.001095  -0.021198   0.007529  -0.011861
    37  H   -0.257292   0.175368  -0.042647   0.039652  -0.082490  -0.010689
    38  H   -0.347575   0.109468  -0.031057  -0.047651   0.164706  -0.054032
    39  H    0.022300  -0.115205   0.071900   0.023201  -0.110465   0.134058
    40  O    0.000070  -0.000093   0.000153   0.000019  -0.000123   0.000449
    41  H    0.000023  -0.000055   0.000036   0.000016  -0.000039   0.000094
    42  H    0.000005  -0.000025   0.000013  -0.000002  -0.000004  -0.000001
               7          8          9         10         11         12
     1  N   -0.240653  -0.074999   0.015684  -0.039264  -0.157725  -0.267583
     2  C   -1.277084   0.553345  -0.776931   0.533431  -1.325874  -0.106628
     3  C   -0.394340  -0.078363  -0.137460   0.004263  -0.696594   0.030963
     4  C   -0.170673   0.039450  -0.009030  -0.044696  -0.022353   0.005683
     5  C   -0.035322  -0.011694  -0.052937   0.069556  -0.189112  -0.026730
     6  C   -6.048614   0.176945  -1.978396   1.286499 -11.269628   0.173773
     7  C   17.850139  -0.777576  -1.022472  -0.390536  -1.229451  -0.253847
     8  N   -0.777576   7.932042   0.264457   0.184688  -0.479217   0.035238
     9  C   -1.022472   0.264457  10.280195  -2.671224   2.082582   0.034330
    10  C   -0.390536   0.184688  -2.671224  11.618590  -4.636163  -0.015696
    11  C   -1.229451  -0.479217   2.082582  -4.636163  24.727481  -0.027827
    12  O   -0.253847   0.035238   0.034330  -0.015696  -0.027827   8.325116
    13  O    0.002577  -0.000941   0.011956  -0.009594   0.003706  -0.146120
    14  O   -0.008921  -0.043455   0.033443  -0.016330   0.023684   0.008509
    15  H    0.002953  -0.000293  -0.003449   0.007694   0.015131  -0.003516
    16  H    0.015483   0.001055   0.003758  -0.011314   0.004456   0.001007
    17  H   -0.023444   0.001847  -0.001740   0.001001   0.012292  -0.000421
    18  H   -0.176569   0.005760  -0.005744  -0.021996  -0.105895   0.007411
    19  H    0.158090  -0.016198   0.011347  -0.010287   0.020216  -0.000657
    20  H    0.001794   0.001094  -0.002426   0.003009  -0.011637   0.050983
    21  H    0.124097  -0.022530   0.030524   0.010118  -0.178621   0.000898
    22  H   -0.995642  -0.050805  -0.039322   0.071051  -0.116299   0.044411
    23  H    0.247196  -0.222809  -0.530933   0.115371   0.214461  -0.001846
    24  H   -0.001494  -0.037634   0.367757  -1.197987   0.645552   0.000668
    25  H   -0.004040  -0.030889  -0.247664   0.725012  -2.760930  -0.003075
    26  C    0.172441  -0.012212  -0.016262   0.046492   0.098913  -0.062202
    27  H   -0.306341   0.024225   0.028206  -0.027579  -0.038239   0.132513
    28  H    0.019751   0.002045  -0.000765   0.000182   0.001109   0.346999
    29  H    0.025256   0.001187  -0.000772   0.006940  -0.026382   0.210460
    30  H   -0.169585   0.157042   0.117713  -0.081227   0.041781   0.006046
    31  H    0.004932  -0.005972  -0.013831   0.008577  -0.006849  -0.001099
    32  H    0.001853  -0.002102  -0.008665   0.008096  -0.013853  -0.002035
    33  H    0.007110  -0.002437  -0.000657  -0.001040   0.005617   0.017237
    34  H   -0.016187  -0.004384  -0.001266  -0.000543  -0.016979   0.004510
    35  O    0.015268   0.001409   0.001270   0.001444   0.014392   0.000073
    36  H   -0.017269   0.000404  -0.000844   0.000030   0.001520   0.003739
    37  H    0.042520  -0.002855   0.001589   0.005483   0.032268  -0.018352
    38  H    0.043420  -0.001818  -0.000723   0.009147   0.024208  -0.007664
    39  H   -0.072361   0.008790   0.001906  -0.041008   0.027093   0.048660
    40  O   -0.001017  -0.000174  -0.000169   0.000000  -0.000045   0.000947
    41  H    0.000018  -0.000023  -0.000006   0.000008  -0.000031   0.000108
    42  H    0.000048   0.000010  -0.000007   0.000019  -0.000021  -0.000101
              13         14         15         16         17         18
     1  N    0.032685  -0.000550  -0.745281  -0.129616   0.034214  -0.332419
     2  C   -0.025648   0.007052   0.583768  -0.065220   0.163665  -0.521874
     3  C   -0.008361  -0.002678   0.062984   0.014813   0.145081   0.102016
     4  C    0.007766  -0.001508  -0.165849  -0.080147  -0.452181   0.113716
     5  C   -0.002942   0.001142   0.047717  -0.086055   0.303148  -0.055416
     6  C   -0.022920  -0.071073  -0.090540   0.067685  -0.067831   0.296836
     7  C    0.002577  -0.008921   0.002953   0.015483  -0.023444  -0.176569
     8  N   -0.000941  -0.043455  -0.000293   0.001055   0.001847   0.005760
     9  C    0.011956   0.033443  -0.003449   0.003758  -0.001740  -0.005744
    10  C   -0.009594  -0.016330   0.007694  -0.011314   0.001001  -0.021996
    11  C    0.003706   0.023684   0.015131   0.004456   0.012292  -0.105895
    12  O   -0.146120   0.008509  -0.003516   0.001007  -0.000421   0.007411
    13  O    8.581498  -0.086998  -0.001885   0.000007   0.001069  -0.012312
    14  O   -0.086998   7.900330   0.000167  -0.000078  -0.000125   0.003123
    15  H   -0.001885   0.000167   2.365301  -0.239421   0.059182  -0.034658
    16  H    0.000007  -0.000078  -0.239421   2.096233  -0.514232   0.167299
    17  H    0.001069  -0.000125   0.059182  -0.514232   1.992558  -0.159553
    18  H   -0.012312   0.003123  -0.034658   0.167299  -0.159553   2.387978
    19  H    0.000170  -0.000039  -0.002208  -0.172503   0.021430  -0.592802
    20  H    0.002510  -0.000656  -0.656110   0.243047  -0.250451   0.138008
    21  H   -0.001567   0.000360   0.037051   0.046226   0.006626   0.213099
    22  H    0.127549  -0.011841   0.013161   0.001107  -0.002346  -0.047566
    23  H    0.000757   0.002289  -0.000128   0.000088  -0.000038  -0.001640
    24  H   -0.000256   0.000071   0.000171  -0.000149   0.000006   0.002198
    25  H    0.000249   0.000279  -0.003274   0.002038  -0.000763  -0.003108
    26  C   -0.000811  -0.000301   0.116367  -0.044713   0.005696  -0.102839
    27  H   -0.070421   0.007138  -0.011328   0.008596   0.004817   0.048201
    28  H    0.002451   0.000611   0.001708   0.000158   0.000029   0.000039
    29  H   -0.028615  -0.005609  -0.005754  -0.000630  -0.000311  -0.005020
    30  H    0.012038   0.275240   0.000228  -0.000109  -0.000043  -0.000393
    31  H    0.007330   0.376490  -0.000023   0.000020   0.000021   0.000567
    32  H    0.257113  -0.021954  -0.000070  -0.000037  -0.000196   0.002811
    33  H    0.275425   0.000260   0.000856  -0.000096   0.000143  -0.000176
    34  H   -0.023922  -0.005137  -0.001333  -0.000383  -0.002280   0.019733
    35  O   -0.100106  -0.000716  -0.001756   0.000140   0.010124   0.014643
    36  H   -0.001136   0.001921   0.000905  -0.000084   0.002068  -0.014793
    37  H   -0.000066  -0.000037   0.024943   0.001808   0.003411  -0.003139
    38  H    0.000897  -0.000088   0.035068   0.004780  -0.004338  -0.003435
    39  H    0.000154  -0.000088   0.023073  -0.007064   0.001228  -0.005819
    40  O   -0.043517   0.001112  -0.000008  -0.000002   0.000018  -0.000001
    41  H    0.006123   0.000019  -0.000010  -0.000001   0.000005  -0.000034
    42  H    0.006317  -0.000404   0.000002   0.000000  -0.000003   0.000020
              19         20         21         22         23         24
     1  N    0.584032  -0.437333  -0.446181  -0.201660   0.004849  -0.008388
     2  C   -0.235141  -0.006115  -3.404211  -0.287938  -0.010438   0.001795
     3  C   -0.609862   0.015056   0.557255   0.095911  -0.000379   0.007364
     4  C    0.045680   0.228109  -0.226156   0.023664  -0.000156  -0.001153
     5  C   -0.116185  -0.673953   0.186709   0.004146  -0.000950   0.000527
     6  C    0.150195  -0.020421   1.315566  -0.482768  -0.147421  -0.058295
     7  C    0.158090   0.001794   0.124097  -0.995642   0.247196  -0.001494
     8  N   -0.016198   0.001094  -0.022530  -0.050805  -0.222809  -0.037634
     9  C    0.011347  -0.002426   0.030524  -0.039322  -0.530933   0.367757
    10  C   -0.010287   0.003009   0.010118   0.071051   0.115371  -1.197987
    11  C    0.020216  -0.011637  -0.178621  -0.116299   0.214461   0.645552
    12  O   -0.000657   0.050983   0.000898   0.044411  -0.001846   0.000668
    13  O    0.000170   0.002510  -0.001567   0.127549   0.000757  -0.000256
    14  O   -0.000039  -0.000656   0.000360  -0.011841   0.002289   0.000071
    15  H   -0.002208  -0.656110   0.037051   0.013161  -0.000128   0.000171
    16  H   -0.172503   0.243047   0.046226   0.001107   0.000088  -0.000149
    17  H    0.021430  -0.250451   0.006626  -0.002346  -0.000038   0.000006
    18  H   -0.592802   0.138008   0.213099  -0.047566  -0.001640   0.002198
    19  H    2.392284  -0.038413  -0.250477   0.017526   0.001087  -0.002424
    20  H   -0.038413   2.968492   0.004787  -0.008828   0.000454  -0.000249
    21  H   -0.250477   0.004787   3.946279   0.001051   0.000704   0.000584
    22  H    0.017526  -0.008828   0.001051   4.116325   0.037017  -0.017039
    23  H    0.001087   0.000454   0.000704   0.037017   2.113640  -0.133731
    24  H   -0.002424  -0.000249   0.000584  -0.017039  -0.133731   2.159758
    25  H    0.013733   0.001184  -0.154302  -0.026600  -0.005710  -0.130581
    26  C    0.086606  -0.079455  -0.045188  -0.019199   0.004061  -0.009575
    27  H   -0.032613  -0.041989   0.116382   0.100399  -0.011549   0.010450
    28  H   -0.001318  -0.000100   0.000809  -0.001204  -0.000503  -0.000093
    29  H    0.005065   0.005604  -0.005169  -0.029830   0.001046  -0.000227
    30  H   -0.000164  -0.001403  -0.000651  -0.015634  -0.063582   0.008074
    31  H    0.000041   0.000123  -0.000124   0.001567   0.004138  -0.000407
    32  H    0.000025   0.000174   0.000336  -0.031029   0.000949   0.000046
    33  H   -0.000403  -0.001044   0.000526  -0.000685  -0.000171   0.000033
    34  H    0.003881   0.020282   0.000870   0.000410  -0.000241   0.000077
    35  O    0.015732   0.027676  -0.002094  -0.053062   0.000395   0.000001
    36  H   -0.000700  -0.012089  -0.000423  -0.000547  -0.000194   0.000019
    37  H    0.009551   0.015990  -0.025085   0.002862   0.000273  -0.000096
    38  H    0.001154   0.012411   0.038324   0.009270   0.000598  -0.001057
    39  H    0.005094  -0.020388  -0.009003  -0.004611   0.000170  -0.003149
    40  O    0.000010  -0.000396  -0.000004  -0.002468   0.000005  -0.000000
    41  H    0.000004   0.000102  -0.000004   0.000185  -0.000001  -0.000000
    42  H    0.000002  -0.000013  -0.000001  -0.000131   0.000012  -0.000000
              25         26         27         28         29         30
     1  N    0.029984   0.889803  -0.296765  -0.005520   0.060039  -0.002629
     2  C    0.064060  -0.194830  -0.155043   0.025136  -0.055856   0.004508
     3  C   -0.020578  -0.270946   0.249136  -0.002051   0.004536  -0.009826
     4  C    0.011700   0.018199  -0.213305   0.001119   0.009018  -0.003275
     5  C   -0.000195  -0.217516   0.171402   0.004817  -0.017269   0.000561
     6  C    1.358126  -0.264105   0.151587  -0.032045   0.046423  -0.023946
     7  C   -0.004040   0.172441  -0.306341   0.019751   0.025256  -0.169585
     8  N   -0.030889  -0.012212   0.024225   0.002045   0.001187   0.157042
     9  C   -0.247664  -0.016262   0.028206  -0.000765  -0.000772   0.117713
    10  C    0.725012   0.046492  -0.027579   0.000182   0.006940  -0.081227
    11  C   -2.760930   0.098913  -0.038239   0.001109  -0.026382   0.041781
    12  O   -0.003075  -0.062202   0.132513   0.346999   0.210460   0.006046
    13  O    0.000249  -0.000811  -0.070421   0.002451  -0.028615   0.012038
    14  O    0.000279  -0.000301   0.007138   0.000611  -0.005609   0.275240
    15  H   -0.003274   0.116367  -0.011328   0.001708  -0.005754   0.000228
    16  H    0.002038  -0.044713   0.008596   0.000158  -0.000630  -0.000109
    17  H   -0.000763   0.005696   0.004817   0.000029  -0.000311  -0.000043
    18  H   -0.003108  -0.102839   0.048201   0.000039  -0.005020  -0.000393
    19  H    0.013733   0.086606  -0.032613  -0.001318   0.005065  -0.000164
    20  H    0.001184  -0.079455  -0.041989  -0.000100   0.005604  -0.001403
    21  H   -0.154302  -0.045188   0.116382   0.000809  -0.005169  -0.000651
    22  H   -0.026600  -0.019199   0.100399  -0.001204  -0.029830  -0.015634
    23  H   -0.005710   0.004061  -0.011549  -0.000503   0.001046  -0.063582
    24  H   -0.130581  -0.009575   0.010450  -0.000093  -0.000227   0.008074
    25  H    3.132756   0.032316  -0.032434   0.000112   0.002239  -0.002250
    26  C    0.032316   4.703447  -0.487907  -0.007326   0.035696  -0.002789
    27  H   -0.032434  -0.487907   1.730105   0.002297  -0.060808   0.006386
    28  H    0.000112  -0.007326   0.002297   0.536387  -0.136947   0.000765
    29  H    0.002239   0.035696  -0.060808  -0.136947   0.641765  -0.008908
    30  H   -0.002250  -0.002789   0.006386   0.000765  -0.008908   0.631349
    31  H    0.000113   0.000136  -0.001193  -0.000221   0.001795  -0.116622
    32  H   -0.000109   0.000062   0.007662   0.002029   0.001304  -0.008784
    33  H   -0.000056  -0.001657   0.012960  -0.000689  -0.009576  -0.000168
    34  H    0.000097  -0.005985  -0.009293  -0.004957   0.033005  -0.003468
    35  O    0.001333   0.005611   0.014268   0.000520   0.006024   0.000130
    36  H   -0.000141   0.000448   0.015664   0.000120  -0.005048   0.001839
    37  H    0.012327   0.219652  -0.159112  -0.001086   0.008181  -0.000158
    38  H    0.003543   0.158917   0.084875   0.001284  -0.012531   0.000172
    39  H   -0.031248   0.188327   0.027299  -0.003322   0.004221  -0.000396
    40  O   -0.000003  -0.000098  -0.000699  -0.000282   0.007425   0.000195
    41  H   -0.000000  -0.000004  -0.000118  -0.000010  -0.000070  -0.000177
    42  H   -0.000001   0.000018   0.000034   0.000060  -0.001531   0.000402
              31         32         33         34         35         36
     1  N    0.000623  -0.002946  -0.003031  -0.029285   0.025507   0.011619
     2  C   -0.001771   0.004187   0.009459  -0.061241  -0.026725   0.038425
     3  C    0.001632   0.005700  -0.002233   0.024237  -0.094627  -0.001095
     4  C    0.000544  -0.002865  -0.001991   0.026667   0.054711  -0.021198
     5  C   -0.000090  -0.000315   0.004295   0.001677  -0.145799   0.007529
     6  C    0.014069   0.019240  -0.010652   0.054857   0.031874  -0.011861
     7  C    0.004932   0.001853   0.007110  -0.016187   0.015268  -0.017269
     8  N   -0.005972  -0.002102  -0.002437  -0.004384   0.001409   0.000404
     9  C   -0.013831  -0.008665  -0.000657  -0.001266   0.001270  -0.000844
    10  C    0.008577   0.008096  -0.001040  -0.000543   0.001444   0.000030
[...]
 0014142,0.00002968,-0.00006138,-0.00000086,0.00002331,-0.00002957,0.00
 002906,0.00000946,-0.00002908,-0.00007083,0.00013461,-0.00026977,-0.00
 033673,0.00004960,-0.00012177,-0.00000353,-0.00010137,-0.00023335,0.00
 000899,0.00001878,0.00003159,-0.00000846,0.00000455,0.00000742,-0.0000
 0435,-0.00001895,0.00000612,-0.00000027,0.00003175,0.00004269,-0.00004
 685,-0.01405872,0.13448742,-0.18368772,0.00066787,0.00101192,-0.000337
 62,-0.00008319,-0.00002030,0.00010039,-0.00006285,-0.00016131,-0.00012
 220,0.00002636,0.00004616,-0.00000018,0.00000106,0.00000091,0.00000024
 ,-0.00003976,0.00004850,-0.00003110,-0.00001347,-0.00002031,0.00001315
 ,-0.00000326,0.00000520,-0.00003771,0.00004055,-0.00006256,0.00010002,
 0.00000023,0.00001263,-0.00001357,-0.00077931,0.00261322,-0.00201614,0
 .01941516,-0.14750770,0.20531649,0.00987558,-0.01260525,-0.00654518,0.
 00070600,0.00008146,-0.00020442,-0.00024089,-0.00015822,0.00019097,0.0
 0030805,-0.00055965,-0.00035440,-0.00127309,0.00024355,-0.00217211,0.0
 0026588,-0.00033592,-0.00006031,-0.00004397,-0.00008902,0.00003751,-0.
 00003634,-0.00004525,-0.00002747,-0.00000568,0.00002959,0.00002137,-0.
 00009635,-0.00000125,-0.00001152,-0.00000479,0.00037258,0.00001556,-0.
 00000602,0.00021644,0.00015056,0.00003153,0.00004881,0.00005254,0.0000
 1906,0.00001197,0.00001155,0.00032326,-0.00023902,0.00018952,0.0000514
 3,0.00003688,-0.00009117,0.00008740,0.00013152,-0.00014968,0.00007601,
 -0.00004957,-0.00008605,0.00000292,0.00000602,0.00002396,0.00034495,-0
 .00034488,0.00003598,-0.00030657,-0.00006881,0.00031481,0.00000415,0.0
 0000011,-0.00001139,-0.00000576,-0.00000404,-0.00000082,0.00000941,0.0
 0000646,-0.00000474,-0.00001557,-0.00010289,0.00003248,-0.17318762,0.1
 3159909,0.05364092,0.00077609,-0.00007437,0.00030816,-0.00004870,-0.00
 015718,0.00001869,-0.00006551,-0.00005198,-0.00010275,-0.00001628,-0.0
 0001712,-0.00001135,-0.00000368,-0.00000391,-0.00000269,-0.00001019,0.
 00000424,-0.00001255,-0.00000773,-0.00002117,0.00000755,0.00002108,-0.
 00000682,-0.00002667,-0.00002615,0.00000404,0.00004374,0.00001094,0.00
 000314,-0.00000421,-0.01425324,0.02019517,0.00636470,-0.00078105,-0.00
 094819,0.00071868,0.17751793,0.00872457,-0.01158428,-0.00581422,0.0001
 6897,-0.00003441,0.00127075,0.00023590,-0.00002964,-0.00011531,-0.0000
 7873,-0.00067670,-0.00018100,-0.00146676,0.00063141,-0.00125493,-0.000
 14081,0.00020283,0.00012450,-0.00005296,-0.00002051,0.00000167,-0.0000
 7300,-0.00003157,0.00002136,-0.00001920,0.00002296,-0.00000759,-0.0000
 0861,-0.00005397,-0.00001906,0.00013233,0.00016204,0.00003618,0.000154
 18,0.00061895,0.00066586,0.00008797,0.00012614,0.00018744,0.00001173,-
 0.00002426,0.00003032,-0.00032488,0.00015359,-0.00004999,0.00004276,0.
 00004760,-0.00006162,0.00003434,0.00013909,-0.00018588,-0.00000653,0.0
 0002204,0.00002014,-0.00005210,0.00002816,-0.00001864,0.00034737,-0.00
 021149,-0.00021755,-0.00015902,0.00023695,0.00003255,0.00001735,-0.000
 02081,-0.00001581,-0.00000954,-0.00000256,-0.00000434,0.00000909,0.000
 00107,-0.00000319,-0.00002244,-0.00010597,0.00012637,0.12488819,-0.183
 85705,-0.05498426,0.00098432,-0.00026951,-0.00061752,-0.00045148,-0.00
 044288,0.00002038,-0.00025265,-0.00019207,-0.00026861,0.00001402,0.000
 02677,-0.00001697,0.00000122,-0.00000457,-0.00000324,-0.00003569,0.000
 03042,-0.00003739,-0.00000277,-0.00003997,0.00000944,0.00009179,-0.000
 00904,-0.00010762,-0.00016589,-0.00002187,0.00004190,0.00002827,0.0000
 0746,0.00000495,-0.00934106,0.01108977,0.00517699,0.01380000,-0.012515
 25,-0.00742010,-0.13711533,0.19658495,0.01980684,-0.02462324,-0.014743
 78,0.00089055,-0.00141587,0.00091871,0.00025990,0.00001631,0.00017443,
 0.00042131,-0.00067115,-0.00013902,-0.00443792,-0.00091745,-0.00230794
 ,-0.00003849,0.00007223,-0.00018997,-0.00038138,-0.00025445,-0.0000324
 0,0.00030665,-0.00000664,-0.00002934,0.00003176,0.00009786,0.00000786,
 -0.00008730,0.00013544,0.00006142,-0.00020141,0.00000256,-0.00002456,-
 0.00021699,-0.00004868,-0.00002601,-0.00008215,0.00003203,-0.00003591,
 0.00004504,0.00014636,-0.00001193,0.00005848,0.00012337,-0.00002502,0.
 00001676,0.00006342,-0.00007324,0.00012541,0.00021660,-0.00023174,-0.0
 0001408,0.00002107,0.00010071,-0.00004119,0.00003975,-0.00001929,0.000
 87438,-0.00064476,-0.00073773,0.00030185,0.00031619,-0.00025753,0.0000
 4779,-0.00000855,0.00001229,0.00002078,0.00000881,0.00000865,0.0000116
 0,-0.00001205,0.00001224,0.00001902,0.00020527,-0.00007967,0.04539750,
 -0.04812849,-0.06947673,0.00089791,0.00051324,0.00029081,0.00007586,0.
 00005282,0.00016120,0.00005689,0.00000340,0.00006079,-0.00011401,-0.00
 016737,-0.00000309,-0.00000844,-0.00000823,-0.00000764,0.00005228,-0.0
 0007649,0.00004327,-0.00000093,-0.00000721,0.00000350,0.00005430,-0.00
 001591,-0.00002794,-0.00017451,0.00005539,-0.00004202,0.00001098,-0.00
 000446,0.00000607,0.00343244,-0.00359712,-0.00146650,-0.01512153,0.014
 84305,0.00877756,-0.05229629,0.06363848,0.07935020,-0.00006169,-0.0000
 9738,0.00005147,-0.00004763,0.00008667,-0.00007266,0.00001389,-0.00000
 929,0.00003085,0.00000771,-0.00000360,-0.00002826,0.00001630,0.0000627
 3,0.00002449,0.00000587,-0.00007272,-0.00000564,-0.00005167,0.00012856
 ,0.00003515,0.00012602,0.00003509,0.00000676,-0.00004847,-0.00004033,-
 0.00001691,0.00006963,0.00000695,0.00000065,-0.00002340,0.00004716,0.0
 0001851,-0.00021308,-0.00056860,-0.00013451,0.00203544,-0.00718459,0.0
 0229526,0.00100289,0.00005454,0.00020669,0.00001103,-0.00000049,-0.000
 00042,-0.00000875,-0.00001876,0.00000818,0.00001682,0.00000525,-0.0000
 0760,0.00000052,0.00003987,-0.00002729,-0.00000873,-0.00001680,0.00000
 424,0.00003225,0.00002582,-0.00001372,0.00000438,-0.00001304,0.0000025
 1,-0.00000711,0.00005509,-0.00003610,0.00000198,-0.00001774,0.00000007
 ,0.00000090,-0.00000292,-0.00000050,-0.00000093,0.00000476,-0.00000337
 ,0.00001316,0.00002471,0.00002600,0.00016736,0.00016705,-0.00011727,-0
 .00010145,0.00008449,0.00002967,0.00027228,0.00056499,0.00036863,-0.00
 023422,-0.00015799,-0.00003852,-0.00011746,-0.00027829,0.00009930,-0.0
 0217475,-0.00036911,-0.00020507,-0.00442043,0.00355616,0.00214585,0.00
 020169,0.00026520,-0.00042767,-0.00013413,-0.00037072,0.00036674,-0.00
 001679,0.00009126,-0.00015287,-0.00000738,-0.00000281,0.00000630,0.000
 01760,0.00001169,0.00001314,0.00000496,0.00000294,-0.00000704,0.342354
 83,-0.00029614,-0.00009282,0.00010988,0.00005739,0.00002265,-0.0000471
 2,0.00001838,0.00001536,0.00000056,0.00001035,0.00001850,0.00000328,0.
 00009071,-0.00007072,-0.00005552,0.00001821,-0.00014421,-0.00002579,0.
 00005534,0.00018119,0.00006664,-0.00015789,-0.00034270,0.00005872,-0.0
 0013041,0.00012710,0.00001525,0.00000905,-0.00003977,-0.00002540,-0.00
 004096,0.00003854,-0.00000255,-0.00136669,-0.00109661,-0.00073958,-0.0
 0660093,-0.01145097,0.00762189,0.00078833,-0.00106347,0.00057574,-0.00
 002665,-0.00002883,-0.00001042,-0.00001686,-0.00002093,-0.00000496,0.0
 0001337,0.00001321,0.00000938,0.00001252,0.00003952,-0.00004886,-0.000
 01406,-0.00001945,-0.00000392,0.00009559,-0.00001401,0.00003871,-0.000
 01748,-0.00002290,-0.00000054,0.00012240,0.00010540,-0.00010185,0.0000
 1842,0.00000939,-0.00000650,-0.00000904,-0.00001288,-0.00000528,-0.000
 01385,-0.00001306,-0.00000621,0.00003336,0.00004341,0.00008759,0.00054
 914,0.00032288,-0.00028964,0.00006361,0.00012791,0.00015762,0.00177903
 ,0.00143513,0.00151024,0.00026828,0.00059348,0.00002363,-0.00007650,-0
 .00013487,-0.00009837,-0.00222450,0.00123110,-0.00089492,0.00371598,-0
 .00424835,-0.00216184,0.00202535,-0.00028175,-0.00155081,-0.00136269,0
 .00007960,0.00097270,-0.00000099,-0.00020081,-0.00003129,-0.00001581,-
 0.00001612,0.00001463,0.00004819,0.,0.00001116,0.00001415,0.00002781,0
 .00000366,0.02204505,0.51754896,0.00002749,0.00000247,0.00004925,-0.00
 003642,0.00002322,-0.00003894,-0.00002663,-0.00002838,-0.00000641,-0.0
 0000173,-0.00000706,-0.00000602,-0.00001207,-0.00002957,-0.00000591,-0
 .00000342,0.00008431,0.00003711,-0.00002600,-0.00013036,-0.00004252,0.
 00009091,0.00022843,0.00003609,0.00008109,-0.00006771,-0.00001777,-0.0
 0000887,0.00003359,0.00002337,0.00003025,-0.00001414,0.00000208,0.0006
 5345,0.00039019,0.00102102,0.00161868,0.00745259,0.00172458,-0.0003253
 6,0.00084707,-0.00003253,0.00002639,0.00002978,0.00000917,0.00001426,0
 .00001308,0.00000718,-0.00002504,-0.00000690,0.00000524,-0.00000604,-0
 .00003963,0.00002932,0.00001073,0.00001301,0.00000762,-0.00007757,-0.0
 0001352,-0.00006442,0.00001309,0.00001041,0.00001184,-0.00005348,-0.00
 008855,0.00001438,-0.00001599,0.00000071,-0.00001139,0.00000655,0.0000
 1293,-0.00000523,0.00000821,0.00001143,-0.00000267,-0.00003241,-0.0000
 2088,-0.00008574,-0.00005756,-0.00003987,-0.00004407,0.00008111,0.0002
 2200,-0.00020688,-0.00112380,-0.00078238,-0.00146406,-0.00021394,-0.00
 043164,-0.00007641,0.00006486,-0.00017761,0.00003418,0.00114622,-0.000
 63940,0.00015007,0.00174571,-0.00265249,-0.00779588,-0.00074040,-0.000
 26080,0.00045281,0.00058544,0.00032280,-0.00024243,-0.00014524,-0.0000
 6787,0.00010641,0.00000254,0.00000202,0.00000448,0.00000662,0.00000002
 ,-0.00000900,-0.00000171,0.00000796,-0.00000606,-0.29912486,0.18234723
 ,0.35036458,-0.00004273,0.00002367,0.00000933,0.00002513,-0.00002978,0
 .00001772,-0.00000255,0.00000477,-0.00001254,-0.00000193,0.00000396,0.
 00001189,0.00001308,-0.00005422,-0.00002611,0.00000689,0.00000475,0.00
 000228,0.00001958,-0.00001698,-0.00000107,-0.00006435,-0.00005011,0.00
 000441,-0.00000212,0.00003116,0.00000663,-0.00002409,-0.00000943,-0.00
 000432,0.00000082,-0.00001162,-0.00000773,-0.00020077,-0.00004612,-0.0
 0005061,-0.00075883,-0.00114186,0.00108218,-0.00008783,-0.00019670,0.0
 0001942,-0.00001014,-0.00000550,-0.00000214,0.00000191,0.00000615,-0.0
 0000398,-0.00000773,-0.00000181,0.00000878,0.00000201,-0.00001406,0.00
 000522,0.00000192,0.00000563,-0.00000182,0.00000374,-0.00002093,0.0000
 0754,-0.00000402,0.00000132,0.00000050,0.00003463,-0.00000718,-0.00001
 230,0.00000169,0.00000610,0.00000068,-0.00000180,-0.00000060,-0.000000
 02,-0.00000112,-0.00000443,0.,-0.00000290,-0.00000262,0.00000183,0.000
 06153,0.00000400,-0.00003126,0.00002931,0.00001677,0.00001179,0.000261
 20,0.00012911,0.00011328,0.00009987,0.00013464,0.00000388,0.00003882,0
 .00007078,-0.00002658,-0.00008982,0.00004798,0.00015638,0.00100141,0.0
 0156843,-0.00253757,0.00036003,-0.00021287,-0.00015363,-0.00024431,0.0
 0025883,0.00002228,0.00002037,-0.00011856,0.00009704,-0.00000067,-0.00
 000349,0.00000045,0.00000563,-0.00000455,-0.00000454,0.00000055,0.0000
 0663,0.00000373,-0.02846407,-0.01350297,0.02135271,0.03046380,0.000044
 69,0.00001293,-0.00001439,-0.00001022,-0.00000320,0.00000664,-0.000004
 11,-0.00000362,-0.00000150,-0.00000277,-0.00000107,0.00000163,-0.00001
 563,0.00000438,0.00000628,0.00000490,0.00001861,0.00000337,-0.00002479
 ,-0.00001402,-0.00000183,0.00004224,0.00007122,-0.00000620,0.00001805,
 -0.00002610,-0.00000335,0.00000362,0.00000710,0.00000263,0.00000314,-0
 .00000519,-0.00000021,0.00013200,0.00013000,0.00003280,-0.00016770,0.0
 0009709,0.00089143,0.00006891,0.00022201,-0.00000395,0.00000328,0.0000
 0556,0.00000329,0.00000394,0.00000551,0.00000047,-0.00000426,-0.000003
 05,-0.00000134,-0.00000201,-0.00000933,0.00000889,0.00000207,0.0000045
 0,0.00000070,-0.00001987,-0.00000274,-0.00000610,0.00000310,0.00000395
 ,0.00000146,-0.00000765,-0.00001200,0.00000236,-0.00000355,-0.00000411
 ,0.00000115,0.00000122,0.00000195,0.00000147,0.00000310,0.00000144,0.0
 0000097,-0.00000672,-0.00000775,-0.00001266,-0.00007041,-0.00004668,0.
 00003829,-0.00001271,-0.00002203,-0.00001104,-0.00011569,-0.00013500,-
 0.00007836,-0.00008779,-0.00012543,-0.00000865,0.00001075,-0.00008463,
 0.00002519,-0.00012906,-0.00020618,0.00000623,0.00057995,-0.00093182,-
 0.00223628,-0.00008939,-0.00014945,0.00004970,0.00011053,0.00010136,-0
 .00004747,-0.00006455,-0.00001289,0.00004952,0.00000260,0.00000265,-0.
 00000326,-0.00000855,-0.00000088,-0.00000156,-0.00000231,-0.00000377,-
 0.00000004,0.02784268,-0.45476528,-0.21126687,-0.02108929,0.45574979,0
 .00003706,0.00001525,-0.00003926,0.00000301,-0.00001441,0.00002645,0.0
 0000929,0.00000958,0.00000160,-0.00000088,0.00000294,0.00000476,-0.000
 01060,0.00001964,0.00001153,-0.00000344,-0.00000152,-0.00000989,0.0000
 0859,0.00001089,0.00000085,-0.00000630,-0.00001791,-0.00002530,-0.0000
 0183,0.00000336,0.00000453,-0.00000083,-0.00000312,-0.00000157,-0.0000
 0130,-0.00000082,-0.00000034,0.00007643,0.00012091,-0.00006635,0.00143
 487,0.00188753,-0.00214746,-0.00012060,-0.00004840,-0.00015382,-0.0000
 0688,-0.00000916,-0.00000266,-0.00000294,-0.00000187,-0.00000332,0.000
 00909,0.00000032,-0.00000278,-0.00000150,0.00000889,-0.00000002,-0.000
 00137,0.00000034,-0.00000241,0.00001499,0.00000632,0.00002544,-0.00000
 152,-0.00000043,-0.00000556,-0.00001377,0.00000860,0.00002600,0.000001
 78,-0.00000044,0.00000453,-0.00000022,-0.00000167,0.00000239,-0.000000
 81,-0.00000151,0.00000243,0.00000758,-0.00000002,0.00001826,-0.0000712
 5,-0.00004131,0.00006538,0.00000070,-0.00004210,0.00002227,-0.00004159
 ,-0.00008066,-0.00002087,0.00003066,0.00003926,0.00001410,-0.00002530,
 0.00012390,0.00002494,0.00018556,-0.00008072,0.00027302,-0.00236020,-0
 .00207914,0.00348531,-0.00021794,0.00019275,0.00031750,0.00008559,-0.0
 0018197,-0.00021272,0.00009997,0.00011186,-0.00003745,0.00000220,0.000
 00173,-0.00000327,-0.00000870,-0.00000140,-0.00000026,-0.00000191,-0.0
 0000683,0.00000032,0.03839358,-0.17616009,-0.10987974,-0.03652667,0.20
 682592,0.12018141,0.00003438,0.00004324,-0.00003314,0.00002531,-0.0000
 3768,0.00003506,-0.00000338,0.00000676,-0.00001105,-0.00000243,-0.0000
 0030,0.00000925,-0.00000565,-0.00000824,-0.00000325,0.,0.00002036,-0.0
 0000237,0.00001585,-0.00003060,-0.00000813,-0.00005122,-0.00002735,-0.
 00000517,0.00002066,0.00001742,0.00000874,-0.00002931,-0.00000523,-0.0
 0000218,0.00000677,-0.00001917,-0.00000874,0.00006222,0.00020930,-0.00
 012998,0.00043825,0.00090521,-0.00034758,-0.00027906,-0.00005210,0.000
 00610,-0.00000647,-0.00000292,-0.00000064,0.00000139,0.00000471,-0.000
 00260,-0.00000358,-0.00000048,0.00000082,0.00000038,-0.00000950,0.0000
 0542,0.00000180,0.00000382,-0.00000334,-0.00000181,-0.00000278,0.00000
 921,-0.00000303,0.00000435,-0.00000249,0.00000766,-0.00000724,0.000011
 50,0.00000061,0.00000772,-0.00000005,-0.00000002,0.00000057,0.00000057
 ,-0.00000043,-0.00000337,0.00000156,0.00000140,-0.00000977,0.00000224,
 -0.00008456,-0.00007054,0.00006958,0.00001228,-0.00011406,0.00003271,-
 0.00003112,-0.00011244,0.00008623,0.00008844,0.00009091,0.00001650,0.0
 0007494,0.00005058,-0.00005331,0.00023873,-0.00024692,0.00012303,-0.00
 102556,-0.00079822,0.00022477,-0.00004069,-0.00001658,0.00006577,0.000
 03168,0.00006527,-0.00007034,0.00000136,-0.00002129,0.00002238,0.00000
 281,0.00000138,-0.00000430,-0.00001040,-0.00000308,-0.00000295,-0.0000
 0203,-0.00000446,0.00000363,-0.31023540,-0.00597778,0.27449225,-0.0024
 4213,-0.00694175,-0.00097259,0.31319136,0.00005736,0.00000482,-0.00002
 611,-0.00002062,0.00000943,0.00000534,0.00000683,-0.00000032,0.0000098
 4,-0.00000091,-0.00000567,-0.00000573,-0.00002005,0.00002976,0.0000162
 3,0.00000706,-0.00000621,-0.00000343,-0.00004532,0.00003233,0.00001342
 ,0.00007142,0.00006581,-0.00002745,0.00000031,-0.00003882,-0.00000703,
 0.00002328,0.00000253,0.00000001,-0.00000780,0.00000495,0.00000191,0.0
 0006409,-0.00003782,-0.00022905,0.00026480,-0.00341358,0.00027739,0.00
 034774,0.00005893,-0.00009182,0.00000158,-0.00000129,0.,0.00000018,0.0
 0000061,0.00000127,0.00000393,-0.00000218,-0.00000354,-0.00000100,0.00
 000688,-0.00000060,-0.00000217,-0.00000128,-0.00000016,0.00000313,0.00
 000599,0.00000285,0.00000319,0.00000095,-0.00000104,-0.00000606,0.0000
 1638,-0.00000028,-0.00000099,-0.00001171,0.00000707,0.00000096,-0.0000
 0068,0.00000385,0.00000283,0.00000051,0.00000176,-0.00000271,-0.000002
 15,-0.00000041,-0.00008392,-0.00003503,0.00005732,-0.00012070,-0.00009
 341,0.00002612,0.00004642,0.00013516,0.00031376,-0.00012065,-0.0001225
 2,-0.00000100,-0.00001599,-0.00002929,0.00006123,-0.00076232,-0.000126
 97,0.00027933,-0.00101183,0.00571958,0.00006108,-0.00001262,0.00005526
 ,-0.00002218,0.00001206,-0.00007909,0.00001250,-0.00000147,0.00002640,
 -0.00001370,0.00000336,0.00000262,-0.00000435,-0.00001005,0.00000286,0
 .00000145,-0.00000310,-0.00000785,0.00000086,-0.04598350,-0.04790067,0
 .02471038,0.03422100,0.00013613,-0.03061447,0.01309222,0.04559863,0.00
 000156,0.00000656,-0.00002650,0.00001701,-0.00001679,0.00002035,0.0000
 0626,0.00001063,-0.00000090,0.00000050,-0.00000007,0.00000195,-0.00000
 039,0.00001506,0.00000651,-0.00000855,-0.00002182,-0.00001273,0.000029
 74,0.00001548,0.00000747,-0.00006537,-0.00010526,-0.00001925,-0.000027
 15,0.00003460,0.00000897,-0.00000520,-0.00001402,-0.00000962,-0.000007
 89,0.00000054,-0.00000260,-0.00010934,-0.00007813,-0.00026362,-0.00052
 714,-0.00043047,0.00017452,-0.00014663,-0.00038146,-0.00001207,-0.0000
 0799,-0.00000660,-0.00000288,-0.00000452,-0.00000372,-0.00000163,0.000
 00668,0.00000255,-0.00000255,0.00000171,0.00000883,-0.00000683,-0.0000
 0174,-0.00000274,-0.00000275,0.00001999,0.00000616,0.00001640,-0.00000
 548,-0.00000243,-0.00000384,0.00001545,0.00002418,0.00000365,0.0000071
 9,0.00000320,0.00000614,-0.00000294,-0.00000592,0.00000312,-0.00000381
 ,-0.00000398,0.00000250,0.00001205,0.00000658,0.00003022,-0.00001071,-
 0.00000620,0.00003008,-0.00002176,-0.00007415,0.00009468,0.00021480,0.
 00023196,0.00029479,0.00014495,0.00021626,0.00005907,0.00001833,0.0001
 2981,-0.00004945,0.00021948,0.00030203,-0.00010985,0.00101800,0.000589
 98,-0.00097058,0.00016535,0.00004609,-0.00010556,-0.00015319,-0.000078
 64,0.00005656,0.00003107,0.00000988,-0.00001617,0.00000005,-0.00000018
 ,-0.00000262,-0.00000655,0.00000284,0.00000371,0.00000013,-0.00000559,
 0.00000504,0.25628624,-0.01135708,-0.23404671,0.01646292,0.00574465,-0
 .01189799,-0.27356313,0.00518738,0.24674098\\0.00000592,0.00000241,0.0
 0000610,0.00000293,0.00000539,-0.00000651,-0.00000614,-0.00000293,0.00
 000100,0.00000421,0.00000139,-0.00000167,-0.00000680,0.00000141,0.0000
 0300,-0.00000275,-0.00000451,0.00000025,-0.00000061,0.00000082,0.00000
 043,-0.00000277,-0.00000689,-0.00000183,-0.00000063,-0.00000027,-0.000
 00108,-0.00000078,0.00000125,-0.00000018,-0.00000028,0.00000011,-0.000
 00029,-0.00000493,0.00000365,0.00000350,0.00000017,-0.00003750,0.00001
 285,0.00000135,-0.00000733,-0.00001018,0.00000057,0.00000145,-0.000001
 62,-0.00000071,-0.00000003,-0.00000091,-0.00000186,0.00000002,-0.00000
 020,0.,-0.00000004,0.00000051,0.00000187,0.00000129,0.00000025,0.00000
 024,-0.00000212,-0.00000278,-0.00000143,0.00000006,0.00000022,0.000001
 30,-0.00000006,-0.00000072,-0.00000081,-0.00000121,0.00000024,-0.00000
 067,-0.00000050,-0.00000023,-0.00000071,0.00000029,-0.00000061,-0.0000
 0130,-0.00000035,-0.00000091,-0.00000631,-0.00001441,-0.00000931,-0.00
 000266,-0.00000521,0.00000119,0.00001689,0.00001891,0.00001045,0.00000
 665,0.00001099,0.00001529,0.00000253,-0.00000639,0.00000187,-0.0000133
 5,0.00001107,-0.00001144,-0.00000043,0.00002069,-0.00000759,0.00000821
 ,0.00000640,0.00000110,-0.00000151,0.00000160,-0.00000081,-0.00000060,
 -0.00000028,-0.00000132,-0.00000044,0.00000099,-0.00000063,0.00000075,
 0.00000093,-0.00000005,-0.00000031,0.00000002,0.00000034,-0.00000285,-
 0.00001558,0.00000703,0.00001328,-0.00000318,-0.00001506,-0.00000521,0
 .00001765,0.00001032\\\@


 "WOULD YOU TELL ME PLEASE, WHICH WAY I OUGHT TO WALK FROM HERE?"
 "THAT DEPENDS A GREAT DEAL ON WHERE YOU WANT TO GO," SAID THE CAT.
 "I DON'T MUCH CARE WHERE -- ", SAID ALICE.
 "THEN IT DOESN'T MATTER WHICH WAY YOU WALK," SAID THE CAT.

                                      -- LEWIS CARROLL
 Job cpu time:       1 days 17 hours 43 minutes 15.8 seconds.
 Elapsed time:       0 days  1 hours 29 minutes 29.1 seconds.
 File lengths (MBytes):  RWF=   1444 Int=      0 D2E=      0 Chk=     36 Scr=      8
 Normal termination of Gaussian 16 at Tue Dec  6 18:39:06 2022.
 16 at Tue Dec  6 18:29:00 2022.
