 Entering Gaussian System, Link 0=g16
 Input=Nic5h3bMidPyr.gjf
 Output=Nic5h3bMidPyr.log
 Initial command:
 /sw/contrib/gaussian/g16/A03/g16/l1.exe "/gscratch/scrubbed/gds001/Gau-17757.inp" -scrdir="/gscratch/scrubbed/gds001/"
 Entering Link 1 = /sw/contrib/gaussian/g16/A03/g16/l1.exe PID=     17758.
  
 Copyright (c) 1988,1990,1992,1993,1995,1998,2003,2009,2016,
            Gaussian, Inc.  All Rights Reserved.
  
 This is part of the Gaussian(R) 16 program.  It is based on
 the Gaussian(R) 09 system (copyright 2009, Gaussian, Inc.),
 the Gaussian(R) 03 system (copyright 2003, Gaussian, Inc.),
 the Gaussian(R) 98 system (copyright 1998, Gaussian, Inc.),
 the Gaussian(R) 94 system (copyright 1995, Gaussian, Inc.),
 the Gaussian 92(TM) system (copyright 1992, Gaussian, Inc.),
 the Gaussian 90(TM) system (copyright 1990, Gaussian, Inc.),
 the Gaussian 88(TM) system (copyright 1988, Gaussian, Inc.),
 the Gaussian 86(TM) system (copyright 1986, Carnegie Mellon
 University), and the Gaussian 82(TM) system (copyright 1983,
 Carnegie Mellon University). Gaussian is a federally registered
 trademark of Gaussian, Inc.
  
 This software contains proprietary and confidential information,
 including trade secrets, belonging to Gaussian, Inc.
  
 This software is provided under written license and may be
 used, copied, transmitted, or stored only in accord with that
 written license.
  
 The following legend is applicable only to US Government
 contracts under FAR:
  
                    RESTRICTED RIGHTS LEGEND
  
 Use, reproduction and disclosure by the US Government is
 subject to restrictions as set forth in subparagraphs (a)
 and (c) of the Commercial Computer Software - Restricted
 Rights clause in FAR 52.227-19.
  
 Gaussian, Inc.
 340 Quinnipiac St., Bldg. 40, Wallingford CT 06492
  
  
 ---------------------------------------------------------------
 Warning -- This program may not be used in any manner that
 competes with the business of Gaussian, Inc. or will provide
 assistance to any competitor of Gaussian, Inc.  The licensee
 of this program is prohibited from giving any competitor of
 Gaussian, Inc. access to this program.  By using this program,
 the user acknowledges that Gaussian, Inc. is engaged in the
 business of creating and licensing software in the field of
 computational chemistry and represents and warrants to the
 licensee that it is not a competitor of Gaussian, Inc. and that
 it will not use this program in any manner prohibited above.
 ---------------------------------------------------------------
  

 Cite this work as:
 Gaussian 16, Revision A.03,
 M. J. Frisch, G. W. Trucks, H. B. Schlegel, G. E. Scuseria, 
 M. A. Robb, J. R. Cheeseman, G. Scalmani, V. Barone, 
 G. A. Petersson, H. Nakatsuji, X. Li, M. Caricato, A. V. Marenich, 
 J. Bloino, B. G. Janesko, R. Gomperts, B. Mennucci, H. P. Hratchian, 
 J. V. Ortiz, A. F. Izmaylov, J. L. Sonnenberg, D. Williams-Young, 
 F. Ding, F. Lipparini, F. Egidi, J. Goings, B. Peng, A. Petrone, 
 T. Henderson, D. Ranasinghe, V. G. Zakrzewski, J. Gao, N. Rega, 
 G. Zheng, W. Liang, M. Hada, M. Ehara, K. Toyota, R. Fukuda, 
 J. Hasegawa, M. Ishida, T. Nakajima, Y. Honda, O. Kitao, H. Nakai, 
 T. Vreven, K. Throssell, J. A. Montgomery, Jr., J. E. Peralta, 
 F. Ogliaro, M. J. Bearpark, J. J. Heyd, E. N. Brothers, K. N. Kudin, 
 V. N. Staroverov, T. A. Keith, R. Kobayashi, J. Normand, 
 K. Raghavachari, A. P. Rendell, J. C. Burant, S. S. Iyengar, 
 J. Tomasi, M. Cossi, J. M. Millam, M. Klene, C. Adamo, R. Cammi, 
 J. W. Ochterski, R. L. Martin, K. Morokuma, O. Farkas, 
 J. B. Foresman, and D. J. Fox, Gaussian, Inc., Wallingford CT, 2016.
 
 ******************************************
 Gaussian 16:  ES64L-G16RevA.03 25-Dec-2016
                 9-Dec-2022 
 ******************************************
 %nprocshared=28
 Will use up to   28 processors via shared memory.
 %mem=41GB
 -----------------------------
 # wB97XD/aug-cc-pVDZ opt freq
 -----------------------------
 1/18=20,19=15,26=3,38=1/1,3;
 2/9=110,12=2,17=6,18=5,40=1/2;
 3/5=16,7=10,11=2,25=1,30=1,71=1,74=-58/1,2,3;
 4//1;
 5/5=2,38=5/2;
 6/7=2,8=2,9=2,10=2,28=1/1;
 7//1,2,3,16;
 1/18=20,19=15,26=3/3(2);
 2/9=110/2;
 99//99;
 2/9=110/2;
 3/5=16,7=10,11=2,25=1,30=1,71=1,74=-58/1,2,3;
 4/5=5,16=3,69=1/1;
 5/5=2,38=5/2;
 7//1,2,3,16;
 1/18=20,19=15,26=3/3(-5);
 2/9=110/2;
 6/7=2,8=2,9=2,10=2,19=2,28=1/1;
 99/9=1/99;
 ----
 blah
 ----
 Symbolic Z-matrix:
 Charge =  1 Multiplicity = 1
 C                     1.90033  -2.30481  -0.06792 
 C                     0.87883  -1.36033  -0.18313 
 C                     1.25485  -0.03611  -0.38503 
 N                     2.54892   0.30164  -0.45351 
 C                     3.54471  -0.59209  -0.34498 
 C                     3.24139  -1.92624  -0.15554 
 C                    -0.57946  -1.7462   -0.10505 
 N                    -1.33291  -0.94671   0.86699 
 C                    -2.73514  -1.28069   0.58157 
 C                    -2.81683  -1.27644  -0.95029 
 C                    -1.36477  -1.54319  -1.41527 
 O                     2.82969   2.92249  -0.46306 
 O                     0.79304   3.14689   1.20278 
 O                    -1.25819   1.78188   0.1592 
 H                    -3.40028  -0.55096   1.05892 
 H                    -3.51319  -2.03941  -1.31221 
 H                    -3.16782  -0.30485  -1.3134 
 H                    -1.27325  -2.41841  -2.06711 
 H                    -0.96609  -0.68046  -1.96269 
 H                    -2.97968  -2.27953   0.98823 
 H                    -0.625    -2.81552   0.18262 
 H                     0.53807   0.7794   -0.48527 
 H                     4.55812  -0.20372  -0.40803 
 H                     4.04221  -2.65628  -0.06652 
 H                     1.64718  -3.35248   0.09703 
 C                    -0.9529   -1.18393   2.25296 
 H                     2.76333   1.3315   -0.56363 
 H                    -1.35083   0.85451   0.47477 
 H                    -2.12105   2.04581  -0.20046 
 H                     2.09796   3.19436   0.14053 
 H                     2.89435   3.57819  -1.16043 
 H                     0.598     3.7859    1.89043 
 H                    -0.06037   2.77165   0.89422 
 O                    -3.79538   2.31032  -0.91907 
 H                    -4.51505   2.64689  -0.37785 
 H                    -3.89421   2.74583  -1.77029 
 H                     0.08961  -0.88393   2.41688 
 H                    -1.06767  -2.24681   2.53533 
 H                    -1.58581  -0.57859   2.91181 
 O                     0.30247   4.8352    3.35865 
 H                     0.30952   4.30883   4.17594 
 H                     0.77679   5.64392   3.61378 
 
 Add virtual bond connecting atoms H27        and O12        Dist= 3.02D+00.
 Add virtual bond connecting atoms H30        and O13        Dist= 3.18D+00.
 Add virtual bond connecting atoms N8         and H28        Dist= 3.48D+00.
 Add virtual bond connecting atoms H33        and O14        Dist= 3.25D+00.
 Add virtual bond connecting atoms O40        and H32        Dist= 3.46D+00.
 Add virtual bond connecting atoms O34        and H29        Dist= 3.48D+00.

 GradGradGradGradGradGradGradGradGradGradGradGradGradGradGradGradGradGrad
 Berny optimization.
 Initialization pass.
                           ----------------------------
                           !    Initial Parameters    !
                           ! (Angstroms and Degrees)  !
 --------------------------                            --------------------------
 ! Name  Definition              Value          Derivative Info.                !
 --------------------------------------------------------------------------------
 ! R1    R(1,2)                  1.396          estimate D2E/DX2                !
 ! R2    R(1,6)                  1.3962         estimate D2E/DX2                !
 ! R3    R(1,25)                 1.0904         estimate D2E/DX2                !
 ! R4    R(2,3)                  1.3913         estimate D2E/DX2                !
 ! R5    R(2,7)                  1.5105         estimate D2E/DX2                !
 ! R6    R(3,4)                  1.3392         estimate D2E/DX2                !
 ! R7    R(3,22)                 1.0904         estimate D2E/DX2                !
 ! R8    R(4,5)                  1.3424         estimate D2E/DX2                !
 ! R9    R(4,27)                 1.0577         estimate D2E/DX2                !
 ! R10   R(5,6)                  1.3813         estimate D2E/DX2                !
 ! R11   R(5,23)                 1.0871         estimate D2E/DX2                !
 ! R12   R(6,24)                 1.0873         estimate D2E/DX2                !
 ! R13   R(7,8)                  1.4669         estimate D2E/DX2                !
 ! R14   R(7,11)                 1.541          estimate D2E/DX2                !
 ! R15   R(7,21)                 1.1083         estimate D2E/DX2                !
 ! R16   R(8,9)                  1.4694         estimate D2E/DX2                !
 ! R17   R(8,26)                 1.4566         estimate D2E/DX2                !
 ! R18   R(8,28)                 1.8435         estimate D2E/DX2                !
 ! R19   R(9,10)                 1.534          estimate D2E/DX2                !
 ! R20   R(9,15)                 1.0967         estimate D2E/DX2                !
 ! R21   R(9,20)                 1.1058         estimate D2E/DX2                !
 ! R22   R(10,11)                1.5479         estimate D2E/DX2                !
 ! R23   R(10,16)                1.0945         estimate D2E/DX2                !
 ! R24   R(10,17)                1.095          estimate D2E/DX2                !
 ! R25   R(11,18)                1.0951         estimate D2E/DX2                !
 ! R26   R(11,19)                1.0968         estimate D2E/DX2                !
 ! R27   R(12,27)                1.5955         estimate D2E/DX2                !
 ! R28   R(12,30)                0.9867         estimate D2E/DX2                !
 ! R29   R(12,31)                0.9594         estimate D2E/DX2                !
 ! R30   R(13,30)                1.6833         estimate D2E/DX2                !
 ! R31   R(13,32)                0.9588         estimate D2E/DX2                !
 ! R32   R(13,33)                0.982          estimate D2E/DX2                !
 ! R33   R(14,28)                0.984          estimate D2E/DX2                !
 ! R34   R(14,29)                0.9714         estimate D2E/DX2                !
 ! R35   R(14,33)                1.7189         estimate D2E/DX2                !
 ! R36   R(26,37)                1.0971         estimate D2E/DX2                !
 ! R37   R(26,38)                1.1057         estimate D2E/DX2                !
 ! R38   R(26,39)                1.096          estimate D2E/DX2                !
 ! R39   R(29,34)                1.8411         estimate D2E/DX2                !
 ! R40   R(32,40)                1.8287         estimate D2E/DX2                !
 ! R41   R(34,35)                0.9613         estimate D2E/DX2                !
 ! R42   R(34,36)                0.9613         estimate D2E/DX2                !
 ! R43   R(40,41)                0.9722         estimate D2E/DX2                !
 ! R44   R(40,42)                0.9716         estimate D2E/DX2                !
 ! A1    A(2,1,6)              120.9448         estimate D2E/DX2                !
 ! A2    A(2,1,25)             119.516          estimate D2E/DX2                !
 ! A3    A(6,1,25)             119.5387         estimate D2E/DX2                !
 ! A4    A(1,2,3)              117.2684         estimate D2E/DX2                !
 ! A5    A(1,2,7)              121.9614         estimate D2E/DX2                !
 ! A6    A(3,2,7)              120.7684         estimate D2E/DX2                !
 ! A7    A(2,3,4)              120.5726         estimate D2E/DX2                !
 ! A8    A(2,3,22)             123.1983         estimate D2E/DX2                !
 ! A9    A(4,3,22)             116.226          estimate D2E/DX2                !
 ! A10   A(3,4,5)              123.0082         estimate D2E/DX2                !
 ! A11   A(3,4,27)             116.5375         estimate D2E/DX2                !
 ! A12   A(5,4,27)             120.4163         estimate D2E/DX2                !
 ! A13   A(4,5,6)              119.4224         estimate D2E/DX2                !
 ! A14   A(4,5,23)             116.6771         estimate D2E/DX2                !
 ! A15   A(6,5,23)             123.8994         estimate D2E/DX2                !
 ! A16   A(1,6,5)              118.7783         estimate D2E/DX2                !
 ! A17   A(1,6,24)             121.349          estimate D2E/DX2                !
 ! A18   A(5,6,24)             119.8691         estimate D2E/DX2                !
 ! A19   A(2,7,8)              113.0107         estimate D2E/DX2                !
 ! A20   A(2,7,11)             114.4816         estimate D2E/DX2                !
 ! A21   A(2,7,21)             107.4314         estimate D2E/DX2                !
 ! A22   A(8,7,11)             103.2895         estimate D2E/DX2                !
 ! A23   A(8,7,21)             109.4366         estimate D2E/DX2                !
 ! A24   A(11,7,21)            109.0789         estimate D2E/DX2                !
 ! A25   A(7,8,9)              103.7421         estimate D2E/DX2                !
 ! A26   A(7,8,26)             114.065          estimate D2E/DX2                !
 ! A27   A(7,8,28)             113.3615         estimate D2E/DX2                !
 ! A28   A(9,8,26)             113.3768         estimate D2E/DX2                !
 ! A29   A(9,8,28)              99.8729         estimate D2E/DX2                !
 ! A30   A(26,8,28)            111.3526         estimate D2E/DX2                !
 ! A31   A(8,9,10)             104.1319         estimate D2E/DX2                !
 ! A32   A(8,9,15)             110.0581         estimate D2E/DX2                !
 ! A33   A(8,9,20)             110.175          estimate D2E/DX2                !
 ! A34   A(10,9,15)            113.6094         estimate D2E/DX2                !
 ! A35   A(10,9,20)            110.9741         estimate D2E/DX2                !
 ! A36   A(15,9,20)            107.8675         estimate D2E/DX2                !
 ! A37   A(9,10,11)            104.4503         estimate D2E/DX2                !
 ! A38   A(9,10,16)            111.2314         estimate D2E/DX2                !
 ! A39   A(9,10,17)            110.5277         estimate D2E/DX2                !
 ! A40   A(11,10,16)           112.1712         estimate D2E/DX2                !
 ! A41   A(11,10,17)           110.7319         estimate D2E/DX2                !
 ! A42   A(16,10,17)           107.7541         estimate D2E/DX2                !
 ! A43   A(7,11,10)            104.2033         estimate D2E/DX2                !
 ! A44   A(7,11,18)            110.9908         estimate D2E/DX2                !
 ! A45   A(7,11,19)            110.0452         estimate D2E/DX2                !
 ! A46   A(10,11,18)           113.2618         estimate D2E/DX2                !
 ! A47   A(10,11,19)           110.8167         estimate D2E/DX2                !
 ! A48   A(18,11,19)           107.5294         estimate D2E/DX2                !
 ! A49   A(27,12,30)           106.4065         estimate D2E/DX2                !
 ! A50   A(27,12,31)           129.6785         estimate D2E/DX2                !
 ! A51   A(30,12,31)           107.8372         estimate D2E/DX2                !
 ! A52   A(30,13,32)           126.2652         estimate D2E/DX2                !
 ! A53   A(30,13,33)           119.0907         estimate D2E/DX2                !
 ! A54   A(32,13,33)           107.6528         estimate D2E/DX2                !
 ! A55   A(28,14,29)           106.9295         estimate D2E/DX2                !
 ! A56   A(28,14,33)           118.11           estimate D2E/DX2                !
 ! A57   A(29,14,33)           128.3804         estimate D2E/DX2                !
 ! A58   A(8,26,37)            110.2151         estimate D2E/DX2                !
 ! A59   A(8,26,38)            111.8677         estimate D2E/DX2                !
 ! A60   A(8,26,39)            109.3541         estimate D2E/DX2                !
 ! A61   A(37,26,38)           108.864          estimate D2E/DX2                !
 ! A62   A(37,26,39)           107.9325         estimate D2E/DX2                !
 ! A63   A(38,26,39)           108.5104         estimate D2E/DX2                !
 ! A64   A(12,30,13)           162.3875         estimate D2E/DX2                !
 ! A65   A(13,33,14)           163.7367         estimate D2E/DX2                !
 ! A66   A(29,34,35)           120.7549         estimate D2E/DX2                !
 ! A67   A(29,34,36)           120.2793         estimate D2E/DX2                !
 ! A68   A(35,34,36)           105.2461         estimate D2E/DX2                !
 ! A69   A(32,40,41)           111.2924         estimate D2E/DX2                !
 ! A70   A(32,40,42)           127.5544         estimate D2E/DX2                !
 ! A71   A(41,40,42)           103.0832         estimate D2E/DX2                !
 ! A72   L(4,27,12,14,-1)      169.1194         estimate D2E/DX2                !
 ! A73   L(8,28,14,3,-1)       172.0337         estimate D2E/DX2                !
 ! A74   L(14,29,34,9,-1)      172.9554         estimate D2E/DX2                !
 ! A75   L(13,32,40,35,-1)     183.1476         estimate D2E/DX2                !
 ! A76   L(4,27,12,14,-2)      172.1653         estimate D2E/DX2                !
 ! A77   L(8,28,14,3,-2)       176.1526         estimate D2E/DX2                !
 ! A78   L(14,29,34,9,-2)      182.6794         estimate D2E/DX2                !
 ! A79   L(13,32,40,35,-2)     172.8034         estimate D2E/DX2                !
 ! D1    D(6,1,2,3)             -0.1113         estimate D2E/DX2                !
 ! D2    D(6,1,2,7)            179.4076         estimate D2E/DX2                !
 ! D3    D(25,1,2,3)           179.6292         estimate D2E/DX2                !
 ! D4    D(25,1,2,7)            -0.8518         estimate D2E/DX2                !
 ! D5    D(2,1,6,5)              0.6853         estimate D2E/DX2                !
 ! D6    D(2,1,6,24)           179.9853         estimate D2E/DX2                !
 ! D7    D(25,1,6,5)          -179.0552         estimate D2E/DX2                !
 ! D8    D(25,1,6,24)            0.2448         estimate D2E/DX2                !
 ! D9    D(1,2,3,4)             -0.4807         estimate D2E/DX2                !
 ! D10   D(1,2,3,22)          -179.8181         estimate D2E/DX2                !
 ! D11   D(7,2,3,4)            179.9943         estimate D2E/DX2                !
 ! D12   D(7,2,3,22)             0.6569         estimate D2E/DX2                !
 ! D13   D(1,2,7,8)            128.2068         estimate D2E/DX2                !
 ! D14   D(1,2,7,11)          -113.902          estimate D2E/DX2                !
 ! D15   D(1,2,7,21)             7.3911         estimate D2E/DX2                !
 ! D16   D(3,2,7,8)            -52.2908         estimate D2E/DX2                !
 ! D17   D(3,2,7,11)            65.6003         estimate D2E/DX2                !
 ! D18   D(3,2,7,21)          -173.1065         estimate D2E/DX2                !
 ! D19   D(2,3,4,5)              0.5051         estimate D2E/DX2                !
 ! D20   D(2,3,4,27)          -177.2564         estimate D2E/DX2                !
 ! D21   D(22,3,4,5)           179.887          estimate D2E/DX2                !
 ! D22   D(22,3,4,27)            2.1255         estimate D2E/DX2                !
 ! D23   D(3,4,5,6)              0.0941         estimate D2E/DX2                !
 ! D24   D(3,4,5,23)          -179.5393         estimate D2E/DX2                !
 ! D25   D(27,4,5,6)           177.7717         estimate D2E/DX2                !
 ! D26   D(27,4,5,23)           -1.8617         estimate D2E/DX2                !
 ! D27   D(3,4,12,30)           35.5612         estimate D2E/DX2                !
 ! D28   D(3,4,12,31)          -92.5979         estimate D2E/DX2                !
 ! D29   D(5,4,12,30)         -135.8216         estimate D2E/DX2                !
 ! D30   D(5,4,12,31)           96.0193         estimate D2E/DX2                !
 ! D31   D(4,5,6,1)             -0.6785         estimate D2E/DX2                !
 ! D32   D(4,5,6,24)          -179.9892         estimate D2E/DX2                !
 ! D33   D(23,5,6,1)           178.9268         estimate D2E/DX2                !
 ! D34   D(23,5,6,24)           -0.3839         estimate D2E/DX2                !
 ! D35   D(2,7,8,9)            168.5983         estimate D2E/DX2                !
 ! D36   D(2,7,8,26)           -67.5832         estimate D2E/DX2                !
 ! D37   D(2,7,8,28)            61.2662         estimate D2E/DX2                !
 ! D38   D(11,7,8,9)            44.3401         estimate D2E/DX2                !
 ! D39   D(11,7,8,26)          168.1586         estimate D2E/DX2                !
 ! D40   D(11,7,8,28)          -62.992          estimate D2E/DX2                !
 ! D41   D(21,7,8,9)           -71.7325         estimate D2E/DX2                !
 ! D42   D(21,7,8,26)           52.0861         estimate D2E/DX2                !
 ! D43   D(21,7,8,28)         -179.0646         estimate D2E/DX2                !
 ! D44   D(2,7,11,10)         -151.5212         estimate D2E/DX2                !
 ! D45   D(2,7,11,18)           86.2398         estimate D2E/DX2                !
 ! D46   D(2,7,11,19)          -32.6677         estimate D2E/DX2                !
 ! D47   D(8,7,11,10)          -28.2305         estimate D2E/DX2                !
 ! D48   D(8,7,11,18)         -150.4695         estimate D2E/DX2                !
 ! D49   D(8,7,11,19)           90.623          estimate D2E/DX2                !
 ! D50   D(21,7,11,10)          88.096          estimate D2E/DX2                !
 ! D51   D(21,7,11,18)         -34.143          estimate D2E/DX2                !
 ! D52   D(21,7,11,19)        -153.0505         estimate D2E/DX2                !
 ! D53   D(7,8,9,10)           -42.8269         estimate D2E/DX2                !
 ! D54   D(7,8,9,15)          -164.94           estimate D2E/DX2                !
 ! D55   D(7,8,9,20)            76.235          estimate D2E/DX2                !
 ! D56   D(26,8,9,10)         -167.093          estimate D2E/DX2                !
 ! D57   D(26,8,9,15)           70.7939         estimate D2E/DX2                !
 ! D58   D(26,8,9,20)          -48.0311         estimate D2E/DX2                !
 ! D59   D(28,8,9,10)           74.3613         estimate D2E/DX2                !
 ! D60   D(28,8,9,15)          -47.7518         estimate D2E/DX2                !
 ! D61   D(28,8,9,20)         -166.5768         estimate D2E/DX2                !
 ! D62   D(7,8,14,29)          105.9837         estimate D2E/DX2                !
 ! D63   D(7,8,14,33)          -95.3019         estimate D2E/DX2                !
 ! D64   D(9,8,14,29)           -3.4435         estimate D2E/DX2                !
 ! D65   D(9,8,14,33)          155.271          estimate D2E/DX2                !
 ! D66   D(26,8,14,29)        -125.0508         estimate D2E/DX2                !
 ! D67   D(26,8,14,33)          33.6637         estimate D2E/DX2                !
 ! D68   D(7,8,26,37)           63.604          estimate D2E/DX2                !
 ! D69   D(7,8,26,38)          -57.6642         estimate D2E/DX2                !
 ! D70   D(7,8,26,39)         -177.8997         estimate D2E/DX2                !
 ! D71   D(9,8,26,37)         -177.9408         estimate D2E/DX2                !
 ! D72   D(9,8,26,38)           60.7909         estimate D2E/DX2                !
 ! D73   D(9,8,26,39)          -59.4446         estimate D2E/DX2                !
 ! D74   D(28,8,26,37)         -66.253          estimate D2E/DX2                !
 ! D75   D(28,8,26,38)         172.4788         estimate D2E/DX2                !
 ! D76   D(28,8,26,39)          52.2433         estimate D2E/DX2                !
 ! D77   D(8,9,10,11)           23.8889         estimate D2E/DX2                !
 ! D78   D(8,9,10,16)          145.1002         estimate D2E/DX2                !
 ! D79   D(8,9,10,17)          -95.244          estimate D2E/DX2                !
 ! D80   D(15,9,10,11)         143.6266         estimate D2E/DX2                !
 ! D81   D(15,9,10,16)         -95.1621         estimate D2E/DX2                !
 ! D82   D(15,9,10,17)          24.4937         estimate D2E/DX2                !
 ! D83   D(20,9,10,11)         -94.6272         estimate D2E/DX2                !
 ! D84   D(20,9,10,16)          26.5842         estimate D2E/DX2                !
 ! D85   D(20,9,10,17)         146.24           estimate D2E/DX2                !
 ! D86   D(9,10,11,7)            2.6248         estimate D2E/DX2                !
 ! D87   D(9,10,11,18)         123.356          estimate D2E/DX2                !
 ! D88   D(9,10,11,19)        -115.7013         estimate D2E/DX2                !
 ! D89   D(16,10,11,7)        -117.9615         estimate D2E/DX2                !
 ! D90   D(16,10,11,18)          2.7697         estimate D2E/DX2                !
 ! D91   D(16,10,11,19)        123.7124         estimate D2E/DX2                !
 ! D92   D(17,10,11,7)         121.6193         estimate D2E/DX2                !
 ! D93   D(17,10,11,18)       -117.6495         estimate D2E/DX2                !
 ! D94   D(17,10,11,19)          3.2932         estimate D2E/DX2                !
 ! D95   D(27,12,30,13)          3.2617         estimate D2E/DX2                !
 ! D96   D(31,12,30,13)        145.8165         estimate D2E/DX2                !
 ! D97   D(32,13,30,12)        149.1359         estimate D2E/DX2                !
 ! D98   D(33,13,30,12)        -63.8734         estimate D2E/DX2                !
 ! D99   D(30,13,40,41)       -117.2859         estimate D2E/DX2                !
 ! D100  D(30,13,40,42)          7.8621         estimate D2E/DX2                !
 ! D101  D(33,13,40,41)         87.4394         estimate D2E/DX2                !
 ! D102  D(33,13,40,42)       -147.4126         estimate D2E/DX2                !
 ! D103  D(30,13,33,14)         42.6001         estimate D2E/DX2                !
 ! D104  D(32,13,33,14)       -164.8484         estimate D2E/DX2                !
 ! D105  D(28,14,34,35)         87.6181         estimate D2E/DX2                !
 ! D106  D(28,14,34,36)       -134.9158         estimate D2E/DX2                !
 ! D107  D(33,14,34,35)        -62.9378         estimate D2E/DX2                !
 ! D108  D(33,14,34,36)         74.5283         estimate D2E/DX2                !
 ! D109  D(28,14,33,13)         63.2669         estimate D2E/DX2                !
 ! D110  D(29,14,33,13)       -149.144          estimate D2E/DX2                !
 --------------------------------------------------------------------------------
 Trust Radius=3.00D-01 FncErr=1.00D-07 GrdErr=1.00D-06 EigMax=2.50D+02 EigMin=1.00D-04
 Number of steps in this run=    243 maximum allowed number of steps=    252.
 GradGradGradGradGradGradGradGradGradGradGradGradGradGradGradGradGradGrad

                          Input orientation:                          
 ---------------------------------------------------------------------
 Center     Atomic      Atomic             Coordinates (Angstroms)
 Number     Number       Type             X           Y           Z
 ---------------------------------------------------------------------
      1          6           0        1.900333   -2.304806   -0.067924
      2          6           0        0.878833   -1.360328   -0.183129
      3          6           0        1.254853   -0.036108   -0.385032
      4          7           0        2.548918    0.301637   -0.453505
      5          6           0        3.544708   -0.592090   -0.344978
      6          6           0        3.241386   -1.926242   -0.155541
      7          6           0       -0.579464   -1.746203   -0.105054
      8          7           0       -1.332909   -0.946712    0.866993
      9          6           0       -2.735137   -1.280689    0.581566
     10          6           0       -2.816830   -1.276442   -0.950289
     11          6           0       -1.364767   -1.543194   -1.415269
     12          8           0        2.829686    2.922488   -0.463056
     13          8           0        0.793044    3.146894    1.202781
     14          8           0       -1.258188    1.781876    0.159200
     15          1           0       -3.400279   -0.550963    1.058919
     16          1           0       -3.513188   -2.039415   -1.312205
     17          1           0       -3.167818   -0.304845   -1.313401
     18          1           0       -1.273253   -2.418410   -2.067105
     19          1           0       -0.966089   -0.680462   -1.962690
     20          1           0       -2.979683   -2.279530    0.988229
     21          1           0       -0.624998   -2.815520    0.182615
     22          1           0        0.538072    0.779396   -0.485266
     23          1           0        4.558119   -0.203717   -0.408025
     24          1           0        4.042214   -2.656281   -0.066519
     25          1           0        1.647178   -3.352481    0.097031
     26          6           0       -0.952896   -1.183930    2.252955
     27          1           0        2.763331    1.331501   -0.563627
     28          1           0       -1.350834    0.854512    0.474771
     29          1           0       -2.121049    2.045806   -0.200461
     30          1           0        2.097957    3.194355    0.140532
     31          1           0        2.894352    3.578191   -1.160434
     32          1           0        0.598001    3.785899    1.890432
     33          1           0       -0.060373    2.771649    0.894219
     34          8           0       -3.795380    2.310322   -0.919066
     35          1           0       -4.515048    2.646893   -0.377846
     36          1           0       -3.894206    2.745829   -1.770291
     37          1           0        0.089605   -0.883933    2.416878
     38          1           0       -1.067672   -2.246810    2.535326
     39          1           0       -1.585813   -0.578585    2.911809
     40          8           0        0.302468    4.835202    3.358646
     41          1           0        0.309525    4.308829    4.175940
     42          1           0        0.776791    5.643920    3.613778
 ---------------------------------------------------------------------
                    Distance matrix (angstroms):
                    1          2          3          4          5
     1  C    0.000000
     2  C    1.395985   0.000000
     3  C    2.379956   1.391300   0.000000
     4  N    2.713463   2.371585   1.339166   0.000000
     5  C    2.390423   2.779078   2.356726   1.342432   0.000000
     6  C    1.396213   2.429542   2.751652   2.351965   1.381250
     7  C    2.542206   1.510505   2.523397   3.755242   4.289328
     8  N    3.629372   2.483070   3.015506   4.286102   5.038430
     9  C    4.791475   3.694845   4.289908   5.612162   6.385069
    10  C    4.907925   3.775380   4.293780   5.615014   6.426811
    11  C    3.613346   2.566194   3.192978   4.432304   5.114007
    12  O    5.323949   4.714520   3.352533   2.635865   3.588517
    13  O    5.706296   4.716265   3.586909   3.731201   4.893589
    14  O    5.169991   3.815428   3.149068   4.130444   5.381238
    15  H    5.695808   4.528637   4.901053   6.197362   7.085581
    16  H    5.561014   4.585392   5.254246   6.554923   7.269400
    17  H    5.589026   4.332083   4.527042   5.812771   6.788104
    18  H    3.752503   3.049652   3.859540   4.960983   5.432671
    19  H    3.800659   2.651941   2.799425   3.949358   4.792921
    20  H    4.993061   4.135838   4.984986   6.269486   6.869685
    21  H    2.588609   2.124349   3.403115   4.493891   4.754834
    22  H    3.397386   2.187653   1.090353   2.067067   3.307645
    23  H    3.405007   3.863350   3.307595   2.072279   1.087111
    24  H    2.170528   3.420537   3.838768   3.336011   2.141480
    25  H    1.090376   2.153490   3.374112   3.803788   3.378720
    26  C    3.844965   3.053007   3.626379   4.668462   5.227616
    27  H    3.770042   3.307878   2.043956   1.057695   2.087716
    28  H    4.565730   3.210882   2.884800   4.046657   5.170201
    29  H    5.925952   4.538870   3.970535   4.991468   6.251414
    30  H    5.506658   4.726114   3.379783   2.987317   4.082398
    31  H    6.065584   5.422768   4.043805   3.369700   4.298741
    32  H    6.529006   5.555373   4.496324   4.630356   5.731224
    33  H    5.526344   4.372187   3.354072   3.837410   5.083990
    34  O    7.380040   5.988618   5.594263   6.670958   7.913941
    35  H    8.110024   6.722328   6.363199   7.443491   8.686297
    36  H    7.872970   6.493189   6.014227   7.015828   8.277117
    37  H    3.387013   2.758599   3.150763   3.961426   4.432918
    38  H    3.948332   3.459007   4.337029   5.339234   5.684039
    39  H    4.900190   4.032895   4.385525   5.403344   6.076931
    40  O    8.079250   7.159676   6.217059   6.335002   7.326968
    41  H    8.017557   7.173907   6.369819   6.519527   7.411081
    42  H    8.831734   7.967836   6.962883   6.944293   7.888024
                    6          7          8          9         10
     6  C    0.000000
     7  C    3.825423   0.000000
     8  N    4.788448   1.466881   0.000000
     9  C    6.056310   2.309778   1.469440   0.000000
    10  C    6.144579   2.437397   2.369231   1.534038   0.000000
    11  C    4.790646   1.540966   2.359137   2.436016   1.547853
    12  O    4.875884   5.791990   5.836689   7.051609   7.053478
    13  O    5.794491   5.247534   4.624937   5.695389   6.101869
    14  O    5.839124   3.602477   2.819884   3.426233   3.607442
    15  H    6.890430   3.277259   2.113639   1.096713   2.214419
    16  H    6.853827   3.185894   3.270554   2.183437   1.094543
    17  H    6.711741   3.199561   2.921130   2.174945   1.095009
    18  H    4.927299   2.186973   3.283045   3.232178   2.221261
    19  H    4.745588   2.176257   2.865755   3.156429   2.192120
    20  H    6.335197   2.690865   2.122019   1.105830   2.188734
    21  H    3.981719   1.108271   2.112334   2.639613   2.907982
    22  H    3.838893   2.787848   2.882468   4.011979   3.962081
    23  H    2.182802   5.372691   6.073049   7.438464   7.472259
    24  H    1.087294   4.710587   5.717169   6.945844   7.052056
    25  H    2.153938   2.752981   3.906595   4.871528   5.033308
    26  C    4.893249   2.452715   1.456562   2.445258   3.707234
    27  H    3.317825   4.566928   4.900623   6.194203   6.171634
    28  H    5.405402   2.773973   1.843520   2.546916   2.953118
    29  H    6.673447   4.094499   3.273498   3.471922   3.476160
    30  H    5.255055   5.624767   5.426511   6.601464   6.732982
    31  H    5.606160   6.444408   6.515746   7.637698   7.498615
    32  H    6.618311   5.997711   5.212816   6.204293   6.734839
    33  H    5.837276   4.656070   3.930178   4.865548   5.233288
    34  O    8.249092   5.240241   4.456685   4.033779   3.717985
    35  H    9.006956   5.904450   4.958793   4.417517   4.313258
    36  H    8.680572   5.825709   5.210602   4.804947   4.244032
    37  H    4.199699   2.747964   2.104669   3.391895   4.465338
    38  H    5.090335   2.731403   2.131652   2.744268   4.018791
    39  H    5.875940   3.387851   2.093024   2.691455   4.113175
    40  O    8.167244   7.489320   6.504869   7.371794   8.102416
    41  H    8.138406   7.468643   6.423973   7.309733   8.200462
    42  H    8.808481   8.383499   7.445273   8.335356   9.035277
                   11         12         13         14         15
    11  C    0.000000
    12  O    6.200198   0.000000
    13  O    5.788546   2.640697   0.000000
    14  O    3.680544   4.289395   2.675797   0.000000
    15  H    3.354018   7.293403   5.592745   3.292444   0.000000
    16  H    2.207390   8.097752   7.194900   4.674647   2.801868
    17  H    2.189721   6.863586   5.825298   3.188988   2.396354
    18  H    1.095111   6.923314   6.777488   4.753847   4.217063
    19  H    1.096777   5.444085   5.269099   3.263564   3.882290
    20  H    2.987800   7.931960   6.612532   4.488413   1.780405
    21  H    2.172396   6.728779   6.213048   4.640854   3.687589
    22  H    3.143267   3.137647   2.918829   2.155656   4.434520
    23  H    6.155430   3.572627   5.291227   6.172014   8.099914
    24  H    5.682740   5.722773   6.770899   6.916824   7.815989
    25  H    3.825230   6.409934   6.647865   5.899715   5.852397
    26  C    3.708716   6.208648   4.786148   3.643215   2.795720
    27  H    5.101996   1.595543   3.209031   4.110709   6.645782
    28  H    3.053103   4.757393   3.221991   0.983957   2.552805
    29  H    3.863760   5.034611   3.416639   0.971362   3.156846
    30  H    6.070860   0.986741   1.683278   3.641312   6.715761
    31  H    6.665855   0.959408   3.191598   4.712936   7.848428
    32  H    6.571100   3.356308   0.958766   3.233993   5.957015
    33  H    5.064884   3.196465   0.982008   1.718914   4.714006
    34  O    4.582977   6.668897   5.124034   2.807001   3.500783
    35  H    5.343907   7.350397   5.560955   3.412303   3.678762
    36  H    4.991976   6.852065   5.565099   3.405985   4.372326
    37  H    4.151527   5.503717   4.268070   3.744355   3.759549
    38  H    4.023747   7.134517   5.859179   4.681088   3.239866
    39  H    4.438799   6.568398   4.739085   3.640875   2.593502
    40  O    8.139649   4.964949   2.781871   4.689873   6.928915
    41  H    8.265050   5.458336   3.228553   4.997741   6.862656
    42  H    9.029518   5.314240   3.471067   5.566923   7.896315
                   16         17         18         19         20
    16  H    0.000000
    17  H    1.768620   0.000000
    18  H    2.393913   2.936767   0.000000
    19  H    2.959324   2.326000   1.767969   0.000000
    20  H    2.373664   3.038466   3.502322   3.914014   0.000000
    21  H    3.343421   3.873950   2.374694   3.045841   2.545750
    22  H    5.004221   3.949051   4.001134   2.564462   4.889051
    23  H    8.326664   7.779462   6.454635   5.758571   7.942102
    24  H    7.682210   7.685605   5.684463   5.708102   7.110659
    25  H    5.508127   5.870399   3.752984   4.267470   4.832525
    26  C    4.471836   4.289238   4.504385   4.245623   2.628257
    27  H    7.163668   6.198251   5.711067   4.462504   6.959167
    28  H    4.030369   2.800553   4.144776   2.906095   3.569175
    29  H    4.456799   2.803555   4.912468   3.445565   4.567140
    30  H    7.809465   6.487427   6.909548   5.368997   7.514282
    31  H    8.522740   7.200783   7.358682   5.803684   8.569360
    32  H    7.816204   6.417174   7.593230   6.102566   7.099523
    33  H    6.319539   4.898430   6.097313   4.571578   5.834862
    34  O    4.376574   2.718167   5.480878   4.247214   5.036852
    35  H    4.882441   3.376840   6.246609   5.116457   5.337898
    36  H    4.822196   3.169069   5.798867   4.511137   5.805172
    37  H    5.312374   4.986094   4.931339   4.509602   3.661865
    38  H    4.563667   4.795262   4.610215   4.764023   2.459749
    39  H    4.867350   4.519964   5.317164   4.914792   2.921686
    40  O    9.145296   7.764728   9.194377   7.768424   8.186013
    41  H    9.221338   7.969364   9.313245   8.012677   8.024143
    42  H   10.084784   8.673225  10.073543   8.610019   9.153451
                   21         22         23         24         25
    21  H    0.000000
    22  H    3.836954   0.000000
    23  H    5.833959   4.139234   0.000000
    24  H    4.676568   4.925265   2.529398   0.000000
    25  H    2.336329   4.317591   4.317797   2.499528   0.000000
    26  C    2.656296   3.684493   6.197816   5.700781   4.013852
    27  H    5.406980   2.294066   2.366933   4.217234   4.860242
    28  H    3.752510   2.120207   6.067529   6.457835   5.179725
    29  H    5.100726   2.959026   7.050867   7.753281   6.590109
    30  H    6.598095   2.942260   4.230863   6.168707   6.562481
    31  H    7.420859   3.720371   4.199651   6.432953   7.153382
    32  H    6.927561   3.832309   6.073094   7.562668   7.434617
    33  H    5.660533   2.496034   5.646159   6.871438   6.407512
    34  O    6.126931   4.616354   8.738564   9.317825   7.919674
    35  H    6.729380   5.388238   9.510481  10.072106   8.613421
    36  H    6.740190   5.016297   9.055241   9.750507   8.448859
    37  H    3.038687   3.374941   5.330140   4.993155   3.728465
    38  H    2.460618   4.567309   6.669863   5.748756   3.812899
    39  H    3.657259   4.230262   6.993549   6.697906   5.105850
    40  O    8.335522   5.592918   7.595333   9.046534   8.915410
    41  H    8.220482   5.851151   7.708850   8.969068   8.781941
    42  H    9.235801   6.365747   8.041654   9.648881   9.698469
                   26         27         28         29         30
    26  C    0.000000
    27  H    5.298195   0.000000
    28  H    2.734143   4.269911   0.000000
    29  H    4.220785   4.949676   1.571099   0.000000
    30  H    5.739287   2.099711   4.180998   4.385824   0.000000
    31  H    7.009304   2.328296   5.302257   5.331416   1.572923
    32  H    5.218803   4.090859   3.794085   3.846166   2.379484
    33  H    4.276607   3.488932   2.348753   2.443677   2.324890
    34  O    5.509195   6.640867   3.168275   1.841126   6.052742
    35  H    5.855360   7.398620   3.735216   2.474672   6.655844
    36  H    6.346717   6.912247   3.884086   2.469511   6.305429
    37  H    1.097122   4.576065   2.978059   4.507863   5.084060
    38  H    1.105722   6.089696   3.734202   5.198143   6.735171
    39  H    1.095954   5.885757   2.836924   4.106109   5.956947
    40  O    6.247275   5.806548   5.186139   5.130440   4.033909
    41  H    5.954996   6.111394   5.328015   5.493801   4.552478
    42  H    7.173785   6.324082   6.108894   5.991020   4.450762
                   31         32         33         34         35
    31  H    0.000000
    32  H    3.824154   0.000000
    33  H    3.688158   1.566716   0.000000
    34  O    6.813095   5.419631   4.177452   0.000000
    35  H    7.508593   5.708388   4.634419   0.961312   0.000000
    36  H    6.866533   5.887492   4.668892   0.961258   1.527788
    37  H    6.369797   4.726832   3.962861   6.035304   6.440500
    38  H    7.955307   6.291576   5.375204   6.335666   6.657274
    39  H    7.343965   4.986078   4.197821   5.282383   5.459483
    40  O    5.359107   1.828669   3.234704   6.439426   6.477541
    41  H    5.974282   2.362249   3.642724   6.841298   6.839261
    42  H    5.616440   2.540498   4.043116   7.250124   7.274531
                   36         37         38         39         40
    36  H    0.000000
    37  H    6.824830   0.000000
    38  H    7.173150   1.791858   0.000000
    39  H    6.188899   1.773477   1.786948   0.000000
    40  O    6.948637   5.800064   7.260168   5.751031   0.000000
    41  H    7.447951   5.487025   6.896716   5.392323   0.972156
    42  H    7.694501   6.672155   8.174884   6.692849   0.971648
                   41         42
    41  H    0.000000
    42  H    1.522114   0.000000
 Stoichiometry    C10H25N2O5(1+)
 Framework group  C1[X(C10H25N2O5)]
 Deg. of freedom   120
 Full point group                 C1      NOp   1
 Largest Abelian subgroup         C1      NOp   1
 Largest concise Abelian subgroup C1      NOp   1
                         Standard orientation:                         
 ---------------------------------------------------------------------
 Center     Atomic      Atomic             Coordinates (Angstroms)
 Number     Number       Type             X           Y           Z
 ---------------------------------------------------------------------
      1          6           0        1.771345    2.703592    0.465855
      2          6           0        1.333495    1.433461    0.086609
      3          6           0        0.077580    1.342488   -0.505097
      4          7           0       -0.670913    2.438045   -0.686422
      5          6           0       -0.266997    3.667179   -0.328365
      6          6           0        0.974990    3.830602    0.253539
      7          6           0        2.181404    0.200611    0.293385
      8          7           0        1.469051   -0.874701    0.991954
      9          6           0        2.353046   -2.038045    0.835636
     10          6           0        2.810633   -1.966915   -0.626837
     11          6           0        2.654099   -0.475019   -1.008406
     12          8           0       -3.099072    1.788023   -1.479704
     13          8           0       -3.032195   -0.350790    0.067645
     14          8           0       -0.783569   -1.686537   -0.497466
     15          1           0        1.810250   -2.958686    1.081751
     16          1           0        3.842414   -2.315309   -0.736721
     17          1           0        2.176277   -2.597258   -1.258742
     18          1           0        3.582675   -0.021590   -1.370921
     19          1           0        1.897569   -0.350594   -1.792689
     20          1           0        3.214535   -1.957693    1.524288
     21          1           0        3.067163    0.502613    0.887093
     22          1           0       -0.359970    0.399925   -0.835240
     23          1           0       -0.960603    4.482908   -0.516267
     24          1           0        1.309370    4.822852    0.546520
     25          1           0        2.747488    2.816399    0.938444
     26          6           0        1.151857   -0.572389    2.381043
     27          1           0       -1.632683    2.289993   -1.100907
     28          1           0       -0.014818   -1.480606    0.081141
     29          1           0       -0.604963   -2.548014   -0.909172
     30          1           0       -3.246452    0.952491   -0.975895
     31          1           0       -3.508627    1.687693   -2.341483
     32          1           0       -3.723514   -0.821961    0.535948
     33          1           0       -2.303311   -0.985828   -0.104967
     34          8           0       -0.032464   -4.131412   -1.654049
     35          1           0       -0.224128   -4.972175   -1.229192
     36          1           0       -0.143862   -4.292548   -2.595135
     37          1           0        0.462303    0.279196    2.435772
     38          1           0        2.058410   -0.336672    2.968597
     39          1           0        0.656799   -1.437295    2.837078
     40          8           0       -4.963238   -1.605524    1.628260
     41          1           0       -4.728353   -1.495009    2.565117
     42          1           0       -5.925342   -1.469705    1.625220
 ---------------------------------------------------------------------
 Rotational constants (GHZ):           0.3285007           0.3118483           0.1991883
 Standard basis: Aug-CC-pVDZ (5D, 7F)
 There are   650 symmetry adapted cartesian basis functions of A   symmetry.
 There are   616 symmetry adapted basis functions of A   symmetry.
   616 basis functions,  1006 primitive gaussians,   650 cartesian basis functions
    69 alpha electrons       69 beta electrons
       nuclear repulsion energy      1360.0624270961 Hartrees.
 NAtoms=   42 NActive=   42 NUniq=   42 SFac= 1.00D+00 NAtFMM=   60 NAOKFM=F Big=F
 Integral buffers will be    131072 words long.
 Raffenetti 2 integral format.
 Two-electron integral symmetry is turned on.
 Nuclear repulsion after empirical dispersion term =     1360.0308764951 Hartrees.
 One-electron integrals computed using PRISM.
 NBasis=   616 RedAO= T EigKep=  1.86D-06  NBF=   616
 NBsUse=   616 1.00D-06 EigRej= -1.00D+00 NBFU=   616
 ExpMin= 2.97D-02 ExpMax= 1.17D+04 ExpMxC= 4.01D+02 IAcc=3 IRadAn=         5 AccDes= 0.00D+00
 Harris functional with IExCor= 4639 and IRadAn=       5 diagonalized for initial guess.
 HarFok:  IExCor= 4639 AccDes= 0.00D+00 IRadAn=         5 IDoV= 1 UseB2=F ITyADJ=14
 ICtDFT=  3500011 ScaDFX=  1.000000  1.000000  1.000000  1.000000
 FoFCou: FMM=F IPFlag=           0 FMFlag=      100000 FMFlg1=           0
         NFxFlg=           0 DoJE=T BraDBF=F KetDBF=T FulRan=T
         wScrn=  0.000000 ICntrl=       500 IOpCl=  0 I1Cent=   200000004 NGrid=           0
         NMat0=    1 NMatS0=      1 NMatT0=    0 NMatD0=    1 NMtDS0=    0 NMtDT0=    0
 Petite list used in FoFCou.
 Requested convergence on RMS density matrix=1.00D-08 within 128 cycles.
 Requested convergence on MAX density matrix=1.00D-06.
 Requested convergence on             energy=1.00D-06.
 No special actions if energy rises.
 SCF Done:  E(RwB97XD) =  -881.465595425     A.U. after   16 cycles
            NFock= 16  Conv=0.14D-08     -V/T= 2.0062

 **********************************************************************

            Population analysis using the SCF density.

 **********************************************************************

 Orbital symmetries:
       Occupied  (A) (A) (A) (A) (A) (A) (A) (A) (A) (A) (A) (A)
                 (A) (A) (A) (A) (A) (A) (A) (A) (A) (A) (A) (A)
                 (A) (A) (A) (A) (A) (A) (A) (A) (A) (A) (A) (A)
                 (A) (A) (A) (A) (A) (A) (A) (A) (A) (A) (A) (A)
                 (A) (A) (A) (A) (A) (A) (A) (A) (A) (A) (A) (A)
                 (A) (A) (A) (A) (A) (A) (A) (A) (A)
       Virtual   (A) (A) (A) (A) (A) (A) (A) (A) (A) (A) (A) (A)
                 (A) (A) (A) (A) (A) (A) (A) (A) (A) (A) (A) (A)
                 (A) (A) (A) (A) (A) (A) (A) (A) (A) (A) (A) (A)
                 (A) (A) (A) (A) (A) (A) (A) (A) (A) (A) (A) (A)
                 (A) (A) (A) (A) (A) (A) (A) (A) (A) (A) (A) (A)
                 (A) (A) (A) (A) (A) (A) (A) (A) (A) (A) (A) (A)
                 (A) (A) (A) (A) (A) (A) (A) (A) (A) (A) (A) (A)
                 (A) (A) (A) (A) (A) (A) (A) (A) (A) (A) (A) (A)
                 (A) (A) (A) (A) (A) (A) (A) (A) (A) (A) (A) (A)
                 (A) (A) (A) (A) (A) (A) (A) (A) (A) (A) (A) (A)
                 (A) (A) (A) (A) (A) (A) (A) (A) (A) (A) (A) (A)
                 (A) (A) (A) (A) (A) (A) (A) (A) (A) (A) (A) (A)
                 (A) (A) (A) (A) (A) (A) (A) (A) (A) (A) (A) (A)
                 (A) (A) (A) (A) (A) (A) (A) (A) (A) (A) (A) (A)
                 (A) (A) (A) (A) (A) (A) (A) (A) (A) (A) (A) (A)
                 (A) (A) (A) (A) (A) (A) (A) (A) (A) (A) (A) (A)
                 (A) (A) (A) (A) (A) (A) (A) (A) (A) (A) (A) (A)
                 (A) (A) (A) (A) (A) (A) (A) (A) (A) (A) (A) (A)
                 (A) (A) (A) (A) (A) (A) (A) (A) (A) (A) (A) (A)
                 (A) (A) (A) (A) (A) (A) (A) (A) (A) (A) (A) (A)
                 (A) (A) (A) (A) (A) (A) (A) (A) (A) (A) (A) (A)
                 (A) (A) (A) (A) (A) (A) (A) (A) (A) (A) (A) (A)
                 (A) (A) (A) (A) (A) (A) (A) (A) (A) (A) (A) (A)
                 (A) (A) (A) (A) (A) (A) (A) (A) (A) (A) (A) (A)
                 (A) (A) (A) (A) (A) (A) (A) (A) (A) (A) (A) (A)
                 (A) (A) (A) (A) (A) (A) (A) (A) (A) (A) (A) (A)
                 (A) (A) (A) (A) (A) (A) (A) (A) (A) (A) (A) (A)
                 (A) (A) (A) (A) (A) (A) (A) (A) (A) (A) (A) (A)
                 (A) (A) (A) (A) (A) (A) (A) (A) (A) (A) (A) (A)
                 (A) (A) (A) (A) (A) (A) (A) (A) (A) (A) (A) (A)
                 (A) (A) (A) (A) (A) (A) (A) (A) (A) (A) (A) (A)
                 (A) (A) (A) (A) (A) (A) (A) (A) (A) (A) (A) (A)
                 (A) (A) (A) (A) (A) (A) (A) (A) (A) (A) (A) (A)
                 (A) (A) (A) (A) (A) (A) (A) (A) (A) (A) (A) (A)
                 (A) (A) (A) (A) (A) (A) (A) (A) (A) (A) (A) (A)
                 (A) (A) (A) (A) (A) (A) (A) (A) (A) (A) (A) (A)
                 (A) (A) (A) (A) (A) (A) (A) (A) (A) (A) (A) (A)
                 (A) (A) (A) (A) (A) (A) (A) (A) (A) (A) (A) (A)
                 (A) (A) (A) (A) (A) (A) (A) (A) (A) (A) (A) (A)
                 (A) (A) (A) (A) (A) (A) (A) (A) (A) (A) (A) (A)
                 (A) (A) (A) (A) (A) (A) (A) (A) (A) (A) (A) (A)
                 (A) (A) (A) (A) (A) (A) (A) (A) (A) (A) (A) (A)
                 (A) (A) (A) (A) (A) (A) (A) (A) (A) (A) (A) (A)
                 (A) (A) (A) (A) (A) (A) (A) (A) (A) (A) (A) (A)
                 (A) (A) (A) (A) (A) (A) (A) (A) (A) (A) (A) (A)
                 (A) (A) (A) (A) (A) (A) (A)
 The electronic state is 1-A.
 Alpha  occ. eigenvalues --  -19.39771 -19.38458 -19.37736 -19.35398 -19.33975
 Alpha  occ. eigenvalues --  -14.66541 -14.57017 -10.50196 -10.49493 -10.47035
 Alpha  occ. eigenvalues --  -10.46409 -10.46110 -10.45589 -10.42512 -10.42355
 Alpha  occ. eigenvalues --  -10.40738 -10.39575  -1.24911  -1.24063  -1.22305
 Alpha  occ. eigenvalues --   -1.22047  -1.20012  -1.18003  -1.16550  -1.07462
 Alpha  occ. eigenvalues --   -1.03817  -0.99681  -0.95083  -0.89741  -0.88862
 Alpha  occ. eigenvalues --   -0.87942  -0.81667  -0.78819  -0.78684  -0.74344
 Alpha  occ. eigenvalues --   -0.73982  -0.73726  -0.72745  -0.72065  -0.71792
 Alpha  occ. eigenvalues --   -0.70980  -0.69997  -0.68751  -0.67802  -0.67044
 Alpha  occ. eigenvalues --   -0.64811  -0.63731  -0.62974  -0.61875  -0.61394
 Alpha  occ. eigenvalues --   -0.60869  -0.60120  -0.58418  -0.57535  -0.56557
 Alpha  occ. eigenvalues --   -0.56354  -0.55663  -0.54884  -0.53959  -0.53118
 Alpha  occ. eigenvalues --   -0.52661  -0.52503  -0.51535  -0.51022  -0.50989
 Alpha  occ. eigenvalues --   -0.49402  -0.48536  -0.48007  -0.43274
 Alpha virt. eigenvalues --   -0.13024  -0.10185  -0.05814  -0.05209  -0.04526
 Alpha virt. eigenvalues --   -0.04388  -0.03508  -0.02946  -0.02619  -0.02513
 Alpha virt. eigenvalues --   -0.01886  -0.01260  -0.00942  -0.00651  -0.00227
 Alpha virt. eigenvalues --    0.00036   0.00413   0.00698   0.01403   0.01646
 Alpha virt. eigenvalues --    0.01980   0.02484   0.02630   0.02758   0.03125
 Alpha virt. eigenvalues --    0.03549   0.03703   0.03871   0.04142   0.04409
 Alpha virt. eigenvalues --    0.04544   0.05396   0.05564   0.05735   0.05924
 Alpha virt. eigenvalues --    0.06161   0.06429   0.06797   0.07118   0.07169
 Alpha virt. eigenvalues --    0.07608   0.07932   0.08009   0.08416   0.08543
 Alpha virt. eigenvalues --    0.08920   0.09337   0.09531   0.09912   0.10135
 Alpha virt. eigenvalues --    0.10683   0.10823   0.10990   0.11369   0.11843
 Alpha virt. eigenvalues --    0.11989   0.12425   0.12615   0.12781   0.13107
 Alpha virt. eigenvalues --    0.13322   0.13653   0.13974   0.14154   0.14370
 Alpha virt. eigenvalues --    0.14728   0.15331   0.15416   0.15656   0.15907
 Alpha virt. eigenvalues --    0.16152   0.16400   0.16607   0.16770   0.17127
 Alpha virt. eigenvalues --    0.17196   0.17860   0.18025   0.18328   0.18417
 Alpha virt. eigenvalues --    0.18673   0.18914   0.19137   0.19823   0.19905
 Alpha virt. eigenvalues --    0.20190   0.20286   0.20562   0.20877   0.21170
 Alpha virt. eigenvalues --    0.21430   0.21650   0.22065   0.22637   0.22788
 Alpha virt. eigenvalues --    0.22972   0.23647   0.23675   0.24027   0.24400
 Alpha virt. eigenvalues --    0.24761   0.25066   0.25269   0.25465   0.26165
 Alpha virt. eigenvalues --    0.26315   0.26626   0.26686   0.27037   0.27181
 Alpha virt. eigenvalues --    0.27589   0.27664   0.28035   0.28409   0.28803
 Alpha virt. eigenvalues --    0.28976   0.29720   0.30248   0.30349   0.31359
 Alpha virt. eigenvalues --    0.31673   0.32112   0.32137   0.32519   0.32687
 Alpha virt. eigenvalues --    0.32820   0.33636   0.33739   0.33981   0.34605
 Alpha virt. eigenvalues --    0.34805   0.34983   0.35552   0.35673   0.36051
 Alpha virt. eigenvalues --    0.36957   0.37029   0.37313   0.37681   0.37841
 Alpha virt. eigenvalues --    0.38695   0.38909   0.39473   0.39789   0.40634
 Alpha virt. eigenvalues --    0.40748   0.41044   0.41333   0.41654   0.42119
 Alpha virt. eigenvalues --    0.42679   0.42854   0.43192   0.43805   0.44038
 Alpha virt. eigenvalues --    0.44609   0.44963   0.45405   0.45571   0.45719
 Alpha virt. eigenvalues --    0.46206   0.46676   0.46981   0.47314   0.47631
 Alpha virt. eigenvalues --    0.47837   0.48181   0.48562   0.48909   0.49185
 Alpha virt. eigenvalues --    0.49949   0.50263   0.50407   0.50966   0.51313
 Alpha virt. eigenvalues --    0.51647   0.51833   0.52298   0.52423   0.52514
 Alpha virt. eigenvalues --    0.53185   0.53380   0.53485   0.53737   0.54189
 Alpha virt. eigenvalues --    0.54477   0.54772   0.55355   0.55547   0.55730
 Alpha virt. eigenvalues --    0.56222   0.56525   0.57223   0.57393   0.58040
 Alpha virt. eigenvalues --    0.58082   0.58842   0.59269   0.59417   0.59491
 Alpha virt. eigenvalues --    0.60496   0.61106   0.61316   0.61525   0.61899
 Alpha virt. eigenvalues --    0.62446   0.62982   0.63198   0.63689   0.64134
 Alpha virt. eigenvalues --    0.64235   0.64686   0.65257   0.66003   0.66449
 Alpha virt. eigenvalues --    0.67508   0.67697   0.67739   0.68530   0.69006
 Alpha virt. eigenvalues --    0.69216   0.69342   0.70006   0.70295   0.70848
 Alpha virt. eigenvalues --    0.71296   0.71493   0.71826   0.72097   0.73030
 Alpha virt. eigenvalues --    0.73662   0.74320   0.74386   0.74788   0.74959
 Alpha virt. eigenvalues --    0.75196   0.75720   0.76372   0.76840   0.77253
 Alpha virt. eigenvalues --    0.77743   0.78296   0.78684   0.79409   0.79949
 Alpha virt. eigenvalues --    0.80394   0.80761   0.81291   0.81729   0.82167
 Alpha virt. eigenvalues --    0.82822   0.83545   0.84582   0.84984   0.85578
 Alpha virt. eigenvalues --    0.86067   0.86264   0.86295   0.87933   0.88154
 Alpha virt. eigenvalues --    0.88863   0.89557   0.90316   0.90492   0.90865
 Alpha virt. eigenvalues --    0.92002   0.92710   0.93572   0.93921   0.94553
 Alpha virt. eigenvalues --    0.95488   0.95786   0.95966   0.96636   0.97267
 Alpha virt. eigenvalues --    0.97881   0.98419   0.99594   0.99852   1.00679
 Alpha virt. eigenvalues --    1.01687   1.02669   1.03461   1.03751   1.04508
 Alpha virt. eigenvalues --    1.05121   1.06002   1.06500   1.06785   1.07487
 Alpha virt. eigenvalues --    1.08361   1.10100   1.10285   1.10772   1.11328
 Alpha virt. eigenvalues --    1.12364   1.13009   1.13383   1.14044   1.14603
 Alpha virt. eigenvalues --    1.15192   1.16294   1.16702   1.17406   1.18818
 Alpha virt. eigenvalues --    1.19207   1.19611   1.20132   1.21661   1.21922
 Alpha virt. eigenvalues --    1.22411   1.23027   1.24471   1.25115   1.25740
 Alpha virt. eigenvalues --    1.26784   1.27763   1.28650   1.29328   1.30566
 Alpha virt. eigenvalues --    1.31221   1.32331   1.32797   1.33020   1.33344
 Alpha virt. eigenvalues --    1.34019   1.35050   1.36215   1.36620   1.37469
 Alpha virt. eigenvalues --    1.38085   1.38735   1.39403   1.39557   1.41403
 Alpha virt. eigenvalues --    1.41513   1.43311   1.43704   1.44916   1.46230
 Alpha virt. eigenvalues --    1.46701   1.47058   1.47325   1.47805   1.49713
 Alpha virt. eigenvalues --    1.51075   1.51776   1.52186   1.54005   1.54580
 Alpha virt. eigenvalues --    1.55005   1.55503   1.57020   1.57729   1.59351
 Alpha virt. eigenvalues --    1.60015   1.61067   1.62019   1.62616   1.63402
 Alpha virt. eigenvalues --    1.63772   1.64275   1.65522   1.66044   1.66993
 Alpha virt. eigenvalues --    1.67741   1.67919   1.68538   1.68863   1.70889
 Alpha virt. eigenvalues --    1.71714   1.71980   1.72488   1.73045   1.73945
 Alpha virt. eigenvalues --    1.74814   1.75282   1.76058   1.76945   1.78015
 Alpha virt. eigenvalues --    1.78595   1.78940   1.79992   1.80938   1.81050
 Alpha virt. eigenvalues --    1.81815   1.83287   1.83571   1.84052   1.84433
 Alpha virt. eigenvalues --    1.85546   1.86114   1.86380   1.87731   1.88381
 Alpha virt. eigenvalues --    1.89110   1.89910   1.90641   1.91405   1.91654
 Alpha virt. eigenvalues --    1.92255   1.93264   1.94110   1.94802   1.95642
 Alpha virt. eigenvalues --    1.96227   1.96413   1.97183   1.97696   1.98993
 Alpha virt. eigenvalues --    2.00219   2.01012   2.01563   2.02107   2.02725
 Alpha virt. eigenvalues --    2.03843   2.05100   2.05717   2.06565   2.06960
 Alpha virt. eigenvalues --    2.07701   2.08779   2.10670   2.11492   2.12002
 Alpha virt. eigenvalues --    2.12419   2.12807   2.13776   2.14071   2.14848
 Alpha virt. eigenvalues --    2.14981   2.16268   2.17487   2.18029   2.18707
 Alpha virt. eigenvalues --    2.19664   2.20511   2.21058   2.22829   2.23337
 Alpha virt. eigenvalues --    2.24874   2.25739   2.26125   2.27260   2.28036
 Alpha virt. eigenvalues --    2.28779   2.29650   2.30471   2.31311   2.31572
 Alpha virt. eigenvalues --    2.33004   2.33813   2.35613   2.37512   2.38483
 Alpha virt. eigenvalues --    2.38976   2.40074   2.40488   2.42597   2.43109
 Alpha virt. eigenvalues --    2.43614   2.45426   2.46809   2.47281   2.48523
 Alpha virt. eigenvalues --    2.49134   2.50428   2.51389   2.52620   2.53164
 Alpha virt. eigenvalues --    2.54626   2.55614   2.56485   2.56959   2.58200
 Alpha virt. eigenvalues --    2.60161   2.61920   2.62142   2.63280   2.63725
 Alpha virt. eigenvalues --    2.65884   2.66388   2.67970   2.69106   2.70977
 Alpha virt. eigenvalues --    2.72387   2.73385   2.73978   2.74796   2.75731
 Alpha virt. eigenvalues --    2.77509   2.77859   2.79472   2.80238   2.81222
 Alpha virt. eigenvalues --    2.82770   2.84422   2.84661   2.87460   2.87860
 Alpha virt. eigenvalues --    2.89773   2.90542   2.92168   2.93451   2.94284
 Alpha virt. eigenvalues --    2.97748   2.98254   3.02329   3.06086   3.08019
 Alpha virt. eigenvalues --    3.10962   3.13630   3.18006   3.21416   3.24393
 Alpha virt. eigenvalues --    3.30709   3.31993   3.32986   3.34874   3.41103
 Alpha virt. eigenvalues --    3.42389   3.43732   3.43955   3.45907   3.46644
 Alpha virt. eigenvalues --    3.47098   3.48433   3.50372   3.55634   3.58253
 Alpha virt. eigenvalues --    3.58451   3.60915   3.65134   3.66842   3.69707
 Alpha virt. eigenvalues --    3.72634   3.78218   3.83111   3.90745   3.92260
 Alpha virt. eigenvalues --    4.01929   4.03630   4.06922   4.15202   4.18473
 Alpha virt. eigenvalues --    4.38272   5.07793
          Condensed to atoms (all electrons):
               1          2          3          4          5          6
     1  C   24.021496  -9.978199  -2.770964  -0.261526   1.666003  -4.566416
     2  C   -9.978199  25.041348  -3.210017  -0.368972  -0.621542   0.508435
     3  C   -2.770964  -3.210017  17.065598  -1.367225  -1.827144   0.552513
     4  N   -0.261526  -0.368972  -1.367225   7.903497   0.315644   0.017835
     5  C    1.666003  -0.621542  -1.827144   0.315644   9.957778  -2.417108
     6  C   -4.566416   0.508435   0.552513   0.017835  -2.417108  11.680234
     7  C   -0.417161 -10.288578  -2.441602   1.105276  -0.657293   0.190618
     8  N   -0.395144   2.210562   0.634128  -0.143142   0.113449  -0.217563
     9  C   -0.023589  -0.412698  -0.264278   0.049183  -0.007981  -0.058321
    10  C    0.044929   0.320797  -0.110592   0.048956   0.006368  -0.014218
    11  C   -0.400179   0.273702  -0.793069   0.005296  -0.076997   0.034396
    12  O    0.034628  -0.087113   0.015870  -0.147227   0.034401  -0.018214
    13  O   -0.008421   0.015609  -0.024683  -0.007459   0.010184  -0.004856
    14  O   -0.006992  -0.002617  -0.096859  -0.001266  -0.014791   0.009757
    15  H    0.024959  -0.201565  -0.030159   0.004825   0.001490  -0.003152
    16  H    0.006693   0.001440   0.021038  -0.002469   0.001201  -0.000821
    17  H    0.004159  -0.086498  -0.049834   0.011298  -0.001145  -0.001774
    18  H   -0.075811   0.467154   0.271061  -0.014188   0.003454  -0.003182
    19  H    0.058553   0.021835  -0.135418   0.000907   0.011711  -0.016199
    20  H    0.009806   0.163686   0.026322  -0.001734  -0.001808   0.001812
    21  H    0.005745   1.159085  -0.243354  -0.000330   0.039530  -0.007723
    22  H   -0.173693  -0.961219  -1.095521   0.172864  -0.203678   0.122793
    23  H    0.249044  -0.125368   0.214357  -0.113148  -0.510415   0.080980
    24  H    0.612339  -0.023569  -0.186405  -0.006411   0.368650  -1.103534
    25  H   -2.666588   1.329707   0.321169  -0.089214  -0.231717   0.769983
    26  C   -0.225337   0.683234   0.118366  -0.070711  -0.009120   0.041072
    27  H   -0.022469  -0.432135   0.751045  -0.080412  -0.632786  -0.016674
    28  H    0.009180  -0.162622  -0.024294   0.004938  -0.012349   0.014838
    29  H    0.007032  -0.006162  -0.005030  -0.001480  -0.001027  -0.000081
    30  H    0.005153   0.000839  -0.033312   0.012813  -0.003127  -0.000130
    31  H   -0.001141   0.000420   0.017292  -0.013666  -0.012424   0.004102
    32  H   -0.003411   0.006653  -0.008217   0.007087  -0.001439   0.001728
    33  H   -0.009007   0.011667   0.016246   0.000418   0.010281  -0.004590
    34  O   -0.000305  -0.004226   0.005222  -0.000103   0.000217  -0.000220
    35  H   -0.000135   0.001056   0.000217  -0.000157   0.000007   0.000004
    36  H    0.000081  -0.000985   0.001147   0.000046   0.000089  -0.000060
    37  H   -0.051554   0.038298   0.118339  -0.004171  -0.041175   0.068374
    38  H    0.014533   0.095608   0.003586  -0.003972   0.015652  -0.024084
    39  H   -0.006263   0.016745  -0.048285  -0.002936  -0.003040   0.010374
    40  O    0.000175   0.000856  -0.000792   0.000393   0.000198  -0.000048
    41  H    0.000116  -0.000444  -0.000379   0.000164   0.000117  -0.000142
    42  H    0.000058   0.000146  -0.000060   0.000015  -0.000033   0.000021
               7          8          9         10         11         12
     1  C   -0.417161  -0.395144  -0.023589   0.044929  -0.400179   0.034628
     2  C  -10.288578   2.210562  -0.412698   0.320797   0.273702  -0.087113
     3  C   -2.441602   0.634128  -0.264278  -0.110592  -0.793069   0.015870
     4  N    1.105276  -0.143142   0.049183   0.048956   0.005296  -0.147227
     5  C   -0.657293   0.113449  -0.007981   0.006368  -0.076997   0.034401
     6  C    0.190618  -0.217563  -0.058321  -0.014218   0.034396  -0.018214
     7  C   28.856022  -6.733867  -0.720405   0.545763  -1.768854   0.009531
     8  N   -6.733867  14.990972   0.179153  -0.969519  -0.483091   0.001318
     9  C   -0.720405   0.179153   6.387640  -0.694734   1.166507   0.000061
    10  C    0.545763  -0.969519  -0.694734   7.989748  -1.815840  -0.001169
    11  C   -1.768854  -0.483091   1.166507  -1.815840   8.933199  -0.001431
    12  O    0.009531   0.001318   0.000061  -0.001169  -0.001431   7.978970
    13  O    0.005368  -0.001729   0.003552  -0.000272  -0.003280  -0.064877
    14  O   -0.022754  -0.038702   0.049661  -0.038447   0.030268   0.004655
    15  H    0.757860  -1.025702  -0.367618   0.195407   0.032688   0.000018
    16  H    0.013482  -0.206947   0.206841  -0.464679   0.286548  -0.000061
    17  H    0.101893   0.246297   0.100337  -0.612926   0.318047  -0.000370
    18  H   -0.081990   0.451238  -0.241024   0.176655  -1.108473   0.000157
    19  H   -0.166985  -0.118154   0.037257   0.328821  -0.190312   0.000745
    20  H   -0.011133  -0.233720  -0.285429   0.102226  -0.010878  -0.000001
    21  H   -2.784247  -0.333493  -0.022911  -0.012401   0.695435   0.000169
    22  H    0.401280  -0.221950  -0.016657   0.083604  -0.034196   0.009447
    23  H   -0.031897   0.006370  -0.001201   0.000875   0.003427   0.013899
    24  H    0.093417  -0.001503   0.000556   0.000479  -0.003557  -0.000375
    25  H   -0.325863   0.038943  -0.009156  -0.014741  -0.006232   0.000321
    26  C   -1.399990   1.298238  -0.198337  -0.227725  -0.100824   0.000877
    27  H   -0.034792   0.001899  -0.003607  -0.005590  -0.025656   0.005869
    28  H    0.527375  -0.275942  -0.149924   0.096573  -0.064643  -0.000317
    29  H    0.021619  -0.037404   0.008721   0.001078   0.018953   0.003930
    30  H    0.018683  -0.003157  -0.000048  -0.000520   0.000053   0.296161
    31  H   -0.003011   0.000615   0.000153   0.000028   0.000852   0.376019
    32  H   -0.005898   0.006472  -0.002138   0.001187  -0.002974   0.006741
    33  H    0.008074  -0.026645   0.013317   0.001038   0.014487  -0.017224
    34  O   -0.007400   0.020875   0.019357  -0.068768   0.018964  -0.000165
    35  H    0.000972  -0.001337  -0.006932   0.007708  -0.002760  -0.000046
    36  H   -0.000525   0.000517   0.006181  -0.007991   0.002444  -0.000005
    37  H   -0.093985   0.134803  -0.077399  -0.072234   0.089555   0.000704
    38  H   -0.181585  -0.429101   0.089389   0.016679   0.039344   0.000025
    39  H    0.136272  -0.215488  -0.008043   0.080648  -0.080256  -0.000137
    40  O   -0.000155   0.000648   0.000166  -0.000030   0.000098  -0.001159
    41  H    0.000712  -0.000232   0.000147   0.000039  -0.000007  -0.000046
    42  H   -0.000102   0.000073   0.000009  -0.000020   0.000044   0.000041
              13         14         15         16         17         18
     1  C   -0.008421  -0.006992   0.024959   0.006693   0.004159  -0.075811
     2  C    0.015609  -0.002617  -0.201565   0.001440  -0.086498   0.467154
     3  C   -0.024683  -0.096859  -0.030159   0.021038  -0.049834   0.271061
     4  N   -0.007459  -0.001266   0.004825  -0.002469   0.011298  -0.014188
     5  C    0.010184  -0.014791   0.001490   0.001201  -0.001145   0.003454
     6  C   -0.004856   0.009757  -0.003152  -0.000821  -0.001774  -0.003182
     7  C    0.005368  -0.022754   0.757860   0.013482   0.101893  -0.081990
     8  N   -0.001729  -0.038702  -1.025702  -0.206947   0.246297   0.451238
     9  C    0.003552   0.049661  -0.367618   0.206841   0.100337  -0.241024
    10  C   -0.000272  -0.038447   0.195407  -0.464679  -0.612926   0.176655
    11  C   -0.003280   0.030268   0.032688   0.286548   0.318047  -1.108473
    12  O   -0.064877   0.004655   0.000018  -0.000061  -0.000370   0.000157
    13  O    7.893884  -0.039195  -0.000366  -0.000166   0.001261  -0.000004
    14  O   -0.039195   8.186190   0.012426  -0.005122   0.018213   0.004384
    15  H   -0.000366   0.012426   3.038113   0.159214  -0.361405  -0.044295
    16  H   -0.000166  -0.005122   0.159214   2.286456  -0.669941  -0.324972
    17  H    0.001261   0.018213  -0.361405  -0.669941   2.426969   0.203760
    18  H   -0.000004   0.004384  -0.044295  -0.324972   0.203760   2.691262
    19  H   -0.002298  -0.026062   0.050241   0.219978  -0.462720  -0.717750
    20  H    0.000120   0.006419  -0.676837  -0.265108   0.217474   0.057076
    21  H    0.000078  -0.007104   0.101871   0.074028  -0.071364  -0.344729
    22  H    0.018953   0.069282  -0.026812  -0.015738   0.047529   0.075426
    23  H    0.000373  -0.000442  -0.000084   0.000051   0.000133   0.000735
    24  H   -0.000050   0.000241   0.000142  -0.000026  -0.000016  -0.001551
    25  H   -0.000278  -0.000500  -0.003691   0.000785  -0.001241   0.013291
    26  C    0.002419   0.024410  -0.184339  -0.028641   0.031371   0.092799
    27  H   -0.008004  -0.005030  -0.000078   0.000015  -0.001540   0.000776
    28  H    0.000196   0.108499   0.085483   0.006994  -0.020780  -0.029834
    29  H    0.010529   0.330596   0.012536   0.003093  -0.005698   0.003800
    30  H    0.058290  -0.000466   0.000695   0.000050  -0.000343  -0.000267
    31  H   -0.005496  -0.000249  -0.000045   0.000003  -0.000032  -0.000059
    32  H    0.321436  -0.003698  -0.001501   0.000042   0.000021   0.000129
    33  H    0.285625   0.024964   0.001439  -0.000112   0.001324  -0.001478
    34  O   -0.000357  -0.080895   0.009069   0.009344  -0.029716  -0.000411
    35  H   -0.000176   0.005610  -0.005432  -0.000392   0.007312   0.000077
    36  H   -0.000123   0.002507   0.002251   0.000212   0.000260  -0.000294
    37  H   -0.003482   0.013398   0.008661   0.001155  -0.010331  -0.002548
    38  H   -0.000159  -0.005949   0.034172   0.006244  -0.003311   0.009461
    39  H    0.001095   0.006127  -0.026654  -0.005652   0.016749   0.003192
    40  O   -0.054283   0.000139   0.000186   0.000000  -0.000014   0.000008
    41  H    0.003454   0.000394   0.000159   0.000003  -0.000000   0.000001
    42  H    0.003608  -0.000034  -0.000021  -0.000001  -0.000003   0.000001
              19         20         21         22         23         24
     1  C    0.058553   0.009806   0.005745  -0.173693   0.249044   0.612339
     2  C    0.021835   0.163686   1.159085  -0.961219  -0.125368  -0.023569
     3  C   -0.135418   0.026322  -0.243354  -1.095521   0.214357  -0.186405
     4  N    0.000907  -0.001734  -0.000330   0.172864  -0.113148  -0.006411
     5  C    0.011711  -0.001808   0.039530  -0.203678  -0.510415   0.368650
     6  C   -0.016199   0.001812  -0.007723   0.122793   0.080980  -1.103534
     7  C   -0.166985  -0.011133  -2.784247   0.401280  -0.031897   0.093417
     8  N   -0.118154  -0.233720  -0.333493  -0.221950   0.006370  -0.001503
     9  C    0.037257  -0.285429  -0.022911  -0.016657  -0.001201   0.000556
    10  C    0.328821   0.102226  -0.012401   0.083604   0.000875   0.000479
    11  C   -0.190312  -0.010878   0.695435  -0.034196   0.003427  -0.003557
    12  O    0.000745  -0.000001   0.000169   0.009447   0.013899  -0.000375
    13  O   -0.002298   0.000120   0.000078   0.018953   0.000373  -0.000050
    14  O   -0.026062   0.006419  -0.007104   0.069282  -0.000442   0.000241
    15  H    0.050241  -0.676837   0.101871  -0.026812  -0.000084   0.000142
    16  H    0.219978  -0.265108   0.074028  -0.015738   0.000051  -0.000026
    17  H   -0.462720   0.217474  -0.071364   0.047529   0.000133  -0.000016
    18  H   -0.717750   0.057076  -0.344729   0.075426   0.000735  -0.001551
    19  H    2.413118  -0.057087   0.227082  -0.173732  -0.001723   0.000458
    20  H   -0.057087   2.597857  -0.112436   0.012017  -0.000041  -0.000172
    21  H    0.227082  -0.112436   3.638228  -0.036393   0.002090   0.000914
    22  H   -0.173732   0.012017  -0.036393   4.299525   0.028181  -0.007510
    23  H   -0.001723  -0.000041   0.002090   0.028181   2.112531  -0.104720
    24  H    0.000458  -0.000172   0.000914  -0.007510  -0.104720   2.053150
    25  H    0.001753   0.003848  -0.174939  -0.014461  -0.010407  -0.128717
    26  C   -0.042140  -0.019273  -0.062919   0.037511   0.002844  -0.007057
    27  H   -0.001189   0.000471  -0.004170  -0.111281  -0.192007   0.010009
    28  H    0.031025   0.007792   0.015374  -0.063675   0.000700   0.000329
    29  H    0.006849  -0.000874   0.000507   0.002274  -0.000221  -0.000100
    30  H    0.000545  -0.000182   0.000600  -0.002033  -0.000873  -0.000142
    31  H    0.000950   0.000012  -0.000034  -0.004328   0.003644  -0.000178
    32  H   -0.000707  -0.000159  -0.000447   0.008795   0.000503   0.000001
    33  H    0.002840   0.001436   0.001688  -0.039301  -0.001937   0.000546
    34  O    0.009176  -0.004010  -0.000498   0.001283   0.000018  -0.000012
    35  H   -0.001083   0.001181   0.000063   0.001692   0.000004  -0.000001
    36  H    0.001620  -0.000602   0.000040  -0.002731  -0.000002  -0.000000
    37  H    0.011489   0.000628   0.015918  -0.012313  -0.003195   0.000155
    38  H    0.000385   0.016835   0.095828  -0.000618   0.000445  -0.000315
    39  H   -0.008376   0.030348   0.007378   0.016803   0.000451  -0.000824
    40  O    0.000052  -0.000001  -0.000034  -0.001264   0.000029   0.000000
    41  H   -0.000011  -0.000016   0.000021   0.000079  -0.000016  -0.000001
    42  H    0.000015   0.000005  -0.000006  -0.000218  -0.000008   0.000001
              25         26         27         28         29         30
     1  C   -2.666588  -0.225337  -0.022469   0.009180   0.007032   0.005153
     2  C    1.329707   0.683234  -0.432135  -0.162622  -0.006162   0.000839
     3  C    0.321169   0.118366   0.751045  -0.024294  -0.005030  -0.033312
     4  N   -0.089214  -0.070711  -0.080412   0.004938  -0.001480   0.012813
     5  C   -0.231717  -0.009120  -0.632786  -0.012349  -0.001027  -0.003127
     6  C    0.769983   0.041072  -0.016674   0.014838  -0.000081  -0.000130
     7  C   -0.325863  -1.399990  -0.034792   0.527375   0.021619   0.018683
     8  N    0.038943   1.298238   0.001899  -0.275942  -0.037404  -0.003157
     9  C   -0.009156  -0.198337  -0.003607  -0.149924   0.008721  -0.000048
    10  C   -0.014741  -0.227725  -0.005590   0.096573   0.001078  -0.000520
    11  C   -0.006232  -0.100824  -0.025656  -0.064643   0.018953   0.000053
    12  O    0.000321   0.000877   0.005869  -0.000317   0.003930   0.296161
    13  O   -0.000278   0.002419  -0.008004   0.000196   0.010529   0.058290
    14  O   -0.000500   0.024410  -0.005030   0.108499   0.330596  -0.000466
    15  H   -0.003691  -0.184339  -0.000078   0.085483   0.012536   0.000695
    16  H    0.000785  -0.028641   0.000015   0.006994   0.003093   0.000050
    17  H   -0.001241   0.031371  -0.001540  -0.020780  -0.005698  -0.000343
    18  H    0.013291   0.092799   0.000776  -0.029834   0.003800  -0.000267
    19  H    0.001753  -0.042140  -0.001189   0.031025   0.006849   0.000545
    20  H    0.003848  -0.019273   0.000471   0.007792  -0.000874  -0.000182
    21  H   -0.174939  -0.062919  -0.004170   0.015374   0.000507   0.000600
    22  H   -0.014461   0.037511  -0.111281  -0.063675   0.002274  -0.002033
    23  H   -0.010407   0.002844  -0.192007   0.000700  -0.000221  -0.000873
    24  H   -0.128717  -0.007057   0.010009   0.000329  -0.000100  -0.000142
    25  H    3.049268   0.039100   0.010017  -0.004623   0.000427  -0.000687
    26  C    0.039100   4.967545   0.000846  -0.159687   0.019640  -0.001589
    27  H    0.010017   0.000846   1.707574   0.000300   0.002525  -0.006793
    28  H   -0.004623  -0.159687   0.000300   0.746334  -0.238038   0.002395
    29  H    0.000427   0.019640   0.002525  -0.238038   0.697414   0.000929
    30  H   -0.000687  -0.001589  -0.006793   0.002395   0.000929   0.531816
    31  H    0.000092   0.000123   0.006298  -0.000086   0.000189  -0.105517
    32  H    0.000216   0.002435   0.000144   0.001466   0.000454  -0.007245
    33  H   -0.000993  -0.025388  -0.001468   0.004241  -0.015559  -0.011333
    34  O    0.000034   0.001271  -0.000281   0.016074  -0.053289  -0.000228
    35  H    0.000011  -0.000081  -0.000017   0.000130  -0.000362  -0.000045
    36  H   -0.000006  -0.000130   0.000092  -0.000232  -0.005594   0.000007
    37  H    0.001712   0.059311   0.002359   0.019222  -0.003770   0.000528
    38  H    0.004261   0.229716   0.000754  -0.050477   0.009806  -0.000175
    39  H    0.002405   0.194567  -0.001625   0.041283  -0.005171  -0.000117
    40  O    0.000008   0.000394   0.000091  -0.003667   0.000363   0.003131
    41  H   -0.000000  -0.000290  -0.000009  -0.000917   0.000282  -0.000863
    42  H    0.000001   0.000002   0.000197   0.000736  -0.000320  -0.000944
              31         32         33         34         35         36
     1  C   -0.001141  -0.003411  -0.009007  -0.000305  -0.000135   0.000081
     2  C    0.000420   0.006653   0.011667  -0.004226   0.001056  -0.000985
     3  C    0.017292  -0.008217   0.016246   0.005222   0.000217   0.001147
     4  N   -0.013666   0.007087   0.000418  -0.000103  -0.000157   0.000046
     5  C   -0.012424  -0.001439   0.010281   0.000217   0.000007   0.000089
     6  C    0.004102   0.001728  -0.004590  -0.000220   0.000004  -0.000060
     7  C   -0.003011  -0.005898   0.008074  -0.007400   0.000972  -0.000525
     8  N    0.000615   0.006472  -0.026645   0.020875  -0.001337   0.000517
     9  C    0.000153  -0.002138   0.013317   0.019357  -0.006932   0.006181
    10  C    0.000028   0.001187   0.001038  -0.068768   0.007708  -0.007991
    11  C    0.000852  -0.002974   0.014487   0.018964  -0.002760   0.002444
    12  O    0.376019   0.006741  -0.017224  -0.000165  -0.000046  -0.000005
    13  O   -0.005496   0.321436   0.285625  -0.000357  -0.000176  -0.000123
    14  O   -0.000249  -0.003698   0.024964  -0.080895   0.005610   0.002507
    15  H   -0.000045  -0.001501   0.001439   0.009069  -0.005432   0.002251
[...]
 ,0.00220441,0.00084120,0.00011731,-0.00042678,0.00036600,-0.00015641,-
 0.00053908,0.00028539,-0.00000250,0.00000024,0.00003649,0.00010056,-0.
 00004489,0.00022121,0.00017620,0.00182340,0.00004010,-0.00034224,-0.00
 030115,-0.00005137,0.00000482,-0.00008570,-0.00007937,0.00005310,-0.00
 004022,0.00016636,-0.00007091,-0.00012182,-0.00009191,0.00007072,-0.00
 009223,0.00021309,-0.00064866,-0.00148646,0.00057433,0.00015618,-0.001
 96828,0.00038921,-0.00014293,-0.00004195,0.00000071,0.00000529,-0.0000
 0845,0.00000242,0.00000957,0.00000050,-0.00000547,0.00002778,-0.000027
 02,-0.00002195,0.00601231,0.04757567,-0.05912716,-0.00001073,0.0000090
 9,-0.00001401,-0.00013341,-0.00241107,-0.00047264,0.00017381,-0.000023
 22,0.00002741,0.00002217,0.00000182,-0.00004266,-0.00000628,-0.0000035
 2,-0.00000715,0.00002176,0.00003793,-0.00004437,-0.00023687,-0.0000595
 7,-0.00025792,-0.00007939,0.00002399,-0.00000635,-0.00000206,0.0000002
 5,-0.00002924,0.00000125,-0.00000212,0.00000702,0.00049893,-0.00396685
 ,0.00126017,-0.00379967,-0.06326234,0.07205779,0.00020051,-0.00013788,
 0.00004602,0.00004312,0.00003316,-0.00002815,0.00012842,0.00024393,-0.
 00001547,-0.00001978,-0.00014057,-0.00000417,-0.00001302,0.00005630,-0
 .00002596,0.00002034,-0.00006232,0.00003113,-0.00046557,-0.00003288,-0
 .00194229,0.00595767,-0.00665403,-0.00783578,0.00128555,-0.00099197,-0
 .00094358,0.00020374,-0.00006834,0.00012128,0.00020934,-0.00008879,-0.
 00062408,0.00007592,-0.00015331,-0.00009243,0.00012584,0.00008883,-0.0
 0027140,-0.00005739,-0.00019501,-0.00025513,0.00013310,0.00034941,0.00
 018898,0.00002006,0.00000058,0.00001791,-0.00001685,0.00000292,0.00003
 536,-0.00000247,0.00001971,-0.00013701,-0.00001031,0.00000904,-0.00007
 297,-0.00010395,0.00005434,0.00009082,-0.00010517,0.00001804,0.0000005
 2,-0.00008129,0.00006614,0.00001175,0.00000745,0.00000139,0.00000044,-
 0.00000092,-0.00000272,-0.00000474,0.00000143,-0.00003955,-0.00003377,
 -0.14514256,0.09223388,0.09809464,0.00001614,0.00025786,0.00000369,0.0
 0007357,0.00025274,0.00031829,0.00006460,0.00001550,0.00001705,-0.0001
 5321,0.00003477,0.00014533,0.00000120,-0.00000018,0.00000226,-0.000024
 69,-0.00007762,0.00007106,0.00000901,-0.00003996,0.00018257,-0.0000332
 6,-0.00004267,-0.00001029,0.00001025,0.00002429,0.00000078,-0.00000174
 ,0.00001052,0.00000233,-0.01534418,0.01719181,0.01713727,0.00260120,-0
 .00372228,-0.00314795,0.15038974,0.00003958,-0.00014425,0.00001101,0.0
 0008286,0.00008835,0.00006661,0.00001038,0.00000889,-0.00002887,0.0000
 5137,0.00001666,0.00000142,-0.00001488,0.00000936,-0.00000349,-0.00002
 128,0.00001598,0.00000170,0.00009283,0.00031351,0.00102897,-0.00583098
 ,0.00432975,0.00517383,0.00015746,0.00047430,0.00006440,-0.00023514,-0
 .00006099,-0.00007902,0.00009354,0.00058596,0.00030146,0.00005094,-0.0
 0000366,-0.00003614,0.00010861,0.00009461,-0.00006980,0.00003239,0.000
 07692,-0.00028681,-0.00015093,0.00009508,-0.00029146,0.00000452,-0.000
 00783,-0.00001465,0.00000413,-0.00000757,0.00002237,0.00003940,-0.0000
 4275,0.00015673,-0.00011320,0.00000685,-0.00009063,0.00024891,-0.00044
 774,0.00003942,-0.00012004,0.00054668,0.00043104,-0.00003129,0.0000332
 8,0.00000994,-0.00000035,0.00000457,-0.00000086,-0.00000668,-0.0000042
 3,0.00000052,-0.00004714,0.00003527,0.00004290,0.09225073,-0.13363851,
 -0.09107765,-0.00000455,0.00000851,0.00000644,-0.00007514,0.00017226,0
 .00025109,0.00011040,-0.00002668,0.00004697,-0.00007170,0.00000344,0.0
 0005386,-0.00000672,-0.00000501,0.00000693,-0.00001453,-0.00005546,-0.
 00001199,-0.00006682,-0.00006511,0.00004578,-0.00007306,-0.00001589,-0
 .00002231,0.00002340,0.00001651,-0.00000036,0.00000471,0.00000485,0.00
 000466,-0.00628592,0.00534229,0.00666048,0.01827760,-0.01531202,-0.017
 32474,-0.09851552,0.13753359,0.00015766,0.00008948,0.00007331,-0.00083
 181,-0.00022093,0.00013401,0.00005285,0.00006360,0.00005521,0.00004347
 ,0.00011156,-0.00000842,0.00004507,0.00000763,-0.00001521,0.00003908,-
 0.00002432,0.00002814,-0.00379328,0.00206189,-0.00431770,0.02128957,-0
 .01767398,-0.02603488,0.00167229,-0.00072362,0.00094904,0.00031368,0.0
 0026355,0.00006770,0.00093672,-0.00113942,-0.00106563,-0.00005021,0.00
 007494,0.00005341,-0.00012092,-0.00007640,0.00007007,-0.00022540,0.000
 42796,0.00031737,-0.00073173,0.00023730,-0.00009937,-0.00004304,0.0000
 2176,0.00010671,-0.00006368,-0.00000412,0.00000865,-0.00029661,0.00016
 566,-0.00049736,-0.00005546,0.00003089,-0.00011904,-0.00029857,-0.0000
 5651,-0.00004131,-0.00008245,-0.00012276,0.00006067,0.00004832,-0.0000
 8400,-0.00003446,-0.00000334,-0.00000139,-0.00000315,0.00001749,0.0000
 0723,-0.00000874,-0.00000913,-0.00001965,-0.00005083,0.09000486,-0.084
 87134,-0.13728247,0.00000566,-0.00012555,-0.00001088,0.00032168,-0.000
 79989,-0.00042263,-0.00002209,0.00006166,-0.00009214,0.00009086,-0.000
 01367,-0.00008088,0.00000269,0.00000029,-0.00000210,0.00001500,0.00004
 452,0.00001503,0.00009187,0.00008044,-0.00006161,0.00000827,-0.0000082
 9,0.00008582,-0.00002194,0.00002882,-0.00003912,0.00000964,-0.00001255
 ,-0.00002042,-0.00287731,0.00337690,0.00345791,-0.00458920,0.00393279,
 0.00515068,-0.10104600,0.09490683,0.15967983,-0.00001028,-0.00000226,-
 0.00000520,-0.00007698,-0.00002359,-0.00000492,-0.00007484,-0.00001993
 ,-0.00000607,0.00005637,0.00029061,-0.00000330,0.00008546,-0.00009894,
 0.00000294,0.00004539,0.00005721,-0.00000594,-0.00009157,-0.00000204,0
 .00006558,0.00012354,-0.00002735,-0.00003474,-0.00008812,0.00003259,0.
 00000241,0.00000533,0.00001587,0.00001695,0.00001215,-0.00001349,-0.00
 003283,0.00010633,0.00049831,0.00042662,0.00408551,0.00051050,0.001069
 88,0.00067140,-0.00010211,0.00000546,0.00002955,-0.00000954,-0.0000096
 5,0.00000978,-0.00000074,-0.00000039,0.00000106,0.00000238,0.00000943,
 0.00000446,-0.00000439,-0.00000615,-0.00000461,0.00001151,-0.00001122,
 0.00001533,0.00000161,-0.00000003,0.00001939,-0.00000731,-0.00000629,-
 0.00010528,-0.00002020,-0.00002533,0.00000751,-0.00002547,-0.00002273,
 0.00000388,-0.00000092,-0.00000468,-0.00000593,0.00000681,-0.00000077,
 -0.00008615,0.00001379,0.00004413,-0.00005864,-0.00057568,-0.00005921,
 -0.00005440,0.00009694,0.00003836,-0.00014762,0.00024241,0.00010667,-0
 .00008635,-0.00029879,-0.00049211,-0.00005009,-0.00003411,-0.00016137,
 -0.00486311,0.00090055,-0.00032962,-0.00136356,0.00030913,0.00035499,0
 .00005679,-0.00014679,-0.00013571,0.00006875,0.00008444,0.00012104,-0.
 00000604,0.00003216,0.00006159,0.00001795,-0.00000365,0.00000815,0.000
 01338,-0.00000333,-0.00000911,0.00002298,0.00000907,-0.00001286,0.0679
 6721,-0.00008798,0.00003792,0.00001114,0.00011150,-0.00012140,0.000002
 43,0.00002665,0.00016818,-0.00000592,-0.00007729,-0.00017265,-0.000034
 40,-0.00010072,-0.00000582,0.00002453,0.00004325,0.00003032,-0.0000079
 8,-0.00003326,0.00009950,0.00004453,-0.00010087,-0.00024831,-0.0000482
 8,0.00015143,0.00005994,0.00000729,0.00000076,-0.00000236,-0.00000921,
 -0.00000151,0.00001347,0.00001080,0.00126736,0.00002526,-0.00101626,0.
 00019067,-0.00362116,-0.01018210,-0.00087921,-0.00037459,-0.00061106,0
 .00001360,0.00001119,0.00000449,-0.00001229,-0.00002244,-0.00001122,0.
 00001445,0.00000934,0.00001014,-0.00000366,-0.00001957,-0.00000650,-0.
 00000173,0.00000644,0.00002415,-0.00001598,-0.00003763,0.00000600,0.00
 000284,-0.00004110,0.00000095,0.00001794,0.00014085,0.00013591,-0.0000
 1432,0.00000472,0.00001610,-0.00000551,-0.00000098,0.00000736,-0.00000
 187,-0.00000138,0.00000735,0.00005290,0.00006760,0.00003709,-0.0000840
 7,0.00033459,0.00012710,0.00001104,0.00030231,0.00003025,0.00030514,-0
 .00030093,0.00013387,-0.00197771,-0.00033899,0.00146733,-0.00001400,-0
 .00021972,0.00001260,0.00272802,-0.00569858,0.00391933,0.00197355,0.00
 000089,0.00006733,-0.00020048,0.00013397,-0.00007627,0.00001321,-0.000
 06441,-0.00000662,0.00000157,-0.00004608,0.00000443,-0.00007271,0.0000
 7229,0.00001477,-0.00002553,-0.00006821,-0.00003787,0.00007925,0.00004
 003,-0.00002162,0.00444808,0.60204111,-0.00010215,0.00002896,0.0000141
 3,0.00015747,-0.00015562,0.00001801,0.00005603,0.00023205,-0.00003916,
 -0.00011603,-0.00044807,0.00002295,-0.00016170,0.00003023,0.00000127,0
 .00005141,-0.00000700,0.00000957,0.00005868,0.00007659,-0.00000198,-0.
 00007149,-0.00031770,0.00013884,0.00011525,0.00005663,0.00001889,-0.00
 000414,0.00002264,-0.00002460,-0.00000684,0.00004084,0.00002184,0.0011
 7081,-0.00058722,-0.00099700,0.00046283,-0.00958871,-0.00592981,-0.000
 95338,-0.00084488,-0.00032586,-0.00000420,0.00003200,-0.00001373,-0.00
 000923,-0.00002444,0.00000362,0.00002158,0.00000683,0.00002523,-0.0000
 0171,-0.00001949,0.00000802,-0.00001309,-0.00000261,0.00003731,-0.0000
 1632,-0.00005179,0.00000575,-0.00000799,-0.00004684,0.00000238,0.00001
 650,0.00021389,0.00011788,-0.00001024,0.00001829,-0.00000816,-0.000005
 87,-0.00000918,-0.00000622,0.00000120,-0.00001314,-0.00000528,0.000015
 92,0.00002034,-0.00018653,-0.00006032,0.00093140,0.00007219,-0.0000225
 0,0.00052549,-0.00020611,0.00028631,-0.00012578,0.00006478,-0.00185914
 ,0.00010996,0.00147712,-0.00008501,-0.00002777,0.00015727,0.00175358,0
 .00392912,-0.00616860,0.00226856,0.00041804,0.00009610,-0.00028176,-0.
 00006771,-0.00004302,0.00007314,0.00003596,-0.00005685,0.00006464,0.00
 003794,0.00003080,0.00000731,0.00001379,-0.00004484,-0.00001208,-0.000
 04601,0.00002707,-0.00004539,0.00001394,-0.00001430,0.17290012,-0.1262
 8189,0.53638160,0.00001911,-0.00000131,0.00000329,0.00002769,0.0000308
 1,0.00000021,0.00002858,-0.00001341,0.00000654,-0.00000990,-0.00008154
 ,-0.00000208,-0.00002135,0.00005026,-0.00000224,-0.00003109,-0.0000294
 2,-0.00000013,0.00005062,-0.00000701,-0.00003483,-0.00005861,0.0000290
 5,0.00003132,0.00002888,-0.00001811,-0.00000268,-0.00000414,-0.0000043
 7,-0.00000945,-0.00000710,0.00000552,0.00001649,-0.00015102,-0.0000953
 6,-0.00008858,-0.00044435,0.00087872,0.00052684,-0.00011712,0.00002534
 ,0.00007810,-0.00001438,0.00000675,0.00000112,-0.00000331,0.00000146,0
 .00000179,-0.00000213,-0.00000102,-0.00000258,-0.00000148,0.00000296,0
 .00000401,0.00000084,-0.00000591,0.00000425,-0.00000490,-0.00000017,0.
 00000008,-0.00000890,0.00000665,0.00000320,0.00003751,-0.00001000,-0.0
 0000470,-0.00000235,0.00001010,0.00001579,-0.00000106,0.00000281,0.000
 00410,0.00000357,-0.00000249,-0.00000008,0.00005133,-0.00001863,-0.000
 03788,0.00003291,0.00014068,0.00002843,0.00002411,-0.00004701,-0.00004
 099,0.00003429,-0.00002252,-0.00003071,0.00020362,0.00001462,0.0000498
 2,0.00002996,0.00000193,0.00002862,0.00036708,-0.00154793,-0.00002269,
 0.00010116,0.00023785,-0.00002590,-0.00002029,0.00001840,0.00004855,-0
 .00000785,-0.00001115,-0.00004531,0.00000767,-0.00000211,-0.00001641,0
 .00000042,-0.00000703,-0.00000184,-0.00000492,0.00000995,0.00001143,-0
 .00002822,-0.00001016,0.00000487,-0.05911663,0.03243716,-0.16833106,0.
 05867409,-0.00000396,-0.00001114,0.00000146,0.00001197,-0.00000824,0.0
 0000410,-0.00000845,0.00002035,-0.00001544,-0.00000884,-0.00006157,0.0
 0002017,-0.00000596,0.00000484,-0.00001133,0.00000745,-0.00001431,0.00
 000820,0.00003844,-0.00002065,-0.00001899,0.00003593,-0.00000719,0.000
 08708,-0.00003922,-0.00000362,0.00001106,-0.00000007,0.00000876,-0.000
 00320,-0.00000246,0.00000795,0.00000102,0.00010429,-0.00012375,-0.0000
 5112,0.00086768,-0.00255245,-0.00102408,-0.00004771,-0.00017971,0.0000
 6749,-0.00000433,0.00000566,-0.00000854,0.00000319,0.00000180,0.000007
 85,0.00000232,-0.00000244,0.00000611,0.00000120,0.00000147,0.00000744,
 -0.00000355,-0.00000338,0.00000415,0.00000113,-0.00000099,-0.00000204,
 -0.00000352,0.00000081,-0.00000170,-0.00000297,0.00003359,-0.00000219,
 0.00000531,0.00000220,-0.00001318,0.00000123,-0.00000407,-0.00000709,0
 .00000245,-0.00000563,-0.00000609,-0.00004129,-0.00002615,-0.00009803,
 -0.00000200,0.00015949,-0.00002664,-0.00002259,0.00009063,-0.00009032,
 -0.00002211,0.00003662,-0.00001271,-0.00019043,0.00001367,0.00008630,0
 .00000894,0.00002397,0.00000916,-0.00187914,0.00428690,0.00069076,0.00
 015450,0.00018581,0.00001717,-0.00000553,-0.00004604,0.00000775,0.0000
 0751,0.00002561,-0.00000790,0.00000797,0.00001719,0.00000360,0.0000484
 0,-0.00003233,-0.00003530,0.00001154,0.00001359,0.00003254,-0.00006521
 ,-0.00001357,0.00000041,0.01285357,-0.06005032,0.04404907,-0.02799373,
 0.06668319,0.00001420,-0.00000943,-0.00000026,-0.00002590,0.00002719,-
 0.00000530,-0.00003403,-0.00003581,0.00000454,0.00002402,0.00011874,0.
 00000193,0.00003376,-0.00002142,-0.00000151,0.00000076,0.00000646,-0.0
 0000235,-0.00001368,-0.00001836,0.00000151,0.00002183,0.00006932,-0.00
 002960,-0.00002479,-0.00001612,-0.00000373,0.00000076,-0.00000494,0.00
 000582,0.00000247,-0.00000713,-0.00000663,-0.00006065,0.00019460,0.000
 17026,0.00051903,-0.00014192,0.00053641,0.00010785,0.00015399,0.000070
 64,-0.00000024,-0.00000767,0.00000348,0.00000265,0.00000508,0.,-0.0000
 0355,-0.00000173,-0.00000581,0.00000004,0.00000366,-0.00000088,0.00000
 309,0.00000046,-0.00000744,0.00000219,0.00001380,-0.00000122,0.0000022
 9,0.00001082,-0.00000092,0.00000271,-0.00002961,-0.00001316,0.00000404
 ,-0.00000865,-0.00000235,0.00000096,0.00000083,0.00000153,0.00000118,0
 .00000252,0.00000122,-0.00001001,-0.00000836,0.00003291,-0.00001354,-0
 .00022546,-0.00001791,0.00000015,-0.00010783,0.00002090,-0.00004659,0.
 00000517,-0.00002152,0.00006818,-0.00010473,-0.00021094,0.00001031,-0.
 00001185,-0.00004811,-0.00132575,0.00070554,-0.00181315,-0.00014958,-0
 .00016447,-0.00007348,0.00005136,0.00002529,0.00001660,-0.00002095,-0.
 00001544,0.00000281,-0.00001342,-0.00001071,-0.00000824,0.00000520,-0.
 00001127,0.00000749,0.00000568,0.00001930,0.00000170,0.00000325,-0.000
 01137,0.00001026,-0.16122693,0.09741805,-0.47259317,0.16566958,-0.0903
 4450,0.48060424,0.00000852,-0.00000061,0.00000276,0.00002194,0.0000133
 3,-0.00000187,0.00003179,-0.00000428,0.00000384,-0.00002179,-0.0001323
 7,0.00000400,-0.00003128,0.00004016,-0.00000184,-0.00002096,-0.0000268
 9,0.00000280,0.00002981,-0.00000020,-0.00002384,-0.00004629,0.00002081
 ,-0.00000064,0.00003336,-0.00001078,0.00000095,0.00000069,-0.00001014,
 -0.00000402,-0.00000338,0.00000347,0.00001057,-0.00012072,-0.00029328,
 -0.00014198,-0.00021272,0.00003345,0.00028501,-0.00019679,0.00010679,-
 0.00004063,-0.00000723,0.00000136,0.00000721,-0.00000417,0.00000060,-0
 .00000119,-0.00000079,-0.00000113,-0.00000571,-0.00000221,0.00000272,0
 .00000150,0.00000242,-0.00000526,0.00000227,-0.00000596,0.00000064,-0.
 00000030,-0.00000724,0.00000359,0.00000243,0.00004393,-0.00000277,0.00
 000299,-0.00000142,0.00001214,0.00000650,-0.00000125,0.00000024,0.0000
 0153,0.00000192,-0.00000216,0.00000015,0.00001902,-0.00000190,0.000004
 81,0.00003398,0.00027011,0.00001010,0.00002362,-0.00005529,0.00001823,
 0.00007920,-0.00011038,-0.00001889,0.00014269,0.00018855,0.00009409,0.
 00004169,0.00006119,0.00009777,-0.00015714,0.00055627,-0.00060059,0.00
 022196,-0.00004572,0.00028668,-0.00001693,0.00010349,0.00005652,-0.000
 03660,-0.00006315,-0.00004569,-0.00000360,-0.00002991,-0.00003752,-0.0
 0001106,0.00000186,-0.00000189,-0.00000190,0.00000104,-0.00000403,0.00
 000340,0.00000321,0.00000342,-0.00713933,-0.04017965,-0.00729971,0.000
 33762,0.01617807,-0.00358788,0.00697317,0.00001275,-0.00000890,-0.0000
 0024,-0.00001593,0.00002244,0.00000212,-0.00001589,-0.00002651,-0.0000
 0350,0.00001215,0.00005615,0.00001395,0.00002041,-0.00000482,-0.000005
 60,-0.00000344,-0.00000292,0.00000131,0.00000845,-0.00002152,-0.000012
 02,0.00001775,0.00005605,0.00001531,-0.00002798,-0.00001594,-0.0000035
 6,-0.00000127,-0.00000088,0.00000194,0.00000107,-0.00000190,-0.0000023
 4,-0.00009078,0.00008407,0.00016803,0.00020789,0.00075129,0.00023223,0
 .00009324,0.00010979,0.00011014,-0.00000391,-0.00000179,-0.00000090,0.
 00000276,0.00000572,0.00000218,-0.00000300,-0.00000307,-0.00000329,0.0
 0000030,0.00000506,0.00000188,0.00000070,-0.00000210,-0.00000502,0.000
 00253,0.00000826,-0.00000124,-0.00000095,0.00000917,-0.00000009,0.0000
 0431,-0.00002016,-0.00001851,0.00000388,-0.00000324,-0.00000725,0.0000
 0100,-0.00000037,-0.00000292,0.00000113,0.,-0.00000306,-0.00000571,-0.
 00001501,-0.00001042,0.,-0.00010021,-0.00002373,0.00000158,-0.00006772
 ,0.00000215,-0.00006154,0.00001568,-0.00004885,0.00012759,-0.00009484,
 -0.00024683,0.00002002,0.00002249,-0.00004340,-0.00062565,-0.00189747,
 0.00021754,-0.00010824,-0.00011948,-0.00013363,0.00005036,-0.00001076,
 0.00004024,-0.00001775,0.00000583,-0.00001643,-0.00000465,0.00001040,-
 0.00001032,0.00001185,-0.00001130,-0.00000351,0.00000332,0.00001343,0.
 00000609,-0.00001358,-0.00000622,0.00000387,-0.01899692,-0.53214330,0.
 08782188,-0.00398064,-0.00845655,-0.00746204,0.02337276,0.54186118,0.0
 0000148,-0.00000157,0.00000022,-0.00000363,0.00000757,-0.00000418,-0.0
 0002375,-0.00000655,0.00000408,0.00001003,0.00010345,-0.00001630,0.000
 02090,-0.00001490,0.00000350,0.00000322,0.00000914,-0.00000304,-0.0000
 1442,0.00000147,0.00000897,-0.00000187,0.00002522,-0.00003279,0.000000
 47,-0.00000438,0.00000115,0.00000194,-0.00000736,0.00000354,-0.0000004
 1,-0.00000833,-0.00000133,0.00018757,0.00028458,-0.00012902,0.00052952
 ,-0.00055405,-0.00305053,-0.00009762,0.00011167,-0.00012851,0.00000246
 ,-0.00000613,0.00000366,-0.00000016,0.00000192,-0.00000210,-0.00000188
 ,-0.00000029,-0.00000346,-0.00000068,0.00000073,-0.00000211,0.00000388
 ,0.00000225,-0.00000290,-0.00000090,0.00000629,-0.00000192,0.00000175,
 0.00000325,-0.00000232,0.00000858,-0.00000859,0.00002017,0.00000084,-0
 .00000614,0.00000501,0.00000050,0.00000156,0.00000254,0.00000069,0.000
 00143,0.00000233,0.00000653,0.00000291,0.00003628,-0.00002489,-0.00020
 636,0.00002592,0.00000986,-0.00004958,0.00004635,0.00000447,-0.0000970
 4,0.00002603,-0.00031796,-0.00028575,0.00021345,0.00005812,-0.00011699
 ,-0.00007707,-0.00097183,0.00003987,0.00504351,0.00018758,-0.00014917,
 0.00005523,0.00003578,0.00008475,-0.00001394,-0.00003128,-0.00003446,0
 .00001748,-0.00003330,-0.00003758,-0.00001148,-0.00001016,0.00000770,0
 .00000563,-0.00000192,0.00000146,-0.00000846,0.00001382,0.00000084,-0.
 00000120,-0.01262714,0.03481187,-0.05208739,0.00216171,0.04665750,-0.0
 0662655,0.01091213,-0.08057219,0.05668152\\0.00000128,0.00000059,-0.00
 000077,-0.00000041,0.00000154,0.00000047,-0.00000227,-0.00000004,-0.00
 000114,-0.00000148,-0.00000175,-0.00000650,0.00000018,-0.00000004,0.00
 000087,-0.00000101,0.00000052,-0.00000181,0.00000093,-0.00000755,-0.00
 000287,-0.00000115,0.00001216,-0.00000701,-0.00000380,-0.00000643,-0.0
 0000136,0.00000168,-0.00000097,0.00000315,-0.00000144,0.00000228,0.000
 00279,-0.00000586,0.00000245,0.00000166,-0.00001548,0.00000997,0.00000
 450,0.00000552,0.00000070,0.00000368,0.00000056,0.00000031,0.00000022,
 -0.00000079,0.00000082,0.00000064,-0.00000064,0.00000219,0.00000132,-0
 .00000056,-0.00000012,0.00000016,-0.00000116,-0.00000046,-0.00000090,0
 .00000139,0.00000057,0.00000157,0.00000011,0.00000069,-0.00000014,-0.0
 0000031,0.00000053,0.00000068,-0.00000021,0.00000028,-0.00000358,0.000
 00014,0.00000048,-0.00000187,-0.00000054,0.00000041,-0.00000088,0.0000
 0158,-0.00000052,0.00000342,0.00000043,0.00000297,0.00000251,0.0000000
 6,-0.00000653,0.00000569,0.00000035,0.00000187,0.00000013,0.00000737,-
 0.00000583,-0.00000450,-0.00000087,0.00000003,-0.00000052,0.00000708,-
 0.00000292,-0.00000604,0.00000579,-0.00000701,-0.00000765,-0.00000151,
 -0.00000205,0.00000280,-0.00000054,0.00000018,0.00000233,-0.00000012,0
 .00000015,0.00000157,0.00000114,0.00000005,-0.00000036,0.00000077,-0.0
 0000016,-0.00000042,0.00000120,-0.00000034,0.00000031,0.00000312,0.000
 00543,0.00001517,-0.00000139,0.00000132,-0.00000411,0.00000083,-0.0000
 0577,-0.00000320\\\@


 We find comfort among those who agree with us -- growth among those who don't.
 -- Frank A. Clark
 Job cpu time:       1 days 15 hours 44 minutes 48.5 seconds.
 Elapsed time:       0 days  1 hours 25 minutes 15.5 seconds.
 File lengths (MBytes):  RWF=   1440 Int=      0 D2E=      0 Chk=     36 Scr=      8
 Normal termination of Gaussian 16 at Fri Dec  9 16:42:07 2022.
