 Entering Gaussian System, Link 0=g16
 Input=Nic5h3bMidB.gjf
 Output=Nic5h3bMidB.log
 Initial command:
 /sw/contrib/gaussian/g16/A03/g16/l1.exe "/gscratch/scrubbed/gds001/Gau-26894.inp" -scrdir="/gscratch/scrubbed/gds001/"
 Entering Link 1 = /sw/contrib/gaussian/g16/A03/g16/l1.exe PID=     26895.
  
 Copyright (c) 1988,1990,1992,1993,1995,1998,2003,2009,2016,
            Gaussian, Inc.  All Rights Reserved.
  
 This is part of the Gaussian(R) 16 program.  It is based on
 the Gaussian(R) 09 system (copyright 2009, Gaussian, Inc.),
 the Gaussian(R) 03 system (copyright 2003, Gaussian, Inc.),
 the Gaussian(R) 98 system (copyright 1998, Gaussian, Inc.),
 the Gaussian(R) 94 system (copyright 1995, Gaussian, Inc.),
 the Gaussian 92(TM) system (copyright 1992, Gaussian, Inc.),
 the Gaussian 90(TM) system (copyright 1990, Gaussian, Inc.),
 the Gaussian 88(TM) system (copyright 1988, Gaussian, Inc.),
 the Gaussian 86(TM) system (copyright 1986, Carnegie Mellon
 University), and the Gaussian 82(TM) system (copyright 1983,
 Carnegie Mellon University). Gaussian is a federally registered
 trademark of Gaussian, Inc.
  
 This software contains proprietary and confidential information,
 including trade secrets, belonging to Gaussian, Inc.
  
 This software is provided under written license and may be
 used, copied, transmitted, or stored only in accord with that
 written license.
  
 The following legend is applicable only to US Government
 contracts under FAR:
  
                    RESTRICTED RIGHTS LEGEND
  
 Use, reproduction and disclosure by the US Government is
 subject to restrictions as set forth in subparagraphs (a)
 and (c) of the Commercial Computer Software - Restricted
 Rights clause in FAR 52.227-19.
  
 Gaussian, Inc.
 340 Quinnipiac St., Bldg. 40, Wallingford CT 06492
  
  
 ---------------------------------------------------------------
 Warning -- This program may not be used in any manner that
 competes with the business of Gaussian, Inc. or will provide
 assistance to any competitor of Gaussian, Inc.  The licensee
 of this program is prohibited from giving any competitor of
 Gaussian, Inc. access to this program.  By using this program,
 the user acknowledges that Gaussian, Inc. is engaged in the
 business of creating and licensing software in the field of
 computational chemistry and represents and warrants to the
 licensee that it is not a competitor of Gaussian, Inc. and that
 it will not use this program in any manner prohibited above.
 ---------------------------------------------------------------
  

 Cite this work as:
 Gaussian 16, Revision A.03,
 M. J. Frisch, G. W. Trucks, H. B. Schlegel, G. E. Scuseria, 
 M. A. Robb, J. R. Cheeseman, G. Scalmani, V. Barone, 
 G. A. Petersson, H. Nakatsuji, X. Li, M. Caricato, A. V. Marenich, 
 J. Bloino, B. G. Janesko, R. Gomperts, B. Mennucci, H. P. Hratchian, 
 J. V. Ortiz, A. F. Izmaylov, J. L. Sonnenberg, D. Williams-Young, 
 F. Ding, F. Lipparini, F. Egidi, J. Goings, B. Peng, A. Petrone, 
 T. Henderson, D. Ranasinghe, V. G. Zakrzewski, J. Gao, N. Rega, 
 G. Zheng, W. Liang, M. Hada, M. Ehara, K. Toyota, R. Fukuda, 
 J. Hasegawa, M. Ishida, T. Nakajima, Y. Honda, O. Kitao, H. Nakai, 
 T. Vreven, K. Throssell, J. A. Montgomery, Jr., J. E. Peralta, 
 F. Ogliaro, M. J. Bearpark, J. J. Heyd, E. N. Brothers, K. N. Kudin, 
 V. N. Staroverov, T. A. Keith, R. Kobayashi, J. Normand, 
 K. Raghavachari, A. P. Rendell, J. C. Burant, S. S. Iyengar, 
 J. Tomasi, M. Cossi, J. M. Millam, M. Klene, C. Adamo, R. Cammi, 
 J. W. Ochterski, R. L. Martin, K. Morokuma, O. Farkas, 
 J. B. Foresman, and D. J. Fox, Gaussian, Inc., Wallingford CT, 2016.
 
 ******************************************
 Gaussian 16:  ES64L-G16RevA.03 25-Dec-2016
                 6-Dec-2022 
 ******************************************
 %nprocshared=28
 Will use up to   28 processors via shared memory.
 %mem=41GB
 -----------------------------
 # wB97XD/aug-cc-pVDZ opt freq
 -----------------------------
 1/18=20,19=15,26=3,38=1/1,3;
 2/9=110,12=2,17=6,18=5,40=1/2;
 3/5=16,7=10,11=2,25=1,30=1,71=1,74=-58/1,2,3;
 4//1;
 5/5=2,38=5/2;
 6/7=2,8=2,9=2,10=2,28=1/1;
 7//1,2,3,16;
 1/18=20,19=15,26=3/3(2);
 2/9=110/2;
 99//99;
 2/9=110/2;
 3/5=16,7=10,11=2,25=1,30=1,71=1,74=-58/1,2,3;
 4/5=5,16=3,69=1/1;
 5/5=2,38=5/2;
 7//1,2,3,16;
 1/18=20,19=15,26=3/3(-5);
 2/9=110/2;
 6/7=2,8=2,9=2,10=2,19=2,28=1/1;
 99/9=1/99;
 ----
 blah
 ----
 Symbolic Z-matrix:
 Charge =  1 Multiplicity = 1
 C                     1.51138   2.33669   0.91941 
 C                     1.20452   1.15499   0.24144 
 C                    -0.01349   1.10303  -0.42777 
 N                    -0.84925   2.14892  -0.4045 
 C                    -0.57113   3.29196   0.24022 
 C                     0.62771   3.41678   0.9158 
 C                     2.16115  -0.01293   0.2136 
 N                     1.52812  -1.29838   0.53138 
 C                     2.56358  -2.28475   0.18921 
 C                     3.13508  -1.78294  -1.14416 
 C                     2.80978  -0.2701   -1.15927 
 O                    -3.19322   1.50725  -1.38494 
 O                    -2.87826  -0.75361  -0.11354 
 O                    -0.60307  -1.92106  -1.1548 
 H                     2.12589  -3.28901   0.13449 
 H                     4.21028  -1.97601  -1.21159 
 H                     2.65719  -2.28657  -1.99147 
 H                     3.69319   0.36093  -1.30271 
 H                     2.09886  -0.03088  -1.95952 
 H                     3.34548  -2.30126   0.97049 
 H                     2.95737   0.19434   0.95581 
 H                    -0.35479   0.23279  -0.98608 
 H                    -1.3275    4.07174   0.19839 
 H                     0.8605    4.34001   1.44079 
 H                     2.45372   2.41524   1.46232 
 C                     1.06117  -1.40479   1.90842 
 H                    -1.78497   2.0197   -0.88897 
 H                     0.17536  -1.79948  -0.55674 
 H                    -0.5062   -2.77005  -1.59077 
 H                    -3.24128   0.59693  -0.99298 
 H                    -3.54552   1.46739  -2.27639 
 H                    -3.55969  -1.31531   0.29387 
 H                    -2.18447  -1.34188  -0.46025 
 O                    -4.81123  -2.3924    1.04748 
 H                    -5.08688  -2.31606   1.96468 
 H                    -5.58028  -2.71753   0.572 
 H                     0.64665  -2.40566   2.07438 
 H                     0.26418  -0.67422   2.09387 
 H                     1.87861  -1.23795   2.63331 
 O                    -5.74038  -1.95179   3.58411 
 H                    -6.65497  -1.62108   3.63791 
 H                    -5.59139  -2.31351   4.47414 
 
 Add virtual bond connecting atoms H27        and O12        Dist= 2.98D+00.
 Add virtual bond connecting atoms H30        and O13        Dist= 3.12D+00.
 Add virtual bond connecting atoms O40        and H35        Dist= 3.37D+00.
 Add virtual bond connecting atoms O14        and H33        Dist= 3.44D+00.
 Add virtual bond connecting atoms H28        and N8         Dist= 3.41D+00.
 Add virtual bond connecting atoms O34        and H32        Dist= 3.43D+00.

 GradGradGradGradGradGradGradGradGradGradGradGradGradGradGradGradGradGrad
 Berny optimization.
 Initialization pass.
                           ----------------------------
                           !    Initial Parameters    !
                           ! (Angstroms and Degrees)  !
 --------------------------                            --------------------------
 ! Name  Definition              Value          Derivative Info.                !
 --------------------------------------------------------------------------------
 ! R1    R(1,2)                  1.3965         estimate D2E/DX2                !
 ! R2    R(1,6)                  1.3955         estimate D2E/DX2                !
 ! R3    R(1,25)                 1.0904         estimate D2E/DX2                !
 ! R4    R(2,3)                  1.3907         estimate D2E/DX2                !
 ! R5    R(2,7)                  1.51           estimate D2E/DX2                !
 ! R6    R(3,4)                  1.339          estimate D2E/DX2                !
 ! R7    R(3,22)                 1.0888         estimate D2E/DX2                !
 ! R8    R(4,5)                  1.3415         estimate D2E/DX2                !
 ! R9    R(4,27)                 1.0616         estimate D2E/DX2                !
 ! R10   R(5,6)                  1.3817         estimate D2E/DX2                !
 ! R11   R(5,23)                 1.0872         estimate D2E/DX2                !
 ! R12   R(6,24)                 1.0873         estimate D2E/DX2                !
 ! R13   R(7,8)                  1.4677         estimate D2E/DX2                !
 ! R14   R(7,11)                 1.54           estimate D2E/DX2                !
 ! R15   R(7,21)                 1.1081         estimate D2E/DX2                !
 ! R16   R(8,9)                  1.4704         estimate D2E/DX2                !
 ! R17   R(8,26)                 1.4579         estimate D2E/DX2                !
 ! R18   R(8,28)                 1.8069         estimate D2E/DX2                !
 ! R19   R(9,10)                 1.535          estimate D2E/DX2                !
 ! R20   R(9,15)                 1.0969         estimate D2E/DX2                !
 ! R21   R(9,20)                 1.1055         estimate D2E/DX2                !
 ! R22   R(10,11)                1.5475         estimate D2E/DX2                !
 ! R23   R(10,16)                1.0945         estimate D2E/DX2                !
 ! R24   R(10,17)                1.0954         estimate D2E/DX2                !
 ! R25   R(11,18)                1.0951         estimate D2E/DX2                !
 ! R26   R(11,19)                1.0968         estimate D2E/DX2                !
 ! R27   R(12,27)                1.5785         estimate D2E/DX2                !
 ! R28   R(12,30)                0.9923         estimate D2E/DX2                !
 ! R29   R(12,31)                0.9594         estimate D2E/DX2                !
 ! R30   R(13,30)                1.652          estimate D2E/DX2                !
 ! R31   R(13,32)                0.9725         estimate D2E/DX2                !
 ! R32   R(13,33)                0.9735         estimate D2E/DX2                !
 ! R33   R(14,28)                0.9891         estimate D2E/DX2                !
 ! R34   R(14,29)                0.9593         estimate D2E/DX2                !
 ! R35   R(14,33)                1.8217         estimate D2E/DX2                !
 ! R36   R(26,37)                1.096          estimate D2E/DX2                !
 ! R37   R(26,38)                1.097          estimate D2E/DX2                !
 ! R38   R(26,39)                1.1052         estimate D2E/DX2                !
 ! R39   R(32,34)                1.8151         estimate D2E/DX2                !
 ! R40   R(34,35)                0.9608         estimate D2E/DX2                !
 ! R41   R(34,36)                0.9609         estimate D2E/DX2                !
 ! R42   R(35,40)                1.7839         estimate D2E/DX2                !
 ! R43   R(40,41)                0.974          estimate D2E/DX2                !
 ! R44   R(40,42)                0.9722         estimate D2E/DX2                !
 ! A1    A(2,1,6)              120.9655         estimate D2E/DX2                !
 ! A2    A(2,1,25)             119.5107         estimate D2E/DX2                !
 ! A3    A(6,1,25)             119.5235         estimate D2E/DX2                !
 ! A4    A(1,2,3)              117.237          estimate D2E/DX2                !
 ! A5    A(1,2,7)              121.6176         estimate D2E/DX2                !
 ! A6    A(3,2,7)              121.138          estimate D2E/DX2                !
 ! A7    A(2,3,4)              120.6047         estimate D2E/DX2                !
 ! A8    A(2,3,22)             123.4449         estimate D2E/DX2                !
 ! A9    A(4,3,22)             115.9482         estimate D2E/DX2                !
 ! A10   A(3,4,5)              122.9903         estimate D2E/DX2                !
 ! A11   A(3,4,27)             116.561          estimate D2E/DX2                !
 ! A12   A(5,4,27)             120.3841         estimate D2E/DX2                !
 ! A13   A(4,5,6)              119.4616         estimate D2E/DX2                !
 ! A14   A(4,5,23)             116.6426         estimate D2E/DX2                !
 ! A15   A(6,5,23)             123.8944         estimate D2E/DX2                !
 ! A16   A(1,6,5)              118.7345         estimate D2E/DX2                !
 ! A17   A(1,6,24)             121.3571         estimate D2E/DX2                !
 ! A18   A(5,6,24)             119.9042         estimate D2E/DX2                !
 ! A19   A(2,7,8)              113.5903         estimate D2E/DX2                !
 ! A20   A(2,7,11)             114.3585         estimate D2E/DX2                !
 ! A21   A(2,7,21)             107.3501         estimate D2E/DX2                !
 ! A22   A(8,7,11)             103.2047         estimate D2E/DX2                !
 ! A23   A(8,7,21)             109.1919         estimate D2E/DX2                !
 ! A24   A(11,7,21)            109.0086         estimate D2E/DX2                !
 ! A25   A(7,8,9)              103.4974         estimate D2E/DX2                !
 ! A26   A(7,8,26)             113.9893         estimate D2E/DX2                !
 ! A27   A(7,8,28)             115.8108         estimate D2E/DX2                !
 ! A28   A(9,8,26)             113.3511         estimate D2E/DX2                !
 ! A29   A(9,8,28)             101.5969         estimate D2E/DX2                !
 ! A30   A(26,8,28)            107.9845         estimate D2E/DX2                !
 ! A31   A(8,9,10)             104.1826         estimate D2E/DX2                !
 ! A32   A(8,9,15)             110.1679         estimate D2E/DX2                !
 ! A33   A(8,9,20)             110.0981         estimate D2E/DX2                !
 ! A34   A(10,9,15)            113.8626         estimate D2E/DX2                !
 ! A35   A(10,9,20)            110.8214         estimate D2E/DX2                !
 ! A36   A(15,9,20)            107.6878         estimate D2E/DX2                !
 ! A37   A(9,10,11)            104.4662         estimate D2E/DX2                !
 ! A38   A(9,10,16)            111.1985         estimate D2E/DX2                !
 ! A39   A(9,10,17)            111.0484         estimate D2E/DX2                !
 ! A40   A(11,10,16)           112.2318         estimate D2E/DX2                !
 ! A41   A(11,10,17)           110.4998         estimate D2E/DX2                !
 ! A42   A(16,10,17)           107.447          estimate D2E/DX2                !
 ! A43   A(7,11,10)            104.0686         estimate D2E/DX2                !
 ! A44   A(7,11,18)            111.1202         estimate D2E/DX2                !
 ! A45   A(7,11,19)            109.9375         estimate D2E/DX2                !
 ! A46   A(10,11,18)           113.2682         estimate D2E/DX2                !
 ! A47   A(10,11,19)           110.8908         estimate D2E/DX2                !
 ! A48   A(18,11,19)           107.5561         estimate D2E/DX2                !
 ! A49   A(27,12,30)           102.5284         estimate D2E/DX2                !
 ! A50   A(27,12,31)           129.2754         estimate D2E/DX2                !
 ! A51   A(30,12,31)           108.128          estimate D2E/DX2                !
 ! A52   A(30,13,32)           122.7648         estimate D2E/DX2                !
 ! A53   A(30,13,33)           117.454          estimate D2E/DX2                !
 ! A54   A(32,13,33)           107.4313         estimate D2E/DX2                !
 ! A55   A(28,14,29)           107.7036         estimate D2E/DX2                !
 ! A56   A(28,14,33)           114.4285         estimate D2E/DX2                !
 ! A57   A(29,14,33)           122.8406         estimate D2E/DX2                !
 ! A58   A(8,26,37)            109.3183         estimate D2E/DX2                !
 ! A59   A(8,26,38)            110.1065         estimate D2E/DX2                !
 ! A60   A(8,26,39)            111.8132         estimate D2E/DX2                !
 ! A61   A(37,26,38)           107.9276         estimate D2E/DX2                !
 ! A62   A(37,26,39)           108.5588         estimate D2E/DX2                !
 ! A63   A(38,26,39)           109.0236         estimate D2E/DX2                !
 ! A64   A(12,30,13)           161.7354         estimate D2E/DX2                !
 ! A65   A(13,33,14)           161.1933         estimate D2E/DX2                !
 ! A66   A(32,34,35)           123.1653         estimate D2E/DX2                !
 ! A67   A(32,34,36)           123.1767         estimate D2E/DX2                !
 ! A68   A(35,34,36)           105.6447         estimate D2E/DX2                !
 ! A69   A(35,40,41)           117.6103         estimate D2E/DX2                !
 ! A70   A(35,40,42)           134.3429         estimate D2E/DX2                !
 ! A71   A(41,40,42)           102.6885         estimate D2E/DX2                !
 ! A72   L(4,27,12,14,-1)      169.5725         estimate D2E/DX2                !
 ! A73   L(8,28,14,3,-1)       170.8907         estimate D2E/DX2                !
 ! A74   L(13,32,34,37,-1)     179.2564         estimate D2E/DX2                !
 ! A75   L(34,35,40,1,-1)      179.2223         estimate D2E/DX2                !
 ! A76   L(4,27,12,14,-2)      170.2797         estimate D2E/DX2                !
 ! A77   L(8,28,14,3,-2)       180.5675         estimate D2E/DX2                !
 ! A78   L(13,32,34,37,-2)     180.9022         estimate D2E/DX2                !
 ! A79   L(34,35,40,1,-2)      170.6979         estimate D2E/DX2                !
 ! D1    D(6,1,2,3)             -0.2096         estimate D2E/DX2                !
 ! D2    D(6,1,2,7)            178.8141         estimate D2E/DX2                !
 ! D3    D(25,1,2,3)           179.5796         estimate D2E/DX2                !
 ! D4    D(25,1,2,7)            -1.3967         estimate D2E/DX2                !
 ! D5    D(2,1,6,5)              0.7993         estimate D2E/DX2                !
 ! D6    D(2,1,6,24)          -179.9511         estimate D2E/DX2                !
 ! D7    D(25,1,6,5)          -178.9899         estimate D2E/DX2                !
 ! D8    D(25,1,6,24)            0.2597         estimate D2E/DX2                !
 ! D9    D(1,2,3,4)             -0.4523         estimate D2E/DX2                !
 ! D10   D(1,2,3,22)          -179.8869         estimate D2E/DX2                !
 ! D11   D(7,2,3,4)           -179.481          estimate D2E/DX2                !
 ! D12   D(7,2,3,22)             1.0844         estimate D2E/DX2                !
 ! D13   D(1,2,7,8)            131.8804         estimate D2E/DX2                !
 ! D14   D(1,2,7,11)          -109.9992         estimate D2E/DX2                !
 ! D15   D(1,2,7,21)            11.0671         estimate D2E/DX2                !
 ! D16   D(3,2,7,8)            -49.1338         estimate D2E/DX2                !
 ! D17   D(3,2,7,11)            68.9867         estimate D2E/DX2                !
 ! D18   D(3,2,7,21)          -169.947          estimate D2E/DX2                !
 ! D19   D(2,3,4,5)              0.5308         estimate D2E/DX2                !
 ! D20   D(2,3,4,27)          -176.5523         estimate D2E/DX2                !
 ! D21   D(22,3,4,5)          -179.9939         estimate D2E/DX2                !
 ! D22   D(22,3,4,27)            2.9231         estimate D2E/DX2                !
 ! D23   D(3,4,5,6)              0.0843         estimate D2E/DX2                !
 ! D24   D(3,4,5,23)          -179.5084         estimate D2E/DX2                !
 ! D25   D(27,4,5,6)           177.0597         estimate D2E/DX2                !
 ! D26   D(27,4,5,23)           -2.533          estimate D2E/DX2                !
 ! D27   D(3,4,12,30)           38.686          estimate D2E/DX2                !
 ! D28   D(3,4,12,31)          -84.3477         estimate D2E/DX2                !
 ! D29   D(5,4,12,30)         -130.9584         estimate D2E/DX2                !
 ! D30   D(5,4,12,31)          106.0079         estimate D2E/DX2                !
 ! D31   D(4,5,6,1)             -0.7376         estimate D2E/DX2                !
 ! D32   D(4,5,6,24)          -179.9984         estimate D2E/DX2                !
 ! D33   D(23,5,6,1)           178.8237         estimate D2E/DX2                !
 ! D34   D(23,5,6,24)           -0.4371         estimate D2E/DX2                !
 ! D35   D(2,7,8,9)            169.3864         estimate D2E/DX2                !
 ! D36   D(2,7,8,26)           -67.0422         estimate D2E/DX2                !
 ! D37   D(2,7,8,28)            59.1596         estimate D2E/DX2                !
 ! D38   D(11,7,8,9)            45.0021         estimate D2E/DX2                !
 ! D39   D(11,7,8,26)          168.5736         estimate D2E/DX2                !
 ! D40   D(11,7,8,28)          -65.2246         estimate D2E/DX2                !
 ! D41   D(21,7,8,9)           -70.8414         estimate D2E/DX2                !
 ! D42   D(21,7,8,26)           52.7301         estimate D2E/DX2                !
 ! D43   D(21,7,8,28)          178.9319         estimate D2E/DX2                !
 ! D44   D(2,7,11,10)         -153.2234         estimate D2E/DX2                !
 ! D45   D(2,7,11,18)           84.5427         estimate D2E/DX2                !
 ! D46   D(2,7,11,19)          -34.4103         estimate D2E/DX2                !
 ! D47   D(8,7,11,10)          -29.343          estimate D2E/DX2                !
 ! D48   D(8,7,11,18)         -151.577          estimate D2E/DX2                !
 ! D49   D(8,7,11,19)           89.47           estimate D2E/DX2                !
 ! D50   D(21,7,11,10)          86.6311         estimate D2E/DX2                !
 ! D51   D(21,7,11,18)         -35.6029         estimate D2E/DX2                !
 ! D52   D(21,7,11,19)        -154.5558         estimate D2E/DX2                !
 ! D53   D(7,8,9,10)           -42.7604         estimate D2E/DX2                !
 ! D54   D(7,8,9,15)          -165.263          estimate D2E/DX2                !
 ! D55   D(7,8,9,20)            76.113          estimate D2E/DX2                !
 ! D56   D(26,8,9,10)         -166.75           estimate D2E/DX2                !
 ! D57   D(26,8,9,15)           70.7473         estimate D2E/DX2                !
 ! D58   D(26,8,9,20)          -47.8767         estimate D2E/DX2                !
 ! D59   D(28,8,9,10)           77.6611         estimate D2E/DX2                !
 ! D60   D(28,8,9,15)          -44.8416         estimate D2E/DX2                !
 ! D61   D(28,8,9,20)         -163.4656         estimate D2E/DX2                !
 ! D62   D(7,8,14,29)          124.4318         estimate D2E/DX2                !
 ! D63   D(7,8,14,33)          -92.3924         estimate D2E/DX2                !
 ! D64   D(9,8,14,29)           12.5995         estimate D2E/DX2                !
 ! D65   D(9,8,14,33)          155.7753         estimate D2E/DX2                !
 ! D66   D(26,8,14,29)        -108.314          estimate D2E/DX2                !
 ! D67   D(26,8,14,33)          34.8617         estimate D2E/DX2                !
 ! D68   D(7,8,26,37)         -177.3731         estimate D2E/DX2                !
 ! D69   D(7,8,26,38)           64.2232         estimate D2E/DX2                !
 ! D70   D(7,8,26,39)          -57.1358         estimate D2E/DX2                !
 ! D71   D(9,8,26,37)          -59.3142         estimate D2E/DX2                !
 ! D72   D(9,8,26,38)         -177.7179         estimate D2E/DX2                !
 ! D73   D(9,8,26,39)           60.9231         estimate D2E/DX2                !
 ! D74   D(28,8,26,37)          52.4233         estimate D2E/DX2                !
 ! D75   D(28,8,26,38)         -65.9803         estimate D2E/DX2                !
 ! D76   D(28,8,26,39)         172.6607         estimate D2E/DX2                !
 ! D77   D(8,9,10,11)           23.2198         estimate D2E/DX2                !
 ! D78   D(8,9,10,16)          144.4959         estimate D2E/DX2                !
 ! D79   D(8,9,10,17)          -95.9114         estimate D2E/DX2                !
 ! D80   D(15,9,10,11)         143.2623         estimate D2E/DX2                !
 ! D81   D(15,9,10,16)         -95.4616         estimate D2E/DX2                !
 ! D82   D(15,9,10,17)          24.1311         estimate D2E/DX2                !
 ! D83   D(20,9,10,11)         -95.1592         estimate D2E/DX2                !
 ! D84   D(20,9,10,16)          26.1169         estimate D2E/DX2                !
 ! D85   D(20,9,10,17)         145.7096         estimate D2E/DX2                !
 ! D86   D(9,10,11,7)            3.6934         estimate D2E/DX2                !
 ! D87   D(9,10,11,18)         124.4983         estimate D2E/DX2                !
 ! D88   D(9,10,11,19)        -114.4658         estimate D2E/DX2                !
 ! D89   D(16,10,11,7)        -116.896          estimate D2E/DX2                !
 ! D90   D(16,10,11,18)          3.9089         estimate D2E/DX2                !
 ! D91   D(16,10,11,19)        124.9448         estimate D2E/DX2                !
 ! D92   D(17,10,11,7)         123.1952         estimate D2E/DX2                !
 ! D93   D(17,10,11,18)       -115.9999         estimate D2E/DX2                !
 ! D94   D(17,10,11,19)          5.0359         estimate D2E/DX2                !
 ! D95   D(27,12,30,13)          6.6205         estimate D2E/DX2                !
 ! D96   D(31,12,30,13)        145.6556         estimate D2E/DX2                !
 ! D97   D(32,13,30,12)        144.7931         estimate D2E/DX2                !
 ! D98   D(33,13,30,12)        -77.8299         estimate D2E/DX2                !
 ! D99   D(30,13,34,35)        -96.4027         estimate D2E/DX2                !
 ! D100  D(30,13,34,36)         48.3879         estimate D2E/DX2                !
 ! D101  D(33,13,34,35)        122.8981         estimate D2E/DX2                !
 ! D102  D(33,13,34,36)        -92.3114         estimate D2E/DX2                !
 ! D103  D(30,13,33,14)         48.7239         estimate D2E/DX2                !
 ! D104  D(32,13,33,14)       -167.9202         estimate D2E/DX2                !
 ! D105  D(28,14,33,13)         65.823          estimate D2E/DX2                !
 ! D106  D(29,14,33,13)       -160.4911         estimate D2E/DX2                !
 ! D107  D(32,34,40,41)        108.6491         estimate D2E/DX2                !
 ! D108  D(32,34,40,42)       -100.9804         estimate D2E/DX2                !
 ! D109  D(36,34,40,41)        -35.8895         estimate D2E/DX2                !
 ! D110  D(36,34,40,42)        114.481          estimate D2E/DX2                !
 --------------------------------------------------------------------------------
 Trust Radius=3.00D-01 FncErr=1.00D-07 GrdErr=1.00D-06 EigMax=2.50D+02 EigMin=1.00D-04
 Number of steps in this run=    243 maximum allowed number of steps=    252.
 GradGradGradGradGradGradGradGradGradGradGradGradGradGradGradGradGradGrad

                          Input orientation:                          
 ---------------------------------------------------------------------
 Center     Atomic      Atomic             Coordinates (Angstroms)
 Number     Number       Type             X           Y           Z
 ---------------------------------------------------------------------
      1          6           0        1.511380    2.336691    0.919407
      2          6           0        1.204518    1.154993    0.241439
      3          6           0       -0.013494    1.103034   -0.427770
      4          7           0       -0.849251    2.148918   -0.404504
      5          6           0       -0.571125    3.291959    0.240221
      6          6           0        0.627709    3.416776    0.915798
      7          6           0        2.161146   -0.012932    0.213598
      8          7           0        1.528115   -1.298379    0.531379
      9          6           0        2.563584   -2.284754    0.189206
     10          6           0        3.135082   -1.782940   -1.144161
     11          6           0        2.809784   -0.270097   -1.159272
     12          8           0       -3.193222    1.507246   -1.384940
     13          8           0       -2.878259   -0.753614   -0.113537
     14          8           0       -0.603070   -1.921059   -1.154804
     15          1           0        2.125890   -3.289005    0.134489
     16          1           0        4.210281   -1.976005   -1.211594
     17          1           0        2.657187   -2.286572   -1.991465
     18          1           0        3.693193    0.360925   -1.302712
     19          1           0        2.098864   -0.030883   -1.959515
     20          1           0        3.345478   -2.301262    0.970492
     21          1           0        2.957368    0.194343    0.955809
     22          1           0       -0.354789    0.232791   -0.986084
     23          1           0       -1.327497    4.071737    0.198386
     24          1           0        0.860499    4.340006    1.440792
     25          1           0        2.453720    2.415242    1.462318
     26          6           0        1.061167   -1.404786    1.908424
     27          1           0       -1.784970    2.019695   -0.888974
     28          1           0        0.175364   -1.799483   -0.556744
     29          1           0       -0.506204   -2.770053   -1.590773
     30          1           0       -3.241284    0.596930   -0.992983
     31          1           0       -3.545524    1.467388   -2.276391
     32          1           0       -3.559689   -1.315307    0.293867
     33          1           0       -2.184467   -1.341875   -0.460248
     34          8           0       -4.811229   -2.392401    1.047482
     35          1           0       -5.086879   -2.316062    1.964684
     36          1           0       -5.580281   -2.717526    0.571995
     37          1           0        0.646652   -2.405657    2.074384
     38          1           0        0.264177   -0.674223    2.093872
     39          1           0        1.878608   -1.237952    2.633311
     40          8           0       -5.740379   -1.951790    3.584106
     41          1           0       -6.654971   -1.621082    3.637912
     42          1           0       -5.591387   -2.313507    4.474137
 ---------------------------------------------------------------------
                    Distance matrix (angstroms):
                    1          2          3          4          5
     1  C    0.000000
     2  C    1.396501   0.000000
     3  C    2.379503   1.390717   0.000000
     4  N    2.713038   2.371307   1.338994   0.000000
     5  C    2.389698   2.778405   2.355538   1.341479   0.000000
     6  C    1.395518   2.429636   2.751312   2.352036   1.381733
     7  C    2.537930   1.509954   2.527012   3.757411   4.288160
     8  N    3.655760   2.491549   3.010533   4.290874   5.055965
     9  C    4.795631   3.698871   4.301058   5.626489   6.397557
    10  C    4.885292   3.778679   4.330773   5.646371   6.434834
    11  C    3.578003   2.563153   3.223582   4.450825   5.106601
    12  O    5.303892   4.702054   3.345180   2.620534   3.563950
    13  O    5.466799   4.520825   3.428230   3.553340   4.670618
    14  O    5.186683   3.831314   3.165646   4.145874   5.396543
    15  H    5.713333   4.539767   4.917632   6.221976   7.112957
    16  H    5.515848   4.577015   5.285370   6.577632   7.260927
    17  H    5.582169   4.352066   4.589892   5.872574   6.820735
    18  H    3.688058   3.034543   3.880178   4.963617   5.399631
    19  H    3.773425   2.655250   2.845007   3.982584   4.796765
    20  H    4.987698   4.130487   4.982676   6.268211   6.867110
    21  H    2.584930   2.122653   3.400887   4.490118   4.749479
    22  H    3.397040   2.188312   1.088816   2.062588   3.302898
    23  H    3.404332   3.862687   3.306338   2.071094   1.087153
    24  H    2.169968   3.420688   3.838408   3.336050   2.142270
    25  H    1.090379   2.153898   3.373643   3.803363   3.378142
    26  C    3.896087   3.058081   3.591916   4.650607   5.244682
    27  H    3.773149   3.310979   2.047219   1.061593   2.089774
    28  H    4.590413   3.228805   2.911513   4.082020   5.207224
    29  H    6.037424   4.657205   4.073836   5.071606   6.332831
    30  H    5.410344   4.647622   3.315756   2.911494   3.989201
    31  H    6.044923   5.385161   4.003172   3.352362   4.302260
    32  H    6.280456   5.366824   4.352543   4.453656   5.491930
    33  H    5.393939   4.267544   3.269825   3.737853   4.956405
    34  O    7.896588   7.030144   6.116592   6.199122   7.137374
    35  H    8.141114   7.389146   6.569116   6.595952   7.403763
    36  H    8.715358   7.819154   6.825344   6.857002   7.830430
    37  H    4.956974   4.043406   4.359757   5.396922   6.108188
    38  H    3.464172   2.767992   3.097486   3.930869   4.456944
    39  H    3.981256   3.449875   4.293074   5.304755   5.678747
    40  O    8.836272   8.310061   7.630486   7.526483   8.087006
    41  H    9.473306   9.000788   8.249836   8.016259   8.526163
    42  H    9.203790   8.725282   8.174003   8.136475   8.634253
                    6          7          8          9         10
     6  C    0.000000
     7  C    3.821964   0.000000
     8  N    4.815724   1.467681   0.000000
     9  C    6.064898   2.307320   1.470447   0.000000
    10  C    6.129225   2.434130   2.371619   1.535023   0.000000
    11  C    4.760294   1.540012   2.357613   2.436770   1.547495
    12  O    4.851723   5.790986   5.816772   7.070927   7.136577
    13  O    5.544682   5.104041   4.486515   5.661245   6.187242
    14  O    5.856167   3.626894   2.787991   3.459239   3.740718
    15  H    6.915381   3.277218   2.115998   1.096855   2.218478
    16  H    6.814889   3.175497   3.269732   2.183845   1.094474
    17  H    6.715589   3.205901   2.935314   2.182680   1.095424
    18  H    4.863867   2.187723   3.287057   3.240595   2.220987
    19  H    4.724201   2.174079   2.852517   3.148476   2.192773
    20  H    6.331289   2.685514   2.121651   1.105459   2.187391
    21  H    3.976555   1.108066   2.109769   2.624627   2.889828
    22  H    3.836694   2.798133   2.862255   4.029422   4.033281
    23  H    2.183228   5.371721   6.091268   7.452890   7.482933
    24  H    1.087273   4.705928   5.750142   6.953734   7.024683
    25  H    2.153154   2.746075   3.938829   4.870611   4.988258
    26  C    4.941726   2.453497   1.457949   2.446898   3.709771
    27  H    3.321153   4.573737   4.899342   6.212944   6.223509
    28  H    5.438966   2.780022   1.806946   2.548632   3.017493
    29  H    6.770931   4.239366   3.287523   3.581541   3.799055
    30  H    5.154036   5.569023   5.353788   6.587728   6.807693
    31  H    5.604111   6.399803   6.424551   7.581487   7.515123
    32  H    6.349308   5.867757   5.093373   6.200424   6.863422
    33  H    5.696191   4.593965   3.842978   4.884138   5.381438
    34  O    7.959015   7.414260   6.453722   7.425368   8.265507
    35  H    8.162237   7.804138   6.844574   7.853845   8.806235
    36  H    8.734243   8.208104   7.248788   8.164334   8.931752
    37  H    5.936616   3.388414   2.093778   2.691309   4.115713
    38  H    4.272738   2.751586   2.104399   3.392467   4.467237
    39  H    5.116746   2.726814   2.131810   2.745658   4.018088
    40  O    8.746080   8.806452   7.910569   8.977306  10.057775
    41  H    9.264305   9.593539   8.758857   9.864876  10.896768
    42  H    9.174697   9.140383   8.201410   9.212221  10.392210
                   11         12         13         14         15
    11  C    0.000000
    12  O    6.264659   0.000000
    13  O    5.803549   2.612883   0.000000
    14  O    3.791209   4.302921   2.761096   0.000000
    15  H    3.354897   7.321587   5.615268   3.313725   0.000000
    16  H    2.207771   8.183822   7.276494   4.814000   2.807240
    17  H    2.186779   6.999158   6.042991   3.385687   2.409736
    18  H    1.095069   6.981656   6.770548   4.866950   4.224213
    19  H    1.096822   5.540952   5.357399   3.394226   3.873105
    20  H    2.991403   7.925111   6.504247   4.500274   1.778182
    21  H    2.170496   6.710632   6.008050   4.648261   3.674185
    22  H    3.208958   3.136881   2.846442   2.174668   4.451123
    23  H    6.149134   3.544639   5.078009   6.186236   8.130836
    24  H    5.640310   5.695783   6.506859   6.933981   7.842796
    25  H    3.769690   6.388997   6.399607   5.915809   5.865922
    26  C    3.708900   6.117680   4.475648   3.524144   2.798350
    27  H    5.140814   1.578531   3.080232   4.122753   6.672675
    28  H    3.105194   4.792467   3.258050   0.989149   2.549712
    29  H    4.175135   5.055464   3.445997   0.959293   3.189633
    30  H    6.115130   0.992278   1.652023   3.650565   6.721476
    31  H    6.682571   0.959370   3.171124   4.625750   7.784636
    32  H    6.616212   3.304466   0.972535   3.347713   6.020523
    33  H    5.155568   3.160717   0.973451   1.821724   4.766991
    34  O    8.213025   4.872563   2.787465   4.772927   7.054153
    35  H    8.735122   5.424353   3.411488   5.476475   7.504683
    36  H    8.909567   5.232241   3.409960   5.328116   7.739707
    37  H    4.438050   6.482466   4.465562   3.496326   2.594541
    38  H    4.150467   5.367918   3.841076   3.586170   3.760617
    39  H    4.023371   7.028934   5.514303   4.579866   3.242234
    40  O    9.921341   6.568436   4.826999   6.989289   8.692882
    41  H   10.696715   6.855595   5.393461   7.725647   9.599972
    42  H   10.319423   7.394466   5.553475   7.531421   8.907328
                   16         17         18         19         20
    16  H    0.000000
    17  H    1.765432   0.000000
    18  H    2.395188   2.925223   0.000000
    19  H    2.966642   2.323979   1.768273   0.000000
    20  H    2.369636   3.040913   3.517897   3.910704   0.000000
    21  H    3.313282   3.864126   2.381198   3.047437   2.525646
    22  H    5.076367   4.053391   4.062368   2.652830   4.893014
    23  H    8.320469   7.816729   6.421117   5.764371   7.940275
    24  H    7.625496   7.675937   5.602147   5.674531   7.106528
    25  H    5.433080   5.837557   3.660861   4.221184   4.825198
    26  C    4.469645   4.305109   4.511839   4.233837   2.627063
    27  H    7.211986   6.284280   5.738725   4.520519   6.960588
    28  H    4.091521   2.907770   4.195110   2.965732   3.554413
    29  H    4.797866   3.225112   5.246040   3.798079   4.649225
    30  H    7.886292   6.641047   6.945401   5.463105   7.459235
    31  H    8.552383   7.255827   7.387241   5.848448   8.498875
    32  H    7.942000   6.694449   7.613351   6.224685   7.007943
    33  H    6.469887   5.165142   6.177067   4.723709   5.792040
    34  O    9.309374   8.063723   9.242803   7.897353   8.157579
    35  H    9.830644   8.696122   9.743295   8.500370   8.490776
    36  H    9.979286   8.637877   9.949307   8.520320   8.944342
    37  H    4.866385   4.537352   5.323548   4.901103   2.917728
    38  H    5.309659   5.001614   4.936240   4.495543   3.661100
    39  H    4.556832   4.805657   4.619676   4.753901   2.459126
    40  O   11.046038  10.085543  10.872991   9.791596   9.460756
    41  H   11.903671  10.901791  11.637122  10.511401  10.372403
    42  H   11.336407  10.480635  11.257353  10.283103   9.599126
                   21         22         23         24         25
    21  H    0.000000
    22  H    3.839637   0.000000
    23  H    5.828202   4.133598   0.000000
    24  H    4.671037   4.922994   2.530389   0.000000
    25  H    2.332939   4.318042   4.317303   2.498706   0.000000
    26  C    2.657116   3.614522   6.214680   5.767286   4.090334
    27  H    5.406006   2.290824   2.366962   4.220208   4.863283
    28  H    3.742019   2.143719   6.107376   6.492525   5.199175
    29  H    5.221978   3.066863   7.119389   7.849280   6.705953
    30  H    6.510234   2.909381   4.142007   6.062879   6.462804
    31  H    7.372609   3.656489   4.222179   6.440685   7.132132
    32  H    6.722294   3.782362   5.831984   7.268842   7.172403
    33  H    5.550104   2.470587   5.520452   6.720829   6.270962
    34  O    8.188452   5.557597   7.392052   8.811838   8.721525
    35  H    8.487041   6.131587   7.619497   8.941421   8.916179
    36  H    9.028718   6.199818   8.019966   9.594124   9.575132
    37  H    3.653850   4.163022   7.026611   6.778727   5.184707
    38  H    3.050061   3.269850   5.352610   5.091621   3.838978
    39  H    2.455444   4.500130   6.663390   5.794158   3.879150
    40  O    9.336200   7.393484   8.198750   9.367608   9.524506
    41  H   10.143298   8.031841   8.521767   9.840945  10.197714
    42  H    9.578578   7.982456   8.788296   9.751782   9.805910
                   26         27         28         29         30
    26  C    0.000000
    27  H    5.258612   0.000000
    28  H    2.649054   4.305741   0.000000
    29  H    4.070011   5.006940   1.573454   0.000000
    30  H    5.562024   2.038609   4.196020   4.378880   0.000000
    31  H    6.854463   2.308575   5.241626   5.259605   1.580315
    32  H    4.895622   3.958659   3.861164   3.871941   2.326804
    33  H    4.018545   3.412266   2.405726   2.476761   2.271483
    34  O    6.016780   5.689877   5.271736   5.063225   3.945165
    35  H    6.215469   6.151809   5.857957   5.816353   4.543076
    36  H    6.900591   6.243403   5.936691   5.516030   4.348066
    37  H    1.095951   5.854743   2.740875   3.859435   5.791400
    38  H    1.096953   4.511493   2.880948   4.308433   4.840740
    39  H    1.105217   6.036602   3.659619   5.086998   6.536826
    40  O    7.026248   7.171220   7.222593   7.405776   5.804412
    41  H    7.910543   7.580558   8.017508   8.152706   6.165876
    42  H    7.187846   7.875812   7.670032   7.927840   6.624427
                   31         32         33         34         35
    31  H    0.000000
    32  H    3.788115   0.000000
    33  H    3.611483   1.568640   0.000000
    34  O    5.248630   1.815054   3.205734   0.000000
    35  H    5.888717   2.474965   3.905551   0.960765   0.000000
    36  H    5.455918   2.475150   3.806507   0.960851   1.531079
    37  H    7.176633   4.695999   3.946039   5.553663   5.735280
    38  H    6.180576   4.274688   3.600715   5.459562   5.598761
    39  H    7.800336   5.920647   5.107787   6.971479   7.080070
    40  O    7.131170   3.998274   5.419715   2.737137   1.783896
    41  H    7.361134   4.566936   6.071102   3.271795   2.396164
    42  H    8.003146   4.753826   6.074482   3.515229   2.559666
                   36         37         38         39         40
    36  H    0.000000
    37  H    6.413200   0.000000
    38  H    6.375648   1.773282   0.000000
    39  H    7.878654   1.787079   1.793090   0.000000
    40  O    3.112040   6.578710   6.317252   7.711196   0.000000
    41  H    3.428848   7.508254   7.152287   8.601045   0.974033
    42  H    3.923018   6.684342   6.529972   7.768287   0.972211
                   41         42
    41  H    0.000000
    42  H    1.519847   0.000000
 Stoichiometry    C10H25N2O5(1+)
 Framework group  C1[X(C10H25N2O5)]
 Deg. of freedom   120
 Full point group                 C1      NOp   1
 Largest Abelian subgroup         C1      NOp   1
 Largest concise Abelian subgroup C1      NOp   1
                         Standard orientation:                         
 ---------------------------------------------------------------------
 Center     Atomic      Atomic             Coordinates (Angstroms)
 Number     Number       Type             X           Y           Z
 ---------------------------------------------------------------------
      1          6           0        2.166425    1.929385    1.369065
      2          6           0        1.803049    0.906534    0.490459
      3          6           0        0.788010    1.180180   -0.419985
      4          7           0        0.188587    2.377436   -0.433151
      5          6           0        0.524833    3.371871    0.402076
      6          6           0        1.534218    3.172683    1.324384
      7          6           0        2.495103   -0.435369    0.508253
      8          7           0        1.568912   -1.573895    0.511988
      9          6           0        2.444453   -2.729381    0.266036
     10          6           0        3.396770   -2.251223   -0.838840
     11          6           0        3.383183   -0.708363   -0.719926
     12          8           0       -1.941242    2.350956   -1.959692
     13          8           0       -2.374883   -0.025369   -0.963604
     14          8           0       -0.190102   -1.567382   -1.651048
     15          1           0        1.845613   -3.605072   -0.012614
     16          1           0        4.399799   -2.668084   -0.704553
     17          1           0        3.041112   -2.562976   -1.826904
     18          1           0        4.380688   -0.275734   -0.589572
     19          1           0        2.938314   -0.251222   -1.612189
     20          1           0        3.004499   -2.983934    1.184508
     21          1           0        3.121232   -0.472163    1.421719
     22          1           0        0.424259    0.457231   -1.148373
     23          1           0       -0.035298    4.298757    0.307004
     24          1           0        1.812578    3.973735    2.004821
     25          1           0        2.953297    1.752774    2.102938
     26          6           0        0.782623   -1.694362    1.733811
     27          1           0       -0.615395    2.498293   -1.115784
     28          1           0        0.436049   -1.671115   -0.892371
     29          1           0       -0.160645   -2.376044   -2.166258
     30          1           0       -2.254575    1.442755   -1.711481
     31          1           0       -2.077129    2.466342   -2.902354
     32          1           0       -3.227938   -0.457599   -0.786691
     33          1           0       -1.746833   -0.718816   -1.232477
     34          8           0       -4.804743   -1.296105   -0.462635
     35          1           0       -5.266252   -1.240988    0.378222
     36          1           0       -5.489906   -1.402870   -1.127757
     37          1           0        0.155139   -2.590923    1.674229
     38          1           0        0.121326   -0.826093    1.843822
     39          1           0        1.425178   -1.773603    2.629550
     40          8           0       -6.195642   -0.884154    1.858489
     41          1           0       -7.015782   -0.367438    1.763018
     42          1           0       -6.330939   -1.345293    2.703616
 ---------------------------------------------------------------------
 Rotational constants (GHZ):           0.3974714           0.2146418           0.1733994
 Standard basis: Aug-CC-pVDZ (5D, 7F)
 There are   650 symmetry adapted cartesian basis functions of A   symmetry.
 There are   616 symmetry adapted basis functions of A   symmetry.
   616 basis functions,  1006 primitive gaussians,   650 cartesian basis functions
    69 alpha electrons       69 beta electrons
       nuclear repulsion energy      1332.6747356970 Hartrees.
 NAtoms=   42 NActive=   42 NUniq=   42 SFac= 1.00D+00 NAtFMM=   60 NAOKFM=F Big=F
 Integral buffers will be    131072 words long.
 Raffenetti 2 integral format.
 Two-electron integral symmetry is turned on.
 Nuclear repulsion after empirical dispersion term =     1332.6441244579 Hartrees.
 One-electron integrals computed using PRISM.
 NBasis=   616 RedAO= T EigKep=  1.90D-06  NBF=   616
 NBsUse=   616 1.00D-06 EigRej= -1.00D+00 NBFU=   616
 ExpMin= 2.97D-02 ExpMax= 1.17D+04 ExpMxC= 4.01D+02 IAcc=3 IRadAn=         5 AccDes= 0.00D+00
 Harris functional with IExCor= 4639 and IRadAn=       5 diagonalized for initial guess.
 HarFok:  IExCor= 4639 AccDes= 0.00D+00 IRadAn=         5 IDoV= 1 UseB2=F ITyADJ=14
 ICtDFT=  3500011 ScaDFX=  1.000000  1.000000  1.000000  1.000000
 FoFCou: FMM=F IPFlag=           0 FMFlag=      100000 FMFlg1=           0
         NFxFlg=           0 DoJE=T BraDBF=F KetDBF=T FulRan=T
         wScrn=  0.000000 ICntrl=       500 IOpCl=  0 I1Cent=   200000004 NGrid=           0
         NMat0=    1 NMatS0=      1 NMatT0=    0 NMatD0=    1 NMtDS0=    0 NMtDT0=    0
 Petite list used in FoFCou.
 Requested convergence on RMS density matrix=1.00D-08 within 128 cycles.
 Requested convergence on MAX density matrix=1.00D-06.
 Requested convergence on             energy=1.00D-06.
 No special actions if energy rises.
 SCF Done:  E(RwB97XD) =  -881.464676989     A.U. after   16 cycles
            NFock= 16  Conv=0.14D-08     -V/T= 2.0062

 **********************************************************************

            Population analysis using the SCF density.

 **********************************************************************

 Orbital symmetries:
       Occupied  (A) (A) (A) (A) (A) (A) (A) (A) (A) (A) (A) (A)
                 (A) (A) (A) (A) (A) (A) (A) (A) (A) (A) (A) (A)
                 (A) (A) (A) (A) (A) (A) (A) (A) (A) (A) (A) (A)
                 (A) (A) (A) (A) (A) (A) (A) (A) (A) (A) (A) (A)
                 (A) (A) (A) (A) (A) (A) (A) (A) (A) (A) (A) (A)
                 (A) (A) (A) (A) (A) (A) (A) (A) (A)
       Virtual   (A) (A) (A) (A) (A) (A) (A) (A) (A) (A) (A) (A)
                 (A) (A) (A) (A) (A) (A) (A) (A) (A) (A) (A) (A)
                 (A) (A) (A) (A) (A) (A) (A) (A) (A) (A) (A) (A)
                 (A) (A) (A) (A) (A) (A) (A) (A) (A) (A) (A) (A)
                 (A) (A) (A) (A) (A) (A) (A) (A) (A) (A) (A) (A)
                 (A) (A) (A) (A) (A) (A) (A) (A) (A) (A) (A) (A)
                 (A) (A) (A) (A) (A) (A) (A) (A) (A) (A) (A) (A)
                 (A) (A) (A) (A) (A) (A) (A) (A) (A) (A) (A) (A)
                 (A) (A) (A) (A) (A) (A) (A) (A) (A) (A) (A) (A)
                 (A) (A) (A) (A) (A) (A) (A) (A) (A) (A) (A) (A)
                 (A) (A) (A) (A) (A) (A) (A) (A) (A) (A) (A) (A)
                 (A) (A) (A) (A) (A) (A) (A) (A) (A) (A) (A) (A)
                 (A) (A) (A) (A) (A) (A) (A) (A) (A) (A) (A) (A)
                 (A) (A) (A) (A) (A) (A) (A) (A) (A) (A) (A) (A)
                 (A) (A) (A) (A) (A) (A) (A) (A) (A) (A) (A) (A)
                 (A) (A) (A) (A) (A) (A) (A) (A) (A) (A) (A) (A)
                 (A) (A) (A) (A) (A) (A) (A) (A) (A) (A) (A) (A)
                 (A) (A) (A) (A) (A) (A) (A) (A) (A) (A) (A) (A)
                 (A) (A) (A) (A) (A) (A) (A) (A) (A) (A) (A) (A)
                 (A) (A) (A) (A) (A) (A) (A) (A) (A) (A) (A) (A)
                 (A) (A) (A) (A) (A) (A) (A) (A) (A) (A) (A) (A)
                 (A) (A) (A) (A) (A) (A) (A) (A) (A) (A) (A) (A)
                 (A) (A) (A) (A) (A) (A) (A) (A) (A) (A) (A) (A)
                 (A) (A) (A) (A) (A) (A) (A) (A) (A) (A) (A) (A)
                 (A) (A) (A) (A) (A) (A) (A) (A) (A) (A) (A) (A)
                 (A) (A) (A) (A) (A) (A) (A) (A) (A) (A) (A) (A)
                 (A) (A) (A) (A) (A) (A) (A) (A) (A) (A) (A) (A)
                 (A) (A) (A) (A) (A) (A) (A) (A) (A) (A) (A) (A)
                 (A) (A) (A) (A) (A) (A) (A) (A) (A) (A) (A) (A)
                 (A) (A) (A) (A) (A) (A) (A) (A) (A) (A) (A) (A)
                 (A) (A) (A) (A) (A) (A) (A) (A) (A) (A) (A) (A)
                 (A) (A) (A) (A) (A) (A) (A) (A) (A) (A) (A) (A)
                 (A) (A) (A) (A) (A) (A) (A) (A) (A) (A) (A) (A)
                 (A) (A) (A) (A) (A) (A) (A) (A) (A) (A) (A) (A)
                 (A) (A) (A) (A) (A) (A) (A) (A) (A) (A) (A) (A)
                 (A) (A) (A) (A) (A) (A) (A) (A) (A) (A) (A) (A)
                 (A) (A) (A) (A) (A) (A) (A) (A) (A) (A) (A) (A)
                 (A) (A) (A) (A) (A) (A) (A) (A) (A) (A) (A) (A)
                 (A) (A) (A) (A) (A) (A) (A) (A) (A) (A) (A) (A)
                 (A) (A) (A) (A) (A) (A) (A) (A) (A) (A) (A) (A)
                 (A) (A) (A) (A) (A) (A) (A) (A) (A) (A) (A) (A)
                 (A) (A) (A) (A) (A) (A) (A) (A) (A) (A) (A) (A)
                 (A) (A) (A) (A) (A) (A) (A) (A) (A) (A) (A) (A)
                 (A) (A) (A) (A) (A) (A) (A) (A) (A) (A) (A) (A)
                 (A) (A) (A) (A) (A) (A) (A) (A) (A) (A) (A) (A)
                 (A) (A) (A) (A) (A) (A) (A)
 The electronic state is 1-A.
 Alpha  occ. eigenvalues --  -19.38716 -19.37693 -19.37393 -19.35188 -19.34641
 Alpha  occ. eigenvalues --  -14.66542 -14.57562 -10.50272 -10.49724 -10.47166
 Alpha  occ. eigenvalues --  -10.46616 -10.46203 -10.45944 -10.43030 -10.42572
 Alpha  occ. eigenvalues --  -10.41112 -10.40223  -1.24993  -1.22543  -1.22119
 Alpha  occ. eigenvalues --   -1.21681  -1.19833  -1.18424  -1.17025  -1.07621
 Alpha  occ. eigenvalues --   -1.03960  -1.00112  -0.95413  -0.89855  -0.89148
 Alpha  occ. eigenvalues --   -0.88195  -0.81875  -0.79305  -0.79043  -0.74141
 Alpha  occ. eigenvalues --   -0.74015  -0.73229  -0.72432  -0.72256  -0.71099
 Alpha  occ. eigenvalues --   -0.70970  -0.70306  -0.69125  -0.67957  -0.67124
 Alpha  occ. eigenvalues --   -0.65119  -0.63910  -0.63324  -0.61727  -0.61176
 Alpha  occ. eigenvalues --   -0.60935  -0.59603  -0.58296  -0.57536  -0.56897
 Alpha  occ. eigenvalues --   -0.56538  -0.55970  -0.55241  -0.54016  -0.53564
 Alpha  occ. eigenvalues --   -0.52657  -0.51628  -0.51482  -0.51241  -0.50860
 Alpha  occ. eigenvalues --   -0.48857  -0.48694  -0.48399  -0.43931
 Alpha virt. eigenvalues --   -0.13129  -0.10287  -0.05708  -0.04858  -0.04451
 Alpha virt. eigenvalues --   -0.04384  -0.03354  -0.02947  -0.02575  -0.02551
 Alpha virt. eigenvalues --   -0.01520  -0.01370  -0.01017  -0.00886  -0.00568
 Alpha virt. eigenvalues --   -0.00017   0.00267   0.00848   0.01362   0.01497
 Alpha virt. eigenvalues --    0.01895   0.02350   0.02561   0.02811   0.03122
 Alpha virt. eigenvalues --    0.03168   0.03660   0.03835   0.04050   0.04240
 Alpha virt. eigenvalues --    0.04576   0.05318   0.05569   0.05751   0.05903
 Alpha virt. eigenvalues --    0.05987   0.06394   0.06799   0.07129   0.07322
 Alpha virt. eigenvalues --    0.07439   0.07900   0.07976   0.08218   0.08282
 Alpha virt. eigenvalues --    0.08897   0.09303   0.09440   0.09685   0.10186
 Alpha virt. eigenvalues --    0.10248   0.10818   0.11234   0.11526   0.11664
 Alpha virt. eigenvalues --    0.11870   0.12136   0.12274   0.12560   0.12794
 Alpha virt. eigenvalues --    0.13295   0.13591   0.13816   0.14083   0.14476
 Alpha virt. eigenvalues --    0.14650   0.14972   0.15162   0.15461   0.15692
 Alpha virt. eigenvalues --    0.15911   0.16122   0.16350   0.16545   0.17093
 Alpha virt. eigenvalues --    0.17190   0.17612   0.17786   0.17927   0.18453
 Alpha virt. eigenvalues --    0.18581   0.18723   0.18946   0.19147   0.19576
 Alpha virt. eigenvalues --    0.19685   0.20098   0.20324   0.20682   0.20912
 Alpha virt. eigenvalues --    0.21293   0.21641   0.21878   0.22295   0.22622
 Alpha virt. eigenvalues --    0.22871   0.23141   0.23362   0.23478   0.23798
 Alpha virt. eigenvalues --    0.23984   0.24644   0.24887   0.25298   0.25598
 Alpha virt. eigenvalues --    0.26077   0.26179   0.26327   0.26899   0.27020
 Alpha virt. eigenvalues --    0.27490   0.27740   0.28009   0.28306   0.28602
 Alpha virt. eigenvalues --    0.28873   0.29290   0.30184   0.30210   0.30439
 Alpha virt. eigenvalues --    0.31018   0.31172   0.31871   0.32187   0.32378
 Alpha virt. eigenvalues --    0.32685   0.33260   0.33378   0.33634   0.34050
 Alpha virt. eigenvalues --    0.34386   0.34972   0.35169   0.35584   0.35965
 Alpha virt. eigenvalues --    0.36504   0.36733   0.37326   0.37583   0.37769
 Alpha virt. eigenvalues --    0.38105   0.38453   0.38993   0.39445   0.39515
 Alpha virt. eigenvalues --    0.40064   0.40528   0.40600   0.41291   0.41829
 Alpha virt. eigenvalues --    0.41980   0.42242   0.42678   0.42840   0.43059
 Alpha virt. eigenvalues --    0.43836   0.44347   0.44818   0.45205   0.45548
 Alpha virt. eigenvalues --    0.45967   0.46214   0.46424   0.46908   0.47259
 Alpha virt. eigenvalues --    0.47481   0.47817   0.48062   0.48412   0.48568
 Alpha virt. eigenvalues --    0.49050   0.49601   0.49929   0.50191   0.50660
 Alpha virt. eigenvalues --    0.51081   0.51362   0.51541   0.51875   0.52029
 Alpha virt. eigenvalues --    0.52531   0.53040   0.53225   0.53490   0.53830
 Alpha virt. eigenvalues --    0.54021   0.54245   0.54496   0.55163   0.55481
 Alpha virt. eigenvalues --    0.55930   0.56028   0.56356   0.56913   0.56961
 Alpha virt. eigenvalues --    0.58057   0.58340   0.58492   0.58762   0.59242
 Alpha virt. eigenvalues --    0.60024   0.60349   0.60699   0.61166   0.61646
 Alpha virt. eigenvalues --    0.61994   0.62385   0.62780   0.62964   0.63739
 Alpha virt. eigenvalues --    0.64322   0.64832   0.65058   0.65644   0.65982
 Alpha virt. eigenvalues --    0.66917   0.67223   0.67568   0.67695   0.68293
 Alpha virt. eigenvalues --    0.68512   0.69069   0.69466   0.70043   0.70190
 Alpha virt. eigenvalues --    0.70448   0.70982   0.71438   0.72295   0.72387
 Alpha virt. eigenvalues --    0.72805   0.73421   0.73978   0.74186   0.74857
 Alpha virt. eigenvalues --    0.74962   0.75484   0.75884   0.76282   0.76814
 Alpha virt. eigenvalues --    0.76870   0.77556   0.78216   0.78318   0.79146
 Alpha virt. eigenvalues --    0.79403   0.80123   0.80598   0.81045   0.81471
 Alpha virt. eigenvalues --    0.82653   0.82804   0.83172   0.83886   0.84468
 Alpha virt. eigenvalues --    0.84599   0.84979   0.86127   0.86313   0.86893
 Alpha virt. eigenvalues --    0.87228   0.88232   0.88698   0.89167   0.90088
 Alpha virt. eigenvalues --    0.90588   0.91198   0.91770   0.92879   0.93459
 Alpha virt. eigenvalues --    0.93724   0.94482   0.95657   0.95791   0.96599
 Alpha virt. eigenvalues --    0.97202   0.98140   0.98311   0.99145   1.00371
 Alpha virt. eigenvalues --    1.01267   1.01971   1.02269   1.03446   1.03540
 Alpha virt. eigenvalues --    1.04209   1.04573   1.05492   1.06938   1.07525
 Alpha virt. eigenvalues --    1.08490   1.08788   1.09696   1.10227   1.10805
 Alpha virt. eigenvalues --    1.11396   1.11743   1.12669   1.13022   1.13618
 Alpha virt. eigenvalues --    1.14278   1.14819   1.14834   1.16562   1.17425
 Alpha virt. eigenvalues --    1.18476   1.19102   1.20004   1.20193   1.21135
 Alpha virt. eigenvalues --    1.21975   1.22460   1.22961   1.23438   1.25250
 Alpha virt. eigenvalues --    1.26126   1.26655   1.27081   1.29049   1.29992
 Alpha virt. eigenvalues --    1.30087   1.30510   1.30765   1.31622   1.32659
 Alpha virt. eigenvalues --    1.33944   1.34084   1.34710   1.35392   1.36179
 Alpha virt. eigenvalues --    1.37037   1.37625   1.39145   1.39414   1.40511
 Alpha virt. eigenvalues --    1.41495   1.42915   1.43356   1.44554   1.46030
 Alpha virt. eigenvalues --    1.46109   1.47088   1.47591   1.48387   1.49173
 Alpha virt. eigenvalues --    1.49852   1.51035   1.52145   1.52208   1.53809
 Alpha virt. eigenvalues --    1.54840   1.55668   1.55961   1.57065   1.58490
 Alpha virt. eigenvalues --    1.59334   1.60615   1.61155   1.62004   1.62704
 Alpha virt. eigenvalues --    1.63183   1.64150   1.64615   1.65386   1.66207
 Alpha virt. eigenvalues --    1.66484   1.67730   1.67901   1.68198   1.69593
 Alpha virt. eigenvalues --    1.71286   1.71451   1.72130   1.72505   1.73223
 Alpha virt. eigenvalues --    1.73751   1.74309   1.75160   1.76470   1.76673
 Alpha virt. eigenvalues --    1.77345   1.79294   1.79884   1.80871   1.81351
 Alpha virt. eigenvalues --    1.81536   1.82272   1.83267   1.83811   1.84002
 Alpha virt. eigenvalues --    1.84469   1.85361   1.85842   1.86939   1.87742
 Alpha virt. eigenvalues --    1.88065   1.88448   1.88780   1.89979   1.90161
 Alpha virt. eigenvalues --    1.91097   1.92376   1.93632   1.93919   1.94597
 Alpha virt. eigenvalues --    1.95199   1.95674   1.96805   1.98097   1.98757
 Alpha virt. eigenvalues --    1.99362   1.99965   2.00579   2.01464   2.01761
 Alpha virt. eigenvalues --    2.03234   2.04664   2.05162   2.05860   2.06062
 Alpha virt. eigenvalues --    2.06491   2.09201   2.09749   2.10144   2.11703
 Alpha virt. eigenvalues --    2.11779   2.12161   2.12952   2.13406   2.14023
 Alpha virt. eigenvalues --    2.14346   2.15070   2.16044   2.16978   2.17634
 Alpha virt. eigenvalues --    2.18640   2.19884   2.21418   2.23278   2.24080
 Alpha virt. eigenvalues --    2.24468   2.24973   2.26509   2.26692   2.27768
 Alpha virt. eigenvalues --    2.28425   2.29250   2.30009   2.30418   2.32471
 Alpha virt. eigenvalues --    2.33113   2.35265   2.35759   2.36478   2.38165
 Alpha virt. eigenvalues --    2.39067   2.39890   2.40148   2.41872   2.43635
 Alpha virt. eigenvalues --    2.44082   2.45560   2.45711   2.46388   2.48354
 Alpha virt. eigenvalues --    2.49668   2.51011   2.51808   2.53005   2.54397
 Alpha virt. eigenvalues --    2.55554   2.56393   2.56903   2.57967   2.59043
 Alpha virt. eigenvalues --    2.60560   2.61659   2.62068   2.63512   2.64555
 Alpha virt. eigenvalues --    2.64841   2.66053   2.68457   2.68752   2.70083
 Alpha virt. eigenvalues --    2.71287   2.72341   2.73608   2.73648   2.75831
 Alpha virt. eigenvalues --    2.76295   2.77100   2.78098   2.78711   2.80244
 Alpha virt. eigenvalues --    2.80430   2.83424   2.83927   2.85146   2.86574
 Alpha virt. eigenvalues --    2.87859   2.89640   2.90421   2.92355   2.92888
 Alpha virt. eigenvalues --    2.96006   2.97079   3.00232   3.04196   3.06256
 Alpha virt. eigenvalues --    3.07242   3.12287   3.16764   3.20550   3.25037
 Alpha virt. eigenvalues --    3.28723   3.30003   3.34427   3.36791   3.39787
 Alpha virt. eigenvalues --    3.40911   3.42058   3.43903   3.44618   3.46248
 Alpha virt. eigenvalues --    3.47094   3.48355   3.48955   3.53187   3.54542
 Alpha virt. eigenvalues --    3.56792   3.60779   3.64435   3.65598   3.70666
 Alpha virt. eigenvalues --    3.72797   3.80047   3.84191   3.90615   3.93337
 Alpha virt. eigenvalues --    3.99794   4.03475   4.05985   4.10316   4.15843
 Alpha virt. eigenvalues --    4.37325   4.97879
          Condensed to atoms (all electrons):
               1          2          3          4          5          6
     1  C   24.091572  -9.798615  -2.960131  -0.289030   1.521202  -4.385039
     2  C   -9.798615  25.221401  -3.621473  -0.289969  -0.422359   0.214627
     3  C   -2.960131  -3.621473  17.015348  -1.266323  -1.857068   0.558441
     4  N   -0.289030  -0.289969  -1.266323   7.841581   0.260753   0.042791
     5  C    1.521202  -0.422359  -1.857068   0.260753   9.860879  -2.290218
     6  C   -4.385039   0.214627   0.558441   0.042791  -2.290218  11.586674
     7  C   -0.617353  -9.918703  -1.958379   1.007180  -0.700305   0.247029
     8  N   -0.382176   1.933384   0.813742  -0.152944   0.107721  -0.214400
     9  C    0.033691  -0.471384  -0.185595   0.048193  -0.009343  -0.057862
    10  C    0.000007   0.420458  -0.072232   0.020539   0.014982  -0.018605
    11  C   -0.325419   0.020196  -0.788704   0.029611  -0.105257   0.091896
    12  O    0.027343  -0.080035  -0.019256  -0.121817   0.039695  -0.017388
    13  O   -0.011792   0.039550  -0.062427  -0.002760   0.019467  -0.004868
    14  O   -0.013906  -0.037317  -0.083542   0.008047  -0.014593   0.010819
    15  H    0.027028  -0.175862  -0.018433   0.002153   0.000885  -0.002389
    16  H    0.007256   0.048077   0.034529  -0.003321   0.002830  -0.003716
    17  H   -0.002562  -0.117556  -0.035099   0.006075  -0.001732   0.000475
    18  H   -0.099953   0.445611   0.214243  -0.009463   0.000002  -0.001324
    19  H    0.100084   0.007814  -0.060950   0.002106   0.009164  -0.012801
    20  H    0.014460   0.118976   0.018993   0.000236  -0.002183   0.002375
    21  H    0.033197   1.145761  -0.247996   0.000040   0.037728  -0.011823
    22  H   -0.190860  -0.911639  -1.044590   0.118511  -0.168804   0.074919
    23  H    0.247689  -0.116920   0.222822  -0.108108  -0.497591   0.051915
    24  H    0.600458  -0.017989  -0.166056  -0.009515   0.342990  -1.080240
    25  H   -2.605900   1.239654   0.351554  -0.092862  -0.213111   0.756141
    26  C   -0.213893   0.798385   0.002714  -0.053903   0.009921   0.012959
    27  H   -0.023376  -0.441654   0.650913  -0.006235  -0.603792  -0.009810
    28  H    0.018643  -0.160520  -0.066071   0.014196  -0.013249   0.012569
    29  H   -0.000579   0.009011   0.018686  -0.001212   0.002170  -0.001012
    30  H    0.007485   0.001628  -0.042025   0.009721  -0.002093  -0.000740
    31  H   -0.000732  -0.002131   0.012272  -0.009363  -0.009701   0.004002
    32  H   -0.008120   0.007875   0.008394   0.004134  -0.001613   0.001996
    33  H   -0.002383  -0.011756   0.003822   0.001341   0.000937   0.001375
    34  O    0.000676   0.000636  -0.000468   0.000255   0.000160  -0.000172
    35  H    0.000209  -0.000071  -0.001155   0.000372   0.000182  -0.000151
    36  H    0.000178  -0.000159   0.000179  -0.000065  -0.000007  -0.000019
    37  H   -0.015797   0.045647  -0.098596   0.002523  -0.001093   0.004637
    38  H    0.004272  -0.090803   0.131078  -0.002556  -0.041408   0.070502
    39  H    0.005144   0.201445   0.023364  -0.007510   0.018581  -0.020329
    40  O    0.000010   0.000025  -0.000016  -0.000006  -0.000018  -0.000015
    41  H   -0.000025   0.000009   0.000015   0.000004  -0.000020   0.000017
    42  H    0.000002   0.000011   0.000003  -0.000009   0.000005  -0.000011
               7          8          9         10         11         12
     1  C   -0.617353  -0.382176   0.033691   0.000007  -0.325419   0.027343
     2  C   -9.918703   1.933384  -0.471384   0.420458   0.020196  -0.080035
     3  C   -1.958379   0.813742  -0.185595  -0.072232  -0.788704  -0.019256
     4  N    1.007180  -0.152944   0.048193   0.020539   0.029611  -0.121817
     5  C   -0.700305   0.107721  -0.009343   0.014982  -0.105257   0.039695
     6  C    0.247029  -0.214400  -0.057862  -0.018605   0.091896  -0.017388
     7  C   27.557423  -6.427436  -0.241223  -0.048407  -1.009631   0.011070
     8  N   -6.427436  15.500099  -0.169135  -0.382442  -1.065223   0.001736
     9  C   -0.241223  -0.169135   5.902044   0.014989   0.740195   0.000157
    10  C   -0.048407  -0.382442   0.014989   6.269284  -0.970641  -0.001058
    11  C   -1.009631  -1.065223   0.740195  -0.970641   8.325296  -0.002613
    12  O    0.011070   0.001736   0.000157  -0.001058  -0.002613   8.009339
    13  O    0.002356   0.001720   0.002076   0.001164  -0.004420  -0.066337
    14  O    0.084795  -0.069061   0.039680  -0.011966   0.030235   0.004071
    15  H    0.636469  -1.133192  -0.167535   0.146004   0.076767  -0.000026
    16  H   -0.128962  -0.126996   0.152655  -0.228791   0.225241  -0.000043
    17  H    0.241102   0.135011  -0.030681  -0.396229   0.261425  -0.000336
    18  H   -0.049131   0.451362  -0.206654   0.194260  -1.058313   0.000022
    19  H   -0.207294  -0.125481   0.020470   0.303827  -0.167136   0.000588
    20  H    0.106285  -0.263000  -0.296353   0.001098   0.025550   0.000019
    21  H   -2.799682  -0.445172  -0.007736  -0.067524   0.726408   0.000303
    22  H    0.074171  -0.063439   0.039477  -0.009888   0.089356   0.011048
    23  H   -0.024764   0.006223  -0.000508   0.000692   0.003724   0.014143
    24  H    0.089482  -0.001282   0.000460   0.000041  -0.006380  -0.000403
    25  H   -0.312857   0.035148  -0.012448  -0.008319   0.004162   0.000167
    26  C   -1.407704   1.233491  -0.281303  -0.013137  -0.179161   0.000458
    27  H   -0.012203  -0.000546  -0.005829  -0.002287  -0.030420   0.003136
    28  H    0.534736  -0.220226  -0.148951   0.014845  -0.049128   0.001325
    29  H   -0.035095  -0.026338   0.024875  -0.007262   0.019935   0.001188
    30  H    0.022022  -0.005945  -0.000415  -0.000461  -0.000891   0.292786
    31  H   -0.003224   0.000982   0.000275  -0.000019   0.001088   0.374489
    32  H   -0.020939   0.015307  -0.001516  -0.000679  -0.002076   0.008398
    33  H    0.063982  -0.061301   0.005829   0.008901   0.008942  -0.014902
    34  O    0.000530   0.000017   0.000129   0.000014   0.000010  -0.000959
    35  H    0.000896  -0.000294   0.000249   0.000033   0.000108  -0.000297
    36  H    0.000063  -0.000007  -0.000047  -0.000009   0.000006   0.000051
    37  H    0.137995  -0.227851  -0.023271   0.074575  -0.069974  -0.000110
    38  H    0.006256   0.084893  -0.077790  -0.043080   0.081041   0.000788
    39  H   -0.315202  -0.521921   0.111299  -0.004678   0.050847  -0.000042
    40  O    0.000009  -0.000047  -0.000014   0.000001  -0.000003   0.000016
    41  H    0.000010   0.000006  -0.000004  -0.000000  -0.000001   0.000023
    42  H   -0.000043  -0.000034  -0.000004  -0.000000  -0.000004   0.000005
              13         14         15         16         17         18
     1  C   -0.011792  -0.013906   0.027028   0.007256  -0.002562  -0.099953
     2  C    0.039550  -0.037317  -0.175862   0.048077  -0.117556   0.445611
     3  C   -0.062427  -0.083542  -0.018433   0.034529  -0.035099   0.214243
     4  N   -0.002760   0.008047   0.002153  -0.003321   0.006075  -0.009463
     5  C    0.019467  -0.014593   0.000885   0.002830  -0.001732   0.000002
     6  C   -0.004868   0.010819  -0.002389  -0.003716   0.000475  -0.001324
     7  C    0.002356   0.084795   0.636469  -0.128962   0.241102  -0.049131
     8  N    0.001720  -0.069061  -1.133192  -0.126996   0.135011   0.451362
     9  C    0.002076   0.039680  -0.167535   0.152655  -0.030681  -0.206654
    10  C    0.001164  -0.011966   0.146004  -0.228791  -0.396229   0.194260
    11  C   -0.004420   0.030235   0.076767   0.225241   0.261425  -1.058313
    12  O   -0.066337   0.004071  -0.000026  -0.000043  -0.000336   0.000022
    13  O    7.945465  -0.045914  -0.000595  -0.000083   0.000710   0.000035
    14  O   -0.045914   7.977137   0.025102  -0.004308   0.009548   0.001690
    15  H   -0.000595   0.025102   2.909895   0.131221  -0.320131  -0.040962
    16  H   -0.000083  -0.004308   0.131221   2.100740  -0.609851  -0.311499
    17  H    0.000710   0.009548  -0.320131  -0.609851   2.209756   0.176548
    18  H    0.000035   0.001690  -0.040962  -0.311499   0.176548   2.585424
    19  H   -0.002111  -0.020321   0.053790   0.200544  -0.429297  -0.647052
    20  H   -0.000117   0.003906  -0.570787  -0.254096   0.192196   0.059408
    21  H    0.000158  -0.001731   0.091751   0.064860  -0.058163  -0.336627
    22  H    0.027725   0.041325  -0.024722  -0.006087   0.023192   0.066138
    23  H    0.000750  -0.000560   0.000038   0.000108  -0.000082   0.000713
    24  H    0.000034   0.000313   0.000057  -0.000137   0.000086  -0.001748
    25  H   -0.000451  -0.001258  -0.002144   0.003424  -0.001887   0.009243
    26  C    0.004950  -0.012438  -0.177843  -0.023359   0.015185   0.081180
    27  H   -0.015592  -0.002141  -0.000260  -0.000077   0.000203   0.000047
    28  H   -0.000309   0.109514   0.064852   0.001349   0.010823  -0.018516
    29  H    0.008605   0.369867   0.000417   0.000544   0.000449   0.001301
    30  H    0.053562   0.001394   0.000619   0.000074  -0.000400  -0.000336
    31  H   -0.006094  -0.000428  -0.000015  -0.000001  -0.000027  -0.000012
    32  H    0.291611  -0.000659  -0.002313  -0.000079   0.000378   0.000231
    33  H    0.325145   0.034767   0.007365   0.000071  -0.000426  -0.001477
    34  O   -0.066356  -0.000009   0.000221   0.000001  -0.000026   0.000003
    35  H    0.004307   0.000041   0.000131  -0.000002   0.000008   0.000006
    36  H    0.004592   0.000190  -0.000005   0.000001  -0.000012  -0.000002
    37  H    0.005576   0.001110  -0.014001  -0.005402   0.013503   0.002518
    38  H   -0.010928   0.010839   0.008884  -0.000089  -0.006837  -0.001348
    39  H   -0.000267  -0.005739   0.033020   0.006995  -0.006455   0.007337
    40  O    0.000962   0.000034  -0.000011   0.000000  -0.000002  -0.000000
    41  H    0.000089   0.000006  -0.000002   0.000000  -0.000000  -0.000000
    42  H    0.000074  -0.000004  -0.000000   0.000000  -0.000000  -0.000000
              19         20         21         22         23         24
     1  C    0.100084   0.014460   0.033197  -0.190860   0.247689   0.600458
     2  C    0.007814   0.118976   1.145761  -0.911639  -0.116920  -0.017989
     3  C   -0.060950   0.018993  -0.247996  -1.044590   0.222822  -0.166056
     4  N    0.002106   0.000236   0.000040   0.118511  -0.108108  -0.009515
     5  C    0.009164  -0.002183   0.037728  -0.168804  -0.497591   0.342990
     6  C   -0.012801   0.002375  -0.011823   0.074919   0.051915  -1.080240
     7  C   -0.207294   0.106285  -2.799682   0.074171  -0.024764   0.089482
     8  N   -0.125481  -0.263000  -0.445172  -0.063439   0.006223  -0.001282
     9  C    0.020470  -0.296353  -0.007736   0.039477  -0.000508   0.000460
    10  C    0.303827   0.001098  -0.067524  -0.009888   0.000692   0.000041
    11  C   -0.167136   0.025550   0.726408   0.089356   0.003724  -0.006380
    12  O    0.000588   0.000019   0.000303   0.011048   0.014143  -0.000403
    13  O   -0.002111  -0.000117   0.000158   0.027725   0.000750   0.000034
    14  O   -0.020321   0.003906  -0.001731   0.041325  -0.000560   0.000313
    15  H    0.053790  -0.570787   0.091751  -0.024722   0.000038   0.000057
    16  H    0.200544  -0.254096   0.064860  -0.006087   0.000108  -0.000137
    17  H   -0.429297   0.192196  -0.058163   0.023192  -0.000082   0.000086
    18  H   -0.647052   0.059408  -0.336627   0.066138   0.000713  -0.001748
    19  H    2.262431  -0.057249   0.218091  -0.163021  -0.000282  -0.000219
    20  H   -0.057249   2.504230  -0.091705   0.011286  -0.000061  -0.000083
    21  H    0.218091  -0.091705   3.686826  -0.043502   0.002153   0.000018
    22  H   -0.163021   0.011286  -0.043502   4.394957   0.013635  -0.006330
    23  H   -0.000282  -0.000061   0.002153   0.013635   2.094085  -0.104036
    24  H   -0.000219  -0.000083   0.000018  -0.006330  -0.104036   2.042127
    25  H    0.004525   0.000162  -0.163015  -0.010367  -0.009299  -0.122853
    26  C   -0.032208  -0.024274  -0.024780   0.055540   0.003036  -0.005206
    27  H   -0.002225   0.000391  -0.002932  -0.088363  -0.182608   0.010273
    28  H    0.016471   0.013028   0.007043  -0.067089   0.000230   0.000138
    29  H    0.006617   0.000254   0.000541  -0.002210  -0.000011  -0.000042
    30  H    0.001164  -0.000197   0.000946   0.000022  -0.001154  -0.000193
    31  H    0.000670   0.000009  -0.000072  -0.002024   0.003637  -0.000178
    32  H   -0.001160   0.000020  -0.001182   0.002539   0.000658  -0.000003
    33  H    0.002712   0.000831   0.003758  -0.032032  -0.001712   0.000568
    34  O    0.000067  -0.000007  -0.000007  -0.000399   0.000024   0.000001
    35  H    0.000013   0.000005   0.000027  -0.000758  -0.000020   0.000001
    36  H    0.000020   0.000002  -0.000001   0.000276  -0.000008  -0.000001
    37  H   -0.007124   0.010170   0.013091  -0.000294   0.000332  -0.000615
    38  H    0.010433   0.006216   0.034941  -0.000431  -0.002287  -0.000893
    39  H    0.004617   0.032978   0.100446   0.002658   0.000538  -0.000364
    40  O    0.000003  -0.000004   0.000005  -0.000198  -0.000000   0.000000
    41  H    0.000000   0.000000   0.000002   0.000011  -0.000002   0.000001
    42  H   -0.000001  -0.000001  -0.000003   0.000004   0.000001  -0.000001
              25         26         27         28         29         30
     1  C   -2.605900  -0.213893  -0.023376   0.018643  -0.000579   0.007485
     2  C    1.239654   0.798385  -0.441654  -0.160520   0.009011   0.001628
     3  C    0.351554   0.002714   0.650913  -0.066071   0.018686  -0.042025
     4  N   -0.092862  -0.053903  -0.006235   0.014196  -0.001212   0.009721
     5  C   -0.213111   0.009921  -0.603792  -0.013249   0.002170  -0.002093
     6  C    0.756141   0.012959  -0.009810   0.012569  -0.001012  -0.000740
     7  C   -0.312857  -1.407704  -0.012203   0.534736  -0.035095   0.022022
     8  N    0.035148   1.233491  -0.000546  -0.220226  -0.026338  -0.005945
     9  C   -0.012448  -0.281303  -0.005829  -0.148951   0.024875  -0.000415
    10  C   -0.008319  -0.013137  -0.002287   0.014845  -0.007262  -0.000461
    11  C    0.004162  -0.179161  -0.030420  -0.049128   0.019935  -0.000891
    12  O    0.000167   0.000458   0.003136   0.001325   0.001188   0.292786
    13  O   -0.000451   0.004950  -0.015592  -0.000309   0.008605   0.053562
    14  O   -0.001258  -0.012438  -0.002141   0.109514   0.369867   0.001394
    15  H   -0.002144  -0.177843  -0.000260   0.064852   0.000417   0.000619
    16  H    0.003424  -0.023359  -0.000077   0.001349   0.000544   0.000074
    17  H   -0.001887   0.015185   0.000203   0.010823   0.000449  -0.000400
    18  H    0.009243   0.081180   0.000047  -0.018516   0.001301  -0.000336
    19  H    0.004525  -0.032208  -0.002225   0.016471   0.006617   0.001164
    20  H    0.000162  -0.024274   0.000391   0.013028   0.000254  -0.000197
    21  H   -0.163015  -0.024780  -0.002932   0.007043   0.000541   0.000946
    22  H   -0.010367   0.055540  -0.088363  -0.067089  -0.002210   0.000022
    23  H   -0.009299   0.003036  -0.182608   0.000230  -0.000011  -0.001154
    24  H   -0.122853  -0.005206   0.010273   0.000138  -0.000042  -0.000193
    25  H    3.022368   0.022649   0.008517  -0.004273   0.000237  -0.001037
    26  C    0.022649   4.913623  -0.002333  -0.122043   0.016974  -0.001750
    27  H    0.008517  -0.002333   1.662298   0.002832   0.000030  -0.006227
    28  H   -0.004273  -0.122043   0.002832   0.710410  -0.196371   0.005223
    29  H    0.000237   0.016974   0.000030  -0.196371   0.627290  -0.000004
    30  H   -0.001037  -0.001750  -0.006227   0.005223  -0.000004   0.519304
    31  H    0.000159   0.000108   0.005839  -0.000571   0.000013  -0.101304
    32  H    0.000492   0.003340   0.001247   0.001105  -0.001935  -0.007902
    33  H   -0.001366  -0.026627  -0.000586  -0.005108   0.000312  -0.010146
    34  O    0.000028   0.000142   0.000891  -0.002873   0.000428   0.003658
    35  H   -0.000004  -0.000631   0.000270  -0.000174  -0.000073  -0.000251
    36  H    0.000005   0.000075  -0.000058   0.000074   0.000064  -0.000744
    37  H   -0.000189   0.219539  -0.001665   0.048150   0.000086   0.000360
    38  H    0.002624   0.050349   0.000592  -0.007111  -0.000912  -0.000176
    39  H    0.004353   0.232427   0.000678  -0.035350   0.005666  -0.000091
    40  O   -0.000001   0.000168   0.000093   0.000490  -0.000044   0.000698
    41  H   -0.000001  -0.000017  -0.000026   0.000013  -0.000002  -0.000204
    42  H    0.000001   0.000070   0.000014   0.000029   0.000001   0.000030
              31         32         33         34         35         36
     1  C   -0.000732  -0.008120  -0.002383   0.000676   0.000209   0.000178
     2  C   -0.002131   0.007875  -0.011756   0.000636  -0.000071  -0.000159
     3  C    0.012272   0.008394   0.003822  -0.000468  -0.001155   0.000179
     4  N   -0.009363   0.004134   0.001341   0.000255   0.000372  -0.000065
     5  C   -0.009701  -0.001613   0.000937   0.000160   0.000182  -0.000007
     6  C    0.004002   0.001996   0.001375  -0.000172  -0.000151  -0.000019
     7  C   -0.003224  -0.020939   0.063982   0.000530   0.000896   0.000063
     8  N    0.000982   0.015307  -0.061301   0.000017  -0.000294  -0.000007
     9  C    0.000275  -0.001516   0.005829   0.000129   0.000249  -0.000047
    10  C   -0.000019  -0.000679   0.008901   0.000014   0.000033  -0.000009
    11  C    0.001088  -0.002076   0.008942   0.000010   0.000108   0.000006
    12  O    0.374489   0.008398  -0.014902  -0.000959  -0.000297   0.000051
    13  O   -0.006094   0.291611   0.325145  -0.066356   0.004307   0.004592
    14  O   -0.000428  -0.000659   0.034767  -0.000009   0.000041   0.000190
    15  H   -0.000015  -0.002313   0.007365   0.000221   0.000131  -0.000005
[...]
 83,-0.05101292,-0.00009122,0.00001335,-0.00005281,0.00092651,-0.000060
 86,0.00028573,0.00000512,-0.00001801,0.00002268,-0.00005265,0.00013209
 ,-0.00008595,-0.00000785,0.00000905,-0.00001851,-0.00015830,-0.0000886
 6,0.00011913,-0.00007279,-0.00013860,-0.00024373,0.00006426,0.00004634
 ,-0.00009559,0.00000404,0.00001643,0.00007769,-0.00000201,-0.00000460,
 0.00000094,-0.00294779,0.00163227,0.00009756,-0.02895403,0.02210307,0.
 06084704,-0.00010171,-0.00020602,-0.00016346,-0.00012537,0.00004341,-0
 .00005452,-0.00022003,0.00003867,-0.00007011,0.00015987,-0.00017624,0.
 00000464,0.00004990,0.00004496,0.00007973,-0.00011999,0.00008546,0.000
 00821,0.00267917,0.00141631,0.00185621,0.01028275,0.00243454,0.0105717
 3,0.00357519,-0.00093683,0.00224170,-0.00000453,-0.00004289,-0.0000473
 6,0.00006252,0.00003957,0.00000420,-0.00000843,0.00016991,-0.00007482,
 -0.00036027,0.00012326,-0.00028618,0.00011709,0.00002821,-0.00031775,-
 0.00037889,0.00001392,-0.00008993,-0.00000745,-0.00001913,-0.00006746,
 -0.00003405,-0.00002688,-0.00000516,-0.00004135,0.00001942,-0.00007587
 ,-0.00008194,0.00005368,0.00003304,0.00017257,-0.00076614,-0.00157522,
 -0.00002513,0.00095475,-0.00147053,-0.00000070,-0.00010063,0.00009166,
 0.00001099,0.00000258,-0.00000173,-0.00000642,0.00001388,-0.00001124,0
 .00008497,0.00006323,-0.00004668,-0.18061011,-0.02606353,-0.11969951,-
 0.00004559,-0.00004159,-0.00001194,-0.00004037,0.00008937,0.00083132,-
 0.00002369,0.00004494,0.00007880,0.00004559,-0.00022695,0.00013590,0.0
 0001771,-0.00001418,0.00001660,0.00020862,0.00007119,-0.00002062,0.000
 14994,-0.00000823,0.00021349,-0.00011361,-0.00004126,0.00006464,0.0000
 4844,-0.00000665,-0.00008973,0.00000657,0.00000511,0.00000533,-0.00812
 990,0.00023905,-0.00738735,-0.01442952,-0.00548179,-0.01453536,0.18726
 041,0.00006280,0.00013555,0.00002506,-0.00011382,-0.00023028,-0.000195
 86,0.00017564,-0.00003337,0.00002133,-0.00017708,0.00018121,-0.0000205
 9,-0.00005073,-0.00005073,-0.00005868,0.00007377,-0.00005960,-0.000004
 17,0.00265269,0.00158376,0.00203197,0.00197107,0.00064926,0.00262789,-
 0.00168059,0.00033819,-0.00124770,0.00022641,0.00000711,0.00003174,-0.
 00019655,-0.00003950,0.00003455,-0.00003364,-0.00001560,-0.00000123,0.
 00005490,0.00006954,0.00008937,0.00012600,0.00007606,-0.00009492,-0.00
 012837,-0.00002786,0.00006834,0.00004521,0.00002021,-0.00002791,0.0000
 2716,-0.00008168,0.00007967,-0.00003957,-0.00001060,-0.00001373,-0.000
 02231,-0.00007336,-0.00005825,0.00024922,-0.00000646,0.00009917,-0.000
 19630,0.00033999,-0.00071226,-0.00000307,0.00001536,-0.00006070,-0.000
 00581,-0.00000303,-0.00000097,-0.00000251,-0.00000539,0.00000701,-0.00
 004020,-0.00005605,0.00000666,-0.02548095,-0.05547707,-0.02371751,0.00
 005752,0.00003038,0.00001609,-0.00012477,-0.00008100,0.00017139,-0.000
 04250,-0.00000154,0.00008277,0.00000310,0.00001765,-0.00001775,0.00000
 133,-0.00000389,0.00000260,-0.00000864,-0.00003724,0.00000723,0.000039
 07,-0.00009305,-0.00004251,-0.00001878,0.00002360,0.00000135,0.0000110
 1,-0.00001008,-0.00001642,0.00000414,-0.00000073,-0.00000016,-0.020636
 92,-0.00240663,-0.01974449,0.01506379,0.00394010,0.01493114,0.02816114
 ,0.05137192,-0.00018706,0.00004802,-0.00011934,0.00037679,0.00019501,0
 .00008470,-0.00009014,-0.00017092,-0.00009593,0.00006947,0.00005486,0.
 00006196,-0.00001352,0.00006078,-0.00001590,-0.00002769,0.00004361,0.0
 0005379,-0.00282677,-0.00379811,0.00085169,-0.01544731,-0.00305012,-0.
 04016713,-0.00372156,0.00260118,0.00074906,0.00025922,0.00010891,0.000
 64980,0.00039998,-0.00006764,0.00056395,-0.00003546,0.00002062,0.00001
 926,-0.00012197,0.00007009,0.00024751,-0.00194314,-0.00054167,-0.00088
 483,0.00025599,-0.00020799,0.00006266,0.00012430,0.00006917,-0.0000722
 9,-0.00008284,-0.00005109,0.00023363,0.00016378,0.00001690,-0.00006268
 ,-0.00008546,0.00000788,0.00028686,0.00164005,-0.00071168,0.00063970,0
 .00147997,0.00134616,0.00052368,0.00012446,-0.00014957,0.00001934,0.00
 000677,0.00000763,0.00000658,-0.00000594,0.00001609,-0.00000904,0.0000
 4483,0.00005792,-0.00002140,-0.11825137,-0.02381817,-0.15648936,0.0000
 2099,-0.00000825,-0.00001268,0.00292578,0.00114051,0.00116207,-0.00008
 578,0.00009118,-0.00001031,0.00002010,-0.00000987,-0.00001836,0.000017
 31,-0.00001101,-0.00000046,0.00001843,0.00004428,-0.00006961,0.0002692
 5,-0.00014751,-0.00026490,0.00000315,-0.00001811,0.00006268,-0.0000169
 1,-0.00000252,-0.00003056,0.00000435,-0.00000154,-0.00001309,0.0023356
 4,0.00040659,0.00311222,0.00255974,0.00066177,0.00355743,0.12982252,0.
 02569486,0.18539838,0.00000403,0.00002516,0.00001468,-0.00002896,-0.00
 001663,-0.00001414,0.00002447,0.00000730,-0.00000140,0.00001712,0.0000
 0930,0.00002773,-0.00002612,0.00001015,-0.00002428,0.00002883,-0.00000
 735,0.00002031,0.00002283,0.00008664,-0.00000293,-0.00010881,-0.000020
 15,0.00007499,0.00004126,-0.00005589,0.00000837,-0.00000160,0.00000038
 ,-0.00000438,-0.00000376,-0.00000906,0.00000001,0.00011406,-0.00018465
 ,0.00012946,-0.00010977,-0.00027848,0.00040424,-0.00006696,-0.00001409
 ,0.00013280,0.00000326,-0.00000896,-0.00000904,-0.00001180,-0.00000304
 ,0.00000431,0.00000565,0.00000053,0.00000583,-0.00001035,-0.00000504,0
 .00000456,0.00000562,0.00000105,0.00000346,-0.00000221,0.00000155,-0.0
 0000599,-0.00000290,-0.00000926,-0.00000794,0.00001042,0.00001919,-0.0
 0001995,-0.00000430,0.00000972,-0.00000797,0.00000362,0.00000766,-0.00
 000553,0.00000847,0.00000947,-0.00000509,0.00009381,0.00001047,-0.0000
 6691,-0.00006162,0.00001104,-0.00005577,0.00002087,0.00001168,-0.00005
 055,0.00000583,-0.00000607,-0.00005555,-0.00008699,0.00027746,-0.00018
 081,-0.00004693,0.00001999,-0.00001923,0.00018591,0.00025822,-0.000297
 99,0.00008648,-0.00002426,-0.00012136,0.00189283,-0.00030090,0.0059859
 5,-0.00372216,0.00243126,-0.00207567,-0.00090350,0.00001230,0.00125633
 ,0.00004276,-0.00006120,-0.00002331,0.00001554,0.00007382,-0.00003016,
 -0.00001496,-0.00000384,0.00001650,0.29556684,0.00001730,-0.00002611,-
 0.00000540,0.00005315,-0.00001445,0.00001643,-0.00001456,-0.00002118,-
 0.00003274,-0.00003786,-0.00001886,-0.00001209,0.00003755,0.00002773,0
 .00002067,-0.00004652,0.00002399,0.00000035,0.00000756,-0.00005914,0.0
 0001978,-0.00000827,0.00009435,0.00001974,0.00000911,-0.00004581,-0.00
 000846,-0.00001248,-0.00000250,0.00000707,0.00000744,0.00001809,-0.000
 01536,-0.00009214,0.00009851,0.00006243,0.00016900,0.00048028,0.000010
 03,0.00004368,0.00011886,0.00001485,0.00000198,0.00001520,0.00000519,-
 0.00000301,0.00000393,0.00000093,0.00000039,0.00000454,0.00000496,0.00
 000255,0.00000293,-0.00000127,-0.00000203,-0.00000143,-0.00000621,-0.0
 0000449,0.00000214,-0.00000203,0.00000398,0.00001045,0.00000217,0.0000
 0158,-0.00003772,-0.00001088,0.00001440,0.00001518,-0.00002253,0.00001
 088,0.00000905,-0.00000780,0.00000421,-0.00000259,-0.00000542,0.000020
 96,-0.00008293,-0.00000316,0.00005695,-0.00000198,-0.00002052,-0.00005
 282,-0.00004967,-0.00003121,-0.00004048,-0.00003205,0.00002097,0.00007
 716,-0.00016019,-0.00002563,0.00001305,-0.00001501,-0.00002789,-0.0004
 2055,-0.00060712,0.00003320,0.00003770,-0.00006409,0.00000195,-0.00026
 255,0.00498339,-0.00130977,0.00224662,-0.00914793,0.00071094,-0.000008
 20,-0.00029580,0.00044479,-0.00001555,0.00001999,0.00000934,-0.0000071
 4,0.00000482,-0.00001818,0.00000918,0.00000676,0.00000341,-0.21890465,
 0.59639917,-0.00000216,-0.00006502,-0.00001671,0.00005583,0.00008858,0
 .00006822,-0.00013844,0.00001525,-0.00006665,0.00024203,0.00002561,0.0
 0011322,0.00001009,-0.00008159,-0.00002405,-0.00001788,0.00001763,0.00
 000862,-0.00005841,-0.00002200,-0.00001674,0.00017472,0.00004589,0.000
 17755,-0.00007982,0.00001576,-0.00001230,-0.00000717,-0.00000114,-0.00
 001302,-0.00001605,-0.00001151,-0.00000377,0.00025156,0.00060085,-0.00
 021367,0.00171520,0.00123817,-0.00089718,0.00057861,0.00003901,-0.0000
 2661,-0.00001210,0.00000874,-0.00001230,0.00001228,0.00000115,0.000004
 92,-0.00001184,0.00000436,0.00001520,0.00000815,0.00000467,0.00000592,
 -0.00000338,-0.00001165,0.00001444,0.00003176,0.00000665,0.00002038,0.
 00003143,0.00001205,0.00001831,-0.00008253,-0.00006243,0.00000569,-0.0
 0000848,-0.00001050,-0.00001309,0.00000798,0.00000475,-0.00000818,0.00
 001139,-0.00000020,-0.00000510,-0.00000696,-0.00000080,-0.00008267,-0.
 00042833,-0.00018797,-0.00017763,-0.00030923,-0.00012301,-0.00022236,-
 0.00008768,0.00000034,0.00004218,0.00000216,-0.00075494,0.00045076,-0.
 00001443,-0.00005502,0.00007037,-0.00231949,-0.00180342,0.00106158,-0.
 00061835,0.00020006,0.00021121,0.00551184,-0.00071735,-0.01293026,-0.0
 0250549,-0.00012183,-0.00501092,0.00095860,0.00042459,0.00028800,-0.00
 002871,0.00000808,-0.00004260,-0.00002566,-0.00001743,-0.00005525,0.00
 007669,0.00001345,0.00001704,-0.18049869,-0.15120620,0.31602921,-0.000
 00538,-0.00000020,-0.00000450,-0.00000383,0.00000784,-0.00000059,-0.00
 000173,0.00000110,0.00000983,-0.00000848,0.00000134,-0.00001394,0.0000
 0275,-0.00000993,0.00000581,-0.00000013,-0.00000303,-0.00000933,-0.000
 00855,-0.00001413,-0.00000103,0.00003134,-0.00001429,-0.00003334,-0.00
 001289,0.00002397,0.00000016,0.00000254,0.00000093,0.00000024,-0.00000
 045,-0.00000191,0.00000345,-0.00004555,0.00004198,-0.00006675,0.000010
 68,-0.00001620,-0.00014076,0.00000565,-0.00001712,-0.00004501,-0.00000
 084,-0.00000019,0.00000196,0.00000427,-0.00000015,-0.00000130,-0.00000
 172,-0.00000159,-0.00000300,0.00000306,0.00000143,-0.00000076,-0.00000
 190,0.00000011,-0.00000009,0.00000084,-0.00000111,0.00000160,-0.000000
 64,0.00000072,0.00000159,-0.00000215,0.00000201,0.00000923,-0.00000061
 ,-0.00000837,0.00001021,-0.00000432,-0.00000577,0.00000538,-0.00000463
 ,-0.00000277,0.00000408,-0.00003227,0.00001676,0.00002482,0.00003102,0
 .00000226,0.00003743,0.00000927,0.00000806,0.00002397,0.00000592,0.000
 00465,0.00001467,0.00001993,-0.00005921,0.00007257,0.00002294,-0.00000
 690,0.00001051,0.00000151,0.00005712,0.00008737,-0.00002869,0.00002011
 ,0.00002903,0.00038191,0.00013125,-0.00087411,-0.00089311,-0.00008171,
 0.00063930,0.00010561,-0.00012384,0.00009732,-0.00000367,0.00000882,0.
 00000409,0.00000048,-0.00001695,0.00001459,-0.00000253,-0.00000102,-0.
 00000579,-0.26564313,0.24913599,0.12530532,0.26549970,-0.00001114,0.00
 002202,0.00000456,-0.00003313,0.00000119,-0.00001412,0.00001650,0.0000
 1102,0.00001982,0.00001678,0.00001312,0.00000698,-0.00002919,-0.000007
 87,-0.00001575,0.00003311,-0.00001675,0.00000216,-0.00000202,0.0000387
 9,-0.00001214,-0.00000811,-0.00004471,-0.00000669,-0.00000229,0.000012
 97,0.00000527,0.00000546,0.00000269,-0.00000339,-0.00000367,-0.0000106
 6,0.00000848,0.00005803,-0.00010083,-0.00001959,-0.00011582,-0.0002826
 6,0.00008584,-0.00004442,-0.00005386,0.00000042,-0.00000032,-0.0000073
 8,-0.00000189,0.00000070,-0.00000257,0.00000002,0.00000025,-0.00000278
 ,-0.00000210,-0.00000195,-0.00000147,0.00000096,0.00000129,0.00000136,
 0.00000353,0.00000182,-0.00000065,0.00000035,-0.00000226,-0.00000654,-
 0.00000182,0.00000310,0.00002250,0.00000342,-0.00001049,-0.00000781,0.
 00001471,-0.00000766,-0.00000429,0.00000450,-0.00000145,0.00000202,0.0
 0000266,-0.00000141,0.00002718,-0.00000378,-0.00002706,0.00000988,0.00
 001252,0.00003332,0.00002675,0.00001733,0.00001998,0.00001216,-0.00001
 016,-0.00005008,0.00015152,-0.00002395,-0.00001014,0.00001339,0.000013
 48,0.00024754,0.00033772,-0.00013612,0.00001460,0.00001890,-0.00001809
 ,-0.00039144,-0.00032204,0.00172400,0.00042671,0.00025826,-0.00293303,
 0.00003948,0.00003563,-0.00010011,0.00001009,-0.00001557,-0.00000437,0
 .00000895,0.00000970,0.00000454,-0.00000657,-0.00000120,0.,0.21263861,
 -0.23571433,-0.07481141,-0.24193837,0.25800195,0.00000389,0.00000566,0
 .00000161,-0.00000591,-0.00001315,-0.00000994,0.00002452,-0.00001561,0
 .00000504,-0.00006703,-0.00001206,-0.00003452,0.00001076,0.00002076,0.
 00001362,-0.00000715,0.00000513,-0.00000354,0.00001111,-0.00000662,0.0
 0000784,-0.00002476,-0.00000144,-0.00003110,0.00001241,-0.00000115,0.0
 0000232,0.00000069,-0.00000062,0.00000295,0.00000349,0.00000431,-0.000
 00095,-0.00013192,-0.00003225,0.00002233,-0.00010858,0.00008294,0.0000
 2560,-0.00006980,0.00000565,-0.00000939,0.00000124,0.,0.00000200,-0.00
 000181,0.00000076,-0.00000068,0.00000128,-0.00000019,-0.00000241,-0.00
 000066,-0.00000055,-0.00000089,-0.00000022,0.00000126,-0.00000323,-0.0
 0000529,-0.00000108,-0.00000360,-0.00000565,0.00000025,-0.00000343,0.0
 0001178,0.00000245,0.00000144,0.00000676,0.00000535,0.00000193,-0.0000
 0122,-0.00000133,0.00000278,-0.00000339,0.00000025,0.00000171,0.000001
 83,-0.00000191,0.00001909,0.00012740,0.00003738,0.00004922,0.00003905,
 0.00001325,0.00003233,0.00000805,-0.00000148,0.00000188,0.00006753,-0.
 00000123,-0.00003824,0.00002485,0.00000507,-0.00001987,0.00005978,-0.0
 0011642,-0.00005485,0.00006859,-0.00002653,-0.00001185,-0.00048390,0.0
 0098322,-0.00242151,0.00143085,-0.00242014,0.00387846,0.00037306,-0.00
 028847,-0.00045168,0.00000186,0.00000204,0.00000483,0.00000351,0.00000
 015,0.00000986,-0.00001298,-0.00000118,-0.00000350,0.14727705,-0.11294
 975,-0.09036619,-0.12881145,0.09273933,0.08201993,0.00000049,-0.000004
 89,-0.00000498,0.00001775,-0.00001030,-0.00000143,0.00000685,-0.000006
 61,0.00000537,-0.00004220,-0.00000826,-0.00002530,0.00001361,0.0000129
 7,0.00001590,-0.00001618,0.00000303,-0.00001067,-0.00000095,-0.0000529
 5,0.00000642,0.00002467,0.00003068,-0.00006620,-0.00000720,0.00001414,
 -0.00000289,-0.00000104,0.00000080,0.00000660,0.00000586,0.00000977,-0
 .00000302,-0.00006933,-0.00000492,-0.00001475,-0.00019728,-0.00000709,
 0.00000153,-0.00005453,0.00002624,-0.00006067,0.00000078,0.00000662,0.
 00000936,0.00000385,0.00000205,-0.00000261,-0.00000127,-0.00000017,-0.
 00000490,0.00000470,0.00000275,-0.00000352,-0.00000269,0.00000125,-0.0
 0000517,-0.00000580,-0.00000171,-0.00000049,-0.00000238,0.00000465,0.0
 0000210,0.00000844,-0.00000615,0.00000577,0.00000312,-0.00000129,0.000
 00198,-0.00000145,-0.00000226,0.00000277,-0.00000462,-0.00000573,0.000
 00220,-0.00003795,-0.00003978,0.00004595,0.00008023,0.00001960,0.00003
 858,0.00003034,0.00000304,0.00005675,0.00000286,-0.00000369,0.00002800
 ,0.00002845,-0.00000626,-0.00000086,0.00001559,-0.00000243,0.00000020,
 0.00022322,0.00007293,-0.00007945,0.00006969,-0.00004290,0.00002375,-0
 .00029553,0.00040191,0.00081529,0.00041786,-0.00139135,-0.00168498,-0.
 00000679,0.00013596,-0.00000752,-0.00001926,0.00003379,0.00002658,-0.0
 0000046,-0.00002701,0.00001704,-0.00000578,0.00000199,-0.00001070,-0.0
 2734371,-0.03204910,0.05229563,0.00056776,0.02912267,-0.01982962,0.026
 59029,-0.00000404,0.00000331,-0.00000031,-0.00001586,0.00001249,-0.000
 00187,-0.00000207,0.00000481,0.00000659,0.00002348,0.00000532,0.000007
 57,-0.00000704,-0.00001332,-0.00000571,0.00001252,-0.00000528,-0.00000
 027,-0.00000577,0.00001329,-0.00000757,0.00002429,-0.00003708,-0.00000
 697,-0.00001193,0.00003236,0.00000300,0.00000559,0.00000017,-0.0000035
 1,-0.00000393,-0.00000606,0.00000527,0.00003418,0.00002793,-0.00003974
 ,0.00013077,0.00001949,-0.00012127,0.00002729,-0.00005082,-0.00002047,
 -0.00000296,-0.00000599,-0.00000331,0.00000320,-0.00000090,-0.00000060
 ,-0.00000141,-0.00000126,-0.00000215,0.00000029,-0.00000097,0.00000039
 ,0.00000048,-0.00000066,0.00000282,0.00000436,-0.00000082,0.00000282,-
 0.00000037,-0.00000232,0.00000061,-0.00000740,0.00000961,0.00000637,-0
 .00000432,-0.00000479,0.00000685,-0.00000356,-0.00000345,0.00000366,-0
 .00000234,0.00000074,0.00000302,-0.00001484,0.00003423,0.00000386,-0.0
 0003747,-0.00001187,-0.00000164,0.00000155,0.00001352,0.00000467,0.000
 01112,0.00001837,-0.00000365,-0.00001206,-0.00003405,0.00004776,-0.000
 00460,0.00000098,0.00001472,-0.00012958,-0.00006529,0.00009774,-0.0000
 6746,0.00004699,0.00003454,0.00093788,-0.00093199,-0.00203530,-0.00146
 046,0.00145146,0.00288728,-0.00002210,0.00024662,-0.00004052,-0.000003
 17,0.00000284,-0.00000318,0.00000102,-0.00001619,0.00000960,-0.0000002
 1,-0.00000072,-0.00000165,0.00398059,-0.35593847,0.22728977,-0.0071416
 8,-0.02242672,0.02197797,0.00376800,0.37761450,0.00000298,0.00000939,0
 .00000451,-0.00001192,-0.00001194,-0.00001198,0.00002130,-0.00000348,0
 .00001027,-0.00003781,-0.00000508,-0.00001845,0.00000098,0.00001040,0.
 00000473,0.00000217,-0.00000089,-0.00000130,0.00001261,0.00000915,0.00
 000498,-0.00003668,-0.00001579,-0.00003528,0.00001724,0.00000253,0.000
 00650,0.00000202,0.00000005,0.00000185,0.00000183,0.00000101,0.0000010
 6,-0.00004318,-0.00006726,0.00001713,-0.00013834,-0.00010806,0.0000828
 8,-0.00008511,-0.00003167,-0.00000015,0.00000214,-0.00000334,0.0000014
 9,-0.00000232,-0.00000039,-0.00000031,0.00000187,-0.00000065,-0.000003
 45,-0.00000172,-0.00000152,-0.00000041,0.00000059,0.00000202,-0.000002
 17,-0.00000629,-0.00000268,-0.00000484,-0.00000640,-0.00000295,-0.0000
 0425,0.00001022,0.00001272,0.00000117,0.00000209,0.00000199,0.00000158
 ,-0.00000047,-0.00000118,0.00000212,-0.00000231,0.00000062,0.00000171,
 0.00000900,0.00001088,0.00001714,0.00006444,0.00002574,0.00002687,0.00
 005760,0.00002629,0.00003664,0.00002296,0.00000859,-0.00001143,0.00000
 473,0.00007746,-0.00004224,0.00000581,0.00000807,-0.00000716,0.0001782
 2,0.00012158,-0.00010300,0.00005639,-0.00000208,-0.00002642,0.00030625
 ,-0.00160136,-0.00110541,-0.00076495,0.00365156,0.00130289,0.00013008,
 0.00024648,-0.00044988,0.00001134,-0.00000493,0.00000851,0.00000634,0.
 00000565,0.00000872,-0.00002093,-0.00000665,-0.00000261,0.02821804,0.2
 6431331,-0.20840560,0.00359724,-0.01655637,0.00736463,-0.03158807,-0.2
 5011719,0.20132894\\0.00000004,-0.00000004,-0.00000031,0.00000055,0.00
 000005,-0.00000003,-0.00000167,0.00000212,0.00000223,0.00000254,-0.000
 00306,-0.00000017,0.00000014,0.00000039,-0.00000148,-0.00000093,-0.000
 00063,-0.00000098,-0.00000203,0.00000024,-0.00000051,0.00000250,0.0000
 0049,0.00000133,-0.00000311,0.00000143,0.00000099,0.00000059,0.0000005
 3,-0.00000023,0.00000141,-0.00000059,0.00000077,0.00000183,0.00000448,
 -0.00000074,-0.00000262,0.,0.00000596,0.00000376,-0.00000505,-0.000002
 45,0.00000066,0.00000038,0.00000146,0.00000048,0.00000037,0.00000117,0
 .00000097,-0.00000001,0.00000057,-0.00000015,0.00000009,0.00000010,-0.
 00000053,-0.00000026,0.00000042,0.00000112,0.00000069,0.00000084,-0.00
 000001,0.00000036,0.00000082,0.00000149,0.00000039,-0.00000109,-0.0000
 0096,-0.00000049,-0.00000023,-0.00000067,0.00000077,-0.00000148,-0.000
 00050,0.00000107,-0.00000046,-0.00000030,0.00000065,-0.00000107,-0.000
 00702,-0.00000233,-0.00000234,-0.00000114,0.00000069,0.00000302,0.0000
 0079,0.00000084,0.00000029,0.00000261,-0.00000431,-0.00000180,-0.00000
 082,-0.00000143,-0.00000077,0.00000715,0.00000136,-0.00000134,-0.00000
 182,0.00000162,-0.00000257,-0.00000118,0.00000434,0.00000033,0.0000000
 4,-0.00000379,-0.00000776,-0.00000146,-0.00000353,0.00000501,-0.000000
 16,0.00000063,0.00000038,-0.00000021,0.00000028,0.00000039,-0.00000023
 ,0.00000072,0.00000044,-0.00000035,0.00000072,0.00000084,-0.00000040,-
 0.00000105,0.00000046,-0.00000040,0.00000087,-0.00000004\\\@


 I MET A TRAVELLER FROM AN ANTIQUE LAND
 WHO SAID... TWO VAST AND TRUNKLESS LEGS OF STONE
 STAND IN THE DESERT..... NEAR THEM,  ON THE SAND,
 HALF SUNK,  A SHATTERED VISAGE LIES,  WHOSE FROWN,
 AND WRINKLED LIP,  AND SNEER OF COLD COMMAND
 TELL THAT ITS SCULPTOR WELL THOSE PASSIONS READ
 WHICH YET SURVIVE,  STAMPED ON THESE LIFELESS THINGS
 THE HAND THAT MOCKED THEM,  AND THE HEART THAT FED-
 AND ON THE PEDESTAL THESE WORDS APPEAR 
 MY NAME IS OZYMANDIAS, KING OF KINGS--   
 LOOK ON MY WORKS YE MIGHTY AND DESPAIR. 
 NOTHING BESIDE REMAINS,  ROUND THE DECAY 
 OF THAT COLOSSAL WRECK,  BOUNDLESS AND BARE
 THE LONE AND LEVEL SANDS STRETCH FAR AWAY.
                                    SHELLEY
 Job cpu time:       1 days 13 hours 12 minutes 22.0 seconds.
 Elapsed time:       0 days  1 hours 19 minutes 48.3 seconds.
 File lengths (MBytes):  RWF=   1440 Int=      0 D2E=      0 Chk=     36 Scr=      8
 Normal termination of Gaussian 16 at Tue Dec  6 16:55:55 2022.
