 Entering Gaussian System, Link 0=g16
 Input=NicPyWa5h20.gjf
 Output=NicPyWa5h20.log
 Initial command:
 /sw/contrib/gaussian/g16/A03/g16/l1.exe "/gscratch/scrubbed/gds001/Gau-24800.inp" -scrdir="/gscratch/scrubbed/gds001/"
 Entering Link 1 = /sw/contrib/gaussian/g16/A03/g16/l1.exe PID=     24801.
  
 Copyright (c) 1988,1990,1992,1993,1995,1998,2003,2009,2016,
            Gaussian, Inc.  All Rights Reserved.
  
 This is part of the Gaussian(R) 16 program.  It is based on
 the Gaussian(R) 09 system (copyright 2009, Gaussian, Inc.),
 the Gaussian(R) 03 system (copyright 2003, Gaussian, Inc.),
 the Gaussian(R) 98 system (copyright 1998, Gaussian, Inc.),
 the Gaussian(R) 94 system (copyright 1995, Gaussian, Inc.),
 the Gaussian 92(TM) system (copyright 1992, Gaussian, Inc.),
 the Gaussian 90(TM) system (copyright 1990, Gaussian, Inc.),
 the Gaussian 88(TM) system (copyright 1988, Gaussian, Inc.),
 the Gaussian 86(TM) system (copyright 1986, Carnegie Mellon
 University), and the Gaussian 82(TM) system (copyright 1983,
 Carnegie Mellon University). Gaussian is a federally registered
 trademark of Gaussian, Inc.
  
 This software contains proprietary and confidential information,
 including trade secrets, belonging to Gaussian, Inc.
  
 This software is provided under written license and may be
 used, copied, transmitted, or stored only in accord with that
 written license.
  
 The following legend is applicable only to US Government
 contracts under FAR:
  
                    RESTRICTED RIGHTS LEGEND
  
 Use, reproduction and disclosure by the US Government is
 subject to restrictions as set forth in subparagraphs (a)
 and (c) of the Commercial Computer Software - Restricted
 Rights clause in FAR 52.227-19.
  
 Gaussian, Inc.
 340 Quinnipiac St., Bldg. 40, Wallingford CT 06492
  
  
 ---------------------------------------------------------------
 Warning -- This program may not be used in any manner that
 competes with the business of Gaussian, Inc. or will provide
 assistance to any competitor of Gaussian, Inc.  The licensee
 of this program is prohibited from giving any competitor of
 Gaussian, Inc. access to this program.  By using this program,
 the user acknowledges that Gaussian, Inc. is engaged in the
 business of creating and licensing software in the field of
 computational chemistry and represents and warrants to the
 licensee that it is not a competitor of Gaussian, Inc. and that
 it will not use this program in any manner prohibited above.
 ---------------------------------------------------------------
  

 Cite this work as:
 Gaussian 16, Revision A.03,
 M. J. Frisch, G. W. Trucks, H. B. Schlegel, G. E. Scuseria, 
 M. A. Robb, J. R. Cheeseman, G. Scalmani, V. Barone, 
 G. A. Petersson, H. Nakatsuji, X. Li, M. Caricato, A. V. Marenich, 
 J. Bloino, B. G. Janesko, R. Gomperts, B. Mennucci, H. P. Hratchian, 
 J. V. Ortiz, A. F. Izmaylov, J. L. Sonnenberg, D. Williams-Young, 
 F. Ding, F. Lipparini, F. Egidi, J. Goings, B. Peng, A. Petrone, 
 T. Henderson, D. Ranasinghe, V. G. Zakrzewski, J. Gao, N. Rega, 
 G. Zheng, W. Liang, M. Hada, M. Ehara, K. Toyota, R. Fukuda, 
 J. Hasegawa, M. Ishida, T. Nakajima, Y. Honda, O. Kitao, H. Nakai, 
 T. Vreven, K. Throssell, J. A. Montgomery, Jr., J. E. Peralta, 
 F. Ogliaro, M. J. Bearpark, J. J. Heyd, E. N. Brothers, K. N. Kudin, 
 V. N. Staroverov, T. A. Keith, R. Kobayashi, J. Normand, 
 K. Raghavachari, A. P. Rendell, J. C. Burant, S. S. Iyengar, 
 J. Tomasi, M. Cossi, J. M. Millam, M. Klene, C. Adamo, R. Cammi, 
 J. W. Ochterski, R. L. Martin, K. Morokuma, O. Farkas, 
 J. B. Foresman, and D. J. Fox, Gaussian, Inc., Wallingford CT, 2016.
 
 ******************************************
 Gaussian 16:  ES64L-G16RevA.03 25-Dec-2016
                 5-Sep-2020 
 ******************************************
 %nprocshared=28
 Will use up to   28 processors via shared memory.
 %mem=41GB
 %chk=NicPyWa5h20.chk
 -----------------------------
 # wB97XD/aug-cc-pVDZ Opt Freq
 -----------------------------
 1/18=20,19=15,26=3,38=1/1,3;
 2/9=110,12=2,17=6,18=5,40=1/2;
 3/5=16,7=10,11=2,25=1,30=1,71=1,74=-58/1,2,3;
 4//1;
 5/5=2,38=5/2;
 6/7=2,8=2,9=2,10=2,28=1/1;
 7//1,2,3,16;
 1/18=20,19=15,26=3/3(2);
 2/9=110/2;
 99//99;
 2/9=110/2;
 3/5=16,7=10,11=2,25=1,30=1,71=1,74=-58/1,2,3;
 4/5=5,16=3,69=1/1;
 5/5=2,38=5/2;
 7//1,2,3,16;
 1/18=20,19=15,26=3/3(-5);
 2/9=110/2;
 6/7=2,8=2,9=2,10=2,19=2,28=1/1;
 99/9=1/99;
 -------------------------------
 p-Py Nornicotine, W anti , 5H2O
 -------------------------------
 Symbolic Z-matrix:
 Charge =  1 Multiplicity = 1
 C                    -2.83519   0.03907  -1.38511 
 C                    -2.46898  -0.69509  -0.06784 
 N                    -2.48296   0.35956   0.97042 
 C                    -3.22649   1.51858   0.44142 
 C                    -2.80587   1.53004  -1.02254 
 C                    -1.11986  -1.38946  -0.08733 
 C                    -0.95381  -2.68278   0.40995 
 C                     0.29903  -3.29838   0.41246 
 C                     1.37659  -2.6059   -0.10148 
 N                     1.19533  -1.36913  -0.58996 
 C                     0.00975  -0.74896  -0.5877 
 O                     3.49114  -0.31092  -1.4635 
 O                     3.43066   1.92288   0.03649 
 O                     0.95133   2.51645  -0.7564 
 O                    -0.07389   1.70413   1.51854 
 H                    -2.94049   2.42511   0.98687 
 H                    -3.47252   2.12862  -1.65143 
 H                    -1.7896    1.93696  -1.11546 
 H                    -3.84684  -0.25393  -1.68867 
 H                    -2.16443  -0.22004  -2.2118 
 H                    -4.31719   1.38651   0.52824 
 H                    -3.22533  -1.46478   0.14467 
 H                     0.00441   0.26371  -0.98895 
 H                     2.38999  -2.99636  -0.14328 
 H                     0.43632  -4.30286   0.80526 
 H                    -1.81707  -3.22084   0.80332 
 C                    -3.04142  -0.1099    2.23602 
 H                     2.03918  -0.87934  -0.97875 
 H                     0.48683   2.33476   0.10415 
 H                     0.66081   3.38177  -1.05443 
 H                     3.67519   0.54058  -1.01601 
 H                     3.79068  -0.22417  -2.3715 
 H                     4.04702   2.64212   0.1936 
 H                     2.58789   2.31982  -0.29161 
 H                    -0.87488   1.14482   1.41413 
 H                     0.6338    1.12761   1.85474 
 O                     2.25518   0.18257   1.90587 
 H                     2.82959   0.79699   1.41484 
 H                     2.67475   0.05755   2.76076 
 H                    -2.44828  -0.93821   2.63774 
 H                    -4.07943  -0.44556   2.13257 
 H                    -3.0128    0.6907    2.98329 
 
 Add virtual bond connecting atoms H28        and O12        Dist= 3.09D+00.
 Add virtual bond connecting atoms H29        and O15        Dist= 3.11D+00.
 Add virtual bond connecting atoms H34        and O14        Dist= 3.24D+00.
 Add virtual bond connecting atoms N3         and H35        Dist= 3.48D+00.
 Add virtual bond connecting atoms H31        and O13        Dist= 3.32D+00.
 Add virtual bond connecting atoms O37        and H36        Dist= 3.55D+00.
 Add virtual bond connecting atoms H38        and O13        Dist= 3.55D+00.

 GradGradGradGradGradGradGradGradGradGradGradGradGradGradGradGradGradGrad
 Berny optimization.
 Initialization pass.
                           ----------------------------
                           !    Initial Parameters    !
                           ! (Angstroms and Degrees)  !
 --------------------------                            --------------------------
 ! Name  Definition              Value          Derivative Info.                !
 --------------------------------------------------------------------------------
 ! R1    R(1,2)                  1.5519         estimate D2E/DX2                !
 ! R2    R(1,5)                  1.5347         estimate D2E/DX2                !
 ! R3    R(1,19)                 1.0961         estimate D2E/DX2                !
 ! R4    R(1,20)                 1.0957         estimate D2E/DX2                !
 ! R5    R(2,3)                  1.48           estimate D2E/DX2                !
 ! R6    R(2,6)                  1.5175         estimate D2E/DX2                !
 ! R7    R(2,22)                 1.0998         estimate D2E/DX2                !
 ! R8    R(3,4)                  1.4751         estimate D2E/DX2                !
 ! R9    R(3,27)                 1.4608         estimate D2E/DX2                !
 ! R10   R(3,35)                 1.8438         estimate D2E/DX2                !
 ! R11   R(4,5)                  1.5232         estimate D2E/DX2                !
 ! R12   R(4,16)                 1.096          estimate D2E/DX2                !
 ! R13   R(4,21)                 1.1021         estimate D2E/DX2                !
 ! R14   R(5,17)                 1.0946         estimate D2E/DX2                !
 ! R15   R(5,18)                 1.0986         estimate D2E/DX2                !
 ! R16   R(6,7)                  1.3955         estimate D2E/DX2                !
 ! R17   R(6,11)                 1.3916         estimate D2E/DX2                !
 ! R18   R(7,8)                  1.3959         estimate D2E/DX2                !
 ! R19   R(7,26)                 1.0906         estimate D2E/DX2                !
 ! R20   R(8,9)                  1.3801         estimate D2E/DX2                !
 ! R21   R(8,25)                 1.0873         estimate D2E/DX2                !
 ! R22   R(9,10)                 1.342          estimate D2E/DX2                !
 ! R23   R(9,24)                 1.0868         estimate D2E/DX2                !
 ! R24   R(10,11)                1.338          estimate D2E/DX2                !
 ! R25   R(10,28)                1.0503         estimate D2E/DX2                !
 ! R26   R(11,23)                1.0893         estimate D2E/DX2                !
 ! R27   R(12,28)                1.6329         estimate D2E/DX2                !
 ! R28   R(12,31)                0.9794         estimate D2E/DX2                !
 ! R29   R(12,32)                0.9601         estimate D2E/DX2                !
 ! R30   R(13,31)                1.7545         estimate D2E/DX2                !
 ! R31   R(13,33)                0.9602         estimate D2E/DX2                !
 ! R32   R(13,34)                0.9877         estimate D2E/DX2                !
 ! R33   R(13,38)                1.8785         estimate D2E/DX2                !
 ! R34   R(14,29)                0.9946         estimate D2E/DX2                !
 ! R35   R(14,30)                0.9602         estimate D2E/DX2                !
 ! R36   R(14,34)                1.7126         estimate D2E/DX2                !
 ! R37   R(15,29)                1.647          estimate D2E/DX2                !
 ! R38   R(15,35)                0.9825         estimate D2E/DX2                !
 ! R39   R(15,36)                0.9727         estimate D2E/DX2                !
 ! R40   R(27,40)                1.0951         estimate D2E/DX2                !
 ! R41   R(27,41)                1.0958         estimate D2E/DX2                !
 ! R42   R(27,42)                1.0955         estimate D2E/DX2                !
 ! R43   R(36,37)                1.8774         estimate D2E/DX2                !
 ! R44   R(37,38)                0.974          estimate D2E/DX2                !
 ! R45   R(37,39)                0.9605         estimate D2E/DX2                !
 ! A1    A(2,1,5)              104.7473         estimate D2E/DX2                !
 ! A2    A(2,1,19)             109.0511         estimate D2E/DX2                !
 ! A3    A(2,1,20)             112.5885         estimate D2E/DX2                !
 ! A4    A(5,1,19)             110.0446         estimate D2E/DX2                !
 ! A5    A(5,1,20)             113.3476         estimate D2E/DX2                !
 ! A6    A(19,1,20)            107.0292         estimate D2E/DX2                !
 ! A7    A(1,2,3)              104.8399         estimate D2E/DX2                !
 ! A8    A(1,2,6)              114.543          estimate D2E/DX2                !
 ! A9    A(1,2,22)             109.439          estimate D2E/DX2                !
 ! A10   A(3,2,6)              110.0892         estimate D2E/DX2                !
 ! A11   A(3,2,22)             110.8941         estimate D2E/DX2                !
 ! A12   A(6,2,22)             107.0773         estimate D2E/DX2                !
 ! A13   A(2,3,4)              108.2454         estimate D2E/DX2                !
 ! A14   A(2,3,27)             112.4807         estimate D2E/DX2                !
 ! A15   A(2,3,35)             117.6505         estimate D2E/DX2                !
 ! A16   A(4,3,27)             111.7462         estimate D2E/DX2                !
 ! A17   A(4,3,35)             101.0276         estimate D2E/DX2                !
 ! A18   A(27,3,35)            105.1766         estimate D2E/DX2                !
 ! A19   A(3,4,5)              102.2029         estimate D2E/DX2                !
 ! A20   A(3,4,16)             109.8706         estimate D2E/DX2                !
 ! A21   A(3,4,21)             112.1123         estimate D2E/DX2                !
 ! A22   A(5,4,16)             113.5811         estimate D2E/DX2                !
 ! A23   A(5,4,21)             110.481          estimate D2E/DX2                !
 ! A24   A(16,4,21)            108.5534         estimate D2E/DX2                !
 ! A25   A(1,5,4)              102.3849         estimate D2E/DX2                !
 ! A26   A(1,5,17)             112.5746         estimate D2E/DX2                !
 ! A27   A(1,5,18)             110.9484         estimate D2E/DX2                !
 ! A28   A(4,5,17)             112.8364         estimate D2E/DX2                !
 ! A29   A(4,5,18)             109.8468         estimate D2E/DX2                !
 ! A30   A(17,5,18)            108.1928         estimate D2E/DX2                !
 ! A31   A(2,6,7)              121.6871         estimate D2E/DX2                !
 ! A32   A(2,6,11)             121.0432         estimate D2E/DX2                !
 ! A33   A(7,6,11)             117.2635         estimate D2E/DX2                !
 ! A34   A(6,7,8)              121.0731         estimate D2E/DX2                !
 ! A35   A(6,7,26)             119.443          estimate D2E/DX2                !
 ! A36   A(8,7,26)             119.4839         estimate D2E/DX2                !
 ! A37   A(7,8,9)              118.6064         estimate D2E/DX2                !
 ! A38   A(7,8,25)             121.4269         estimate D2E/DX2                !
 ! A39   A(9,8,25)             119.9664         estimate D2E/DX2                !
 ! A40   A(8,9,10)             119.5036         estimate D2E/DX2                !
 ! A41   A(8,9,24)             124.199          estimate D2E/DX2                !
 ! A42   A(10,9,24)            116.2973         estimate D2E/DX2                !
 ! A43   A(9,10,11)            123.108          estimate D2E/DX2                !
 ! A44   A(9,10,28)            117.1274         estimate D2E/DX2                !
 ! A45   A(11,10,28)           119.7615         estimate D2E/DX2                !
 ! A46   A(6,11,10)            120.4326         estimate D2E/DX2                !
 ! A47   A(6,11,23)            123.8042         estimate D2E/DX2                !
 ! A48   A(10,11,23)           115.762          estimate D2E/DX2                !
 ! A49   A(28,12,31)           109.5192         estimate D2E/DX2                !
 ! A50   A(28,12,32)           126.1332         estimate D2E/DX2                !
 ! A51   A(31,12,32)           107.1545         estimate D2E/DX2                !
 ! A52   A(31,13,33)           126.7888         estimate D2E/DX2                !
 ! A53   A(31,13,34)           103.6677         estimate D2E/DX2                !
 ! A54   A(31,13,38)            90.7191         estimate D2E/DX2                !
 ! A55   A(33,13,34)           107.5214         estimate D2E/DX2                !
 ! A56   A(33,13,38)           122.2975         estimate D2E/DX2                !
 ! A57   A(34,13,38)           102.2159         estimate D2E/DX2                !
 ! A58   A(29,14,30)           106.9693         estimate D2E/DX2                !
 ! A59   A(29,14,34)           100.9808         estimate D2E/DX2                !
 ! A60   A(30,14,34)           118.4784         estimate D2E/DX2                !
 ! A61   A(29,15,35)           113.845          estimate D2E/DX2                !
 ! A62   A(29,15,36)           106.0252         estimate D2E/DX2                !
 ! A63   A(35,15,36)           107.0041         estimate D2E/DX2                !
 ! A64   A(3,27,40)            110.7214         estimate D2E/DX2                !
 ! A65   A(3,27,41)            112.2576         estimate D2E/DX2                !
 ! A66   A(3,27,42)            110.2502         estimate D2E/DX2                !
 ! A67   A(40,27,41)           108.4203         estimate D2E/DX2                !
 ! A68   A(40,27,42)           106.7604         estimate D2E/DX2                !
 ! A69   A(41,27,42)           108.239          estimate D2E/DX2                !
 ! A70   A(12,31,13)           158.8898         estimate D2E/DX2                !
 ! A71   A(13,34,14)           162.1215         estimate D2E/DX2                !
 ! A72   A(15,36,37)           159.4009         estimate D2E/DX2                !
 ! A73   A(36,37,38)           100.2568         estimate D2E/DX2                !
 ! A74   A(36,37,39)           117.8419         estimate D2E/DX2                !
 ! A75   A(38,37,39)           105.8558         estimate D2E/DX2                !
 ! A76   A(13,38,37)           159.5132         estimate D2E/DX2                !
 ! A77   L(10,28,12,14,-1)     187.7246         estimate D2E/DX2                !
 ! A78   L(14,29,15,1,-1)      179.3411         estimate D2E/DX2                !
 ! A79   L(3,35,15,8,-1)       187.2669         estimate D2E/DX2                !
 ! A80   L(10,28,12,14,-2)     174.6544         estimate D2E/DX2                !
 ! A81   L(14,29,15,1,-2)      166.2195         estimate D2E/DX2                !
 ! A82   L(3,35,15,8,-2)       170.3306         estimate D2E/DX2                !
 ! D1    D(5,1,2,3)              9.0997         estimate D2E/DX2                !
 ! D2    D(5,1,2,6)           -111.6719         estimate D2E/DX2                !
 ! D3    D(5,1,2,22)           128.0964         estimate D2E/DX2                !
 ! D4    D(19,1,2,3)          -108.6665         estimate D2E/DX2                !
 ! D5    D(19,1,2,6)           130.5619         estimate D2E/DX2                !
 ! D6    D(19,1,2,22)           10.3301         estimate D2E/DX2                !
 ! D7    D(20,1,2,3)           132.698          estimate D2E/DX2                !
 ! D8    D(20,1,2,6)            11.9264         estimate D2E/DX2                !
 ! D9    D(20,1,2,22)         -108.3054         estimate D2E/DX2                !
 ! D10   D(2,1,5,4)            -31.1            estimate D2E/DX2                !
 ! D11   D(2,1,5,17)          -152.5404         estimate D2E/DX2                !
 ! D12   D(2,1,5,18)            86.0461         estimate D2E/DX2                !
 ! D13   D(19,1,5,4)            85.9864         estimate D2E/DX2                !
 ! D14   D(19,1,5,17)          -35.454          estimate D2E/DX2                !
 ! D15   D(19,1,5,18)         -156.8675         estimate D2E/DX2                !
 ! D16   D(20,1,5,4)          -154.2095         estimate D2E/DX2                !
 ! D17   D(20,1,5,17)           84.3501         estimate D2E/DX2                !
 ! D18   D(20,1,5,18)          -37.0634         estimate D2E/DX2                !
 ! D19   D(1,2,3,4)             17.5673         estimate D2E/DX2                !
 ! D20   D(1,2,3,27)           141.5272         estimate D2E/DX2                !
 ! D21   D(1,2,3,35)           -96.0164         estimate D2E/DX2                !
 ! D22   D(6,2,3,4)            141.2401         estimate D2E/DX2                !
 ! D23   D(6,2,3,27)           -94.8            estimate D2E/DX2                !
 ! D24   D(6,2,3,35)            27.6564         estimate D2E/DX2                !
 ! D25   D(22,2,3,4)          -100.4453         estimate D2E/DX2                !
 ! D26   D(22,2,3,27)           23.5146         estimate D2E/DX2                !
 ! D27   D(22,2,3,35)          145.971          estimate D2E/DX2                !
 ! D28   D(1,2,6,7)           -135.362          estimate D2E/DX2                !
 ! D29   D(1,2,6,11)            45.5687         estimate D2E/DX2                !
 ! D30   D(3,2,6,7)            106.811          estimate D2E/DX2                !
 ! D31   D(3,2,6,11)           -72.2583         estimate D2E/DX2                !
 ! D32   D(22,2,6,7)           -13.8274         estimate D2E/DX2                !
 ! D33   D(22,2,6,11)          167.1033         estimate D2E/DX2                !
 ! D34   D(2,3,4,5)            -37.3777         estimate D2E/DX2                !
 ! D35   D(2,3,4,16)          -158.266          estimate D2E/DX2                !
 ! D36   D(2,3,4,21)            80.9344         estimate D2E/DX2                !
 ! D37   D(27,3,4,5)          -161.7771         estimate D2E/DX2                !
 ! D38   D(27,3,4,16)           77.3346         estimate D2E/DX2                !
 ! D39   D(27,3,4,21)          -43.465          estimate D2E/DX2                !
 ! D40   D(35,3,4,5)            86.8222         estimate D2E/DX2                !
 ! D41   D(35,3,4,16)          -34.0661         estimate D2E/DX2                !
 ! D42   D(35,3,4,21)         -154.8657         estimate D2E/DX2                !
 ! D43   D(2,3,15,29)           55.4166         estimate D2E/DX2                !
 ! D44   D(2,3,15,36)          -62.0695         estimate D2E/DX2                !
 ! D45   D(4,3,15,29)          -59.7264         estimate D2E/DX2                !
 ! D46   D(4,3,15,36)         -177.2125         estimate D2E/DX2                !
 ! D47   D(27,3,15,29)        -175.5028         estimate D2E/DX2                !
 ! D48   D(27,3,15,36)          67.0112         estimate D2E/DX2                !
 ! D49   D(2,3,27,40)           60.7674         estimate D2E/DX2                !
 ! D50   D(2,3,27,41)          -60.5556         estimate D2E/DX2                !
 ! D51   D(2,3,27,42)          178.6842         estimate D2E/DX2                !
 ! D52   D(4,3,27,40)         -177.2364         estimate D2E/DX2                !
 ! D53   D(4,3,27,41)           61.4406         estimate D2E/DX2                !
 ! D54   D(4,3,27,42)          -59.3196         estimate D2E/DX2                !
 ! D55   D(35,3,27,40)         -68.4781         estimate D2E/DX2                !
 ! D56   D(35,3,27,41)         170.199          estimate D2E/DX2                !
 ! D57   D(35,3,27,42)          49.4388         estimate D2E/DX2                !
 ! D58   D(3,4,5,1)             41.5626         estimate D2E/DX2                !
 ! D59   D(3,4,5,17)           162.8232         estimate D2E/DX2                !
 ! D60   D(3,4,5,18)           -76.3691         estimate D2E/DX2                !
 ! D61   D(16,4,5,1)           159.8463         estimate D2E/DX2                !
 ! D62   D(16,4,5,17)          -78.8932         estimate D2E/DX2                !
 ! D63   D(16,4,5,18)           41.9145         estimate D2E/DX2                !
 ! D64   D(21,4,5,1)           -77.902          estimate D2E/DX2                !
 ! D65   D(21,4,5,17)           43.3585         estimate D2E/DX2                !
 ! D66   D(21,4,5,18)          164.1662         estimate D2E/DX2                !
 ! D67   D(2,6,7,8)           -178.583          estimate D2E/DX2                !
 ! D68   D(2,6,7,26)             1.39           estimate D2E/DX2                !
 ! D69   D(11,6,7,8)             0.52           estimate D2E/DX2                !
 ! D70   D(11,6,7,26)         -179.507          estimate D2E/DX2                !
 ! D71   D(2,6,11,10)          179.5059         estimate D2E/DX2                !
 ! D72   D(2,6,11,23)           -0.0715         estimate D2E/DX2                !
 ! D73   D(7,6,11,10)            0.3968         estimate D2E/DX2                !
 ! D74   D(7,6,11,23)         -179.1806         estimate D2E/DX2                !
 ! D75   D(6,7,8,9)             -0.644          estimate D2E/DX2                !
 ! D76   D(6,7,8,25)           179.5363         estimate D2E/DX2                !
 ! D77   D(26,7,8,9)           179.383          estimate D2E/DX2                !
 ! D78   D(26,7,8,25)           -0.4367         estimate D2E/DX2                !
 ! D79   D(7,8,9,10)            -0.1497         estimate D2E/DX2                !
 ! D80   D(7,8,9,24)           179.9097         estimate D2E/DX2                !
 ! D81   D(25,8,9,10)          179.6727         estimate D2E/DX2                !
 ! D82   D(25,8,9,24)           -0.2679         estimate D2E/DX2                !
 ! D83   D(8,9,10,11)            1.1084         estimate D2E/DX2                !
 ! D84   D(8,9,10,28)         -179.5216         estimate D2E/DX2                !
 ! D85   D(24,9,10,11)        -178.9464         estimate D2E/DX2                !
 ! D86   D(24,9,10,28)           0.4236         estimate D2E/DX2                !
 ! D87   D(9,10,11,6)           -1.2414         estimate D2E/DX2                !
 ! D88   D(9,10,11,23)         178.3687         estimate D2E/DX2                !
 ! D89   D(28,10,11,6)         179.4045         estimate D2E/DX2                !
 ! D90   D(28,10,11,23)         -0.9855         estimate D2E/DX2                !
 ! D91   D(9,10,12,31)        -123.4214         estimate D2E/DX2                !
 ! D92   D(9,10,12,32)         102.5906         estimate D2E/DX2                !
 ! D93   D(11,10,12,31)         54.496          estimate D2E/DX2                !
 ! D94   D(11,10,12,32)        -79.492          estimate D2E/DX2                !
 ! D95   D(28,12,31,13)          0.3928         estimate D2E/DX2                !
 ! D96   D(32,12,31,13)        140.2263         estimate D2E/DX2                !
 ! D97   D(33,13,31,12)        176.8958         estimate D2E/DX2                !
 ! D98   D(34,13,31,12)        -58.4426         estimate D2E/DX2                !
 ! D99   D(38,13,31,12)         44.3152         estimate D2E/DX2                !
 ! D100  D(31,13,34,14)         56.6381         estimate D2E/DX2                !
 ! D101  D(33,13,34,14)       -167.0528         estimate D2E/DX2                !
 ! D102  D(38,13,34,14)        -37.1383         estimate D2E/DX2                !
 ! D103  D(31,13,38,37)        -69.2237         estimate D2E/DX2                !
 ! D104  D(33,13,38,37)        155.0126         estimate D2E/DX2                !
 ! D105  D(34,13,38,37)         34.9286         estimate D2E/DX2                !
 ! D106  D(30,14,15,35)         94.1855         estimate D2E/DX2                !
 ! D107  D(30,14,15,36)       -151.2807         estimate D2E/DX2                !
 ! D108  D(34,14,15,35)       -140.3668         estimate D2E/DX2                !
 ! D109  D(34,14,15,36)        -25.833          estimate D2E/DX2                !
 ! D110  D(29,14,34,13)         61.5411         estimate D2E/DX2                !
 ! D111  D(30,14,34,13)        177.8676         estimate D2E/DX2                !
 ! D112  D(29,15,36,37)         -6.0039         estimate D2E/DX2                !
 ! D113  D(35,15,36,37)        115.8443         estimate D2E/DX2                !
 ! D114  D(15,36,37,38)         34.3743         estimate D2E/DX2                !
 ! D115  D(15,36,37,39)        148.5527         estimate D2E/DX2                !
 ! D116  D(36,37,38,13)        -51.9755         estimate D2E/DX2                !
 ! D117  D(39,37,38,13)       -174.9854         estimate D2E/DX2                !
 --------------------------------------------------------------------------------
 Trust Radius=3.00D-01 FncErr=1.00D-07 GrdErr=1.00D-06 EigMax=2.50D+02 EigMin=1.00D-04
 Number of steps in this run=    252 maximum allowed number of steps=    252.
 GradGradGradGradGradGradGradGradGradGradGradGradGradGradGradGradGradGrad

                          Input orientation:                          
 ---------------------------------------------------------------------
 Center     Atomic      Atomic             Coordinates (Angstroms)
 Number     Number       Type             X           Y           Z
 ---------------------------------------------------------------------
      1          6           0       -2.835187    0.039071   -1.385114
      2          6           0       -2.468980   -0.695094   -0.067839
      3          7           0       -2.482964    0.359560    0.970415
      4          6           0       -3.226490    1.518584    0.441424
      5          6           0       -2.805866    1.530035   -1.022541
      6          6           0       -1.119856   -1.389460   -0.087327
      7          6           0       -0.953808   -2.682783    0.409945
      8          6           0        0.299028   -3.298383    0.412460
      9          6           0        1.376586   -2.605899   -0.101478
     10          7           0        1.195325   -1.369126   -0.589955
     11          6           0        0.009750   -0.748955   -0.587702
     12          8           0        3.491137   -0.310917   -1.463502
     13          8           0        3.430664    1.922878    0.036489
     14          8           0        0.951325    2.516451   -0.756401
     15          8           0       -0.073886    1.704134    1.518540
     16          1           0       -2.940485    2.425114    0.986872
     17          1           0       -3.472516    2.128619   -1.651429
     18          1           0       -1.789602    1.936962   -1.115464
     19          1           0       -3.846840   -0.253926   -1.688667
     20          1           0       -2.164433   -0.220039   -2.211801
     21          1           0       -4.317187    1.386510    0.528243
     22          1           0       -3.225331   -1.464782    0.144673
     23          1           0        0.004412    0.263707   -0.988947
     24          1           0        2.389989   -2.996363   -0.143276
     25          1           0        0.436320   -4.302859    0.805264
     26          1           0       -1.817066   -3.220843    0.803322
     27          6           0       -3.041418   -0.109900    2.236018
     28          1           0        2.039181   -0.879337   -0.978750
     29          1           0        0.486833    2.334764    0.104145
     30          1           0        0.660805    3.381768   -1.054432
     31          1           0        3.675192    0.540576   -1.016011
     32          1           0        3.790680   -0.224174   -2.371495
     33          1           0        4.047025    2.642122    0.193597
     34          1           0        2.587892    2.319821   -0.291605
     35          1           0       -0.874875    1.144818    1.414131
     36          1           0        0.633800    1.127611    1.854739
     37          8           0        2.255178    0.182565    1.905870
     38          1           0        2.829594    0.796986    1.414835
     39          1           0        2.674751    0.057550    2.760757
     40          1           0       -2.448283   -0.938211    2.637741
     41          1           0       -4.079428   -0.445564    2.132574
     42          1           0       -3.012799    0.690696    2.983294
 ---------------------------------------------------------------------
                    Distance matrix (angstroms):
                    1          2          3          4          5
     1  C    0.000000
     2  C    1.551876   0.000000
     3  N    2.403184   1.480021   0.000000
     4  C    2.382922   2.394481   1.475127   0.000000
     5  C    1.534696   2.444616   2.333699   1.523236   0.000000
     6  C    2.582114   1.517452   2.456818   3.629629   3.498672
     7  C    3.764348   2.544589   3.450840   4.776773   4.819748
     8  C    4.918656   3.830100   4.629400   5.969362   5.917197
     9  C    5.136401   4.294262   4.983877   6.204386   5.953756
    10  N    4.342847   3.762188   4.353495   5.380991   4.960020
    11  C    3.057862   2.533231   3.141681   4.083391   3.648366
    12  O    6.336483   6.133389   6.485628   7.218194   6.575393
    13  O    6.695564   6.455266   6.187663   6.681701   6.337995
    14  O    4.568409   4.742006   4.407767   4.459222   3.893627
    15  O    4.339173   3.742909   2.812824   3.336693   3.735120
    16  H    3.366097   3.327226   2.115682   1.095951   2.203867
    17  H    2.200755   3.389424   3.314038   2.193788   1.094635
    18  H    2.183563   2.913210   2.705520   2.159534   1.098643
    19  H    1.096099   2.172605   3.050777   2.839703   2.170223
    20  H    1.095655   2.216980   3.250215   3.345202   2.211003
    21  H    2.769991   2.846798   2.148143   1.102089   2.170166
    22  H    2.180375   1.099840   2.135692   2.998089   3.241492
    23  H    2.875888   2.808097   3.167858   3.749587   3.082593
    24  H    6.169156   5.376905   6.020648   7.229900   6.946819
    25  H    5.861132   4.713708   5.503421   6.887507   6.919197
    26  H    4.056213   2.750149   3.645631   4.957783   5.184819
    27  C    3.630058   2.444974   1.460827   2.430387   3.655555
    28  H    4.976753   4.602958   5.077785   5.957702   5.411236
    29  H    4.303942   4.236325   3.670361   3.816893   3.571957
    30  H    4.848189   5.233519   4.808017   4.562905   3.930361
    31  H    6.540090   6.338514   6.473140   7.121364   6.556156
    32  H    6.704055   6.686699   7.132161   7.758247   6.957826
    33  H    7.525493   7.325550   6.960912   7.363951   7.048251
    34  H    5.983926   5.891667   5.581120   5.914926   5.500060
    35  H    3.591834   2.850032   1.843764   2.572149   3.132808
    36  H    4.869850   4.079927   3.329587   4.129426   4.502442
    37  O    6.063248   5.194563   4.832845   5.829085   6.000453
    38  H    6.364267   5.700834   5.349030   6.176114   6.183573
    39  H    6.895506   5.918226   5.467957   6.506810   6.820463
    40  H    4.157901   2.716560   2.113146   3.386038   4.429195
    41  H    3.762597   2.738179   2.132495   2.728621   3.934426
    42  H    4.420311   3.394932   2.107619   2.681821   4.098051
                    6          7          8          9         10
     6  C    0.000000
     7  C    1.395541   0.000000
     8  C    2.430433   1.395911   0.000000
     9  C    2.777075   2.387090   1.380144   0.000000
    10  N    2.369201   2.710031   2.351641   1.342041   0.000000
    11  C    1.391629   2.379797   2.753832   2.356458   1.337986
    12  O    4.931366   5.375229   4.757494   3.404905   2.674630
    13  O    5.629755   6.369865   6.100005   4.974745   4.028208
    14  O    4.471419   5.658792   5.966911   5.181529   3.896787
    15  O    3.639119   4.609586   5.136891   4.827495   3.937204
    16  H    4.361143   5.510929   6.601728   6.718087   5.829885
    17  H    4.512018   5.808850   6.923621   6.952108   5.928717
    18  H    3.545520   4.936342   5.840014   5.629432   4.485105
    19  H    3.360085   4.321244   5.556228   5.944336   5.279609
    20  H    2.640469   3.795296   4.736200   4.762836   3.903685
    21  H    4.278769   5.280668   6.578075   6.982473   6.263520
    22  H    2.119557   2.591083   3.981822   4.747671   4.482302
    23  H    2.193139   3.399542   3.839170   3.302287   2.060003
    24  H    3.860606   3.403728   2.184531   1.086828   2.067521
    25  H    3.421447   2.171032   1.087252   2.141484   3.336093
    26  H    2.152515   1.090628   2.153286   3.375831   3.800602
    27  C    3.275303   3.783171   4.964914   5.586829   5.246119
    28  H    3.321803   3.760169   3.288675   2.046865   1.050308
    29  H    4.060536   5.229220   5.644703   5.024350   3.834389
    30  H    5.183692   6.444389   6.848874   6.105131   4.803378
    31  H    5.251664   5.818164   5.308165   4.002532   3.158833
    32  H    5.539736   6.024229   5.421513   4.080863   3.349726
    33  H    6.559667   7.308197   7.027445   5.895764   4.983599
    34  H    5.248608   6.169429   6.107276   5.076035   3.954312
    35  H    2.955834   3.957922   4.703555   4.629690   3.823873
    36  H    3.630782   4.373446   4.667083   4.279908   3.539143
    37  O    4.223145   4.554734   4.263073   3.546393   3.124128
    38  H    4.757646   5.237626   4.917374   3.998758   3.373731
    39  H    4.960289   5.118807   4.735065   4.119658   3.930824
    40  H    3.065018   3.200009   4.250883   4.991405   4.886674
    41  H    3.818111   4.212137   5.501659   6.279023   6.007342
    42  H    4.164012   4.716135   5.787066   6.296829   5.892307
                   11         12         13         14         15
    11  C    0.000000
    12  O    3.616484   0.000000
    13  O    4.385312   2.691370   0.000000
    14  O    3.402631   3.865831   2.669855   0.000000
    15  O    3.234331   5.065806   3.811325   2.624171   0.000000
    16  H    4.610627   7.406481   6.461192   4.265387   3.003310
    17  H    4.640918   7.380997   7.109521   4.530106   4.666859
    18  H    3.275721   5.749808   5.345874   2.824432   3.152121
    19  H    4.041097   7.341652   7.789525   5.618407   5.324975
    20  H    2.764873   5.705583   6.399376   4.394828   4.689165
    21  H    4.952568   8.235182   7.781948   5.539341   4.368887
    22  H    3.393307   7.002041   7.469285   5.840086   4.675590
    23  H    1.089271   3.565480   3.942533   2.454705   2.892828
    24  H    3.303618   3.188596   5.031327   5.730340   5.561204
    25  H    3.840905   5.514962   6.951037   7.014771   6.070670
    26  H    3.373786   6.463991   7.388137   6.558450   5.273103
    27  C    4.206116   7.510068   7.131476   5.638642   3.551301
    28  H    2.070871   1.632869   3.289277   3.572708   4.168433
    29  H    3.196183   4.299185   2.973276   0.994637   1.647001
    30  H    4.207681   4.670550   3.315206   0.960207   3.158229
    31  H    3.909195   0.979370   1.754511   3.375045   4.672623
    32  H    4.213401   0.960053   3.246203   4.263976   5.812539
    33  H    5.330049   3.431534   0.960154   3.240625   4.429131
    34  H    4.018940   3.018274   0.987661   1.712615   3.277309
    35  H    2.894179   5.427891   4.587041   3.150808   0.982506
    36  H    3.142683   4.609171   3.429421   2.974517   0.972743
    37  O    3.482467   3.622677   2.811591   3.772896   2.808867
    38  H    3.788352   3.154348   1.878498   3.346449   3.043660
    39  H    4.354866   4.318173   3.387106   4.624586   3.436473
    40  H    4.059707   7.245026   7.036644   5.917112   3.724561
    41  H    4.920704   8.382324   8.148900   6.513692   4.587222
    42  H    4.894937   7.942191   7.191672   5.747432   3.436534
                   16         17         18         19         20
    16  H    0.000000
    17  H    2.707692   0.000000
    18  H    2.445944   1.776567   0.000000
    19  H    3.893230   2.412058   3.059539   0.000000
    20  H    4.222630   2.746141   2.448491   1.762189   0.000000
    21  H    1.784474   2.452583   3.064875   2.797668   3.837081
    22  H    3.990204   4.024874   3.901426   2.283327   2.868425
    23  H    4.153066   4.000726   2.456476   3.948379   2.536389
    24  H    7.686586   7.931515   6.538488   6.986217   5.720973
    25  H    7.530034   7.916960   6.897774   6.399923   5.704035
    26  H    5.759565   6.114169   5.503221   4.374081   4.268074
    27  C    2.827870   4.506557   4.121786   4.009065   4.534791
    28  H    6.291275   6.314990   4.754977   5.961574   4.430063
    29  H    3.540322   4.336010   2.613015   5.356885   4.349694
    30  H    4.248694   4.360175   2.845292   5.825752   4.721704
    31  H    7.164510   7.349515   5.641255   7.593725   6.009132
    32  H    7.975333   7.668647   6.114546   7.668041   5.957255
    33  H    7.035743   7.759594   6.023048   8.616445   7.249836
    34  H    5.675257   6.214034   4.470769   7.069776   5.720370
    35  H    2.467479   4.136818   2.804116   4.518453   4.083280
    36  H    3.900285   5.491545   3.917912   5.877117   5.116934
    37  O    5.733105   7.017691   5.344774   7.095481   6.053946
    38  H    6.010638   7.133850   5.388778   7.437131   6.255169
    39  H    6.346881   7.845101   6.203848   7.900984   6.944141
    40  H    3.778834   5.371357   4.773576   4.598045   4.910641
    41  H    3.294027   4.616648   4.633518   3.833107   4.753069
    42  H    2.645588   4.874384   4.455245   4.838921   5.342113
                   21         22         23         24         25
    21  H    0.000000
    22  H    3.077197   0.000000
    23  H    4.715800   3.834581   0.000000
    24  H    8.040319   5.827562   4.127250   0.000000
    25  H    7.418995   4.679610   4.925369   2.534459   0.000000
    26  H    5.249188   2.345374   4.321122   4.318073   2.499702
    27  C    2.604482   2.498651   4.451636   6.594914   5.632284
    28  H    6.914369   5.414786   2.333868   2.302799   4.179997
    29  H    4.915044   5.312095   2.390995   5.666051   6.674740
    30  H    5.591629   6.326844   3.187075   6.670895   7.909637
    31  H    8.184036   7.279139   3.681306   3.863075   6.104605
    32  H    8.760154   7.556098   4.060208   3.822555   6.162727
    33  H    8.464549   8.352019   4.837147   5.886575   7.851375
    34  H    7.015934   6.950332   3.374650   5.321934   7.049275
    35  H    3.562685   3.734458   2.706342   5.498567   5.636234
    36  H    5.132143   4.953556   3.037928   4.907487   5.534474
    37  O    6.822267   5.987616   3.667765   3.784542   4.963729
    38  H    7.225653   6.587186   3.747560   4.124374   5.666371
    39  H    7.459052   6.631166   4.607981   4.223847   5.277091
    40  H    3.653370   2.663920   4.540174   5.948018   4.795806
    41  H    2.446815   2.391660   5.188903   7.317064   6.085430
    42  H    2.865809   3.570577   5.006454   7.249825   6.447932
                   26         27         28         29         30
    26  H    0.000000
    27  C    3.637255   0.000000
    28  H    4.850677   6.061291   0.000000
    29  H    6.054880   4.792684   3.729999   0.000000
    30  H    7.292844   6.060137   4.479137   1.571237   0.000000
    31  H    6.900952   7.490771   2.166581   3.826159   4.142509
    32  H    7.106779   8.241347   2.331679   4.857197   4.953139
    33  H    8.314667   7.873444   4.219776   3.574554   3.683903
    34  H    7.162505   6.631859   3.317810   2.138058   2.328798
    35  H    4.507750   2.635094   4.279580   2.232999   3.668250
    36  H    5.101105   3.896669   3.745877   2.131525   3.680384
    37  O    5.420514   5.314928   3.081448   3.317411   4.641154
    38  H    6.173196   5.997129   3.027220   3.093735   4.181151
    39  H    5.895408   5.742645   3.907124   4.126776   5.446290
    40  H    2.995653   1.095121   5.763662   5.074089   6.477714
    41  H    3.819341   1.095827   6.877927   5.717997   6.875703
    42  H    4.634888   1.095533   6.609485   4.820776   6.086088
                   31         32         33         34         35
    31  H    0.000000
    32  H    1.560614   0.000000
    33  H    2.453142   3.855005   0.000000
    34  H    2.207419   3.499222   1.571104   0.000000
    35  H    5.193632   6.162184   5.287412   4.034963   0.000000
    36  H    4.223255   5.445573   4.086960   3.137934   1.571793
    37  O    3.268333   4.562790   3.491707   3.083417   3.311340
    38  H    2.586464   4.037666   2.525488   2.299866   3.720763
    39  H    3.936772   5.259722   3.892744   3.800306   3.949101
    40  H    7.282421   8.032867   7.809074   6.675245   2.883027
    41  H    8.427348   9.070516   8.906889   7.614273   3.648923
    42  H    7.793985   8.706209   7.837830   6.689301   2.690579
                   36         37         38         39         40
    36  H    0.000000
    37  O    1.877390   0.000000
    38  H    2.263700   0.973952   0.000000
    39  H    2.476162   0.960470   1.543453   0.000000
    40  H    3.792090   4.890226   5.688795   5.220359   0.000000
    41  H    4.976604   6.369708   7.056463   6.801961   1.777225
    42  H    3.842163   5.400983   6.050200   5.727008   1.758244
                   41         42
    41  H    0.000000
    42  H    1.775530   0.000000
 Stoichiometry    C10H25N2O5(1+)
 Framework group  C1[X(C10H25N2O5)]
 Deg. of freedom   120
 Full point group                 C1      NOp   1
 Largest Abelian subgroup         C1      NOp   1
 Largest concise Abelian subgroup C1      NOp   1
                         Standard orientation:                         
 ---------------------------------------------------------------------
 Center     Atomic      Atomic             Coordinates (Angstroms)
 Number     Number       Type             X           Y           Z
 ---------------------------------------------------------------------
      1          6           0        2.491574   -0.096469   -1.778364
      2          6           0        2.265993    0.654232   -0.439006
      3          7           0        2.370174   -0.391027    0.603607
      4          6           0        3.044139   -1.564149    0.015767
      5          6           0        2.480766   -1.583581   -1.399324
      6          6           0        0.929779    1.365441   -0.332360
      7          6           0        0.828863    2.665235    0.165523
      8          6           0       -0.410289    3.296667    0.285369
      9          6           0       -1.541410    2.613255   -0.112514
     10          7           0       -1.423824    1.369891   -0.603730
     11          6           0       -0.251181    0.734785   -0.712144
     12          8           0       -3.806980    0.332974   -1.235405
     13          8           0       -3.624719   -1.887672    0.274225
     14          8           0       -1.243020   -2.519820   -0.753406
     15          8           0        0.011482   -1.699908    1.400716
     16          1           0        2.802845   -2.461981    0.596097
     17          1           0        3.074929   -2.196265   -2.084754
     18          1           0        1.455595   -1.978419   -1.387265
     19          1           0        3.471632    0.180905   -2.183313
     20          1           0        1.745475    0.163595   -2.537418
     21          1           0        4.139548   -1.445130   -0.006883
     22          1           0        3.048613    1.416170   -0.310145
     23          1           0       -0.297397   -0.281471   -1.101500
     24          1           0       -2.549336    3.016140   -0.058081
     25          1           0       -0.496302    4.306335    0.679437
     26          1           0        1.733022    3.195863    0.466188
     27          6           0        3.056452    0.082807    1.802990
     28          1           0       -2.307659    0.887325   -0.902248
     29          1           0       -0.693646   -2.336217    0.055161
     30          1           0       -0.993541   -3.391426   -1.069731
     31          1           0       -3.955867   -0.512012   -0.763179
     32          1           0       -4.195801    0.241780   -2.108448
     33          1           0       -4.230918   -2.597585    0.498818
     34          1           0       -2.823213   -2.298237   -0.131362
     35          1           0        0.804727   -1.151765    1.211982
     36          1           0       -0.652703   -1.111424    1.799180
     37          8           0       -2.249901   -0.145471    2.000392
     38          1           0       -2.877200   -0.757001    1.574822
     39          1           0       -2.581425   -0.007376    2.891191
     40          1           0        2.515677    0.922191    2.252751
     41          1           0        4.083016    0.404328    1.594120
     42          1           0        3.092458   -0.710531    2.557649
 ---------------------------------------------------------------------
 Rotational constants (GHZ):           0.4917398           0.3093601           0.2473324
 Standard basis: Aug-CC-pVDZ (5D, 7F)
 There are   650 symmetry adapted cartesian basis functions of A   symmetry.
 There are   616 symmetry adapted basis functions of A   symmetry.
   616 basis functions,  1006 primitive gaussians,   650 cartesian basis functions
    69 alpha electrons       69 beta electrons
       nuclear repulsion energy      1424.9966733556 Hartrees.
 NAtoms=   42 NActive=   42 NUniq=   42 SFac= 1.00D+00 NAtFMM=   60 NAOKFM=F Big=F
 Integral buffers will be    131072 words long.
 Raffenetti 2 integral format.
 Two-electron integral symmetry is turned on.
 Nuclear repulsion after empirical dispersion term =     1424.9608862413 Hartrees.
 One-electron integrals computed using PRISM.
 NBasis=   616 RedAO= T EigKep=  1.75D-06  NBF=   616
 NBsUse=   616 1.00D-06 EigRej= -1.00D+00 NBFU=   616
 ExpMin= 2.97D-02 ExpMax= 1.17D+04 ExpMxC= 4.01D+02 IAcc=3 IRadAn=         5 AccDes= 0.00D+00
 Harris functional with IExCor= 4639 and IRadAn=       5 diagonalized for initial guess.
 HarFok:  IExCor= 4639 AccDes= 0.00D+00 IRadAn=         5 IDoV= 1 UseB2=F ITyADJ=14
 ICtDFT=  3500011 ScaDFX=  1.000000  1.000000  1.000000  1.000000
 FoFCou: FMM=F IPFlag=           0 FMFlag=      100000 FMFlg1=           0
         NFxFlg=           0 DoJE=T BraDBF=F KetDBF=T FulRan=T
         wScrn=  0.000000 ICntrl=       500 IOpCl=  0 I1Cent=   200000004 NGrid=           0
         NMat0=    1 NMatS0=      1 NMatT0=    0 NMatD0=    1 NMtDS0=    0 NMtDT0=    0
 Petite list used in FoFCou.
 Requested convergence on RMS density matrix=1.00D-08 within 128 cycles.
 Requested convergence on MAX density matrix=1.00D-06.
 Requested convergence on             energy=1.00D-06.
 No special actions if energy rises.
 SCF Done:  E(RwB97XD) =  -881.474158807     A.U. after   15 cycles
            NFock= 15  Conv=0.33D-08     -V/T= 2.0062

 **********************************************************************

            Population analysis using the SCF density.

 **********************************************************************

 Orbital symmetries:
       Occupied  (A) (A) (A) (A) (A) (A) (A) (A) (A) (A) (A) (A)
                 (A) (A) (A) (A) (A) (A) (A) (A) (A) (A) (A) (A)
                 (A) (A) (A) (A) (A) (A) (A) (A) (A) (A) (A) (A)
                 (A) (A) (A) (A) (A) (A) (A) (A) (A) (A) (A) (A)
                 (A) (A) (A) (A) (A) (A) (A) (A) (A) (A) (A) (A)
                 (A) (A) (A) (A) (A) (A) (A) (A) (A)
       Virtual   (A) (A) (A) (A) (A) (A) (A) (A) (A) (A) (A) (A)
                 (A) (A) (A) (A) (A) (A) (A) (A) (A) (A) (A) (A)
                 (A) (A) (A) (A) (A) (A) (A) (A) (A) (A) (A) (A)
                 (A) (A) (A) (A) (A) (A) (A) (A) (A) (A) (A) (A)
                 (A) (A) (A) (A) (A) (A) (A) (A) (A) (A) (A) (A)
                 (A) (A) (A) (A) (A) (A) (A) (A) (A) (A) (A) (A)
                 (A) (A) (A) (A) (A) (A) (A) (A) (A) (A) (A) (A)
                 (A) (A) (A) (A) (A) (A) (A) (A) (A) (A) (A) (A)
                 (A) (A) (A) (A) (A) (A) (A) (A) (A) (A) (A) (A)
                 (A) (A) (A) (A) (A) (A) (A) (A) (A) (A) (A) (A)
                 (A) (A) (A) (A) (A) (A) (A) (A) (A) (A) (A) (A)
                 (A) (A) (A) (A) (A) (A) (A) (A) (A) (A) (A) (A)
                 (A) (A) (A) (A) (A) (A) (A) (A) (A) (A) (A) (A)
                 (A) (A) (A) (A) (A) (A) (A) (A) (A) (A) (A) (A)
                 (A) (A) (A) (A) (A) (A) (A) (A) (A) (A) (A) (A)
                 (A) (A) (A) (A) (A) (A) (A) (A) (A) (A) (A) (A)
                 (A) (A) (A) (A) (A) (A) (A) (A) (A) (A) (A) (A)
                 (A) (A) (A) (A) (A) (A) (A) (A) (A) (A) (A) (A)
                 (A) (A) (A) (A) (A) (A) (A) (A) (A) (A) (A) (A)
                 (A) (A) (A) (A) (A) (A) (A) (A) (A) (A) (A) (A)
                 (A) (A) (A) (A) (A) (A) (A) (A) (A) (A) (A) (A)
                 (A) (A) (A) (A) (A) (A) (A) (A) (A) (A) (A) (A)
                 (A) (A) (A) (A) (A) (A) (A) (A) (A) (A) (A) (A)
                 (A) (A) (A) (A) (A) (A) (A) (A) (A) (A) (A) (A)
                 (A) (A) (A) (A) (A) (A) (A) (A) (A) (A) (A) (A)
                 (A) (A) (A) (A) (A) (A) (A) (A) (A) (A) (A) (A)
                 (A) (A) (A) (A) (A) (A) (A) (A) (A) (A) (A) (A)
                 (A) (A) (A) (A) (A) (A) (A) (A) (A) (A) (A) (A)
                 (A) (A) (A) (A) (A) (A) (A) (A) (A) (A) (A) (A)
                 (A) (A) (A) (A) (A) (A) (A) (A) (A) (A) (A) (A)
                 (A) (A) (A) (A) (A) (A) (A) (A) (A) (A) (A) (A)
                 (A) (A) (A) (A) (A) (A) (A) (A) (A) (A) (A) (A)
                 (A) (A) (A) (A) (A) (A) (A) (A) (A) (A) (A) (A)
                 (A) (A) (A) (A) (A) (A) (A) (A) (A) (A) (A) (A)
                 (A) (A) (A) (A) (A) (A) (A) (A) (A) (A) (A) (A)
                 (A) (A) (A) (A) (A) (A) (A) (A) (A) (A) (A) (A)
                 (A) (A) (A) (A) (A) (A) (A) (A) (A) (A) (A) (A)
                 (A) (A) (A) (A) (A) (A) (A) (A) (A) (A) (A) (A)
                 (A) (A) (A) (A) (A) (A) (A) (A) (A) (A) (A) (A)
                 (A) (A) (A) (A) (A) (A) (A) (A) (A) (A) (A) (A)
                 (A) (A) (A) (A) (A) (A) (A) (A) (A) (A) (A) (A)
                 (A) (A) (A) (A) (A) (A) (A) (A) (A) (A) (A) (A)
                 (A) (A) (A) (A) (A) (A) (A) (A) (A) (A) (A) (A)
                 (A) (A) (A) (A) (A) (A) (A) (A) (A) (A) (A) (A)
                 (A) (A) (A) (A) (A) (A) (A) (A) (A) (A) (A) (A)
                 (A) (A) (A) (A) (A) (A) (A)
 The electronic state is 1-A.
 Alpha  occ. eigenvalues --  -19.40101 -19.39925 -19.38663 -19.38382 -19.36050
 Alpha  occ. eigenvalues --  -14.67104 -14.57283 -10.50423 -10.50321 -10.47311
 Alpha  occ. eigenvalues --  -10.46658 -10.46386 -10.46027 -10.42733 -10.42373
 Alpha  occ. eigenvalues --  -10.41292 -10.40383  -1.25707  -1.24950  -1.23786
 Alpha  occ. eigenvalues --   -1.22772  -1.22492  -1.20005  -1.16449  -1.07803
 Alpha  occ. eigenvalues --   -1.04247  -1.00228  -0.95742  -0.90243  -0.89384
 Alpha  occ. eigenvalues --   -0.87960  -0.82123  -0.79736  -0.78833  -0.76643
 Alpha  occ. eigenvalues --   -0.75096  -0.74323  -0.73766  -0.73652  -0.73004
 Alpha  occ. eigenvalues --   -0.72453  -0.69864  -0.69139  -0.68738  -0.67681
 Alpha  occ. eigenvalues --   -0.65058  -0.64377  -0.63526  -0.62909  -0.62055
 Alpha  occ. eigenvalues --   -0.61710  -0.60046  -0.59984  -0.59063  -0.58724
 Alpha  occ. eigenvalues --   -0.56425  -0.56358  -0.55411  -0.55086  -0.53864
 Alpha  occ. eigenvalues --   -0.53437  -0.53277  -0.52937  -0.52890  -0.51801
 Alpha  occ. eigenvalues --   -0.51553  -0.50156  -0.48678  -0.43444
 Alpha virt. eigenvalues --   -0.13345  -0.10517  -0.06567  -0.05312  -0.04661
 Alpha virt. eigenvalues --   -0.04482  -0.03470  -0.03390  -0.02981  -0.02914
 Alpha virt. eigenvalues --   -0.01966  -0.01454  -0.01019  -0.00607  -0.00334
 Alpha virt. eigenvalues --    0.00000   0.00422   0.00742   0.01112   0.01264
 Alpha virt. eigenvalues --    0.01422   0.02226   0.02353   0.02711   0.03249
 Alpha virt. eigenvalues --    0.03381   0.03683   0.03832   0.03888   0.04072
 Alpha virt. eigenvalues --    0.04561   0.04739   0.05019   0.05425   0.05630
 Alpha virt. eigenvalues --    0.06055   0.06244   0.06465   0.06805   0.07055
 Alpha virt. eigenvalues --    0.07376   0.07567   0.07911   0.07926   0.08462
 Alpha virt. eigenvalues --    0.08797   0.09152   0.09202   0.09477   0.09565
 Alpha virt. eigenvalues --    0.09937   0.10379   0.10644   0.10788   0.11348
 Alpha virt. eigenvalues --    0.11604   0.11848   0.12125   0.12694   0.12772
 Alpha virt. eigenvalues --    0.13264   0.13402   0.13795   0.14154   0.14401
 Alpha virt. eigenvalues --    0.14647   0.14979   0.15052   0.15551   0.15645
 Alpha virt. eigenvalues --    0.15827   0.16124   0.16453   0.16694   0.17017
 Alpha virt. eigenvalues --    0.17206   0.17367   0.17935   0.18362   0.18469
 Alpha virt. eigenvalues --    0.18590   0.18808   0.19107   0.19553   0.19640
 Alpha virt. eigenvalues --    0.19912   0.20201   0.20368   0.20553   0.20969
 Alpha virt. eigenvalues --    0.21064   0.21547   0.22064   0.22227   0.22499
 Alpha virt. eigenvalues --    0.22841   0.23019   0.23500   0.23609   0.24279
 Alpha virt. eigenvalues --    0.24538   0.24721   0.25227   0.25320   0.25392
 Alpha virt. eigenvalues --    0.26242   0.26374   0.26795   0.26998   0.27241
 Alpha virt. eigenvalues --    0.27715   0.27848   0.28508   0.28666   0.28797
 Alpha virt. eigenvalues --    0.29138   0.29468   0.29807   0.29992   0.30774
 Alpha virt. eigenvalues --    0.31331   0.31521   0.31882   0.32138   0.32673
 Alpha virt. eigenvalues --    0.33345   0.33945   0.34013   0.34145   0.34830
 Alpha virt. eigenvalues --    0.35103   0.35554   0.36265   0.36455   0.36792
 Alpha virt. eigenvalues --    0.36842   0.37308   0.37797   0.38126   0.38640
 Alpha virt. eigenvalues --    0.39000   0.39056   0.40101   0.40345   0.40715
 Alpha virt. eigenvalues --    0.41111   0.41811   0.41984   0.42225   0.42685
 Alpha virt. eigenvalues --    0.43065   0.43414   0.43492   0.43784   0.43990
 Alpha virt. eigenvalues --    0.44951   0.45311   0.45639   0.46524   0.46801
 Alpha virt. eigenvalues --    0.47239   0.47443   0.47790   0.48199   0.48448
 Alpha virt. eigenvalues --    0.48689   0.48975   0.49517   0.49780   0.49963
 Alpha virt. eigenvalues --    0.50504   0.50891   0.51263   0.51345   0.51744
 Alpha virt. eigenvalues --    0.52015   0.52517   0.52720   0.52870   0.52925
 Alpha virt. eigenvalues --    0.53704   0.54515   0.54789   0.54946   0.55294
 Alpha virt. eigenvalues --    0.55472   0.56098   0.56500   0.56719   0.57171
 Alpha virt. eigenvalues --    0.57399   0.57643   0.58112   0.58471   0.58757
 Alpha virt. eigenvalues --    0.59062   0.59632   0.59939   0.60299   0.60566
 Alpha virt. eigenvalues --    0.61141   0.61546   0.61557   0.62067   0.62736
 Alpha virt. eigenvalues --    0.62883   0.63098   0.63776   0.64424   0.64819
 Alpha virt. eigenvalues --    0.65073   0.65465   0.65766   0.66599   0.66942
 Alpha virt. eigenvalues --    0.67304   0.67805   0.68119   0.68417   0.69178
 Alpha virt. eigenvalues --    0.69309   0.69650   0.70152   0.71184   0.71537
 Alpha virt. eigenvalues --    0.71618   0.72573   0.72612   0.73109   0.73560
 Alpha virt. eigenvalues --    0.73864   0.74430   0.74959   0.75469   0.75924
 Alpha virt. eigenvalues --    0.76163   0.76319   0.76726   0.77580   0.78183
 Alpha virt. eigenvalues --    0.78319   0.78795   0.79558   0.79753   0.80414
 Alpha virt. eigenvalues --    0.80536   0.81545   0.81686   0.82667   0.83434
 Alpha virt. eigenvalues --    0.83716   0.84328   0.84961   0.85393   0.86285
 Alpha virt. eigenvalues --    0.87421   0.87658   0.87716   0.89008   0.89042
 Alpha virt. eigenvalues --    0.90507   0.90732   0.91541   0.92159   0.92590
 Alpha virt. eigenvalues --    0.93370   0.94315   0.94386   0.95017   0.95449
 Alpha virt. eigenvalues --    0.95823   0.96477   0.97017   0.98398   0.99333
 Alpha virt. eigenvalues --    0.99370   1.00460   1.00611   1.01771   1.02202
 Alpha virt. eigenvalues --    1.03598   1.03982   1.04673   1.04844   1.05017
 Alpha virt. eigenvalues --    1.06671   1.07207   1.07699   1.08000   1.09464
 Alpha virt. eigenvalues --    1.10179   1.10677   1.11064   1.11727   1.11993
 Alpha virt. eigenvalues --    1.13077   1.14160   1.14531   1.15068   1.15907
 Alpha virt. eigenvalues --    1.16659   1.16952   1.18390   1.18774   1.19853
 Alpha virt. eigenvalues --    1.20241   1.20802   1.21516   1.21896   1.22884
 Alpha virt. eigenvalues --    1.23577   1.24084   1.24537   1.26288   1.26848
 Alpha virt. eigenvalues --    1.28112   1.28704   1.29120   1.29664   1.31523
 Alpha virt. eigenvalues --    1.32040   1.32723   1.33275   1.34089   1.34405
 Alpha virt. eigenvalues --    1.35996   1.36326   1.36936   1.37638   1.38738
 Alpha virt. eigenvalues --    1.39178   1.40214   1.40775   1.42531   1.42793
 Alpha virt. eigenvalues --    1.44087   1.44290   1.45485   1.46275   1.46849
 Alpha virt. eigenvalues --    1.48060   1.48455   1.49923   1.51100   1.51698
 Alpha virt. eigenvalues --    1.52031   1.52985   1.54047   1.54963   1.55668
 Alpha virt. eigenvalues --    1.56494   1.56911   1.57856   1.58854   1.59546
 Alpha virt. eigenvalues --    1.60394   1.61303   1.62170   1.63327   1.63928
 Alpha virt. eigenvalues --    1.64191   1.64978   1.65579   1.66182   1.67476
 Alpha virt. eigenvalues --    1.67593   1.68941   1.69364   1.70432   1.71036
 Alpha virt. eigenvalues --    1.72189   1.72522   1.73288   1.74495   1.74932
 Alpha virt. eigenvalues --    1.75973   1.76574   1.76819   1.78168   1.78811
 Alpha virt. eigenvalues --    1.80213   1.80855   1.81111   1.81619   1.81768
 Alpha virt. eigenvalues --    1.82391   1.83319   1.83965   1.84217   1.85278
 Alpha virt. eigenvalues --    1.85599   1.86637   1.87787   1.87927   1.88957
 Alpha virt. eigenvalues --    1.89977   1.90632   1.90824   1.91801   1.92918
 Alpha virt. eigenvalues --    1.93645   1.94388   1.94671   1.94917   1.95624
 Alpha virt. eigenvalues --    1.96575   1.97411   1.97646   1.98196   1.99267
 Alpha virt. eigenvalues --    1.99606   2.00449   2.00684   2.02158   2.03194
 Alpha virt. eigenvalues --    2.03848   2.04560   2.06023   2.06386   2.07193
 Alpha virt. eigenvalues --    2.07632   2.08847   2.10590   2.11631   2.12138
 Alpha virt. eigenvalues --    2.12785   2.13352   2.14160   2.15753   2.15983
 Alpha virt. eigenvalues --    2.16912   2.18665   2.19134   2.20281   2.21294
 Alpha virt. eigenvalues --    2.22475   2.22852   2.23654   2.25022   2.25668
 Alpha virt. eigenvalues --    2.26417   2.26570   2.27639   2.29220   2.29778
 Alpha virt. eigenvalues --    2.30642   2.31154   2.31661   2.32631   2.33465
 Alpha virt. eigenvalues --    2.34949   2.35996   2.37498   2.37846   2.39335
 Alpha virt. eigenvalues --    2.39612   2.40866   2.41822   2.42979   2.45062
 Alpha virt. eigenvalues --    2.45383   2.45704   2.47678   2.48606   2.49511
 Alpha virt. eigenvalues --    2.49768   2.50510   2.51825   2.52357   2.53915
 Alpha virt. eigenvalues --    2.55098   2.56742   2.57491   2.57733   2.60214
 Alpha virt. eigenvalues --    2.60730   2.61751   2.62566   2.63327   2.64512
 Alpha virt. eigenvalues --    2.65474   2.66230   2.67323   2.68715   2.69487
 Alpha virt. eigenvalues --    2.70355   2.71481   2.72137   2.74117   2.75424
 Alpha virt. eigenvalues --    2.77276   2.79209   2.82715   2.83341   2.84020
 Alpha virt. eigenvalues --    2.84519   2.86251   2.86867   2.88780   2.89636
 Alpha virt. eigenvalues --    2.90696   2.92929   2.94623   2.95508   2.98921
 Alpha virt. eigenvalues --    3.01340   3.02089   3.03860   3.07124   3.10827
 Alpha virt. eigenvalues --    3.15991   3.17286   3.20348   3.22608   3.29088
 Alpha virt. eigenvalues --    3.34088   3.35911   3.38598   3.39104   3.40605
 Alpha virt. eigenvalues --    3.43055   3.43695   3.45836   3.47364   3.49055
 Alpha virt. eigenvalues --    3.49493   3.52424   3.53562   3.58192   3.58569
 Alpha virt. eigenvalues --    3.61133   3.63551   3.68852   3.71364   3.77250
 Alpha virt. eigenvalues --    3.79432   3.81333   3.82914   3.91226   3.96046
 Alpha virt. eigenvalues --    3.99657   4.00647   4.01643   4.07908   4.15450
 Alpha virt. eigenvalues --    4.40071   4.63218
          Condensed to atoms (all electrons):
               1          2          3          4          5          6
     1  C    8.475143  -2.838391   0.089894   0.541355  -1.154632   0.645626
     2  C   -2.838391  23.460130  -4.297123  -0.696122   0.391843  -7.407305
     3  N    0.089894  -4.297123  13.261913   0.286373  -1.160010   1.768273
     4  C    0.541355  -0.696122   0.286373   6.183697  -0.441068  -0.418681
     5  C   -1.154632   0.391843  -1.160010  -0.441068   7.610225   0.708937
     6  C    0.645626  -7.407305   1.768273  -0.418681   0.708937  28.794396
     7  C   -0.258201  -0.743671  -0.498006   0.101345  -0.297514 -13.566378
     8  C   -0.104484  -0.111162   0.103215  -0.042555   0.081065   2.443391
     9  C   -0.219531   0.069749  -0.078990  -0.023642  -0.019566  -2.868811
    10  N   -0.188845   0.374509  -0.016371   0.014723   0.015726   0.419443
    11  C    0.430051  -1.035219  -0.389046   0.057971  -0.458994  -6.545201
    12  O   -0.004732   0.007811   0.000186   0.000008   0.000076  -0.048028
    13  O    0.001326  -0.002850  -0.002558   0.001187   0.000279  -0.018508
    14  O   -0.018476  -0.003075  -0.007724   0.004459   0.010589   0.039302
    15  O   -0.012193   0.030492  -0.122535  -0.037365   0.070194   0.050233
    16  H    0.045671   0.292174  -0.514521  -0.470975   0.310786  -0.145084
    17  H    0.163493   0.089127   0.137134   0.187018  -0.427599  -0.066587
    18  H    0.033915  -0.053991  -0.039455  -0.164932  -0.138618   0.166096
    19  H   -0.494516   0.068288   0.079848  -0.214458   0.122425   0.407956
    20  H   -0.629399  -0.059213   0.105795   0.099720   0.277307  -0.267311
    21  H   -0.098343   0.243362  -0.580261  -0.170401  -0.118306   0.076516
    22  H    0.317322  -2.153130  -0.062665  -0.134634   0.153757   0.583583
    23  H    0.170707  -0.134720  -0.157782   0.094436  -0.070104  -0.648503
    24  H    0.006737  -0.027472   0.003402   0.000469  -0.003441  -0.235192
    25  H    0.003036   0.014137  -0.002510  -0.000858   0.002705   0.023496
    26  H    0.025091   0.033431  -0.002976   0.021989  -0.021394   1.283523
    27  C    0.059457  -0.752583   0.950716  -0.116836  -0.416250   0.123788
    28  H   -0.071068   0.091943   0.003867  -0.011312   0.014267  -0.177506
    29  H   -0.004213  -0.022269  -0.022614  -0.006436   0.012526   0.001125
    30  H    0.029251  -0.017756   0.003225   0.016561  -0.030302   0.000455
    31  H    0.000777  -0.001011  -0.001281   0.000794  -0.000145  -0.009178
    32  H    0.001394  -0.000218   0.000226  -0.000028  -0.000157   0.009441
    33  H    0.001279  -0.000766   0.000150   0.000565  -0.001073  -0.003579
    34  H   -0.014863   0.012895   0.000504  -0.008978   0.012371   0.024383
    35  H   -0.063506   0.401872  -0.089207  -0.204776   0.180383  -0.072420
    36  H    0.014971  -0.055427  -0.085787   0.045498  -0.010626  -0.033446
    37  O   -0.004233  -0.008604   0.005014  -0.002757   0.000534   0.145167
    38  H   -0.000704  -0.001406   0.005498  -0.001273   0.000613   0.031602
    39  H   -0.000415   0.002619   0.001049  -0.000470   0.000301  -0.023508
    40  H    0.096182  -0.171223   0.330074  -0.100706  -0.051205   0.133020
    41  H   -0.067923   0.246569  -0.423167   0.201317   0.015685  -0.085807
    42  H   -0.040940   0.069811  -0.457854  -0.052588   0.031096   0.023636
               7          8          9         10         11         12
     1  C   -0.258201  -0.104484  -0.219531  -0.188845   0.430051  -0.004732
     2  C   -0.743671  -0.111162   0.069749   0.374509  -1.035219   0.007811
     3  N   -0.498006   0.103215  -0.078990  -0.016371  -0.389046   0.000186
     4  C    0.101345  -0.042555  -0.023642   0.014723   0.057971   0.000008
     5  C   -0.297514   0.081065  -0.019566   0.015726  -0.458994   0.000076
     6  C  -13.566378   2.443391  -2.868811   0.419443  -6.545201  -0.048028
     7  C   27.690613  -6.046146   2.804106  -0.423835  -1.445370   0.035040
     8  C   -6.046146  13.484334  -3.843545  -0.415646   0.204346  -0.054798
     9  C    2.804106  -3.843545  11.663941   0.870299  -1.982616   0.103070
    10  N   -0.423835  -0.415646   0.870299   8.899209  -2.287731  -0.111170
    11  C   -1.445370   0.204346  -1.982616  -2.287731  19.534257  -0.095083
    12  O    0.035040  -0.054798   0.103070  -0.111170  -0.095083   7.914904
    13  O    0.007654  -0.006890   0.020756  -0.001769   0.041905  -0.065116
    14  O   -0.009157   0.000095   0.003653   0.044911  -0.105624  -0.000555
    15  O   -0.012066  -0.018612   0.022465   0.000608  -0.082108  -0.001759
    16  H    0.012443   0.000164  -0.005081  -0.003283  -0.032814  -0.000010
    17  H    0.018522  -0.000288   0.000873   0.005059   0.040089  -0.000051
    18  H   -0.091533   0.014039  -0.003948  -0.005215  -0.001440  -0.000689
    19  H   -0.029118   0.016034  -0.011284  -0.020110   0.011953  -0.000330
    20  H    0.037976  -0.029616   0.007215   0.056823  -0.079316   0.001375
    21  H    0.017693  -0.005786   0.003440   0.002485   0.051774   0.000022
    22  H   -0.009432  -0.019437   0.041422  -0.007590   0.069719   0.000552
    23  H   -0.276251   0.007845  -0.047865   0.163618  -1.073304  -0.013311
    24  H    0.261452   0.270366  -1.035081  -0.371668   0.655515   0.009632
    25  H    0.761266  -1.347597   0.424029   0.026359  -0.196682  -0.000522
    26  H   -2.990377   1.062132  -0.422248  -0.069135   0.107221   0.000254
    27  C   -0.237247   0.124227  -0.040538  -0.015270   0.009995   0.000133
    28  H   -0.088169  -0.005455  -0.416614   0.061431  -0.199872   0.030966
    29  H    0.000834   0.007498  -0.003179  -0.016025   0.047041  -0.002153
    30  H    0.001995   0.000309  -0.000306  -0.002753   0.014955   0.000656
    31  H    0.004885   0.002279  -0.009359  -0.019253   0.033785   0.312576
    32  H   -0.004921   0.009375  -0.009929  -0.000954  -0.014739   0.374191
    33  H    0.001028   0.000776  -0.000983  -0.004393   0.009574   0.004460
    34  H   -0.010751  -0.003740   0.000070   0.022797  -0.061621  -0.000601
    35  H    0.001966  -0.048407   0.033557   0.039469  -0.127120   0.000441
    36  H    0.014142   0.005410  -0.003502  -0.002564   0.074282  -0.001243
    37  O   -0.037071   0.025179   0.009139  -0.088985  -0.186596   0.004809
    38  H   -0.015227   0.001784  -0.000523  -0.014982  -0.020476   0.003395
    39  H    0.000980  -0.000203  -0.008793   0.029620   0.029870  -0.000318
    40  H    0.017280  -0.047513   0.008520   0.009000  -0.053920   0.000046
    41  H    0.063964   0.013693  -0.004059  -0.004377   0.053412  -0.000023
    42  H   -0.043014   0.016681  -0.003265  -0.001585   0.022442   0.000041
              13         14         15         16         17         18
     1  C    0.001326  -0.018476  -0.012193   0.045671   0.163493   0.033915
     2  C   -0.002850  -0.003075   0.030492   0.292174   0.089127  -0.053991
     3  N   -0.002558  -0.007724  -0.122535  -0.514521   0.137134  -0.039455
     4  C    0.001187   0.004459  -0.037365  -0.470975   0.187018  -0.164932
     5  C    0.000279   0.010589   0.070194   0.310786  -0.427599  -0.138618
     6  C   -0.018508   0.039302   0.050233  -0.145084  -0.066587   0.166096
     7  C    0.007654  -0.009157  -0.012066   0.012443   0.018522  -0.091533
     8  C   -0.006890   0.000095  -0.018612   0.000164  -0.000288   0.014039
     9  C    0.020756   0.003653   0.022465  -0.005081   0.000873  -0.003948
    10  N   -0.001769   0.044911   0.000608  -0.003283   0.005059  -0.005215
    11  C    0.041905  -0.105624  -0.082108  -0.032814   0.040089  -0.001440
    12  O   -0.065116  -0.000555  -0.001759  -0.000010  -0.000051  -0.000689
    13  O    8.201015  -0.056338  -0.020693   0.000977   0.000298  -0.010495
    14  O   -0.056338   7.860029  -0.049444  -0.003670   0.007677  -0.007650
    15  O   -0.020693  -0.049444   8.356921   0.026479   0.000263   0.011141
    16  H    0.000977  -0.003670   0.026479   2.745721   0.002354  -0.080699
    17  H    0.000298   0.007677   0.000263   0.002354   2.161118  -0.652916
    18  H   -0.010495  -0.007650   0.011141  -0.080699  -0.652916   2.225635
    19  H   -0.000036  -0.001619  -0.000496   0.000263  -0.274036   0.234876
    20  H    0.000540   0.005078  -0.001575   0.002332   0.077825  -0.231656
    21  H   -0.000038   0.001278  -0.012619  -0.524022  -0.195122   0.155608
    22  H   -0.000006   0.000783   0.007193   0.016542   0.046235  -0.063353
    23  H    0.040752   0.036956   0.020864  -0.009594   0.033889  -0.040295
    24  H    0.003012  -0.000699   0.000920   0.000125   0.000024  -0.003860
    25  H   -0.000323   0.000125  -0.000223   0.000089  -0.000009   0.000863
    26  H    0.000185  -0.000503  -0.001328  -0.002348   0.000046   0.000600
    27  C    0.000589  -0.001224  -0.051457  -0.234511  -0.008170   0.006386
    28  H   -0.044804   0.001396  -0.008521  -0.001579   0.001278   0.015078
    29  H   -0.005017   0.256573   0.060919   0.001766   0.001283   0.001651
    30  H    0.017575   0.362954  -0.022012  -0.001369  -0.003127  -0.002554
    31  H    0.010532  -0.001142  -0.000459  -0.000054  -0.000006  -0.000195
    32  H   -0.007638  -0.000587   0.000432   0.000031  -0.000053   0.000071
    33  H    0.319009  -0.007877   0.000189   0.000166  -0.000048  -0.002210
    34  H    0.281870   0.056506   0.002550   0.000067   0.000511   0.013769
    35  H   -0.012076  -0.003133   0.115131   0.136729   0.014253  -0.013490
    36  H    0.012166   0.004707   0.286940  -0.014424  -0.002895   0.004629
    37  O   -0.062148   0.001898  -0.093603  -0.000146  -0.000129   0.000974
    38  H   -0.020782  -0.000194  -0.004694  -0.000564   0.000012   0.001568
    39  H    0.004151  -0.000121   0.007587   0.000250   0.000026   0.000070
    40  H    0.000036   0.000308   0.000407  -0.030015  -0.000923  -0.006018
    41  H    0.000036  -0.000353  -0.005490   0.035483  -0.000516   0.000744
    42  H   -0.000043   0.000161   0.014698  -0.040009  -0.003435   0.009296
              19         20         21         22         23         24
     1  C   -0.494516  -0.629399  -0.098343   0.317322   0.170707   0.006737
     2  C    0.068288  -0.059213   0.243362  -2.153130  -0.134720  -0.027472
     3  N    0.079848   0.105795  -0.580261  -0.062665  -0.157782   0.003402
     4  C   -0.214458   0.099720  -0.170401  -0.134634   0.094436   0.000469
     5  C    0.122425   0.277307  -0.118306   0.153757  -0.070104  -0.003441
     6  C    0.407956  -0.267311   0.076516   0.583583  -0.648503  -0.235192
     7  C   -0.029118   0.037976   0.017693  -0.009432  -0.276251   0.261452
     8  C    0.016034  -0.029616  -0.005786  -0.019437   0.007845   0.270366
     9  C   -0.011284   0.007215   0.003440   0.041422  -0.047865  -1.035081
    10  N   -0.020110   0.056823   0.002485  -0.007590   0.163618  -0.371668
    11  C    0.011953  -0.079316   0.051774   0.069719  -1.073304   0.655515
    12  O   -0.000330   0.001375   0.000022   0.000552  -0.013311   0.009632
    13  O   -0.000036   0.000540  -0.000038  -0.000006   0.040752   0.003012
    14  O   -0.001619   0.005078   0.001278   0.000783   0.036956  -0.000699
    15  O   -0.000496  -0.001575  -0.012619   0.007193   0.020864   0.000920
    16  H    0.000263   0.002332  -0.524022   0.016542  -0.009594   0.000125
    17  H   -0.274036   0.077825  -0.195122   0.046235   0.033889   0.000024
    18  H    0.234876  -0.231656   0.155608  -0.063353  -0.040295  -0.003860
    19  H    2.471571  -0.623443   0.030720  -0.325909   0.020167   0.001013
    20  H   -0.623443   2.628728  -0.007230   0.153138  -0.073296   0.001512
    21  H    0.030720  -0.007230   2.490445   0.008092   0.007437   0.000025
    22  H   -0.325909   0.153138   0.008092   3.164688  -0.019374  -0.004241
    23  H    0.020167  -0.073296   0.007437  -0.019374   4.361332   0.071297
    24  H    0.001013   0.001512   0.000025  -0.004241   0.071297   2.415688
    25  H   -0.000388  -0.000510  -0.000134   0.003446  -0.012639  -0.116488
    26  H    0.007469  -0.000560   0.003378  -0.126756  -0.023096  -0.008627
    27  C   -0.025548   0.036100   0.066350   0.072405  -0.051493   0.003156
    28  H    0.000396  -0.006967   0.000199   0.003280  -0.208876  -0.156734
    29  H   -0.001173   0.000283  -0.000608   0.002961  -0.033933   0.000364
    30  H    0.000899  -0.000051   0.001187  -0.001144   0.023078   0.000170
    31  H   -0.000019   0.000081   0.000032   0.000040   0.005277   0.002581
    32  H    0.000021   0.000340  -0.000011  -0.000063  -0.003936   0.005482
    33  H    0.000055   0.000064  -0.000006  -0.000069   0.003410   0.000223
    34  H   -0.000555   0.000289  -0.000253   0.000553  -0.018846  -0.003415
    35  H   -0.005753  -0.005742  -0.022301   0.004737   0.043080  -0.005309
    36  H    0.001151   0.000786   0.007731  -0.001354   0.001080   0.003304
    37  O   -0.000486   0.001713   0.000026  -0.000357   0.014645   0.003596
    38  H   -0.000167   0.000465  -0.000000  -0.000126   0.000305   0.002034
    39  H    0.000009  -0.000202  -0.000103   0.000159   0.002016  -0.001689
    40  H   -0.008080   0.004871   0.005668   0.003105  -0.005808  -0.000517
    41  H    0.026129  -0.005063   0.087792  -0.047545   0.007050   0.000372
    42  H   -0.002647   0.001121   0.027126   0.036039   0.000571   0.000112
              25         26         27         28         29         30
     1  C    0.003036   0.025091   0.059457  -0.071068  -0.004213   0.029251
     2  C    0.014137   0.033431  -0.752583   0.091943  -0.022269  -0.017756
     3  N   -0.002510  -0.002976   0.950716   0.003867  -0.022614   0.003225
     4  C   -0.000858   0.021989  -0.116836  -0.011312  -0.006436   0.016561
     5  C    0.002705  -0.021394  -0.416250   0.014267   0.012526  -0.030302
     6  C    0.023496   1.283523   0.123788  -0.177506   0.001125   0.000455
     7  C    0.761266  -2.990377  -0.237247  -0.088169   0.000834   0.001995
     8  C   -1.347597   1.062132   0.124227  -0.005455   0.007498   0.000309
     9  C    0.424029  -0.422248  -0.040538  -0.416614  -0.003179  -0.000306
    10  N    0.026359  -0.069135  -0.015270   0.061431  -0.016025  -0.002753
    11  C   -0.196682   0.107221   0.009995  -0.199872   0.047041   0.014955
    12  O   -0.000522   0.000254   0.000133   0.030966  -0.002153   0.000656
    13  O   -0.000323   0.000185   0.000589  -0.044804  -0.005017   0.017575
    14  O    0.000125  -0.000503  -0.001224   0.001396   0.256573   0.362954
    15  O   -0.000223  -0.001328  -0.051457  -0.008521   0.060919  -0.022012
    16  H    0.000089  -0.002348  -0.234511  -0.001579   0.001766  -0.001369
    17  H   -0.000009   0.000046  -0.008170   0.001278   0.001283  -0.003127
    18  H    0.000863   0.000600   0.006386   0.015078   0.001651  -0.002554
    19  H   -0.000388   0.007469  -0.025548   0.000396  -0.001173   0.000899
    20  H   -0.000510  -0.000560   0.036100  -0.006967   0.000283  -0.000051
    21  H   -0.000134   0.003378   0.066350   0.000199  -0.000608   0.001187
    22  H    0.003446  -0.126756   0.072405   0.003280   0.002961  -0.001144
    23  H   -0.012639  -0.023096  -0.051493  -0.208876  -0.033933   0.023078
    24  H   -0.116488  -0.008627   0.003156  -0.156734   0.000364   0.000170
    25  H    2.126895  -0.137664  -0.008062   0.006156  -0.000151  -0.000011
    26  H   -0.137664   3.213555   0.044948  -0.000476   0.000352   0.000181
    27  C   -0.008062   0.044948   4.959261  -0.002578   0.007315   0.002545
    28  H    0.006156  -0.000476  -0.002578   2.081478   0.001586  -0.002657
    29  H   -0.000151   0.000352   0.007315   0.001586   0.517667  -0.110329
    30  H   -0.000011   0.000181   0.002545  -0.002657  -0.110329   0.586246
    31  H   -0.000060  -0.000167   0.000224  -0.007226   0.000802   0.000416
    32  H   -0.000081   0.000101   0.000038   0.008728   0.000053  -0.000230
    33  H   -0.000020   0.000058   0.000175   0.002268   0.001932   0.003634
    34  H    0.000312  -0.000552  -0.002139   0.008775  -0.012912  -0.010064
    35  H    0.002895  -0.012599  -0.206344  -0.002266  -0.009758  -0.014015
    36  H   -0.001001   0.004126   0.003027  -0.000995   0.000153   0.006311
    37  O    0.002423  -0.000600   0.002290   0.021204   0.004107  -0.000271
    38  H    0.000796  -0.000528   0.000532  -0.009052   0.001822  -0.002528
    39  H   -0.000466   0.000089  -0.000747   0.001706   0.000634  -0.000087
    40  H   -0.002030  -0.033010   0.258078  -0.000571  -0.002192   0.000242
    41  H   -0.000411   0.020764  -0.061587   0.000237   0.002525   0.000109
    42  H   -0.000724   0.000724   0.389726  -0.000246   0.002159   0.000104
              31         32         33         34         35         36
     1  C    0.000777   0.001394   0.001279  -0.014863  -0.063506   0.014971
[...]
 .00045146,-0.00002970,-0.00013992,0.00026133,0.00041584,0.00268800,0.0
 0031685,-0.00345140,-0.00388711,-0.00058346,0.00327787,-0.00007713,-0.
 00025427,-0.00162108,0.00116615,-0.00263911,0.00002097,-0.00001319,-0.
 00000889,-0.00000242,0.00000607,-0.00002331,-0.00001025,0.00003224,0.0
 0005011,0.00001274,0.00000617,-0.00002775,0.00001796,-0.00003794,-0.00
 004490,-0.00003710,0.00001312,-0.00002753,-0.00000601,-0.00003599,-0.0
 0004512,-0.00040194,-0.00030712,0.00015680,-0.00004567,0.00000298,0.00
 009881,0.00002623,0.00002353,0.00001836,0.00000775,0.00002955,0.000013
 78,0.00011250,-0.00010197,0.00007522,-0.00181521,-0.00137797,0.0006204
 5,-0.00157943,-0.00040025,0.00231741,0.00004047,0.00007155,-0.00012335
 ,0.00178331,-0.00418653,-0.00311671,0.00018877,-0.00000354,-0.00017658
 ,0.00106243,-0.00001437,0.00416640,-0.00436158,0.00198630,-0.00371199,
 0.00052356,0.00033611,0.00008695,0.00369322,-0.00198693,0.00205703,0.1
 1682076,0.12283047,-0.16348002,-0.14255311,-0.13968988,0.18567561,-0.0
 0000240,0.00000535,0.00000955,0.00003691,-0.00007024,-0.00005951,-0.00
 000186,-0.00005370,0.00008562,-0.00003167,0.00002894,0.00002513,0.0000
 1441,0.00000303,0.00000002,0.00001102,-0.00006186,-0.00000472,-0.00002
 282,0.00003591,0.00001558,0.00000898,-0.00003308,0.00002426,0.00005518
 ,-0.00003600,-0.00001859,-0.00015574,0.00005955,-0.00000630,0.00009750
 ,0.00011307,-0.00008069,-0.00023393,0.00012070,-0.00009283,-0.00176129
 ,-0.00117399,0.00122035,-0.00001217,0.00002491,0.00006411,-0.00157116,
 0.00120424,0.00082414,-0.00000256,0.00001655,-0.00000322,-0.00000075,-
 0.00000276,0.00000953,-0.00000381,-0.00000562,0.00000511,0.00000220,-0
 .00000149,0.00001045,-0.00000629,-0.00000451,0.00001147,0.00000136,-0.
 00000059,-0.00000060,-0.00000263,0.00001260,-0.00000114,0.00006929,-0.
 00002631,0.00020215,0.00002180,0.00000627,0.00001216,0.00000404,-0.000
 00811,-0.00001273,-0.00001075,-0.00001663,-0.00001177,-0.00005959,0.00
 013304,-0.00013925,0.00012817,-0.00000697,-0.00002476,0.00009288,-0.00
 011710,0.00000161,0.00000945,0.00001106,-0.00001257,0.00026184,-0.0002
 6925,-0.00005559,0.00000702,0.00000773,0.00003215,0.00010431,-0.000214
 13,0.00050989,-0.00000721,0.00006226,-0.00025155,0.00009057,0.00012754
 ,-0.00014602,0.00079873,-0.00124364,-0.00309870,-0.13438940,0.01917431
 ,-0.22148199,0.01239651,-0.00409225,0.02726623,0.12410768,0.00002016,-
 0.00000505,-0.00002173,-0.00003884,0.00004135,0.00003567,-0.00006691,-
 0.00015628,0.00000761,-0.00000239,0.00003197,0.00001532,0.00001889,0.0
 0001069,0.00001180,-0.00004644,-0.00010858,0.00000355,-0.00009973,0.00
 007816,0.00000283,0.00008121,-0.00011745,0.00008762,-0.00015648,0.0000
 4958,-0.00010638,-0.00013552,-0.00007169,-0.00016501,0.00022860,0.0000
 8520,-0.00009917,0.00011503,-0.00023630,0.00009382,-0.00100397,-0.0008
 3181,0.00026586,-0.00001089,-0.00008681,-0.00011722,0.00061605,-0.0005
 2094,-0.00047862,0.00001662,-0.00000589,-0.00000751,-0.00000226,-0.000
 00952,0.00000184,-0.00000163,-0.00001637,0.00000696,-0.00000826,-0.000
 00611,0.00000332,0.00000018,0.00001235,0.00000723,-0.00001009,-0.00000
 921,0.00000071,-0.00000570,-0.00002059,-0.00000967,0.00005658,-0.00003
 229,0.00008916,0.00001419,-0.00007171,-0.00010653,-0.00001868,-0.00002
 027,-0.00001485,-0.00000297,-0.00000732,-0.00000599,-0.00004988,0.0001
 2020,-0.00005679,-0.00011699,0.00025076,0.00000044,-0.00009354,0.00004
 312,0.00011771,0.00003036,0.00002803,0.00005273,-0.00018885,0.00025577
 ,0.00011468,0.00001611,-0.00001374,-0.00001031,-0.00013430,0.00001959,
 0.00055674,0.00009247,0.00003959,-0.00016304,0.00039681,0.00010226,-0.
 00002749,-0.00020759,0.00025513,0.00182411,0.00108836,-0.02108479,0.04
 876529,0.01317450,-0.00217673,0.02250898,-0.01359024,0.02424114,-0.000
 00378,-0.00001492,-0.00001686,-0.00006297,0.00002822,-0.00000380,0.000
 18066,0.00009747,-0.00004165,-0.00004105,0.00002604,-0.00003091,-0.000
 01847,-0.00001379,0.00000842,0.00004118,0.00008444,-0.00005079,0.00001
 123,-0.00006274,0.00001138,0.00000728,-0.00002640,-0.00000225,-0.00005
 004,-0.00014712,-0.00000253,0.00016234,0.00011374,-0.00000421,-0.00017
 092,0.00006594,0.00000387,0.00011158,0.00021140,0.00037889,0.00080489,
 0.00028978,0.00072502,0.00018690,-0.00001852,0.00015564,0.00197240,-0.
 00088210,0.00041363,-0.00001093,-0.00001353,0.00000275,0.00001376,0.00
 000483,-0.00000114,-0.00000310,0.00001872,-0.00001080,0.00000878,0.000
 00521,-0.00000201,0.00000900,-0.00000013,-0.00001753,0.00002629,0.0000
 0693,0.00000549,0.00002378,0.00000927,0.00000434,0.00003249,-0.0000424
 0,0.00001404,0.00000189,-0.00005222,-0.00001905,0.00000609,0.00000725,
 0.00001580,0.00001264,0.00000183,0.00000703,-0.00000867,-0.00006268,0.
 00012054,-0.00033756,-0.00011920,-0.00011533,-0.00004447,0.00003999,-0
 .00014439,-0.00001910,0.00002805,-0.00001827,-0.00009693,-0.00003254,-
 0.00032368,0.00004091,-0.00006241,-0.00001205,0.00007345,0.00014087,-0
 .00035402,-0.00038456,-0.00008100,-0.00004106,-0.00025575,-0.00022914,
 0.00007338,-0.00246368,0.00111949,-0.00005748,-0.17758106,0.07407272,-
 0.43550852,-0.01736307,-0.00135933,-0.02119730,0.19515136,-0.07316755,
 0.45601208,-0.00010295,-0.00006618,-0.00019510,0.00013621,0.00072122,0
 .00024014,0.00761891,-0.00614730,0.00071166,0.00052662,-0.00069361,0.0
 0088396,0.00051096,-0.00005800,0.00036779,-0.00046310,-0.00024810,0.00
 072915,-0.00011615,0.00051234,0.00028707,0.00024730,-0.00006880,0.0001
 5800,-0.00004734,-0.00022543,0.00001220,-0.00046519,0.00025807,-0.0000
 5253,0.00081809,-0.00004630,-0.00001922,-0.00005815,-0.00006162,0.0000
 0683,0.00003565,-0.00003031,-0.00002008,0.00006685,-0.00002939,-0.0000
 5512,0.00018467,0.00024450,-0.00008709,-0.00009017,0.00002328,0.000036
 11,-0.00003019,-0.00004842,0.00010280,0.00003650,0.00000181,-0.0001325
 1,-0.00000998,-0.00000246,-0.00002400,0.00003531,0.00000415,-0.0000257
 8,0.00053688,-0.00019294,0.00028064,-0.00029473,-0.00003824,0.00019144
 ,-0.00004183,0.00006052,0.00000452,-0.00001017,-0.00000685,-0.00000075
 ,0.00001928,-0.00002587,-0.00003395,-0.00014702,-0.00017401,-0.0001699
 3,-0.21154093,0.12749657,-0.04185047,0.00013875,0.00008049,-0.00001790
 ,-0.00006263,-0.00000039,0.00010527,-0.00001373,-0.00000727,0.00000104
 ,-0.00000918,0.00005112,0.00002360,0.00000061,0.00000208,-0.00000492,-
 0.00000491,0.00000148,0.00000087,-0.00003780,0.00001570,-0.00000279,0.
 00001693,-0.00015902,-0.00001132,-0.00009245,0.00001188,-0.00001290,0.
 00008934,-0.00001608,-0.00005032,-0.00000214,0.00000826,0.00003389,-0.
 00001421,0.00000380,-0.00001467,0.22193009,0.00002339,-0.00016206,-0.0
 0002022,0.00012018,-0.00008114,-0.00079256,0.01156752,-0.01360715,0.00
 458961,-0.00191227,0.00072100,0.00307023,0.00109557,-0.00032825,0.0001
 7952,0.00029526,0.00029473,-0.00046861,0.00022880,-0.00005696,-0.00047
 182,-0.00007372,-0.00005065,-0.00005319,0.00000625,0.00011122,0.000032
 22,-0.00002426,-0.00009002,0.00002751,-0.00034395,0.00003122,0.0000220
 8,-0.00000937,-0.00002221,-0.00003409,0.00000340,0.00004353,-0.0001024
 3,-0.00005978,0.00001380,-0.00014372,-0.00051472,0.00003028,-0.0004969
 8,-0.00014908,0.00037016,-0.00010858,-0.00013735,-0.00009321,0.0003906
 9,-0.00001705,-0.00003707,-0.00000632,-0.00000553,0.00003644,0.0000219
 7,-0.00003135,0.00002917,0.00004123,0.00032579,-0.00000898,0.00005014,
 -0.00013996,0.00008309,0.00020769,0.00000880,-0.00002557,0.00002179,-0
 .00000626,-0.00000183,0.00000549,0.00000282,0.00001211,0.00001529,-0.0
 0007463,-0.00002266,-0.00006147,0.12272742,-0.14361922,0.03211690,0.00
 002060,0.00001529,0.00001586,-0.00000978,-0.00003161,0.00018736,0.0000
 4158,0.00001089,0.00000618,-0.00000844,0.00001699,0.00003411,0.0000029
 8,0.00000322,0.00000783,-0.00000627,-0.00000556,0.00000445,0.00006244,
 -0.00001801,0.00004519,0.00102344,0.00011499,0.00043822,-0.00016473,-0
 .00029715,0.00022261,0.00017707,0.00014895,-0.00024626,-0.00002070,-0.
 00007373,0.00013558,-0.00013154,-0.00002392,0.00003252,-0.13693862,0.1
 5725125,0.00000683,0.00028004,0.00025448,-0.00123243,0.00064051,0.0012
 1721,-0.02445475,0.02333501,-0.00901881,0.00259869,0.00000433,-0.00497
 510,-0.00123937,0.00126431,-0.00034539,0.00007703,-0.00025928,-0.00092
 339,0.00040776,-0.00052973,-0.00053263,-0.00003920,-0.00014947,0.00004
 068,0.00002936,0.00004217,-0.00002263,-0.00022865,-0.00005534,0.000035
 66,0.00037590,0.00018823,-0.00004061,-0.00013170,-0.00009091,0.0000202
 9,0.00001584,-0.00005209,-0.00001988,0.00006673,-0.00006741,-0.0000193
 6,0.00038184,0.00011878,-0.00004164,0.00004685,0.00030429,0.00016650,0
 .00018841,0.00014035,-0.00047751,0.00001249,0.00005181,-0.00013891,0.0
 0001468,-0.00005559,0.00004627,0.00004720,-0.00004466,-0.00003215,-0.0
 0000106,-0.00019661,-0.00006307,-0.00001870,-0.00022769,-0.00018434,-0
 .00007506,0.00005693,0.00000432,0.00000047,-0.00001020,0.00000903,0.00
 000340,0.00000087,0.00002776,-0.00008222,-0.00006873,-0.00003077,-0.03
 555250,0.02774504,-0.05719877,0.00024563,0.00012089,-0.00006938,-0.000
 05381,0.00002120,0.00006756,-0.00002931,-0.00000794,-0.00000757,0.0000
 0112,0.00007371,0.00003358,0.00000852,-0.00000278,-0.00000966,0.000003
 51,0.00000332,0.00000540,-0.00002843,0.00002376,-0.00000287,-0.0005598
 2,-0.00024228,-0.00007015,-0.00003177,0.00010019,0.00007699,0.00001568
 ,-0.00007659,-0.00009758,-0.00001224,0.00001524,0.00000665,-0.00005709
 ,-0.00001311,0.00004890,0.04293408,-0.04010450,0.06636991,0.00033489,0
 .00014965,-0.00006828,0.00089506,-0.00022832,-0.00148366,-0.00528341,-
 0.00659556,0.00812193,0.00238543,0.00170366,-0.00038343,0.00019113,0.0
 0015517,-0.00017660,0.00003143,0.00008866,-0.00004107,-0.00042108,-0.0
 0043040,0.00002822,0.00005706,0.00007926,-0.00005852,0.00000576,-0.000
 00393,0.00000078,0.00014311,0.00002671,-0.00002881,-0.00005269,-0.0001
 0263,-0.00001577,-0.00001996,0.00004882,0.00002681,-0.00009417,0.00000
 776,0.00004880,-0.00014419,-0.00003016,0.00022038,-0.00098124,-0.00059
 890,-0.00010087,-0.00011509,-0.00010211,-0.00005948,-0.00001038,-0.000
 02545,0.00008555,-0.00002810,0.00005877,-0.00014331,0.00001184,-0.0000
 2328,0.00010293,-0.00003015,0.00015137,-0.00009823,0.00050670,-0.00136
 213,0.00067269,-0.00018145,0.00080093,0.00146501,0.00006041,-0.0000158
 5,-0.00005175,0.00001944,0.00000860,-0.00000538,-0.00003055,-0.0000010
 3,-0.00000301,0.00002172,0.00020254,0.00016290,-0.22630000,-0.10746824
 ,-0.01307747,-0.00000320,-0.00001859,-0.00001009,0.00018636,0.00010325
 ,-0.00034572,-0.00000293,0.00001712,-0.00002334,0.00002322,-0.00004952
 ,-0.00003054,0.00000957,-0.00001096,-0.00000796,0.00002204,0.00000855,
 -0.00000306,0.00008619,-0.00000866,-0.00000730,0.00142104,0.00115127,0
 .00038672,0.00019244,-0.00009216,0.00000582,-0.00018664,0.00003817,0.0
 0006824,0.00005006,0.00001886,-0.00007178,0.00004714,-0.00000144,0.000
 01198,-0.01833929,-0.01344923,-0.00195457,0.24317096,0.00026053,0.0001
 0191,-0.00027180,0.00191446,0.00072419,-0.00154755,-0.01581277,-0.0137
 9235,0.00941743,-0.00363926,0.00123486,-0.00089274,0.00044209,0.000187
 86,0.00003701,0.00019861,-0.00013750,0.00005286,0.00003898,0.00004411,
 0.00005492,-0.00009444,0.00001842,-0.00001439,-0.00000165,0.00006264,-
 0.00002159,-0.00003135,-0.00001879,0.00005198,-0.00004179,-0.00007456,
 -0.00003523,-0.00003663,0.00001322,0.00000883,-0.00007097,0.00001929,-
 0.00000810,-0.00013851,-0.00003924,0.00017580,-0.00112587,-0.00062419,
 -0.00025753,0.00010090,-0.00008914,-0.00010325,0.00004124,0.00001110,0
 .00015357,0.00015023,0.00005153,-0.00021403,0.00000846,-0.00002925,0.0
 0006576,0.00000625,0.00002489,-0.00009423,0.00126432,-0.00008688,0.000
 18294,-0.00000526,0.00077748,0.00112272,0.00004376,-0.00001664,-0.0000
 2616,0.00000012,-0.00000046,-0.00000272,-0.00000301,0.00000867,0.00000
 754,-0.00001403,-0.00003219,-0.00000699,-0.10630356,-0.11511973,-0.008
 53422,0.00004374,0.00001602,0.00000079,0.00015844,0.00009248,-0.000282
 58,-0.00000518,0.00001604,-0.00001685,0.00001484,-0.00002148,-0.000004
 72,0.00000861,-0.00000591,-0.00000442,0.00001538,0.00000506,-0.0000015
 1,0.00009351,-0.00001059,0.00000935,0.00152954,0.00099713,0.00069404,0
 .00014864,-0.00025874,0.00007136,-0.00008262,0.00014068,-0.00008314,0.
 00003657,-0.00001636,0.00001593,-0.00002835,-0.00002954,0.00002217,0.0
 1647657,0.01096268,0.00048306,0.12329957,0.12484663,-0.00046128,-0.000
 18466,0.00022017,0.00298721,0.00485242,0.00370873,0.02875873,0.0225910
 1,-0.01076813,0.00381748,-0.00153293,0.00110492,-0.00026523,-0.0002529
 1,0.00015776,-0.00031941,-0.00046228,-0.00018171,0.00005766,0.00007951
 ,0.00003704,0.00005622,-0.00003427,0.00001042,0.00000565,-0.00008829,-
 0.00000697,-0.00011530,0.00002320,0.00001593,0.00007433,0.00011067,-0.
 00006290,-0.00001620,-0.00000887,0.00001547,0.00001212,-0.00002456,0.0
 0004068,0.00005408,0.00000268,0.00000826,0.00101873,0.00055147,0.00076
 635,-0.00041478,0.00008777,-0.00017460,-0.00007093,-0.00006537,-0.0000
 7223,-0.00005846,-0.00010302,0.00008702,-0.00009662,-0.00000807,-0.000
 07959,-0.00002501,-0.00011091,0.00013906,-0.00128349,-0.00075649,0.000
 34022,-0.00153294,-0.00129511,0.00038909,-0.00005545,0.00002007,0.0000
 1676,-0.00000379,-0.00000427,0.00000521,0.00000405,-0.00000731,0.00000
 285,0.00001272,-0.00005470,-0.00000420,-0.01386670,-0.00887648,-0.0499
 3755,0.00002318,0.00002554,-0.00001205,-0.00005129,-0.00002527,0.00000
 354,-0.00001161,-0.00000866,0.00000020,0.00000038,0.00000645,-0.000008
 16,0.00000057,-0.00000143,-0.00000422,0.00000289,0.00000113,-0.0000040
 2,-0.00004329,0.00001045,-0.00001729,-0.00134007,-0.00070009,-0.001341
 43,0.00010454,0.00021705,-0.00017233,-0.00002708,-0.00009261,0.0001184
 4,0.00000075,0.00003903,-0.00005194,0.00006753,0.00000525,-0.00002450,
 -0.00407587,-0.00405680,-0.00021817,0.00680315,0.00036449,0.05571483,0
 .00043364,0.00033882,0.00016148,0.00005763,-0.00065795,0.00034479,-0.0
 0210573,0.00480150,0.00504145,0.00042075,-0.00039425,-0.00079249,-0.00
 015948,0.00005029,-0.00005979,0.00023690,-0.00017523,0.00009673,-0.000
 11632,-0.00019220,-0.00002249,0.00004354,-0.00000791,0.00001826,0.0000
 2015,0.00000941,0.00000637,-0.00013466,0.00000414,-0.00000751,0.000277
 05,0.00006360,-0.00000390,-0.00004784,-0.00005921,-0.00001362,0.000034
 06,-0.00001346,-0.00006162,0.00005432,-0.00000786,-0.00020991,0.000108
 95,-0.00004154,-0.00070473,0.00026839,0.00007983,-0.00003942,0.0000052
 6,-0.00001779,-0.00003156,-0.00001896,-0.00002268,0.00003632,-0.000006
 66,-0.00011124,0.00013070,-0.00001382,0.00007179,-0.00006745,-0.000126
 98,-0.00032391,0.00000544,0.00021165,0.00037345,0.00037337,0.00001051,
 0.00003868,0.00000625,0.00000423,0.00000011,0.00000070,-0.00001202,0.0
 0000129,-0.00000255,-0.00007522,0.00004062,0.00001032,-0.04823453,0.01
 054986,0.01219644,0.00010510,0.00006283,-0.00001561,-0.00009657,-0.000
 05036,0.00032062,0.00002130,-0.00000090,0.00000512,-0.00000857,0.00005
 266,0.00003415,0.00000153,0.00000369,0.00000200,-0.00000850,-0.0000024
 3,0.00000909,-0.00001405,0.00000606,0.00002413,0.00021009,0.00032794,0
 .00072554,-0.00023479,0.00003913,0.00018551,0.00013004,-0.00005417,-0.
 00013408,-0.00003101,-0.00002128,0.00006228,-0.00007678,0.00002366,0.0
 0003991,-0.00095470,0.01649526,0.01830064,0.00235150,-0.01886011,-0.01
 972717,0.04747059,0.00011822,0.00041236,0.00093832,-0.00016295,-0.0015
 5676,0.00278002,-0.00195815,0.01329592,0.01646385,0.00001278,0.0015211
 3,0.00099441,-0.00022228,0.00031236,-0.00013483,0.00027091,-0.00003032
 ,-0.00000760,-0.00011960,-0.00006062,0.00000557,-0.00002269,0.00009265
 ,-0.00005419,-0.00003862,0.00001870,-0.00000058,0.00021198,-0.00002716
 ,-0.00000723,-0.00032441,-0.00004820,0.00002657,0.00006682,0.00003638,
 -0.00000620,0.00001559,0.00001017,0.00002452,0.00002961,0.00002838,-0.
 00002728,0.00016911,-0.00004025,0.00002863,-0.00013125,-0.00007243,-0.
 00026014,-0.00000160,-0.00000233,-0.00003364,0.00001817,-0.00002406,-0
 .00001643,-0.00003167,-0.00011385,0.00023720,-0.00002079,0.00001665,0.
 00009988,-0.00002854,-0.00037113,-0.00015000,0.00024146,0.00017646,0.0
 0026805,0.00001758,-0.00002018,0.00000037,0.00000614,0.00000888,-0.000
 00367,-0.00000790,0.00000774,-0.00000501,0.00004511,0.00014243,0.00007
 451,0.01265402,-0.18334538,-0.14267166,-0.00011998,-0.00006206,0.00002
 681,-0.00001613,-0.00001343,0.00003115,-0.00000116,-0.00000429,0.00000
 730,-0.00000375,-0.00002595,-0.00001532,-0.00000634,0.00000231,0.00000
 386,-0.00000648,-0.00000276,-0.00000305,-0.00002911,-0.00000304,-0.000
 00832,-0.00007976,0.00019068,0.00002353,0.00002544,0.00005621,-0.00011
 888,-0.00000135,-0.00001163,0.00009235,-0.00000085,0.00000859,-0.00002
 292,0.00004132,-0.00000198,-0.00003914,-0.00068861,-0.01164403,-0.0127
 5913,0.00249987,-0.00995334,-0.01023283,-0.01242017,0.19109720,0.00012
 815,-0.00107353,-0.00105841,0.00007422,0.00464547,-0.00319398,0.004520
 63,-0.01984709,-0.02721359,0.00034005,-0.00180803,0.00071196,0.0002989
 7,-0.00006971,0.00011298,-0.00075508,0.00038936,0.00015059,0.00013819,
 0.00006500,0.00010699,0.00004703,-0.00005085,0.00005380,0.00002139,-0.
 00008168,-0.00001534,0.00000831,0.00007529,-0.00001142,0.00021810,-0.0
 0003073,0.00004149,0.00003354,0.00003325,0.00000561,-0.00001309,0.0000
 1453,0.00002924,-0.00001552,0.00003377,0.00013570,0.00006889,0.0003553
 0,0.00046539,-0.00023589,0.00078649,-0.00012012,-0.00002383,0.00003963
 ,0.00009362,-0.00003563,0.00004303,0.00001721,0.00000559,0.00029613,-0
 .00034731,-0.00004692,0.00015320,-0.00019717,-0.00025496,0.00008651,-0
 .00006479,-0.00005387,0.00010244,0.00022599,-0.00003454,-0.00003569,-0
 .00002000,-0.00000792,-0.00000136,-0.00000377,0.00001716,-0.00001060,-
 0.00000573,-0.00005835,-0.00001170,-0.00005635,0.01222763,-0.13251246,
 -0.18660505,-0.00005384,-0.00004177,0.00000501,0.00006932,0.00001509,-
 0.00019764,-0.00001118,-0.00001285,-0.00001016,0.00000234,-0.00003050,
 -0.00001773,-0.00000369,-0.00000133,-0.00000074,0.00000396,-0.00000191
 ,-0.00000437,0.00000342,-0.00000558,-0.00001135,-0.00027508,-0.0006295
 5,-0.00066087,0.00015391,-0.00002934,-0.00006098,-0.00005981,0.0000328
 3,0.00004488,0.00000664,-0.00000046,-0.00002923,0.00001122,-0.00000829
 ,-0.00000106,-0.00025382,0.00524533,0.00610916,0.00003807,-0.00056878,
 0.00023908,-0.01624371,0.14445116,0.21135845\\0.00000443,-0.00001102,-
 0.00000666,-0.00000349,0.00001908,0.00001590,-0.00001419,-0.00000725,-
 0.00000436,0.00001579,-0.00000247,-0.00001139,-0.00000090,-0.00000540,
 0.00000985,0.00000960,0.00000143,-0.00000657,0.00000132,-0.00000076,0.
 00000220,-0.00000382,-0.00000182,0.00000074,-0.00000042,0.00000493,-0.
 00000085,0.00001596,-0.00002006,0.00001119,-0.00000277,-0.00000130,0.0
 0000028,0.00001361,0.00000605,-0.00000854,-0.00000197,0.00002205,0.000
 00079,-0.00000454,0.00001832,0.00002563,-0.00000693,-0.00000645,0.0000
 3337,-0.00000564,-0.00000115,0.00000140,0.00000480,0.00000414,-0.00000
 331,-0.00000072,0.00000491,-0.00000318,0.00000121,0.00000213,-0.000002
 48,-0.00000509,0.00000408,0.00000018,-0.00000460,0.00000264,0.00000054
 ,0.00000273,-0.00000343,0.00000055,-0.00000259,0.00000095,0.00000100,-
 0.00000096,-0.00000140,0.00000186,-0.00000181,0.00000039,0.00000201,-0
 .00000103,0.00000009,0.00000210,0.00001106,0.00001309,-0.00000950,-0.0
 0002171,0.00000501,0.00000052,-0.00001221,-0.00000803,-0.00000606,-0.0
 0000026,-0.00000699,-0.00000300,-0.00002363,-0.00000933,-0.00000032,0.
 00000309,-0.00000084,0.00000220,-0.00000738,0.00000259,0.00001814,0.00
 004317,-0.00003520,-0.00003716,-0.00000974,-0.00000529,-0.00001261,0.0
 0000118,0.00002328,-0.00003096,0.00000114,0.00000110,-0.00000198,0.000
 02303,-0.00001645,0.00000770,-0.00000846,0.00000663,0.00000461,-0.0000
 0667,-0.00000008,0.00000017,0.00000214,0.00000350,0.00000480,-0.000002
 69,-0.00000171,0.00000121\\\@


 YOU CAN WIPE THE SLATE CLEAN, BUT YOU'LL STILL
 HAVE TO EAT A LITTLE CHALK DUST.
 Job cpu time:       1 days 20 hours 58 minutes  1.9 seconds.
 Elapsed time:       0 days  1 hours 36 minutes 25.2 seconds.
 File lengths (MBytes):  RWF=   1444 Int=      0 D2E=      0 Chk=     36 Scr=      8
 Normal termination of Gaussian 16 at Sat Sep  5 07:13:35 2020.
