 Entering Gaussian System, Link 0=g16
 Input=NicPyWa5h16b.gjf
 Output=NicPyWa5h16b.log
 Initial command:
 /sw/contrib/gaussian/g16/A03/g16/l1.exe "/gscratch/scrubbed/gds001/Gau-25560.inp" -scrdir="/gscratch/scrubbed/gds001/"
 Entering Link 1 = /sw/contrib/gaussian/g16/A03/g16/l1.exe PID=     25561.
  
 Copyright (c) 1988,1990,1992,1993,1995,1998,2003,2009,2016,
            Gaussian, Inc.  All Rights Reserved.
  
 This is part of the Gaussian(R) 16 program.  It is based on
 the Gaussian(R) 09 system (copyright 2009, Gaussian, Inc.),
 the Gaussian(R) 03 system (copyright 2003, Gaussian, Inc.),
 the Gaussian(R) 98 system (copyright 1998, Gaussian, Inc.),
 the Gaussian(R) 94 system (copyright 1995, Gaussian, Inc.),
 the Gaussian 92(TM) system (copyright 1992, Gaussian, Inc.),
 the Gaussian 90(TM) system (copyright 1990, Gaussian, Inc.),
 the Gaussian 88(TM) system (copyright 1988, Gaussian, Inc.),
 the Gaussian 86(TM) system (copyright 1986, Carnegie Mellon
 University), and the Gaussian 82(TM) system (copyright 1983,
 Carnegie Mellon University). Gaussian is a federally registered
 trademark of Gaussian, Inc.
  
 This software contains proprietary and confidential information,
 including trade secrets, belonging to Gaussian, Inc.
  
 This software is provided under written license and may be
 used, copied, transmitted, or stored only in accord with that
 written license.
  
 The following legend is applicable only to US Government
 contracts under FAR:
  
                    RESTRICTED RIGHTS LEGEND
  
 Use, reproduction and disclosure by the US Government is
 subject to restrictions as set forth in subparagraphs (a)
 and (c) of the Commercial Computer Software - Restricted
 Rights clause in FAR 52.227-19.
  
 Gaussian, Inc.
 340 Quinnipiac St., Bldg. 40, Wallingford CT 06492
  
  
 ---------------------------------------------------------------
 Warning -- This program may not be used in any manner that
 competes with the business of Gaussian, Inc. or will provide
 assistance to any competitor of Gaussian, Inc.  The licensee
 of this program is prohibited from giving any competitor of
 Gaussian, Inc. access to this program.  By using this program,
 the user acknowledges that Gaussian, Inc. is engaged in the
 business of creating and licensing software in the field of
 computational chemistry and represents and warrants to the
 licensee that it is not a competitor of Gaussian, Inc. and that
 it will not use this program in any manner prohibited above.
 ---------------------------------------------------------------
  

 Cite this work as:
 Gaussian 16, Revision A.03,
 M. J. Frisch, G. W. Trucks, H. B. Schlegel, G. E. Scuseria, 
 M. A. Robb, J. R. Cheeseman, G. Scalmani, V. Barone, 
 G. A. Petersson, H. Nakatsuji, X. Li, M. Caricato, A. V. Marenich, 
 J. Bloino, B. G. Janesko, R. Gomperts, B. Mennucci, H. P. Hratchian, 
 J. V. Ortiz, A. F. Izmaylov, J. L. Sonnenberg, D. Williams-Young, 
 F. Ding, F. Lipparini, F. Egidi, J. Goings, B. Peng, A. Petrone, 
 T. Henderson, D. Ranasinghe, V. G. Zakrzewski, J. Gao, N. Rega, 
 G. Zheng, W. Liang, M. Hada, M. Ehara, K. Toyota, R. Fukuda, 
 J. Hasegawa, M. Ishida, T. Nakajima, Y. Honda, O. Kitao, H. Nakai, 
 T. Vreven, K. Throssell, J. A. Montgomery, Jr., J. E. Peralta, 
 F. Ogliaro, M. J. Bearpark, J. J. Heyd, E. N. Brothers, K. N. Kudin, 
 V. N. Staroverov, T. A. Keith, R. Kobayashi, J. Normand, 
 K. Raghavachari, A. P. Rendell, J. C. Burant, S. S. Iyengar, 
 J. Tomasi, M. Cossi, J. M. Millam, M. Klene, C. Adamo, R. Cammi, 
 J. W. Ochterski, R. L. Martin, K. Morokuma, O. Farkas, 
 J. B. Foresman, and D. J. Fox, Gaussian, Inc., Wallingford CT, 2016.
 
 ******************************************
 Gaussian 16:  ES64L-G16RevA.03 25-Dec-2016
                 4-Sep-2020 
 ******************************************
 %nprocshared=28
 Will use up to   28 processors via shared memory.
 %mem=41GB
 %chk=NicPyWa5h16b.chk
 -----------------------------
 # wB97XD/aug-cc-pVDZ Opt Freq
 -----------------------------
 1/18=20,19=15,26=3,38=1/1,3;
 2/9=110,12=2,17=6,18=5,40=1/2;
 3/5=16,7=10,11=2,25=1,30=1,71=1,74=-58/1,2,3;
 4//1;
 5/5=2,38=5/2;
 6/7=2,8=2,9=2,10=2,28=1/1;
 7//1,2,3,16;
 1/18=20,19=15,26=3/3(2);
 2/9=110/2;
 99//99;
 2/9=110/2;
 3/5=16,7=10,11=2,25=1,30=1,71=1,74=-58/1,2,3;
 4/5=5,16=3,69=1/1;
 5/5=2,38=5/2;
 7//1,2,3,16;
 1/18=20,19=15,26=3/3(-5);
 2/9=110/2;
 6/7=2,8=2,9=2,10=2,19=2,28=1/1;
 99/9=1/99;
 -------------------------------
 p-Py Nornicotine, W anti , 5H2O
 -------------------------------
 Symbolic Z-matrix:
 Charge =  1 Multiplicity = 1
 C                     2.72391   0.34761   1.23932 
 C                     2.47355  -0.33581  -0.12204 
 N                     2.2315    0.80783  -1.01425 
 C                     3.30884   1.75444  -0.66635 
 C                     3.30879   1.73258   0.86984 
 C                     1.35042  -1.34178  -0.12366 
 C                     1.59804  -2.70657  -0.29646 
 C                     0.55697  -3.63231  -0.26291 
 C                    -0.73075  -3.16957  -0.0607 
 N                    -0.95403  -1.8577    0.10097 
 C                     0.03133  -0.95221   0.07637 
 O                    -3.37518  -1.0752    0.45899 
 O                    -3.8268    0.59808  -1.63595 
 O                    -2.55497   2.64579  -0.15551 
 O                    -2.59849   0.97456   2.0757 
 H                     3.10375   2.74336  -1.09176 
 H                     4.31671   1.88111   1.27004 
 H                     2.67214   2.53053   1.26743 
 H                     3.3955   -0.25328   1.86145 
 H                     1.77855   0.45701   1.78454 
 H                     4.27927   1.41076  -1.05932 
 H                     3.39351  -0.86584  -0.42532 
 H                    -0.26204   0.08358   0.23259 
 H                    -1.60438  -3.81643  -0.02133 
 H                     0.73921  -4.69624  -0.39417 
 H                     2.61988  -3.05061  -0.45994 
 C                     2.3093    0.42663  -2.42818 
 H                    -1.98748  -1.5237    0.25379 
 H                    -1.59052   2.64274  -0.33674 
 H                    -2.83244   3.56519  -0.18681 
 H                    -3.69713  -0.5777   -0.32112 
 H                    -3.28749  -0.39796   1.16324 
 H                    -4.63301   0.8373   -2.09925 
 H                    -3.45861   1.42026  -1.27282 
 H                    -2.68365   1.72389   1.45926 
 H                    -2.94287   1.27086   2.92221 
 O                     0.14689   2.5971   -0.56725 
 H                     0.82006   1.8961   -0.75247 
 H                     0.58024   3.43664  -0.73706 
 H                     2.19521   1.31352  -3.06146 
 H                     1.49478  -0.25406  -2.69681 
 H                     3.26071  -0.05453  -2.68219 
 
 Add virtual bond connecting atoms H28        and O12        Dist= 2.78D+00.
 Add virtual bond connecting atoms O37        and H29        Dist= 3.31D+00.
 Add virtual bond connecting atoms H31        and O13        Dist= 3.34D+00.
 Add virtual bond connecting atoms H32        and O15        Dist= 3.38D+00.
 Add virtual bond connecting atoms O14        and H34        Dist= 3.57D+00.
 Add virtual bond connecting atoms O14        and H35        Dist= 3.52D+00.
 Add virtual bond connecting atoms H38        and N3         Dist= 3.40D+00.

 GradGradGradGradGradGradGradGradGradGradGradGradGradGradGradGradGradGrad
 Berny optimization.
 Initialization pass.
                           ----------------------------
                           !    Initial Parameters    !
                           ! (Angstroms and Degrees)  !
 --------------------------                            --------------------------
 ! Name  Definition              Value          Derivative Info.                !
 --------------------------------------------------------------------------------
 ! R1    R(1,2)                  1.5437         estimate D2E/DX2                !
 ! R2    R(1,5)                  1.5481         estimate D2E/DX2                !
 ! R3    R(1,19)                 1.0951         estimate D2E/DX2                !
 ! R4    R(1,20)                 1.0968         estimate D2E/DX2                !
 ! R5    R(2,3)                  1.4706         estimate D2E/DX2                !
 ! R6    R(2,6)                  1.5078         estimate D2E/DX2                !
 ! R7    R(2,22)                 1.1042         estimate D2E/DX2                !
 ! R8    R(3,4)                  1.4757         estimate D2E/DX2                !
 ! R9    R(3,27)                 1.4665         estimate D2E/DX2                !
 ! R10   R(3,38)                 1.8014         estimate D2E/DX2                !
 ! R11   R(4,5)                  1.5363         estimate D2E/DX2                !
 ! R12   R(4,16)                 1.0959         estimate D2E/DX2                !
 ! R13   R(4,21)                 1.1019         estimate D2E/DX2                !
 ! R14   R(5,17)                 1.0946         estimate D2E/DX2                !
 ! R15   R(5,18)                 1.0955         estimate D2E/DX2                !
 ! R16   R(6,7)                  1.3978         estimate D2E/DX2                !
 ! R17   R(6,11)                 1.3899         estimate D2E/DX2                !
 ! R18   R(7,8)                  1.3935         estimate D2E/DX2                !
 ! R19   R(7,26)                 1.0905         estimate D2E/DX2                !
 ! R20   R(8,9)                  1.3832         estimate D2E/DX2                !
 ! R21   R(8,25)                 1.0874         estimate D2E/DX2                !
 ! R22   R(9,10)                 1.3405         estimate D2E/DX2                !
 ! R23   R(9,24)                 1.0878         estimate D2E/DX2                !
 ! R24   R(10,11)                1.3384         estimate D2E/DX2                !
 ! R25   R(10,28)                1.0968         estimate D2E/DX2                !
 ! R26   R(11,23)                1.0878         estimate D2E/DX2                !
 ! R27   R(12,28)                1.4727         estimate D2E/DX2                !
 ! R28   R(12,31)                0.9797         estimate D2E/DX2                !
 ! R29   R(12,32)                0.981          estimate D2E/DX2                !
 ! R30   R(13,31)                1.7686         estimate D2E/DX2                !
 ! R31   R(13,33)                0.9601         estimate D2E/DX2                !
 ! R32   R(13,34)                0.9713         estimate D2E/DX2                !
 ! R33   R(14,29)                0.9813         estimate D2E/DX2                !
 ! R34   R(14,30)                0.9609         estimate D2E/DX2                !
 ! R35   R(14,34)                1.8886         estimate D2E/DX2                !
 ! R36   R(14,35)                1.8638         estimate D2E/DX2                !
 ! R37   R(15,32)                1.7864         estimate D2E/DX2                !
 ! R38   R(15,35)                0.974          estimate D2E/DX2                !
 ! R39   R(15,36)                0.9607         estimate D2E/DX2                !
 ! R40   R(27,40)                1.0957         estimate D2E/DX2                !
 ! R41   R(27,41)                1.095          estimate D2E/DX2                !
 ! R42   R(27,42)                1.096          estimate D2E/DX2                !
 ! R43   R(29,37)                1.7532         estimate D2E/DX2                !
 ! R44   R(37,38)                0.9894         estimate D2E/DX2                !
 ! R45   R(37,39)                0.9599         estimate D2E/DX2                !
 ! A1    A(2,1,5)              104.291          estimate D2E/DX2                !
 ! A2    A(2,1,19)             110.9498         estimate D2E/DX2                !
 ! A3    A(2,1,20)             110.0448         estimate D2E/DX2                !
 ! A4    A(5,1,19)             113.2528         estimate D2E/DX2                !
 ! A5    A(5,1,20)             110.7962         estimate D2E/DX2                !
 ! A6    A(19,1,20)            107.5138         estimate D2E/DX2                !
 ! A7    A(1,2,3)              102.5594         estimate D2E/DX2                !
 ! A8    A(1,2,6)              114.6531         estimate D2E/DX2                !
 ! A9    A(1,2,22)             108.6389         estimate D2E/DX2                !
 ! A10   A(3,2,6)              113.3038         estimate D2E/DX2                !
 ! A11   A(3,2,22)             110.1084         estimate D2E/DX2                !
 ! A12   A(6,2,22)             107.4609         estimate D2E/DX2                !
 ! A13   A(2,3,4)              103.6304         estimate D2E/DX2                !
 ! A14   A(2,3,27)             111.9682         estimate D2E/DX2                !
 ! A15   A(2,3,38)             120.7053         estimate D2E/DX2                !
 ! A16   A(4,3,27)             110.8125         estimate D2E/DX2                !
 ! A17   A(4,3,38)              98.6399         estimate D2E/DX2                !
 ! A18   A(27,3,38)            109.7988         estimate D2E/DX2                !
 ! A19   A(3,4,5)              103.0953         estimate D2E/DX2                !
 ! A20   A(3,4,16)             110.5304         estimate D2E/DX2                !
 ! A21   A(3,4,21)             111.0252         estimate D2E/DX2                !
 ! A22   A(5,4,16)             113.6396         estimate D2E/DX2                !
 ! A23   A(5,4,21)             110.6203         estimate D2E/DX2                !
 ! A24   A(16,4,21)            107.9274         estimate D2E/DX2                !
 ! A25   A(1,5,4)              104.5595         estimate D2E/DX2                !
 ! A26   A(1,5,17)             112.4587         estimate D2E/DX2                !
 ! A27   A(1,5,18)             110.2091         estimate D2E/DX2                !
 ! A28   A(4,5,17)             111.3228         estimate D2E/DX2                !
 ! A29   A(4,5,18)             110.643          estimate D2E/DX2                !
 ! A30   A(17,5,18)            107.6735         estimate D2E/DX2                !
 ! A31   A(2,6,7)              121.306          estimate D2E/DX2                !
 ! A32   A(2,6,11)             121.318          estimate D2E/DX2                !
 ! A33   A(7,6,11)             117.3608         estimate D2E/DX2                !
 ! A34   A(6,7,8)              120.8841         estimate D2E/DX2                !
 ! A35   A(6,7,26)             119.5083         estimate D2E/DX2                !
 ! A36   A(8,7,26)             119.6076         estimate D2E/DX2                !
 ! A37   A(7,8,9)              118.4753         estimate D2E/DX2                !
 ! A38   A(7,8,25)             121.4577         estimate D2E/DX2                !
 ! A39   A(9,8,25)             120.0668         estimate D2E/DX2                !
 ! A40   A(8,9,10)             120.006          estimate D2E/DX2                !
 ! A41   A(8,9,24)             123.6454         estimate D2E/DX2                !
 ! A42   A(10,9,24)            116.3486         estimate D2E/DX2                !
 ! A43   A(9,10,11)            122.4949         estimate D2E/DX2                !
 ! A44   A(9,10,28)            118.1492         estimate D2E/DX2                !
 ! A45   A(11,10,28)           119.3552         estimate D2E/DX2                !
 ! A46   A(6,11,10)            120.7783         estimate D2E/DX2                !
 ! A47   A(6,11,23)            122.9224         estimate D2E/DX2                !
 ! A48   A(10,11,23)           116.295          estimate D2E/DX2                !
 ! A49   A(28,12,31)           110.693          estimate D2E/DX2                !
 ! A50   A(28,12,32)           103.0644         estimate D2E/DX2                !
 ! A51   A(31,12,32)           104.5045         estimate D2E/DX2                !
 ! A52   A(31,13,33)           125.8687         estimate D2E/DX2                !
 ! A53   A(31,13,34)           104.8929         estimate D2E/DX2                !
 ! A54   A(33,13,34)           106.7259         estimate D2E/DX2                !
 ! A55   A(29,14,30)           106.3053         estimate D2E/DX2                !
 ! A56   A(29,14,34)           111.0361         estimate D2E/DX2                !
 ! A57   A(29,14,35)           103.08           estimate D2E/DX2                !
 ! A58   A(30,14,34)           117.6107         estimate D2E/DX2                !
 ! A59   A(30,14,35)           118.7877         estimate D2E/DX2                !
 ! A60   A(34,14,35)            99.1229         estimate D2E/DX2                !
 ! A61   A(32,15,35)           103.5386         estimate D2E/DX2                !
 ! A62   A(32,15,36)           123.2834         estimate D2E/DX2                !
 ! A63   A(35,15,36)           106.8            estimate D2E/DX2                !
 ! A64   A(3,27,40)            109.9577         estimate D2E/DX2                !
 ! A65   A(3,27,41)            111.0187         estimate D2E/DX2                !
 ! A66   A(3,27,42)            112.5585         estimate D2E/DX2                !
 ! A67   A(40,27,41)           106.4947         estimate D2E/DX2                !
 ! A68   A(40,27,42)           108.166          estimate D2E/DX2                !
 ! A69   A(41,27,42)           108.419          estimate D2E/DX2                !
 ! A70   A(12,31,13)           162.4944         estimate D2E/DX2                !
 ! A71   A(12,32,15)           158.6873         estimate D2E/DX2                !
 ! A72   A(13,34,14)           162.1448         estimate D2E/DX2                !
 ! A73   A(14,35,15)           157.3352         estimate D2E/DX2                !
 ! A74   A(29,37,38)           135.833          estimate D2E/DX2                !
 ! A75   A(29,37,39)           116.6064         estimate D2E/DX2                !
 ! A76   A(38,37,39)           106.2243         estimate D2E/DX2                !
 ! A77   L(10,28,12,29,-1)     180.0            estimate D2E/DX2                !
 ! A78   L(14,29,37,8,-1)      178.4861         estimate D2E/DX2                !
 ! A79   L(3,38,37,10,-1)      187.5158         estimate D2E/DX2                !
 ! A80   L(10,28,12,29,-2)     180.0            estimate D2E/DX2                !
 ! A81   L(14,29,37,8,-2)      183.1711         estimate D2E/DX2                !
 ! A82   L(3,38,37,10,-2)      175.3733         estimate D2E/DX2                !
 ! D1    D(5,1,2,3)            -28.4015         estimate D2E/DX2                !
 ! D2    D(5,1,2,6)           -151.6452         estimate D2E/DX2                !
 ! D3    D(5,1,2,22)            88.1412         estimate D2E/DX2                !
 ! D4    D(19,1,2,3)          -150.6613         estimate D2E/DX2                !
 ! D5    D(19,1,2,6)            86.095          estimate D2E/DX2                !
 ! D6    D(19,1,2,22)          -34.1186         estimate D2E/DX2                !
 ! D7    D(20,1,2,3)            90.4765         estimate D2E/DX2                !
 ! D8    D(20,1,2,6)           -32.7672         estimate D2E/DX2                !
 ! D9    D(20,1,2,22)         -152.9807         estimate D2E/DX2                !
 ! D10   D(2,1,5,4)              1.6756         estimate D2E/DX2                !
 ! D11   D(2,1,5,17)          -119.2471         estimate D2E/DX2                !
 ! D12   D(2,1,5,18)           120.6057         estimate D2E/DX2                !
 ! D13   D(19,1,5,4)           122.4089         estimate D2E/DX2                !
 ! D14   D(19,1,5,17)            1.4862         estimate D2E/DX2                !
 ! D15   D(19,1,5,18)         -118.661          estimate D2E/DX2                !
 ! D16   D(20,1,5,4)          -116.6898         estimate D2E/DX2                !
 ! D17   D(20,1,5,17)          122.3875         estimate D2E/DX2                !
 ! D18   D(20,1,5,18)            2.2403         estimate D2E/DX2                !
 ! D19   D(1,2,3,4)             45.7827         estimate D2E/DX2                !
 ! D20   D(1,2,3,27)           165.2578         estimate D2E/DX2                !
 ! D21   D(1,2,3,38)           -63.1095         estimate D2E/DX2                !
 ! D22   D(6,2,3,4)            169.9265         estimate D2E/DX2                !
 ! D23   D(6,2,3,27)           -70.5983         estimate D2E/DX2                !
 ! D24   D(6,2,3,38)            61.0343         estimate D2E/DX2                !
 ! D25   D(22,2,3,4)           -69.7011         estimate D2E/DX2                !
 ! D26   D(22,2,3,27)           49.774          estimate D2E/DX2                !
 ! D27   D(22,2,3,38)         -178.5934         estimate D2E/DX2                !
 ! D28   D(1,2,6,7)           -112.3914         estimate D2E/DX2                !
 ! D29   D(1,2,6,11)            66.1533         estimate D2E/DX2                !
 ! D30   D(3,2,6,7)            130.3371         estimate D2E/DX2                !
 ! D31   D(3,2,6,11)           -51.1182         estimate D2E/DX2                !
 ! D32   D(22,2,6,7)             8.4729         estimate D2E/DX2                !
 ! D33   D(22,2,6,11)         -172.9824         estimate D2E/DX2                !
 ! D34   D(2,3,4,5)            -44.8466         estimate D2E/DX2                !
 ! D35   D(2,3,4,16)          -166.6309         estimate D2E/DX2                !
 ! D36   D(2,3,4,21)            73.6285         estimate D2E/DX2                !
 ! D37   D(27,3,4,5)          -165.11           estimate D2E/DX2                !
 ! D38   D(27,3,4,16)           73.1056         estimate D2E/DX2                !
 ! D39   D(27,3,4,21)          -46.6349         estimate D2E/DX2                !
 ! D40   D(38,3,4,5)            79.7849         estimate D2E/DX2                !
 ! D41   D(38,3,4,16)          -41.9995         estimate D2E/DX2                !
 ! D42   D(38,3,4,21)         -161.74           estimate D2E/DX2                !
 ! D43   D(2,3,27,40)         -175.994          estimate D2E/DX2                !
 ! D44   D(2,3,27,41)           66.4168         estimate D2E/DX2                !
 ! D45   D(2,3,27,42)          -55.3287         estimate D2E/DX2                !
 ! D46   D(4,3,27,40)          -60.8322         estimate D2E/DX2                !
 ! D47   D(4,3,27,41)         -178.4214         estimate D2E/DX2                !
 ! D48   D(4,3,27,42)           59.8332         estimate D2E/DX2                !
 ! D49   D(38,3,27,40)          47.0853         estimate D2E/DX2                !
 ! D50   D(38,3,27,41)         -70.5039         estimate D2E/DX2                !
 ! D51   D(38,3,27,42)         167.7506         estimate D2E/DX2                !
 ! D52   D(2,3,37,29)          -54.8336         estimate D2E/DX2                !
 ! D53   D(2,3,37,39)          137.0211         estimate D2E/DX2                !
 ! D54   D(4,3,37,29)         -164.6069         estimate D2E/DX2                !
 ! D55   D(4,3,37,39)           27.2478         estimate D2E/DX2                !
 ! D56   D(27,3,37,29)          80.525          estimate D2E/DX2                !
 ! D57   D(27,3,37,39)         -87.6203         estimate D2E/DX2                !
 ! D58   D(3,4,5,1)             25.5761         estimate D2E/DX2                !
 ! D59   D(3,4,5,17)           147.2495         estimate D2E/DX2                !
 ! D60   D(3,4,5,18)           -93.0598         estimate D2E/DX2                !
 ! D61   D(16,4,5,1)           145.2373         estimate D2E/DX2                !
 ! D62   D(16,4,5,17)          -93.0892         estimate D2E/DX2                !
 ! D63   D(16,4,5,18)           26.6014         estimate D2E/DX2                !
 ! D64   D(21,4,5,1)           -93.1813         estimate D2E/DX2                !
 ! D65   D(21,4,5,17)           28.4922         estimate D2E/DX2                !
 ! D66   D(21,4,5,18)          148.1828         estimate D2E/DX2                !
 ! D67   D(2,6,7,8)            178.3733         estimate D2E/DX2                !
 ! D68   D(2,6,7,26)            -1.6448         estimate D2E/DX2                !
 ! D69   D(11,6,7,8)            -0.2269         estimate D2E/DX2                !
 ! D70   D(11,6,7,26)          179.7551         estimate D2E/DX2                !
 ! D71   D(2,6,11,10)         -178.5775         estimate D2E/DX2                !
 ! D72   D(2,6,11,23)            0.6349         estimate D2E/DX2                !
 ! D73   D(7,6,11,10)            0.0224         estimate D2E/DX2                !
 ! D74   D(7,6,11,23)          179.2349         estimate D2E/DX2                !
 ! D75   D(6,7,8,9)              0.3009         estimate D2E/DX2                !
 ! D76   D(6,7,8,25)          -179.872          estimate D2E/DX2                !
 ! D77   D(26,7,8,9)          -179.681          estimate D2E/DX2                !
 ! D78   D(26,7,8,25)            0.1461         estimate D2E/DX2                !
 ! D79   D(7,8,9,10)            -0.1703         estimate D2E/DX2                !
 ! D80   D(7,8,9,24)           179.8898         estimate D2E/DX2                !
 ! D81   D(25,8,9,10)         -179.9998         estimate D2E/DX2                !
 ! D82   D(25,8,9,24)            0.0602         estimate D2E/DX2                !
 ! D83   D(8,9,10,11)           -0.0326         estimate D2E/DX2                !
 ! D84   D(8,9,10,28)          179.671          estimate D2E/DX2                !
 ! D85   D(24,9,10,11)         179.9116         estimate D2E/DX2                !
 ! D86   D(24,9,10,28)          -0.3848         estimate D2E/DX2                !
 ! D87   D(9,10,11,6)            0.1085         estimate D2E/DX2                !
 ! D88   D(9,10,11,23)        -179.1541         estimate D2E/DX2                !
 ! D89   D(28,10,11,6)        -179.5916         estimate D2E/DX2                !
 ! D90   D(28,10,11,23)          1.1457         estimate D2E/DX2                !
 ! D91   D(9,10,12,31)        -110.5082         estimate D2E/DX2                !
 ! D92   D(9,10,12,32)         138.2383         estimate D2E/DX2                !
 ! D93   D(11,10,12,31)         69.205          estimate D2E/DX2                !
 ! D94   D(11,10,12,32)        -42.0486         estimate D2E/DX2                !
 ! D95   D(28,12,31,13)        -53.0762         estimate D2E/DX2                !
 ! D96   D(32,12,31,13)         57.2467         estimate D2E/DX2                !
 ! D97   D(28,12,32,15)         40.5891         estimate D2E/DX2                !
 ! D98   D(31,12,32,15)        -75.1787         estimate D2E/DX2                !
 ! D99   D(33,13,31,12)       -159.2468         estimate D2E/DX2                !
 ! D100  D(34,13,31,12)        -35.2063         estimate D2E/DX2                !
 ! D101  D(31,13,34,14)         13.4911         estimate D2E/DX2                !
 ! D102  D(33,13,34,14)        148.9706         estimate D2E/DX2                !
 ! D103  D(30,14,37,38)       -168.685          estimate D2E/DX2                !
 ! D104  D(30,14,37,39)         -2.3539         estimate D2E/DX2                !
 ! D105  D(34,14,37,38)        -38.2901         estimate D2E/DX2                !
 ! D106  D(34,14,37,39)        128.0411         estimate D2E/DX2                !
 ! D107  D(35,14,37,38)         66.2812         estimate D2E/DX2                !
 ! D108  D(35,14,37,39)       -127.3876         estimate D2E/DX2                !
 ! D109  D(29,14,34,13)         81.8048         estimate D2E/DX2                !
 ! D110  D(30,14,34,13)       -155.47           estimate D2E/DX2                !
 ! D111  D(35,14,34,13)        -26.094          estimate D2E/DX2                !
 ! D112  D(29,14,35,15)        -61.2969         estimate D2E/DX2                !
 ! D113  D(30,14,35,15)       -178.4612         estimate D2E/DX2                !
 ! D114  D(34,14,35,15)         52.9424         estimate D2E/DX2                !
 ! D115  D(35,15,32,12)         65.0353         estimate D2E/DX2                !
 ! D116  D(36,15,32,12)       -174.0543         estimate D2E/DX2                !
 ! D117  D(32,15,35,14)        -47.7501         estimate D2E/DX2                !
 ! D118  D(36,15,35,14)       -179.2279         estimate D2E/DX2                !
 --------------------------------------------------------------------------------
 Trust Radius=3.00D-01 FncErr=1.00D-07 GrdErr=1.00D-06 EigMax=2.50D+02 EigMin=1.00D-04
 Number of steps in this run=    252 maximum allowed number of steps=    252.
 GradGradGradGradGradGradGradGradGradGradGradGradGradGradGradGradGradGrad

                          Input orientation:                          
 ---------------------------------------------------------------------
 Center     Atomic      Atomic             Coordinates (Angstroms)
 Number     Number       Type             X           Y           Z
 ---------------------------------------------------------------------
      1          6           0        2.723909    0.347608    1.239322
      2          6           0        2.473548   -0.335809   -0.122043
      3          7           0        2.231497    0.807827   -1.014252
      4          6           0        3.308838    1.754442   -0.666349
      5          6           0        3.308786    1.732576    0.869837
      6          6           0        1.350416   -1.341782   -0.123661
      7          6           0        1.598037   -2.706574   -0.296456
      8          6           0        0.556965   -3.632311   -0.262913
      9          6           0       -0.730754   -3.169567   -0.060703
     10          7           0       -0.954032   -1.857699    0.100968
     11          6           0        0.031325   -0.952210    0.076370
     12          8           0       -3.375178   -1.075200    0.458990
     13          8           0       -3.826799    0.598075   -1.635951
     14          8           0       -2.554974    2.645789   -0.155507
     15          8           0       -2.598494    0.974558    2.075697
     16          1           0        3.103752    2.743362   -1.091761
     17          1           0        4.316706    1.881114    1.270044
     18          1           0        2.672135    2.530532    1.267427
     19          1           0        3.395498   -0.253283    1.861446
     20          1           0        1.778546    0.457006    1.784543
     21          1           0        4.279274    1.410759   -1.059324
     22          1           0        3.393510   -0.865836   -0.425321
     23          1           0       -0.262039    0.083580    0.232586
     24          1           0       -1.604379   -3.816431   -0.021326
     25          1           0        0.739208   -4.696236   -0.394171
     26          1           0        2.619879   -3.050605   -0.459943
     27          6           0        2.309297    0.426635   -2.428179
     28          1           0       -1.987479   -1.523696    0.253787
     29          1           0       -1.590517    2.642739   -0.336742
     30          1           0       -2.832441    3.565193   -0.186810
     31          1           0       -3.697134   -0.577695   -0.321122
     32          1           0       -3.287494   -0.397960    1.163242
     33          1           0       -4.633013    0.837302   -2.099254
     34          1           0       -3.458609    1.420261   -1.272824
     35          1           0       -2.683647    1.723889    1.459260
     36          1           0       -2.942870    1.270861    2.922206
     37          8           0        0.146891    2.597104   -0.567245
     38          1           0        0.820060    1.896099   -0.752469
     39          1           0        0.580235    3.436640   -0.737058
     40          1           0        2.195213    1.313519   -3.061460
     41          1           0        1.494780   -0.254059   -2.696813
     42          1           0        3.260712   -0.054527   -2.682192
 ---------------------------------------------------------------------
                    Distance matrix (angstroms):
                    1          2          3          4          5
     1  C    0.000000
     2  C    1.543714   0.000000
     3  N    2.352205   1.470554   0.000000
     4  C    2.439858   2.315843   1.475730   0.000000
     5  C    1.548140   2.441243   2.359132   1.536342   0.000000
     6  C    2.568705   1.507783   2.488026   3.703583   3.778085
     7  C    3.599198   2.533272   3.642460   4.792111   4.898260
     8  C    4.774108   3.815765   4.804518   6.062398   6.134953
     9  C    5.098557   4.278025   5.050134   6.397732   6.419875
    10  N    4.436945   3.756885   4.300737   5.639893   5.626087
    11  C    3.208114   2.526613   3.021249   4.315054   4.310385
    12  O    6.311273   5.923841   6.095165   7.345021   7.261389
    13  O    7.158331   6.546635   6.093723   7.293465   7.647394
    14  O    5.924001   5.846117   5.198639   5.953129   6.022372
    15  O    5.424073   5.680910   5.736235   6.559238   6.076565
    16  H    3.364204   3.289195   2.124413   1.095901   2.216212
    17  H    2.211241   3.201544   3.273843   2.186655   1.094592
    18  H    2.183719   3.191547   2.892738   2.178806   1.095507
    19  H    1.095053   2.188842   3.278794   3.229275   2.221361
    20  H    1.096789   2.178682   2.856833   3.167334   2.192122
    21  H    2.972074   2.681351   2.135170   1.101950   2.183363
    22  H    2.166067   1.104190   2.120911   2.632702   2.904541
    23  H    3.162138   2.790177   2.880427   4.043640   3.984478
    24  H    6.136981   5.362309   6.089631   7.455896   7.464907
    25  H    5.661069   4.700565   5.736387   6.948980   7.037760
    26  H    3.800812   2.739654   3.917346   4.858574   5.012158
    27  C    3.691708   2.434453   1.466475   2.422024   3.685291
    28  H    5.164323   4.631748   4.984344   6.296333   6.247659
    29  H    5.134771   5.043260   4.293450   4.990129   5.127124
    30  H    6.577213   6.586010   5.825049   6.420598   6.495357
    31  H    6.672403   6.178629   6.127705   7.392002   7.472526
    32  H    6.057939   5.903001   6.054310   7.175781   6.938024
    33  H    8.093837   7.469188   6.949791   8.122029   8.525795
    34  H    6.759067   6.292739   5.728808   6.802781   7.105362
    35  H    5.584280   5.774040   5.578178   6.358382   6.021358
    36  H    5.983049   6.417665   6.517989   7.224641   6.596105
    37  O    3.868454   3.770082   2.783327   3.273807   3.579133
    38  H    3.160648   2.848311   1.801394   2.494293   2.975294
    39  H    4.247768   4.265472   3.116755   3.206254   3.595961
    40  H    4.439508   3.382000   2.109052   2.677897   4.107402
    41  H    4.167244   2.755741   2.121642   3.383440   4.467474
    42  H    3.978459   2.693159   2.141252   2.708931   3.976551
                    6          7          8          9         10
     6  C    0.000000
     7  C    1.397795   0.000000
     8  C    2.428061   1.393537   0.000000
     9  C    2.770565   2.386045   1.383200   0.000000
    10  N    2.372153   2.718748   2.358976   1.340518   0.000000
    11  C    1.389885   2.381466   2.752154   2.348665   1.338448
    12  O    4.768835   5.288189   4.745704   3.413126   2.569520
    13  O    5.731808   6.491825   6.244901   5.124649   4.159387
    14  O    5.581560   6.776072   7.007870   6.095501   4.786460
    15  O    5.079025   6.065370   6.053863   5.022592   3.824329
    16  H    4.549704   5.709771   6.915368   7.122447   6.249638
    17  H    4.596558   5.558054   6.847150   7.263410   6.567050
    18  H    4.321676   5.570161   6.693020   6.770134   5.810876
    19  H    3.050875   3.729081   4.897755   5.406045   4.959017
    20  H    2.657099   3.790960   4.733587   4.780539   3.957179
    21  H    4.126761   4.972266   6.318418   6.861269   6.278263
    22  H    2.119376   2.574616   3.965570   4.738109   4.490200
    23  H    2.181417   3.394809   3.837204   3.299800   2.065125
    24  H    3.855538   3.400433   2.182584   1.087752   2.067496
    25  H    3.420397   2.169306   1.087372   2.145392   3.342083
    26  H    2.155156   1.090526   2.152398   3.376431   3.809263
    27  C    3.059012   3.855792   4.922813   5.270628   4.718483
    28  H    3.364090   3.815481   3.344762   2.094553   1.096779
    29  H    4.956904   6.227652   6.632751   5.882031   4.566251
    30  H    6.448154   7.679598   7.956000   7.056202   5.746216
    31  H    5.108873   5.707151   5.237502   3.947788   3.056334
    32  H    4.904807   5.597216   5.222529   3.964438   2.950307
    33  H    6.667293   7.391557   7.091224   5.953009   5.063488
    34  H    5.663584   6.599525   6.532476   5.475121   4.348015
    35  H    5.308262   6.406587   6.492790   5.483611   4.202892
    36  H    5.876692   6.841024   6.814318   5.788662   4.658621
    37  O    4.142471   5.505284   6.250311   5.855027   4.637220
    38  H    3.340741   4.690181   5.556276   5.342709   4.238721
    39  H    4.878806   6.242526   7.084873   6.768908   5.575508
    40  H    4.049070   4.915589   5.914132   6.137091   5.474972
    41  H    2.797337   3.433250   4.268015   4.516887   4.049188
    42  H    3.442722   3.935680   5.095458   5.701533   5.362972
                   11         12         13         14         15
    11  C    0.000000
    12  O    3.430129   0.000000
    13  O    4.496726   2.718932   0.000000
    14  O    4.437151   3.859547   2.828849   0.000000
    15  O    3.824355   2.723690   3.927697   2.788042   0.000000
    16  H    4.945866   7.678722   7.275365   5.736486   6.758481
    17  H    5.274189   8.280258   8.741148   7.059526   7.020749
    18  H    4.530120   7.086951   7.375645   5.418551   5.554627
    19  H    3.872035   6.963080   8.069583   6.919598   6.122209
    20  H    2.820731   5.537654   6.568072   5.228189   4.417138
    21  H    4.991843   8.189988   8.167091   7.003508   7.571151
    22  H    3.400506   6.829420   7.466025   6.912942   6.748796
    23  H    1.087808   3.329514   4.057542   3.460214   3.106432
    24  H    3.299823   3.298603   5.199426   6.533140   5.323471
    25  H    3.839302   5.546887   7.100716   8.050710   7.028400
    26  H    3.375130   6.378665   7.500368   7.701993   7.061361
    27  C    3.655562   6.550153   6.189402   5.809545   6.683677
    28  H    2.105622   1.472741   3.384689   4.227786   3.151820
    29  H    3.965437   4.200152   3.296900   0.981342   3.101404
    30  H    5.355124   4.716447   3.448557   0.960870   3.447471
    31  H    3.768245   0.979664   1.768622   3.423858   3.059614
    32  H    3.535964   0.980976   3.019672   3.397071   1.786365
    33  H    5.449013   3.432845   0.960136   3.371502   4.646324
    34  H    4.430416   3.038662   0.971295   1.888617   3.485834
    35  H    4.055239   3.051828   3.486343   1.863848   0.974034
    36  H    4.678318   3.429041   4.691563   3.393112   0.960712
    37  O    3.609048   5.190756   4.574764   2.733491   4.141852
    38  H    3.069518   5.281692   4.904967   3.508455   4.531476
    39  H    4.497218   6.118212   5.318591   3.285298   4.906909
    40  H    4.434176   7.009194   6.229652   5.725712   7.034551
    41  H    3.212423   5.860875   5.492792   5.591767   6.406344
    42  H    4.341018   7.412410   7.193978   6.891882   7.617533
                   16         17         18         19         20
    16  H    0.000000
    17  H    2.791568   0.000000
    18  H    2.407770   1.768153   0.000000
    19  H    4.217396   2.398756   2.936961   0.000000
    20  H    3.905985   2.955512   2.316338   1.767755   0.000000
    21  H    1.777283   2.376676   3.041473   3.475772   3.905236
    22  H    3.681632   3.357423   3.862783   2.367389   3.039987
    23  H    4.489642   5.027162   3.958263   4.017989   2.590754
    24  H    8.145134   8.317987   7.761018   6.421808   5.741743
    25  H    7.837431   7.670048   7.663112   5.646549   5.690599
    26  H    5.848366   5.494900   5.842570   3.716913   4.248399
    27  C    2.790053   4.452196   4.267967   4.476941   4.246133
    28  H    6.777825   7.236592   6.259092   5.759771   4.522094
    29  H    4.755664   6.169045   4.555892   6.170844   4.541791
    30  H    6.060753   7.487913   5.786682   7.587051   5.899853
    31  H    7.607585   8.532244   7.263068   7.427939   5.957139
    32  H    7.470005   7.939108   6.641092   6.720923   5.175108
    33  H    8.031540   9.619729   8.219900   9.018509   7.505771
    34  H    6.696862   8.193539   6.728417   7.720310   6.140289
    35  H    6.406327   7.004674   5.419582   6.405230   4.649943
    36  H    7.405527   7.470173   5.987766   6.604781   4.924267
    37  O    3.006582   4.612551   3.122068   4.957489   3.573965
    38  H    2.459313   4.039470   2.812946   4.252679   3.070198
    39  H    2.640944   4.517669   3.035628   5.319160   4.083214
    40  H    2.598001   4.856421   4.521929   5.303825   4.938722
    41  H    3.761584   5.315843   4.985510   4.938669   4.546283
    42  H    3.222156   4.525704   4.756936   4.549980   4.733941
                   21         22         23         24         25
    21  H    0.000000
    22  H    2.523771   0.000000
    23  H    4.904484   3.833702   0.000000
    24  H    7.938408   5.817913   4.132364   0.000000
    25  H    7.090126   4.660285   4.923613   2.530903   0.000000
    26  H    4.797564   2.317956   4.313718   4.315464   2.499870
    27  C    2.592889   2.618671   3.716063   6.254071   5.731158
    28  H    7.043258   5.463425   2.358162   2.340745   4.233164
    29  H    6.041055   6.095775   2.939096   6.466882   7.700096
    30  H    7.481935   7.645480   4.347929   7.484911   9.002826
    31  H    8.253604   7.097261   3.541716   3.867675   6.053829
    32  H    8.091183   6.883186   3.201778   3.990241   6.092211
    33  H    8.991060   8.374234   5.011087   5.928544   7.898614
    34  H    7.740834   7.272966   3.777702   5.694503   7.470290
    35  H    7.411045   6.869509   3.171676   5.835418   7.507939
    36  H    8.248122   7.478043   3.978762   6.027975   7.756436
    37  O    4.327372   4.748961   2.669224   6.670713   7.319399
    38  H    3.506548   3.789189   2.329484   6.248638   6.602560
    39  H    4.229768   5.150048   3.590633   7.608669   8.141653
    40  H    2.891594   3.624187   4.289706   7.070764   6.734355
    41  H    3.634061   3.023098   3.432461   5.427109   5.060236
    42  H    2.412101   2.401942   4.574361   6.700839   5.756604
                   26         27         28         29         30
    26  H    0.000000
    27  C    4.007694   0.000000
    28  H    4.905977   5.427616   0.000000
    29  H    7.082145   4.949119   4.226758   0.000000
    30  H    8.577364   6.427422   5.177343   1.554277   0.000000
    31  H    6.785220   6.444035   2.036752   3.848282   4.234295
    32  H    6.675950   6.700920   1.945361   3.791508   4.211448
    33  H    8.390924   6.962220   4.255580   3.952573   3.786937
    34  H    7.589297   5.965809   3.627898   2.420841   2.484401
    35  H    7.389623   6.459454   3.533359   2.294524   2.474285
    36  H    7.813973   7.544839   3.980299   3.785717   3.865506
    37  O    6.166344   3.584691   4.712815   1.753226   3.155685
    38  H    5.272077   2.680514   4.537601   2.557573   4.055442
    39  H    6.805974   3.861305   5.672730   2.345783   3.459141
    40  H    5.098413   1.095730   6.044465   4.850017   6.213771
    41  H    3.753679   1.094964   4.737525   4.845661   6.293778
    42  H    3.784910   1.096006   6.190471   6.025844   7.513708
                   31         32         33         34         35
    31  H    0.000000
    32  H    1.550305   0.000000
    33  H    2.457608   3.739007   0.000000
    34  H    2.225861   3.044606   1.549856   0.000000
    35  H    3.081267   2.225871   4.153202   2.856053   0.000000
    36  H    3.808576   2.449017   5.315978   4.229253   1.553268
    37  O    4.991638   4.874422   5.318970   3.857775   3.589035
    38  H    5.168245   5.079828   5.715845   4.336381   4.146970
    39  H    5.880797   5.768416   5.982482   4.545887   4.290717
    40  H    6.768005   7.130031   6.912112   5.930962   6.663977
    41  H    5.718795   6.147428   6.252839   5.419147   6.216468
    42  H    7.366137   7.601599   7.965304   7.022150   7.459878
                   36         37         38         39         40
    36  H    0.000000
    37  O    4.845804   0.000000
    38  H    5.296584   0.989380   0.000000
    39  H    5.522054   0.959919   1.559173   0.000000
    40  H    7.887076   3.473373   2.749888   3.538169   0.000000
    41  H    7.320621   3.805390   2.976390   4.277650   1.755242
    42  H    8.464653   4.604348   3.672268   4.812145   1.775016
                   41         42
    41  H    0.000000
    42  H    1.777229   0.000000
 Stoichiometry    C10H25N2O5(1+)
 Framework group  C1[X(C10H25N2O5)]
 Deg. of freedom   120
 Full point group                 C1      NOp   1
 Largest Abelian subgroup         C1      NOp   1
 Largest concise Abelian subgroup C1      NOp   1
                         Standard orientation:                         
 ---------------------------------------------------------------------
 Center     Atomic      Atomic             Coordinates (Angstroms)
 Number     Number       Type             X           Y           Z
 ---------------------------------------------------------------------
      1          6           0        2.493783   -0.235740   -1.573701
      2          6           0        2.323907    0.413916   -0.183686
      3          7           0        2.170478   -0.752931    0.698050
      4          6           0        3.241818   -1.666351    0.255698
      5          6           0        3.133936   -1.613520   -1.275941
      6          6           0        1.181373    1.392554   -0.082231
      7          6           0        1.409817    2.759106    0.102647
      8          6           0        0.348463    3.660216    0.161592
      9          6           0       -0.939544    3.171036    0.039192
     10          7           0       -1.144119    1.857738   -0.135128
     11          6           0       -0.139409    0.975717   -0.198687
     12          8           0       -3.566220    1.025045   -0.341244
     13          8           0       -3.832744   -0.700437    1.743046
     14          8           0       -2.621906   -2.686939    0.133676
     15          8           0       -2.858663   -0.972571   -2.052203
     16          1           0        3.089171   -2.668262    0.672677
     17          1           0        4.114504   -1.729855   -1.748261
     18          1           0        2.489102   -2.418267   -1.645680
     19          1           0        3.106626    0.393435   -2.227692
     20          1           0        1.515323   -0.356657   -2.054264
     21          1           0        4.229395   -1.307594    0.587780
     22          1           0        3.250703    0.959529    0.066498
     23          1           0       -0.419687   -0.063420   -0.356691
     24          1           0       -1.828061    3.797523    0.074626
     25          1           0        0.515545    4.725325    0.303027
     26          1           0        2.432618    3.124065    0.202290
     27          6           0        2.338324   -0.398579    2.111136
     28          1           0       -2.177974    1.502310   -0.223107
     29          1           0       -1.647454   -2.664522    0.247576
     30          1           0       -2.875835   -3.613148    0.164126
     31          1           0       -3.821649    0.504367    0.448307
     32          1           0       -3.512805    0.364430   -1.064465
     33          1           0       -4.599051   -0.968135    2.255854
     34          1           0       -3.472496   -1.506110    1.337426
     35          1           0       -2.883722   -1.735999   -1.447809
     36          1           0       -3.254620   -1.259881   -2.879028
     37          8           0        0.100354   -2.582083    0.357907
     38          1           0        0.768942   -1.869086    0.511197
     39          1           0        0.563208   -3.414289    0.478917
     40          1           0        2.288671   -1.300523    2.731342
     41          1           0        1.529519    0.256922    2.450401
     42          1           0        3.294140    0.099937    2.308938
 ---------------------------------------------------------------------
 Rotational constants (GHZ):           0.4229950           0.2887133           0.2130623
 Standard basis: Aug-CC-pVDZ (5D, 7F)
 There are   650 symmetry adapted cartesian basis functions of A   symmetry.
 There are   616 symmetry adapted basis functions of A   symmetry.
   616 basis functions,  1006 primitive gaussians,   650 cartesian basis functions
    69 alpha electrons       69 beta electrons
       nuclear repulsion energy      1377.2647493057 Hartrees.
 NAtoms=   42 NActive=   42 NUniq=   42 SFac= 1.00D+00 NAtFMM=   60 NAOKFM=F Big=F
 Integral buffers will be    131072 words long.
 Raffenetti 2 integral format.
 Two-electron integral symmetry is turned on.
 Nuclear repulsion after empirical dispersion term =     1377.2324291005 Hartrees.
 One-electron integrals computed using PRISM.
 NBasis=   616 RedAO= T EigKep=  1.47D-06  NBF=   616
 NBsUse=   616 1.00D-06 EigRej= -1.00D+00 NBFU=   616
 ExpMin= 2.97D-02 ExpMax= 1.17D+04 ExpMxC= 4.01D+02 IAcc=3 IRadAn=         5 AccDes= 0.00D+00
 Harris functional with IExCor= 4639 and IRadAn=       5 diagonalized for initial guess.
 HarFok:  IExCor= 4639 AccDes= 0.00D+00 IRadAn=         5 IDoV= 1 UseB2=F ITyADJ=14
 ICtDFT=  3500011 ScaDFX=  1.000000  1.000000  1.000000  1.000000
 FoFCou: FMM=F IPFlag=           0 FMFlag=      100000 FMFlg1=           0
         NFxFlg=           0 DoJE=T BraDBF=F KetDBF=T FulRan=T
         wScrn=  0.000000 ICntrl=       500 IOpCl=  0 I1Cent=   200000004 NGrid=           0
         NMat0=    1 NMatS0=      1 NMatT0=    0 NMatD0=    1 NMtDS0=    0 NMtDT0=    0
 Petite list used in FoFCou.
 Requested convergence on RMS density matrix=1.00D-08 within 128 cycles.
 Requested convergence on MAX density matrix=1.00D-06.
 Requested convergence on             energy=1.00D-06.
 No special actions if energy rises.
 SCF Done:  E(RwB97XD) =  -881.471070055     A.U. after   16 cycles
            NFock= 16  Conv=0.18D-08     -V/T= 2.0062

 **********************************************************************

            Population analysis using the SCF density.

 **********************************************************************

 Orbital symmetries:
       Occupied  (A) (A) (A) (A) (A) (A) (A) (A) (A) (A) (A) (A)
                 (A) (A) (A) (A) (A) (A) (A) (A) (A) (A) (A) (A)
                 (A) (A) (A) (A) (A) (A) (A) (A) (A) (A) (A) (A)
                 (A) (A) (A) (A) (A) (A) (A) (A) (A) (A) (A) (A)
                 (A) (A) (A) (A) (A) (A) (A) (A) (A) (A) (A) (A)
                 (A) (A) (A) (A) (A) (A) (A) (A) (A)
       Virtual   (A) (A) (A) (A) (A) (A) (A) (A) (A) (A) (A) (A)
                 (A) (A) (A) (A) (A) (A) (A) (A) (A) (A) (A) (A)
                 (A) (A) (A) (A) (A) (A) (A) (A) (A) (A) (A) (A)
                 (A) (A) (A) (A) (A) (A) (A) (A) (A) (A) (A) (A)
                 (A) (A) (A) (A) (A) (A) (A) (A) (A) (A) (A) (A)
                 (A) (A) (A) (A) (A) (A) (A) (A) (A) (A) (A) (A)
                 (A) (A) (A) (A) (A) (A) (A) (A) (A) (A) (A) (A)
                 (A) (A) (A) (A) (A) (A) (A) (A) (A) (A) (A) (A)
                 (A) (A) (A) (A) (A) (A) (A) (A) (A) (A) (A) (A)
                 (A) (A) (A) (A) (A) (A) (A) (A) (A) (A) (A) (A)
                 (A) (A) (A) (A) (A) (A) (A) (A) (A) (A) (A) (A)
                 (A) (A) (A) (A) (A) (A) (A) (A) (A) (A) (A) (A)
                 (A) (A) (A) (A) (A) (A) (A) (A) (A) (A) (A) (A)
                 (A) (A) (A) (A) (A) (A) (A) (A) (A) (A) (A) (A)
                 (A) (A) (A) (A) (A) (A) (A) (A) (A) (A) (A) (A)
                 (A) (A) (A) (A) (A) (A) (A) (A) (A) (A) (A) (A)
                 (A) (A) (A) (A) (A) (A) (A) (A) (A) (A) (A) (A)
                 (A) (A) (A) (A) (A) (A) (A) (A) (A) (A) (A) (A)
                 (A) (A) (A) (A) (A) (A) (A) (A) (A) (A) (A) (A)
                 (A) (A) (A) (A) (A) (A) (A) (A) (A) (A) (A) (A)
                 (A) (A) (A) (A) (A) (A) (A) (A) (A) (A) (A) (A)
                 (A) (A) (A) (A) (A) (A) (A) (A) (A) (A) (A) (A)
                 (A) (A) (A) (A) (A) (A) (A) (A) (A) (A) (A) (A)
                 (A) (A) (A) (A) (A) (A) (A) (A) (A) (A) (A) (A)
                 (A) (A) (A) (A) (A) (A) (A) (A) (A) (A) (A) (A)
                 (A) (A) (A) (A) (A) (A) (A) (A) (A) (A) (A) (A)
                 (A) (A) (A) (A) (A) (A) (A) (A) (A) (A) (A) (A)
                 (A) (A) (A) (A) (A) (A) (A) (A) (A) (A) (A) (A)
                 (A) (A) (A) (A) (A) (A) (A) (A) (A) (A) (A) (A)
                 (A) (A) (A) (A) (A) (A) (A) (A) (A) (A) (A) (A)
                 (A) (A) (A) (A) (A) (A) (A) (A) (A) (A) (A) (A)
                 (A) (A) (A) (A) (A) (A) (A) (A) (A) (A) (A) (A)
                 (A) (A) (A) (A) (A) (A) (A) (A) (A) (A) (A) (A)
                 (A) (A) (A) (A) (A) (A) (A) (A) (A) (A) (A) (A)
                 (A) (A) (A) (A) (A) (A) (A) (A) (A) (A) (A) (A)
                 (A) (A) (A) (A) (A) (A) (A) (A) (A) (A) (A) (A)
                 (A) (A) (A) (A) (A) (A) (A) (A) (A) (A) (A) (A)
                 (A) (A) (A) (A) (A) (A) (A) (A) (A) (A) (A) (A)
                 (A) (A) (A) (A) (A) (A) (A) (A) (A) (A) (A) (A)
                 (A) (A) (A) (A) (A) (A) (A) (A) (A) (A) (A) (A)
                 (A) (A) (A) (A) (A) (A) (A) (A) (A) (A) (A) (A)
                 (A) (A) (A) (A) (A) (A) (A) (A) (A) (A) (A) (A)
                 (A) (A) (A) (A) (A) (A) (A) (A) (A) (A) (A) (A)
                 (A) (A) (A) (A) (A) (A) (A) (A) (A) (A) (A) (A)
                 (A) (A) (A) (A) (A) (A) (A) (A) (A) (A) (A) (A)
                 (A) (A) (A) (A) (A) (A) (A)
 The electronic state is 1-A.
 Alpha  occ. eigenvalues --  -19.39831 -19.38549 -19.38342 -19.37728 -19.37465
 Alpha  occ. eigenvalues --  -14.65953 -14.58480 -10.50116 -10.50101 -10.47223
 Alpha  occ. eigenvalues --  -10.46809 -10.46318 -10.46214 -10.43669 -10.43046
 Alpha  occ. eigenvalues --  -10.41441 -10.40587  -1.24814  -1.24469  -1.22980
 Alpha  occ. eigenvalues --   -1.22438  -1.22248  -1.21043  -1.17566  -1.07649
 Alpha  occ. eigenvalues --   -1.03987  -1.00384  -0.95779  -0.89838  -0.89416
 Alpha  occ. eigenvalues --   -0.88272  -0.81793  -0.79868  -0.79316  -0.75337
 Alpha  occ. eigenvalues --   -0.74270  -0.73996  -0.73644  -0.73380  -0.72783
 Alpha  occ. eigenvalues --   -0.72286  -0.70937  -0.69643  -0.68388  -0.67121
 Alpha  occ. eigenvalues --   -0.65624  -0.64406  -0.63649  -0.63341  -0.62056
 Alpha  occ. eigenvalues --   -0.61523  -0.60339  -0.59088  -0.58773  -0.58371
 Alpha  occ. eigenvalues --   -0.57044  -0.56637  -0.56354  -0.55504  -0.53839
 Alpha  occ. eigenvalues --   -0.53436  -0.52783  -0.52138  -0.51742  -0.51541
 Alpha  occ. eigenvalues --   -0.51155  -0.50899  -0.48815  -0.45266
 Alpha virt. eigenvalues --   -0.13100  -0.10473  -0.06410  -0.05433  -0.04678
 Alpha virt. eigenvalues --   -0.04111  -0.03632  -0.03234  -0.02850  -0.02528
 Alpha virt. eigenvalues --   -0.01915  -0.01539  -0.01343  -0.00629  -0.00539
 Alpha virt. eigenvalues --   -0.00181   0.00359   0.00822   0.01093   0.01194
 Alpha virt. eigenvalues --    0.01445   0.02082   0.02270   0.02498   0.02828
 Alpha virt. eigenvalues --    0.03312   0.03553   0.03655   0.03929   0.04003
 Alpha virt. eigenvalues --    0.04572   0.04832   0.05125   0.05443   0.05840
 Alpha virt. eigenvalues --    0.06178   0.06235   0.06324   0.06616   0.06854
 Alpha virt. eigenvalues --    0.07108   0.07335   0.07617   0.07991   0.08576
 Alpha virt. eigenvalues --    0.08743   0.08872   0.09117   0.09324   0.09757
 Alpha virt. eigenvalues --    0.10295   0.10454   0.10650   0.10979   0.11429
 Alpha virt. eigenvalues --    0.11592   0.11908   0.12137   0.12482   0.12814
 Alpha virt. eigenvalues --    0.13252   0.13400   0.13528   0.14075   0.14265
 Alpha virt. eigenvalues --    0.14874   0.15154   0.15355   0.15586   0.15726
 Alpha virt. eigenvalues --    0.16093   0.16209   0.16641   0.16774   0.16813
 Alpha virt. eigenvalues --    0.17089   0.17376   0.17578   0.17845   0.18240
 Alpha virt. eigenvalues --    0.18347   0.18429   0.18924   0.19314   0.19417
 Alpha virt. eigenvalues --    0.19994   0.20106   0.20390   0.20637   0.20771
 Alpha virt. eigenvalues --    0.20929   0.21206   0.21720   0.22272   0.22638
 Alpha virt. eigenvalues --    0.22693   0.22925   0.23290   0.23408   0.24177
 Alpha virt. eigenvalues --    0.24779   0.24904   0.25065   0.25283   0.25368
 Alpha virt. eigenvalues --    0.25516   0.26232   0.26432   0.26698   0.27097
 Alpha virt. eigenvalues --    0.27241   0.27753   0.28016   0.28354   0.28873
 Alpha virt. eigenvalues --    0.29285   0.29631   0.29974   0.30557   0.30945
 Alpha virt. eigenvalues --    0.31106   0.31230   0.31541   0.32241   0.32609
 Alpha virt. eigenvalues --    0.32748   0.33418   0.33507   0.33892   0.34461
 Alpha virt. eigenvalues --    0.34602   0.35140   0.35355   0.35771   0.36559
 Alpha virt. eigenvalues --    0.36773   0.37017   0.37172   0.37377   0.37955
 Alpha virt. eigenvalues --    0.38752   0.38812   0.39365   0.39516   0.40046
 Alpha virt. eigenvalues --    0.40649   0.40872   0.41332   0.42007   0.42401
 Alpha virt. eigenvalues --    0.42576   0.43046   0.43318   0.43489   0.43840
 Alpha virt. eigenvalues --    0.44473   0.44775   0.45038   0.45394   0.45776
 Alpha virt. eigenvalues --    0.46038   0.46509   0.46797   0.46951   0.47354
 Alpha virt. eigenvalues --    0.47893   0.48017   0.48278   0.48558   0.49255
 Alpha virt. eigenvalues --    0.49702   0.49807   0.50343   0.51143   0.51433
 Alpha virt. eigenvalues --    0.51779   0.52074   0.52545   0.52574   0.53174
 Alpha virt. eigenvalues --    0.53593   0.54052   0.54151   0.54571   0.54976
 Alpha virt. eigenvalues --    0.55295   0.55358   0.55775   0.56105   0.56590
 Alpha virt. eigenvalues --    0.56851   0.57159   0.57580   0.57753   0.58114
 Alpha virt. eigenvalues --    0.58536   0.59104   0.59436   0.59930   0.59996
 Alpha virt. eigenvalues --    0.60727   0.61176   0.61562   0.61805   0.62215
 Alpha virt. eigenvalues --    0.62436   0.62667   0.63525   0.63571   0.63865
 Alpha virt. eigenvalues --    0.64411   0.65204   0.65833   0.66260   0.66600
 Alpha virt. eigenvalues --    0.66845   0.67267   0.67658   0.68635   0.68925
 Alpha virt. eigenvalues --    0.69066   0.69334   0.69684   0.70064   0.70942
 Alpha virt. eigenvalues --    0.71119   0.71292   0.71818   0.71975   0.72615
 Alpha virt. eigenvalues --    0.73152   0.73558   0.74072   0.74518   0.74615
 Alpha virt. eigenvalues --    0.75087   0.75608   0.75820   0.76346   0.76585
 Alpha virt. eigenvalues --    0.77597   0.77817   0.78085   0.78723   0.80309
 Alpha virt. eigenvalues --    0.80565   0.81431   0.81617   0.81790   0.82112
 Alpha virt. eigenvalues --    0.82412   0.83455   0.83903   0.84349   0.84751
 Alpha virt. eigenvalues --    0.85014   0.85907   0.86631   0.86991   0.88121
 Alpha virt. eigenvalues --    0.88722   0.89392   0.90692   0.91218   0.91594
 Alpha virt. eigenvalues --    0.91970   0.92478   0.93549   0.94635   0.95295
 Alpha virt. eigenvalues --    0.95369   0.95783   0.96642   0.97678   0.97852
 Alpha virt. eigenvalues --    0.98298   0.99152   1.00166   1.00329   1.01120
 Alpha virt. eigenvalues --    1.01347   1.02064   1.02751   1.04047   1.04161
 Alpha virt. eigenvalues --    1.05471   1.05894   1.06556   1.07195   1.07372
 Alpha virt. eigenvalues --    1.08126   1.08790   1.09755   1.09950   1.10353
 Alpha virt. eigenvalues --    1.11892   1.12074   1.12510   1.13779   1.14059
 Alpha virt. eigenvalues --    1.14569   1.15348   1.16378   1.16844   1.17012
 Alpha virt. eigenvalues --    1.18458   1.19045   1.19677   1.20765   1.22107
 Alpha virt. eigenvalues --    1.22804   1.23438   1.23778   1.24406   1.25008
 Alpha virt. eigenvalues --    1.25681   1.27691   1.28456   1.29084   1.30057
 Alpha virt. eigenvalues --    1.31064   1.31691   1.32418   1.33015   1.33441
 Alpha virt. eigenvalues --    1.34210   1.35227   1.36120   1.36501   1.36717
 Alpha virt. eigenvalues --    1.37443   1.38900   1.40312   1.40682   1.41897
 Alpha virt. eigenvalues --    1.42474   1.43253   1.43530   1.44487   1.45873
 Alpha virt. eigenvalues --    1.46168   1.46715   1.47864   1.49342   1.50051
 Alpha virt. eigenvalues --    1.51222   1.52241   1.52841   1.54087   1.54462
 Alpha virt. eigenvalues --    1.55375   1.55997   1.56738   1.57747   1.59391
 Alpha virt. eigenvalues --    1.59805   1.60639   1.61144   1.62190   1.62843
 Alpha virt. eigenvalues --    1.63042   1.63879   1.64079   1.65041   1.65797
 Alpha virt. eigenvalues --    1.67228   1.67665   1.68331   1.68788   1.69773
 Alpha virt. eigenvalues --    1.70896   1.71503   1.71983   1.72692   1.73262
 Alpha virt. eigenvalues --    1.73887   1.74799   1.76226   1.76378   1.77301
 Alpha virt. eigenvalues --    1.78793   1.78841   1.79929   1.80255   1.81209
 Alpha virt. eigenvalues --    1.81673   1.82041   1.82385   1.83160   1.84289
 Alpha virt. eigenvalues --    1.84411   1.85609   1.86115   1.86726   1.87996
 Alpha virt. eigenvalues --    1.88407   1.88968   1.89255   1.89931   1.91505
 Alpha virt. eigenvalues --    1.93059   1.93537   1.93904   1.94545   1.95501
 Alpha virt. eigenvalues --    1.95836   1.96306   1.96586   1.97148   1.98163
 Alpha virt. eigenvalues --    1.98350   1.98994   2.00769   2.01161   2.01924
 Alpha virt. eigenvalues --    2.02612   2.04288   2.04986   2.05210   2.05563
 Alpha virt. eigenvalues --    2.05754   2.06582   2.08159   2.09929   2.11200
 Alpha virt. eigenvalues --    2.12212   2.12410   2.13131   2.14311   2.15483
 Alpha virt. eigenvalues --    2.16300   2.17151   2.17480   2.19217   2.19708
 Alpha virt. eigenvalues --    2.20576   2.21322   2.23029   2.23762   2.24272
 Alpha virt. eigenvalues --    2.25143   2.25767   2.26822   2.27489   2.28344
 Alpha virt. eigenvalues --    2.28705   2.29847   2.30910   2.31415   2.32161
 Alpha virt. eigenvalues --    2.33965   2.34357   2.35849   2.36813   2.39476
 Alpha virt. eigenvalues --    2.40095   2.40579   2.42069   2.42982   2.43852
 Alpha virt. eigenvalues --    2.44451   2.45760   2.46549   2.47619   2.49068
 Alpha virt. eigenvalues --    2.50876   2.51320   2.51749   2.53577   2.54489
 Alpha virt. eigenvalues --    2.55093   2.56134   2.56990   2.57263   2.58589
 Alpha virt. eigenvalues --    2.59407   2.59824   2.60717   2.60777   2.61808
 Alpha virt. eigenvalues --    2.62854   2.63962   2.64842   2.66358   2.67834
 Alpha virt. eigenvalues --    2.69623   2.70389   2.71553   2.72393   2.74586
 Alpha virt. eigenvalues --    2.76617   2.77570   2.78870   2.79295   2.82239
 Alpha virt. eigenvalues --    2.83180   2.83968   2.85077   2.85974   2.87872
 Alpha virt. eigenvalues --    2.89193   2.91823   2.92216   2.93970   2.95070
 Alpha virt. eigenvalues --    2.97435   2.98608   3.00830   3.03846   3.06246
 Alpha virt. eigenvalues --    3.09409   3.12685   3.20043   3.23506   3.27428
 Alpha virt. eigenvalues --    3.32099   3.35228   3.37048   3.38290   3.39313
 Alpha virt. eigenvalues --    3.39777   3.40536   3.43173   3.44237   3.46459
 Alpha virt. eigenvalues --    3.48346   3.48776   3.49961   3.51483   3.53175
 Alpha virt. eigenvalues --    3.58516   3.63396   3.66164   3.70977   3.74377
 Alpha virt. eigenvalues --    3.78536   3.80628   3.85998   3.90073   3.91150
 Alpha virt. eigenvalues --    3.99159   4.00858   4.04228   4.06539   4.18162
 Alpha virt. eigenvalues --    4.38636   5.02779
          Condensed to atoms (all electrons):
               1          2          3          4          5          6
     1  C    8.954117  -0.821395  -1.151061   0.844701  -0.931472   0.150719
     2  C   -0.821395  31.882894  -6.716739  -0.182020  -0.038212 -12.376088
     3  N   -1.151061  -6.716739  15.274881  -0.330870  -0.124929   2.818478
     4  C    0.844701  -0.182020  -0.330870   6.189112  -0.026109  -0.579402
     5  C   -0.931472  -0.038212  -0.124929  -0.026109   6.182604   0.371121
     6  C    0.150719 -12.376088   2.818478  -0.579402   0.371121  34.231593
     7  C   -0.316367  -0.226740  -0.718270   0.046062  -0.083696 -12.793558
     8  C   -0.003683  -0.101836  -0.207963  -0.059898  -0.019961   0.491984
     9  C   -0.083167  -0.711383   0.137275  -0.018386   0.011165  -0.733217
    10  N    0.078105   1.057892  -0.008635   0.080880   0.008475   0.096317
    11  C   -1.392920  -3.040027   0.040106  -0.345934  -0.074130  -8.232537
    12  O   -0.000947   0.056672  -0.002723  -0.000069   0.000482   0.029252
    13  O   -0.001099   0.000771  -0.000071   0.000309  -0.000156  -0.029005
    14  O    0.003185  -0.009857   0.003850  -0.007990   0.004131   0.021222
    15  O   -0.003790  -0.004787   0.001590  -0.000056   0.000161  -0.052982
    16  H    0.177337   0.694388  -1.322048  -0.194729   0.082783  -0.297989
    17  H    0.253122  -0.039565  -0.175691   0.137550  -0.230317   0.021230
    18  H    0.168872   0.207571   0.229622  -0.082734  -0.348857  -0.105925
    19  H   -1.261670  -0.156125   0.474125  -0.245725   0.194029   0.557188
    20  H   -0.009593   0.017185  -0.122355   0.066414   0.318211   0.046012
    21  H   -0.064398   0.110611  -0.194207  -0.373929   0.025083   0.224201
    22  H    0.729054  -3.137734  -0.209808  -0.002100  -0.100799   1.379438
    23  H   -0.378399  -0.935760   0.074672  -0.036001  -0.090602  -1.804596
    24  H    0.006725  -0.049363   0.009153  -0.000450   0.000599  -0.080005
    25  H   -0.004747   0.132046  -0.000980   0.000701  -0.000037  -0.018596
    26  H   -0.031891  -0.338034   0.036612  -0.020966  -0.001642   1.744211
    27  C   -0.285371  -1.505677   1.278928  -0.302260   0.069940   1.081984
    28  H   -0.032659   0.152283  -0.042660  -0.010399  -0.001937  -0.479035
    29  H    0.010016  -0.002871  -0.011927   0.028299  -0.003547   0.005318
    30  H   -0.000516   0.001006  -0.000488  -0.001594   0.000135  -0.000100
    31  H    0.000280   0.004031  -0.000359   0.000665   0.000134   0.006295
    32  H    0.002490  -0.001187   0.001391   0.000718  -0.000150  -0.022364
    33  H    0.000071  -0.001025   0.000073  -0.000031  -0.000054   0.001909
    34  H   -0.002533   0.002917  -0.001508  -0.000085   0.000104  -0.022765
    35  H   -0.000542   0.007205  -0.003391  -0.000652  -0.001662  -0.009041
    36  H   -0.000054  -0.000935   0.000629  -0.000001   0.000581   0.005002
    37  O    0.019645   0.152663  -0.166452  -0.012002   0.024827  -0.082206
    38  H    0.157501   0.893253  -0.435193  -0.068686  -0.000559  -0.343622
    39  H   -0.004102  -0.062303   0.009600   0.012201  -0.009430   0.024019
    40  H   -0.097639   0.179286  -0.224073  -0.020378   0.102548  -0.012239
    41  H    0.124947  -0.059597   0.146905  -0.058317  -0.055499   0.023883
    42  H    0.040041  -0.349030  -0.509434   0.083697  -0.017005   0.273764
               7          8          9         10         11         12
     1  C   -0.316367  -0.003683  -0.083167   0.078105  -1.392920  -0.000947
     2  C   -0.226740  -0.101836  -0.711383   1.057892  -3.040027   0.056672
     3  N   -0.718270  -0.207963   0.137275  -0.008635   0.040106  -0.002723
     4  C    0.046062  -0.059898  -0.018386   0.080880  -0.345934  -0.000069
     5  C   -0.083696  -0.019961   0.011165   0.008475  -0.074130   0.000482
     6  C  -12.793558   0.491984  -0.733217   0.096317  -8.232537   0.029252
     7  C   26.133466  -5.167409   2.120282  -0.390571  -1.326353  -0.009606
     8  C   -5.167409  12.421069  -2.991413  -0.049782   1.235551   0.002016
     9  C    2.120282  -2.991413  11.218999   0.335235  -2.460743  -0.056808
    10  N   -0.390571  -0.049782   0.335235   8.202256  -1.782942  -0.296259
    11  C   -1.326353   1.235551  -2.460743  -1.782942  21.763105   0.072858
    12  O   -0.009606   0.002016  -0.056808  -0.296259   0.072858   8.512159
    13  O    0.005571  -0.001869   0.012492   0.013350  -0.014727  -0.107435
    14  O   -0.000175  -0.001987   0.003992  -0.010149   0.080974   0.010555
    15  O    0.009221  -0.001378  -0.001494  -0.008015   0.020470  -0.108034
    16  H    0.030714  -0.002732  -0.001085   0.004874  -0.034439   0.000210
    17  H    0.003483  -0.001173   0.001417  -0.003013   0.014063   0.000010
    18  H   -0.002808  -0.001185  -0.000005   0.005214  -0.001173   0.000137
    19  H   -0.078644  -0.002777   0.005686  -0.014457   0.334306  -0.000274
    20  H    0.021074  -0.032077   0.013241   0.027499  -0.392497   0.004465
    21  H    0.019908  -0.000992  -0.001094  -0.000640   0.055424  -0.000120
    22  H   -0.023853  -0.001187   0.042034  -0.002213  -0.261036   0.002621
    23  H   -0.106734   0.306407  -0.447213  -0.208999   0.815506  -0.183399
    24  H    0.293764   0.115596  -0.629210  -0.172999   0.223559   0.018187
    25  H    0.663242  -1.162566   0.423051  -0.010647  -0.274074   0.000432
    26  H   -2.974991   0.835943  -0.281652  -0.065862   0.159372  -0.001732
    27  C   -0.419829   0.051170  -0.000082  -0.038649   0.018087  -0.001684
    28  H   -0.078589   0.000410  -0.672037   0.063980   0.544146   0.094500
    29  H    0.000225  -0.001268   0.002376   0.016530  -0.045447  -0.003825
    30  H   -0.000445   0.000297  -0.000705  -0.002098   0.007695   0.002897
    31  H   -0.002424   0.009280  -0.017751  -0.005319  -0.010483   0.286755
    32  H    0.002923   0.010858  -0.032836  -0.015922   0.003075   0.285587
    33  H   -0.000368   0.000675  -0.000190   0.001043   0.006070   0.004932
    34  H    0.004217  -0.003437   0.001472  -0.002018  -0.000985  -0.008714
    35  H    0.003677  -0.003345   0.000332   0.001210  -0.012428  -0.003845
    36  H   -0.001292   0.000607   0.001484   0.003121   0.001918   0.003966
    37  O   -0.005782   0.008750  -0.012545  -0.006012  -0.037737  -0.003555
    38  H    0.044199  -0.003091  -0.013559   0.015303  -0.178607   0.013164
    39  H   -0.002904   0.001309   0.000949  -0.003215   0.022854  -0.002026
    40  H   -0.006146   0.010293  -0.002099  -0.002885  -0.040876  -0.000327
    41  H   -0.034540   0.048341  -0.043924  -0.012153   0.113505   0.000856
    42  H   -0.006122  -0.019789   0.020107  -0.002046   0.018494  -0.000144
              13         14         15         16         17         18
     1  C   -0.001099   0.003185  -0.003790   0.177337   0.253122   0.168872
     2  C    0.000771  -0.009857  -0.004787   0.694388  -0.039565   0.207571
     3  N   -0.000071   0.003850   0.001590  -1.322048  -0.175691   0.229622
     4  C    0.000309  -0.007990  -0.000056  -0.194729   0.137550  -0.082734
     5  C   -0.000156   0.004131   0.000161   0.082783  -0.230317  -0.348857
     6  C   -0.029005   0.021222  -0.052982  -0.297989   0.021230  -0.105925
     7  C    0.005571  -0.000175   0.009221   0.030714   0.003483  -0.002808
     8  C   -0.001869  -0.001987  -0.001378  -0.002732  -0.001173  -0.001185
     9  C    0.012492   0.003992  -0.001494  -0.001085   0.001417  -0.000005
    10  N    0.013350  -0.010149  -0.008015   0.004874  -0.003013   0.005214
    11  C   -0.014727   0.080974   0.020470  -0.034439   0.014063  -0.001173
    12  O   -0.107435   0.010555  -0.108034   0.000210   0.000010   0.000137
    13  O    7.718655  -0.023652   0.006688   0.000153   0.000007  -0.000132
    14  O   -0.023652   8.204031  -0.040313  -0.000363   0.000269   0.000509
    15  O    0.006688  -0.040313   7.817585  -0.000049   0.000130  -0.000846
    16  H    0.000153  -0.000363  -0.000049   3.260852   0.131599  -0.347251
    17  H    0.000007   0.000269   0.000130   0.131599   2.117712  -0.630818
    18  H   -0.000132   0.000509  -0.000846  -0.347251  -0.630818   2.318486
    19  H   -0.000001  -0.000048  -0.000270  -0.044033  -0.324596   0.197090
    20  H   -0.000553   0.006527   0.000199   0.076932   0.208576  -0.457889
    21  H   -0.000019  -0.000535   0.000016  -0.660108  -0.241078   0.187381
    22  H   -0.000000  -0.000167  -0.000112   0.101864   0.069811  -0.071276
    23  H    0.020269  -0.112710   0.030032  -0.091408  -0.018144   0.062508
    24  H    0.001975  -0.000033   0.001410  -0.000171   0.000045   0.000051
    25  H   -0.000115  -0.000052  -0.000126   0.000179  -0.000047  -0.000049
    26  H    0.000211  -0.000058   0.000392  -0.005241   0.001924   0.000289
    27  C   -0.000708   0.004974  -0.000383  -0.183890  -0.020622   0.021660
    28  H   -0.012938   0.000484  -0.006739   0.002128   0.000210  -0.000487
    29  H    0.005722   0.268333   0.000775   0.001963  -0.000209  -0.003669
    30  H   -0.001550   0.323392   0.000906  -0.000659  -0.000039   0.000720
    31  H    0.030209   0.000505   0.001019   0.000094   0.000006   0.000040
    32  H    0.006032   0.004594   0.045491  -0.000073  -0.000020  -0.000027
    33  H    0.355886  -0.004393   0.000935  -0.000034  -0.000003   0.000002
    34  H    0.301954   0.021815  -0.000128   0.000225   0.000034  -0.000099
    35  H   -0.001824  -0.007176   0.333633   0.000452   0.000164  -0.000834
    36  H    0.000445  -0.000081   0.326362  -0.000061  -0.000038   0.000396
    37  O    0.002034  -0.092502   0.002980   0.115581  -0.000245  -0.007705
    38  H   -0.002308   0.024890  -0.004527   0.157419   0.004417  -0.009818
    39  H   -0.000171   0.002055   0.000981  -0.020149  -0.000056   0.007017
    40  H   -0.000380   0.000637  -0.000024   0.008552  -0.003015   0.013100
    41  H    0.000050   0.001316  -0.000084   0.010997   0.001276  -0.011213
    42  H    0.000076   0.000128  -0.000024   0.007628   0.003416  -0.003152
              19         20         21         22         23         24
     1  C   -1.261670  -0.009593  -0.064398   0.729054  -0.378399   0.006725
     2  C   -0.156125   0.017185   0.110611  -3.137734  -0.935760  -0.049363
     3  N    0.474125  -0.122355  -0.194207  -0.209808   0.074672   0.009153
     4  C   -0.245725   0.066414  -0.373929  -0.002100  -0.036001  -0.000450
     5  C    0.194029   0.318211   0.025083  -0.100799  -0.090602   0.000599
     6  C    0.557188   0.046012   0.224201   1.379438  -1.804596  -0.080005
     7  C   -0.078644   0.021074   0.019908  -0.023853  -0.106734   0.293764
     8  C   -0.002777  -0.032077  -0.000992  -0.001187   0.306407   0.115596
     9  C    0.005686   0.013241  -0.001094   0.042034  -0.447213  -0.629210
    10  N   -0.014457   0.027499  -0.000640  -0.002213  -0.208999  -0.172999
    11  C    0.334306  -0.392497   0.055424  -0.261036   0.815506   0.223559
    12  O   -0.000274   0.004465  -0.000120   0.002621  -0.183399   0.018187
    13  O   -0.000001  -0.000553  -0.000019  -0.000000   0.020269   0.001975
    14  O   -0.000048   0.006527  -0.000535  -0.000167  -0.112710  -0.000033
    15  O   -0.000270   0.000199   0.000016  -0.000112   0.030032   0.001410
    16  H   -0.044033   0.076932  -0.660108   0.101864  -0.091408  -0.000171
    17  H   -0.324596   0.208576  -0.241078   0.069811  -0.018144   0.000045
    18  H    0.197090  -0.457889   0.187381  -0.071276   0.062508   0.000051
    19  H    2.690896  -0.718942   0.061345  -0.354240   0.144332   0.001248
    20  H   -0.718942   2.397453  -0.068958   0.228888  -0.351706  -0.001433
    21  H    0.061345  -0.068958   2.502876  -0.105172   0.040727   0.000221
    22  H   -0.354240   0.228888  -0.105172   3.712988  -0.044995  -0.000947
    23  H    0.144332  -0.351706   0.040727  -0.044995   5.776415   0.031629
    24  H    0.001248  -0.001433   0.000221  -0.000947   0.031629   2.243502
    25  H   -0.002020   0.001011  -0.000414   0.002930  -0.010590  -0.116541
    26  H    0.015805  -0.012525   0.004047  -0.187479   0.022804  -0.007247
    27  C    0.096629  -0.058960  -0.018072  -0.045458   0.099149   0.003974
    28  H   -0.002817   0.001314  -0.001096   0.006096  -0.151408  -0.243483
    29  H    0.000287   0.000693  -0.000952  -0.000372  -0.003177  -0.000059
    30  H   -0.000029  -0.000408   0.000064   0.000097  -0.000390  -0.000029
    31  H    0.000037  -0.000485  -0.000019   0.000018   0.011915   0.007513
    32  H   -0.000130   0.000520   0.000059   0.000088   0.037408   0.008162
    33  H    0.000002  -0.000038   0.000009  -0.000029  -0.003122   0.000032
    34  H    0.000051  -0.001238  -0.000063  -0.000044   0.018955  -0.000624
    35  H   -0.000634   0.000914  -0.000108   0.000518   0.012855  -0.001406
    36  H    0.000212  -0.001043   0.000015  -0.000134  -0.006515   0.000242
    37  O   -0.002180  -0.000190  -0.022356   0.005224   0.028322  -0.000259
    38  H   -0.049830   0.064898   0.002850   0.015319  -0.301135  -0.001876
    39  H    0.003282  -0.004569   0.007076  -0.001505   0.037154   0.000197
    40  H    0.002241  -0.007755  -0.007017   0.023545   0.029925   0.000328
    41  H   -0.004432   0.016801   0.011960   0.002130  -0.078967  -0.001470
    42  H    0.014579  -0.003148   0.060399   0.089170   0.014470   0.000632
              25         26         27         28         29         30
     1  C   -0.004747  -0.031891  -0.285371  -0.032659   0.010016  -0.000516
     2  C    0.132046  -0.338034  -1.505677   0.152283  -0.002871   0.001006
     3  N   -0.000980   0.036612   1.278928  -0.042660  -0.011927  -0.000488
     4  C    0.000701  -0.020966  -0.302260  -0.010399   0.028299  -0.001594
     5  C   -0.000037  -0.001642   0.069940  -0.001937  -0.003547   0.000135
     6  C   -0.018596   1.744211   1.081984  -0.479035   0.005318  -0.000100
     7  C    0.663242  -2.974991  -0.419829  -0.078589   0.000225  -0.000445
     8  C   -1.162566   0.835943   0.051170   0.000410  -0.001268   0.000297
     9  C    0.423051  -0.281652  -0.000082  -0.672037   0.002376  -0.000705
    10  N   -0.010647  -0.065862  -0.038649   0.063980   0.016530  -0.002098
    11  C   -0.274074   0.159372   0.018087   0.544146  -0.045447   0.007695
    12  O    0.000432  -0.001732  -0.001684   0.094500  -0.003825   0.002897
    13  O   -0.000115   0.000211  -0.000708  -0.012938   0.005722  -0.001550
    14  O   -0.000052  -0.000058   0.004974   0.000484   0.268333   0.323392
    15  O   -0.000126   0.000392  -0.000383  -0.006739   0.000775   0.000906
    16  H    0.000179  -0.005241  -0.183890   0.002128   0.001963  -0.000659
    17  H   -0.000047   0.001924  -0.020622   0.000210  -0.000209  -0.000039
    18  H   -0.000049   0.000289   0.021660  -0.000487  -0.003669   0.000720
    19  H   -0.002020   0.015805   0.096629  -0.002817   0.000287  -0.000029
    20  H    0.001011  -0.012525  -0.058960   0.001314   0.000693  -0.000408
    21  H   -0.000414   0.004047  -0.018072  -0.001096  -0.000952   0.000064
    22  H    0.002930  -0.187479  -0.045458   0.006096  -0.000372   0.000097
    23  H   -0.010590   0.022804   0.099149  -0.151408  -0.003177  -0.000390
    24  H   -0.116541  -0.007247   0.003974  -0.243483  -0.000059  -0.000029
    25  H    2.060571  -0.129429  -0.005517   0.014676   0.000015   0.000004
    26  H   -0.129429   3.118472   0.046706   0.000751  -0.000080  -0.000030
    27  C   -0.005517   0.046706   4.825233  -0.013425  -0.002470  -0.000124
    28  H    0.014676   0.000751  -0.013425   1.687857  -0.002365   0.000213
    29  H    0.000015  -0.000080  -0.002470  -0.002365   0.532159  -0.138384
    30  H    0.000004  -0.000030  -0.000124   0.000213  -0.138384   0.564417
    31  H   -0.000214  -0.000169  -0.000407   0.003966   0.000532   0.000364
    32  H   -0.000572   0.000074   0.000510   0.000543  -0.001303   0.000465
    33  H    0.000005   0.000001   0.000097   0.000640   0.001094   0.001000
    34  H    0.000054   0.000136  -0.000630   0.004893  -0.001067  -0.000644
    35  H    0.000098  -0.000084  -0.000905   0.004356  -0.001346   0.001936
    36  H   -0.000035   0.000036   0.000128   0.001527   0.000196   0.001275
    37  O    0.000213  -0.001316  -0.032093  -0.002395   0.070557  -0.009611
    38  H    0.000941  -0.009226  -0.192410   0.016355  -0.030795   0.007664
    39  H   -0.000041   0.000549   0.010758  -0.001894  -0.001994   0.000500
    40  H   -0.000469   0.001977   0.160491  -0.001410  -0.004214   0.000406
    41  H    0.000069   0.001084   0.070284   0.002218   0.000404  -0.000107
    42  H   -0.000637   0.007569   0.303718  -0.000649   0.001903  -0.000162
              31         32         33         34         35         36
[...]
 9,0.00076940,0.00040566,-0.00052171,0.00050248,-0.00024241,0.00049057,
 0.00043914,-0.00027350,0.00331456,-0.00279939,-0.00467557,-0.00071532,
 0.00046395,-0.00041412,-0.00001711,0.00049182,0.00032000,0.00038060,-0
 .00008810,0.00020979,0.00039938,-0.00047425,-0.00050921,0.00004755,-0.
 00006582,0.00002961,-0.00007864,-0.00001597,0.00005291,0.00079528,0.00
 027094,0.00017144,0.00058346,-0.00065258,0.00016691,0.00078214,0.00008
 720,-0.00044133,0.00002516,-0.00003032,0.00000273,-0.00003789,-0.00003
 375,0.00000807,0.00004971,0.00003487,0.00005713,0.00433220,-0.00098914
 ,0.00412695,0.00081180,-0.00052516,-0.00014226,-0.00389326,0.00533658,
 0.00745388,0.00023848,0.00018391,-0.00014967,0.00010442,-0.00041442,0.
 00045869,0.00012634,-0.00004769,0.00013083,-0.00008496,-0.00000051,-0.
 00001256,-0.00077600,-0.00026161,0.00012942,0.00053632,-0.00069720,0.0
 0109219,0.00008405,0.00001144,0.00002132,-0.04993855,0.00915862,-0.076
 61308,0.07892439,-0.01917063,0.09606295,-0.00005059,-0.00001719,0.0000
 5564,0.00012306,-0.00004824,0.00018559,-0.00287427,0.00103488,0.000603
 97,0.00019140,0.00027738,0.00015919,0.00008550,-0.00000940,0.00001710,
 0.00012365,-0.00010688,-0.00001000,0.00005809,0.00010466,0.00002492,-0
 .00015482,-0.00003932,0.00001989,0.00010780,-0.00017518,-0.00012294,-0
 .00022455,0.00010337,0.00004788,0.00006701,0.00020723,0.00019747,-0.00
 033542,0.00012445,-0.00023236,0.00017021,0.00000909,-0.00069033,-0.002
 89363,0.00198774,0.00035755,-0.00019230,-0.00004891,0.00008314,0.00000
 957,-0.00016095,-0.00009612,-0.00000295,0.00000273,0.00002470,-0.00003
 728,0.00001558,0.00002824,0.00000208,0.00000312,0.00000375,-0.00001727
 ,-0.00001375,0.00003130,-0.00002072,-0.00006588,0.00000994,-0.00006417
 ,0.00003474,-0.00002501,0.00001230,0.00005140,-0.00013802,0.00000574,-
 0.00002946,0.00001916,-0.00000060,-0.00000279,0.00000119,-0.00001099,0
 .00002492,-0.00000860,-0.00024856,0.00035004,-0.00085066,0.00031844,-0
 .00015983,0.00000716,0.00464006,-0.00354780,0.00118012,-0.00026638,0.0
 0015253,0.00034282,0.00015148,-0.00021596,0.00035744,0.00015093,0.0001
 1067,0.00006152,-0.00008289,-0.00001139,0.00004136,0.00012607,0.000319
 76,0.00064915,0.00018158,-0.00006381,-0.00012022,0.00002095,-0.0000041
 2,-0.00000648,-0.04324478,0.01557339,0.00508209,0.00509469,-0.00377453
 ,-0.03961228,0.03980701,-0.00003792,-0.00002248,0.00004967,0.00007010,
 0.00015040,-0.00006026,0.00085949,-0.00037773,-0.00022472,-0.00007783,
 0.00031831,-0.00019310,0.00002214,-0.00010055,-0.00007822,0.00029117,0
 .00008118,-0.00014500,0.00006932,0.00012068,-0.00000609,-0.00016815,-0
 .00012656,-0.00007435,0.00004318,-0.00026666,-0.00006889,-0.00003349,-
 0.00004920,-0.00002423,-0.00014500,0.00020255,0.00040834,0.00010301,-0
 .00013735,-0.00014623,0.00010225,-0.00018412,0.00001779,0.00224912,-0.
 00141109,-0.00016773,-0.00000167,-0.00011544,0.00000681,-0.00002835,-0
 .00011222,-0.00002536,-0.00004124,-0.00000578,-0.00001869,-0.00000756,
 0.00000948,0.00008620,-0.00000355,-0.00000196,-0.00001232,-0.00000358,
 -0.00001361,0.00001988,0.00004422,-0.00005878,0.00002512,0.00002939,-0
 .00005148,0.00001178,0.00003160,-0.00021358,0.00015116,-0.00001363,-0.
 00003960,0.00001233,0.00000219,-0.00002551,0.00002256,0.00001843,-0.00
 000714,0.00001782,0.00019758,0.00054638,0.00014274,-0.00016355,0.00007
 186,0.00020636,-0.00338175,0.00188752,-0.00155365,0.00019971,-0.000034
 54,-0.00051529,-0.00008326,0.00007992,0.00004005,0.00004905,0.00008248
 ,0.00005168,0.00000118,0.00002037,-0.00004669,0.00006380,0.00015460,-0
 .00005807,-0.00005148,0.00008358,-0.00007863,0.00000816,0.00001267,0.0
 0000612,0.01364852,-0.00659102,-0.02362108,-0.00212356,0.00011105,0.01
 115746,-0.01186285,0.00653281,-0.00001236,0.00000972,-0.00002749,0.000
 06286,0.00018583,-0.00025740,0.00084714,-0.00017433,0.00074386,-0.0000
 8200,-0.00010153,-0.00017243,0.00008154,-0.00000866,-0.00005000,0.0000
 9707,-0.00013380,-0.00001366,0.00002572,0.00017187,0.00012215,-0.00014
 422,-0.00001661,-0.00003270,0.00009269,-0.00001003,-0.00003664,0.00000
 526,0.00011655,0.00011272,-0.00015066,0.00003249,-0.00027713,-0.000149
 32,0.00001068,0.00006673,-0.00023203,-0.00001059,-0.00010124,-0.000615
 16,-0.00008517,0.00081013,-0.00004055,-0.00003733,0.00009028,-0.000070
 26,-0.00008607,-0.00000083,0.00001054,0.00000817,0.00002463,-0.0000003
 7,0.00002324,-0.00003813,0.00001037,-0.00000091,0.00000750,-0.00001392
 ,-0.00001715,0.00001427,0.00011132,-0.00000967,0.00008107,0.00005672,-
 0.00011463,0.00004569,0.00001242,-0.00003561,0.00001336,0.00000497,0.0
 0000101,0.00001513,-0.00000237,-0.00000742,0.00000891,0.00001024,0.000
 01435,0.00000662,-0.00040643,0.00010622,0.00023948,0.00014670,-0.00002
 047,-0.00008613,0.00058824,0.00006137,-0.00235365,0.00025533,-0.000086
 96,-0.00010940,0.00008757,-0.00000330,0.00000186,0.00003219,0.00000232
 ,-0.00003404,0.00002121,0.00000342,0.00007455,0.00023273,-0.00000284,-
 0.00002414,-0.00001946,0.00004795,-0.00009638,0.00002149,0.00001098,-0
 .00002204,-0.03798281,-0.01289473,-0.54400146,0.00544509,-0.00169671,-
 0.01096677,0.03156901,0.01476261,0.55599405,0.00019226,-0.00066138,0.0
 0054034,-0.00071158,0.00177673,0.00220196,-0.00030112,-0.01441055,0.01
 167565,0.00051871,-0.00019955,-0.00038833,-0.00015143,-0.00024384,-0.0
 0023519,0.00049323,0.00018186,0.00000205,-0.00008482,0.00009177,-0.000
 05370,-0.00001396,-0.00000375,-0.00002283,0.00000624,-0.00005052,-0.00
 001138,-0.00003730,0.00003493,0.00000751,0.00007775,-0.00000901,0.0000
 1296,-0.00003288,0.00004273,-0.00001875,0.00003605,0.00003011,-0.00003
 028,0.00012673,-0.00007627,-0.00015343,-0.00002935,0.00003258,-0.00005
 154,0.00016667,0.00014461,-0.00008508,0.00000380,0.00002971,-0.0000514
 5,-0.00003416,-0.00000888,0.00002509,-0.00000828,0.00005736,0.00019981
 ,0.00006696,0.00003679,0.00013880,-0.00021765,0.00034497,-0.00002352,0
 .00032023,-0.00041260,0.00019783,0.00001436,-0.00001133,0.00002378,0.0
 0000390,-0.00000035,0.00000362,-0.00001061,-0.00000738,0.00000239,-0.0
 0005648,-0.00003561,0.00001897,-0.05205391,0.02753029,-0.02063970,0.00
 005991,-0.00004186,-0.00001261,-0.00021267,0.00016925,0.00019098,0.000
 00191,0.00002281,0.00001390,0.00000585,-0.00002941,0.00003460,0.000002
 15,-0.00000808,0.00001025,-0.00000896,-0.00000058,0.00000304,-0.000046
 72,-0.00001792,0.00001342,0.00001102,-0.00003710,0.00008090,0.00000985
 ,0.00000033,0.00000683,0.00027291,0.00016981,-0.00061778,0.00028112,-0
 .00056791,0.00093646,-0.00049338,-0.00002696,0.00003019,0.05253959,-0.
 00006186,0.00015786,-0.00059244,0.00070814,0.00019827,-0.00146231,-0.0
 0128418,0.00806155,-0.00748011,-0.00026231,0.00121559,-0.00088833,0.00
 001517,0.00029914,0.00021531,0.00005373,0.00017092,-0.00010346,0.00012
 052,-0.00003202,-0.00005213,-0.00003094,0.00005632,0.00004622,0.000029
 87,-0.00002132,-0.00000781,-0.00022250,0.00000441,0.00002076,0.0002417
 4,-0.00005249,-0.00001221,-0.00009653,0.00006890,0.00000498,0.00000379
 ,0.00002817,-0.00004315,0.00003675,-0.00002021,-0.00008488,-0.00003716
 ,0.00003438,-0.00001285,0.00019489,0.00012194,0.00033745,0.00000267,0.
 00000827,0.00001278,-0.00001105,-0.00001581,0.00000821,0.00000301,0.00
 001667,-0.00005315,-0.00001044,0.00007434,-0.00012598,0.00008370,-0.00
 017554,0.00008062,-0.00027385,0.00015848,-0.00027276,-0.00000052,-0.00
 001914,-0.00000333,-0.00000598,0.00000621,0.00000730,0.00000020,0.0000
 0167,0.00000812,-0.00006456,0.00014502,-0.00002007,0.02409666,-0.21693
 366,0.13379062,0.00015602,-0.00008842,-0.00005158,-0.00009446,0.000071
 83,0.00009400,0.00001198,0.00000526,0.00000994,0.00002577,-0.00003727,
 0.00004499,0.00001031,-0.00001127,-0.00000442,-0.00000163,-0.00000021,
 0.00000895,-0.00001024,-0.00001068,0.00001295,0.00001718,-0.00003135,0
 .00005026,0.00000869,0.00000082,-0.00000160,-0.00007730,0.00001575,-0.
 00040695,0.00025349,-0.00009093,0.00053854,-0.00036685,0.00007780,0.00
 004924,-0.02672089,0.22721417,0.00021662,0.00119898,-0.00079311,0.0017
 7095,-0.00346557,-0.00390792,0.00031185,0.02458210,-0.02308588,-0.0004
 7136,0.00180634,0.00079063,0.00017648,0.00017425,0.00009353,-0.0005697
 8,-0.00032247,-0.00011848,0.00019493,-0.00002268,0.00002161,0.00001832
 ,0.00004207,0.00006863,0.00003039,0.00006299,-0.00000430,0.00002907,-0
 .00005178,0.00000224,0.00019525,0.00006743,0.00001285,0.00004891,-0.00
 004125,0.00000170,-0.00001621,-0.00002832,0.00001668,-0.00006191,-0.00
 001005,0.00005852,0.00002892,-0.00004813,0.00002780,0.00017138,-0.0007
 0788,-0.00019649,-0.00000263,-0.00007492,0.00007328,-0.00001968,-0.000
 03406,0.00003989,0.00002114,-0.00007477,-0.00023367,-0.00004838,-0.000
 22821,-0.00040287,-0.00021862,-0.00016023,-0.00013176,0.00003258,-0.00
 023999,0.00017684,-0.00003421,0.00003238,-0.00001685,-0.00000857,0.000
 00267,-0.00000523,0.00001671,0.00001128,0.00000024,-0.00005410,0.00005
 485,-0.00006030,-0.01799579,0.12504632,-0.14656873,-0.00006659,0.00005
 077,0.00002368,0.00008904,-0.00003861,-0.00005800,0.00001828,-0.000002
 92,-0.00000611,-0.00001326,0.00002466,-0.00002542,-0.00000683,0.000010
 48,-0.00000005,0.00000265,0.00000155,-0.00000062,0.00002573,0.00002091
 ,-0.00000198,-0.00000280,0.00003767,-0.00005310,-0.00000882,0.00000724
 ,-0.00000296,0.00017686,-0.00043091,0.00042151,-0.00052611,0.00070011,
 -0.00079322,0.00024094,0.00008677,0.00013776,0.01502814,-0.14079503,0.
 16697264,-0.00013503,0.00016972,-0.00013748,0.00071047,-0.00040186,-0.
 00002668,0.00765709,0.01698565,0.00747848,-0.00104491,-0.00033318,0.00
 250108,0.00078925,0.00065552,0.00068976,-0.00013250,0.00007127,0.00023
 901,0.00016311,-0.00040780,-0.00003010,-0.00006629,0.00000030,0.000052
 30,0.00001703,0.00002244,-0.00000239,-0.00022258,-0.00007244,0.0000118
 8,0.00024797,0.00013323,-0.00007475,-0.00001784,0.00002890,-0.00000805
 ,0.00002252,0.00001546,-0.00001538,0.00007169,-0.00004211,-0.00008249,
 -0.00000981,0.00001406,-0.00002776,-0.00006575,-0.00015527,-0.00009241
 ,-0.00016210,-0.00002727,0.00029571,0.00001391,0.00003703,-0.00012602,
 0.00000088,-0.00000369,0.00001484,0.00002375,0.00001010,0.00000116,0.0
 0041806,0.00033186,0.00040417,-0.00050316,-0.00010292,0.00010989,-0.00
 001056,-0.00001806,0.00002841,-0.00001282,0.00000378,0.00000311,0.0000
 1930,0.00001193,-0.00000900,-0.00007755,0.00018537,-0.00011366,-0.1055
 1575,-0.10090080,-0.04992953,0.00004517,-0.00003983,0.00000226,-0.0001
 1350,0.00008769,0.00011061,0.00000137,0.00001163,0.00000244,0.00000113
 ,-0.00001571,0.00002019,-0.00000310,-0.00000576,0.00000471,-0.00000538
 ,-0.00000031,0.00000039,-0.00002515,-0.00000999,0.00000556,0.00000409,
 -0.00001864,0.00004048,0.00000404,0.00000006,0.00000404,0.00009002,-0.
 00030515,-0.00030745,0.00041362,0.00023156,0.00038830,-0.00011762,0.00
 015164,-0.00003139,0.00135234,0.00427298,0.00192677,0.10818031,0.00003
 859,-0.00013104,-0.00015970,0.00036940,-0.00023601,0.00078913,-0.00089
 860,-0.00623264,-0.00340201,0.00119602,0.00161619,-0.00121859,-0.00053
 858,-0.00026078,-0.00007107,-0.00024163,0.00031496,0.00015787,-0.00011
 870,-0.00011697,0.00008659,-0.00002519,-0.00006154,0.00002528,0.000082
 74,0.00005871,-0.00001917,-0.00004637,-0.00004110,0.00001089,0.0002685
 2,0.00011620,-0.00006053,0.00001478,0.00000770,0.00004056,-0.00000534,
 0.00000341,0.00003810,-0.00002540,0.00006423,0.00011250,0.00007972,0.0
 0001548,0.00003901,-0.00008676,0.00034819,0.00016020,0.00008499,0.0000
 6368,-0.00020745,0.00003641,0.00001194,0.00001016,-0.00000225,0.000011
 95,-0.00001905,0.00002100,0.00007467,-0.00003235,-0.00007278,-0.000022
 83,0.00008507,-0.00001372,0.00017545,0.00000152,-0.00001527,-0.0000144
 0,-0.00002965,0.00000674,0.00000193,-0.00000537,-0.00000308,0.00002616
 ,-0.00002254,-0.00001545,-0.00009790,0.00017739,-0.09625793,-0.2176015
 6,-0.08505759,0.00000874,-0.00000509,-0.00000731,0.00010271,-0.0001142
 6,-0.00012778,-0.00002587,-0.00001211,-0.00001334,-0.00000484,0.000011
 75,-0.00002853,-0.00002497,-0.00002432,-0.00002293,0.00000348,-0.00000
 224,-0.00000808,-0.00000290,-0.00001305,-0.00002076,-0.00003527,0.0000
 1358,-0.00005196,-0.00002929,-0.00000259,0.00000220,0.00037557,0.00032
 617,0.00052719,-0.00087281,-0.00023912,-0.00072410,0.00028373,-0.00038
 460,-0.00003497,-0.01137573,-0.01709322,-0.01059576,0.10412671,0.23374
 479,-0.00005078,-0.00030421,0.00018338,-0.00088023,-0.00122362,0.00082
 401,-0.01156447,-0.02862780,-0.01624358,0.00312456,0.00216555,-0.00432
 803,-0.00067102,-0.00166736,-0.00069158,-0.00000416,0.00030639,-0.0003
 8720,0.00029329,0.00017017,-0.00024589,0.00004389,0.00015294,0.0001098
 3,-0.00003921,0.00006738,0.00001272,-0.00037975,-0.00009133,-0.0000041
 5,0.00055533,-0.00005223,-0.00005989,-0.00015079,0.00013407,0.00005963
 ,-0.00000344,0.00004764,-0.00002777,0.00005214,0.00002256,-0.00000509,
 0.00005942,0.00008878,0.00002991,0.00012893,-0.00028169,0.00012874,0.0
 0031272,0.00008809,-0.00052199,0.00006420,0.00000234,-0.00007456,0.000
 00092,0.00005775,0.00003763,0.00002918,0.00011002,0.00000667,-0.000011
 87,0.00023886,0.00003079,-0.00021673,0.00027204,-0.00014308,-0.0000454
 2,-0.00005339,-0.00003098,-0.00001099,0.00001000,0.00001053,-0.0000003
 0,-0.00000216,0.00001336,-0.00011458,0.00021291,-0.00005924,-0.0453942
 4,-0.07915841,-0.08814975,0.00028279,-0.00015524,-0.00010597,-0.000030
 26,-0.00001037,0.00000991,-0.00001271,0.00000016,-0.00000984,0.0000348
 9,-0.00004772,0.00004775,-0.00001427,-0.00005574,-0.00003874,0.0000006
 6,0.00000024,0.00000324,-0.00002468,-0.00002888,0.,-0.00002759,-0.0000
 3140,0.00001661,-0.00003356,-0.00000365,0.00000185,0.00049571,0.000043
 11,0.00018453,-0.00085818,-0.00003700,-0.00038109,0.00001155,-0.000038
 31,0.00008015,0.00957084,0.01518416,0.00940788,0.04796407,0.09591765,0
 .10172241,0.00030722,-0.00005497,-0.00019516,0.00092635,0.00153199,-0.
 00194909,-0.01913400,0.00545142,0.01062074,0.00139162,-0.00161851,-0.0
 0089169,0.00043149,0.00003372,-0.00017311,0.00029906,-0.00024916,-0.00
 023895,-0.00028674,0.00026330,0.00006742,-0.00002763,-0.00005695,-0.00
 003174,0.00004714,-0.00005192,-0.00004985,0.00007899,0.00002495,0.0000
 3564,0.00002005,0.00017119,-0.00001142,-0.00005979,-0.00001280,0.00003
 213,-0.00007031,-0.00002240,0.00000176,-0.00019167,0.00009994,0.000132
 66,-0.00003551,-0.00002592,0.00008006,-0.00005430,0.00012260,-0.000045
 83,0.00001082,-0.00003358,0.00014517,0.00010647,-0.00001157,-0.0002302
 3,0.00002939,0.00000460,0.00009307,0.00005479,-0.00009335,-0.00004681,
 0.00037807,0.00136021,0.00091762,0.00013459,-0.00146447,0.00121645,0.0
 0007633,0.00002527,-0.00008550,0.00001392,-0.00000072,-0.00000435,-0.0
 0002435,-0.00000048,-0.00001127,-0.00002097,-0.00011957,0.00006101,-0.
 28275240,0.04440570,-0.03712666,0.00006154,-0.00001279,-0.00001766,0.0
 0027568,-0.00018749,-0.00019555,0.00001261,-0.00003768,-0.00000308,0.0
 0002490,0.00001101,-0.00001003,0.00002685,0.00001438,-0.00001534,0.000
 01791,0.00000207,0.00000538,0.00007719,0.00002364,-0.00000330,0.000026
 45,0.00001790,-0.00007241,0.00000062,0.00000081,-0.00002212,-0.0012692
 8,0.00044387,-0.00081991,0.00233704,-0.00075606,0.00146112,-0.00011446
 ,0.00000015,0.00009472,-0.00205828,-0.00071399,-0.00064625,-0.01200571
 ,0.00363889,-0.00248585,0.31093829,-0.00004640,-0.00006340,0.00012775,
 -0.00256808,0.00101174,0.00027497,0.00983759,-0.00255499,-0.00328219,0
 .00291324,0.00141297,0.00123875,-0.00021125,-0.00002625,-0.00025368,-0
 .00005949,-0.00022238,-0.00008340,-0.00014256,0.00013932,-0.00000949,0
 .00011216,-0.00000866,0.00001072,0.00001371,0.00005619,0.00002781,0.00
 000381,-0.00004281,-0.00006285,0.00015117,-0.00000531,0.00007064,0.000
 02329,-0.00000099,-0.00000443,0.00002051,0.00000798,0.00000429,0.00005
 790,-0.00003319,-0.00004719,0.00000780,0.00000238,-0.00002350,-0.00006
 535,-0.00007528,0.00006183,-0.00001729,0.00000587,-0.00009078,-0.00016
 285,-0.00009077,0.00010450,0.00002983,0.00000316,-0.00001801,-0.000006
 36,-0.00003866,-0.00003058,-0.00078383,-0.00004072,-0.00005945,0.00032
 216,0.00016525,-0.00030241,-0.00000819,0.00000174,0.00001294,0.0000037
 6,-0.00000183,-0.00000341,-0.00000783,0.00000961,-0.00001261,-0.000004
 44,-0.00004245,-0.00001643,0.04364947,-0.05823023,0.00731922,-0.000022
 09,0.00001512,0.00000165,-0.00008244,0.00006043,0.00006817,-0.00000415
 ,0.00001182,0.00000587,-0.00000759,-0.00000187,-0.00000306,-0.00000806
 ,-0.00000395,0.00000372,-0.00000493,-0.00000077,-0.00000138,-0.0000241
 0,-0.00000885,-0.00000122,-0.00000612,-0.00000372,0.00002229,0.0000012
 8,0.00000222,0.00000531,0.00046842,0.00002272,0.00027571,-0.00076583,0
 .00012097,-0.00052636,-0.00004632,-0.00021264,-0.00002855,0.02426081,-
 0.00358021,0.00335172,-0.02469811,0.00570024,-0.00342231,-0.05212324,0
 .05654021,-0.00023147,-0.00010997,0.00037684,0.00332859,-0.00439700,0.
 00292426,0.03685496,-0.00837021,-0.00776476,0.00325182,0.00274632,0.00
 214966,-0.00023274,-0.00002308,-0.00000948,-0.00049715,0.00045608,0.00
 000006,-0.00003049,-0.00008057,0.00001530,0.00012956,0.00005151,0.0000
 3649,-0.00002816,0.00013479,0.00003972,-0.00012855,-0.00007779,-0.0000
 2534,0.00013367,-0.00006914,-0.00009614,-0.00000374,0.00000620,0.00002
 176,-0.00000959,-0.00000295,0.00001860,-0.00001454,0.00001458,0.000050
 31,0.00002500,-0.00000100,0.00000777,-0.00034817,-0.00017275,-0.000223
 96,-0.00014371,0.00004517,-0.00007571,-0.00018934,0.00001986,0.0000384
 8,-0.00003106,0.00000812,-0.00005202,-0.00001167,0.00002779,0.00007120
 ,-0.00160046,0.00026235,0.00028903,-0.00157125,0.00077123,0.00045652,-
 0.00006498,-0.00000960,0.00003014,-0.00000208,0.00000294,0.00000579,0.
 00000157,0.00000749,-0.00000011,-0.00002991,0.00001891,0.00000690,-0.0
 3922208,0.00784405,-0.05447623,0.00001204,-0.00001894,-0.00001503,0.00
 005098,-0.00003642,-0.00005604,-0.00000290,-0.00000393,-0.00001271,-0.
 00000133,0.00000628,-0.00001319,-0.00000959,-0.00000805,-0.00000987,0.
 00000507,0.00000002,-0.00000440,0.00000478,-0.00000042,-0.00000946,-0.
 00001982,0.00001361,-0.00002205,-0.00000010,-0.00000054,-0.00000175,0.
 00081400,-0.00021413,0.00104716,-0.00124475,0.00028164,-0.00188798,0.0
 0049930,-0.00012632,0.00001072,-0.01857478,0.00194913,-0.00188084,-0.0
 1128509,0.00375928,-0.00141311,0.03041819,-0.00470455,0.06045346\\-0.0
 0000135,0.00000173,0.00000044,0.00000198,-0.00001111,0.00000577,-0.000
 00322,0.00000826,-0.00001995,-0.00000209,0.00000677,0.00000709,0.00000
 535,0.00000585,0.00000160,-0.00000508,0.00000343,0.00000856,0.00000168
 ,-0.00000076,-0.00000126,-0.00000030,0.00000050,-0.00000281,-0.0000012
 4,0.00000055,-0.00000206,-0.00000431,-0.00000391,0.00001080,0.00000573
 ,-0.00000007,-0.00000214,0.00000083,0.00000143,0.00000395,-0.00000261,
 -0.00000287,0.00002159,-0.00000146,0.00000648,-0.00001442,0.00000300,-
 0.00000120,-0.00000108,-0.00000136,-0.00000207,-0.00000012,0.00000182,
 -0.00000097,-0.00000141,-0.00000155,-0.00000117,0.00000083,-0.00000110
 ,-0.00000193,0.00000106,-0.00000363,-0.00000360,-0.00000250,-0.0000002
 3,-0.00000166,0.00000244,0.00000126,0.00000430,-0.00000027,-0.00000335
 ,-0.00000228,0.00000210,-0.00000068,0.00000148,-0.00000019,0.00000195,
 -0.00000046,0.00000112,0.00000006,-0.00000026,0.00000017,0.00000606,-0
 .00000114,-0.00000117,0.00001400,-0.00000619,-0.00000973,-0.00000229,-
 0.00000486,0.00000684,-0.00000135,-0.00000259,0.00000358,-0.00001145,-
 0.00000419,-0.00001537,0.00000020,0.00001604,-0.00000690,0.00000415,0.
 00000443,-0.00000917,0.00000381,-0.00000758,0.00000222,0.00000310,-0.0
 0000031,0.00000308,-0.00000277,-0.00000307,-0.00000012,0.00000030,-0.0
 0000086,-0.00000610,-0.00000355,0.00000355,0.00000571,-0.00000029,-0.0
 0000015,0.00000438,0.00000091,0.00000094,0.00000202,0.00000011,0.00000
 032,0.00000056,-0.00000106,-0.00000082,0.00000087\\\@


 DO NOT LET SELFISH MEN OR GREEDY INTERESTS SKIN YOUR COUNTRY OF ITS
 BEAUTY, ITS RICHES, OR ITS ROMANCE. -- THEODORE ROOSEVELT
 Job cpu time:       1 days 20 hours 21 minutes 48.1 seconds.
 Elapsed time:       0 days  1 hours 35 minutes  9.0 seconds.
 File lengths (MBytes):  RWF=   1444 Int=      0 D2E=      0 Chk=     36 Scr=      8
 Normal termination of Gaussian 16 at Sat Sep  5 06:42:23 2020.
