 Entering Gaussian System, Link 0=g16
 Input=NicPy5h4pCCW.gjf
 Output=NicPy5h4pCCW.log
 Initial command:
 /sw/contrib/gaussian/g16/A03/g16/l1.exe "/gscratch/scrubbed/gds001/Gau-7844.inp" -scrdir="/gscratch/scrubbed/gds001/"
 Entering Link 1 = /sw/contrib/gaussian/g16/A03/g16/l1.exe PID=      7845.
  
 Copyright (c) 1988,1990,1992,1993,1995,1998,2003,2009,2016,
            Gaussian, Inc.  All Rights Reserved.
  
 This is part of the Gaussian(R) 16 program.  It is based on
 the Gaussian(R) 09 system (copyright 2009, Gaussian, Inc.),
 the Gaussian(R) 03 system (copyright 2003, Gaussian, Inc.),
 the Gaussian(R) 98 system (copyright 1998, Gaussian, Inc.),
 the Gaussian(R) 94 system (copyright 1995, Gaussian, Inc.),
 the Gaussian 92(TM) system (copyright 1992, Gaussian, Inc.),
 the Gaussian 90(TM) system (copyright 1990, Gaussian, Inc.),
 the Gaussian 88(TM) system (copyright 1988, Gaussian, Inc.),
 the Gaussian 86(TM) system (copyright 1986, Carnegie Mellon
 University), and the Gaussian 82(TM) system (copyright 1983,
 Carnegie Mellon University). Gaussian is a federally registered
 trademark of Gaussian, Inc.
  
 This software contains proprietary and confidential information,
 including trade secrets, belonging to Gaussian, Inc.
  
 This software is provided under written license and may be
 used, copied, transmitted, or stored only in accord with that
 written license.
  
 The following legend is applicable only to US Government
 contracts under FAR:
  
                    RESTRICTED RIGHTS LEGEND
  
 Use, reproduction and disclosure by the US Government is
 subject to restrictions as set forth in subparagraphs (a)
 and (c) of the Commercial Computer Software - Restricted
 Rights clause in FAR 52.227-19.
  
 Gaussian, Inc.
 340 Quinnipiac St., Bldg. 40, Wallingford CT 06492
  
  
 ---------------------------------------------------------------
 Warning -- This program may not be used in any manner that
 competes with the business of Gaussian, Inc. or will provide
 assistance to any competitor of Gaussian, Inc.  The licensee
 of this program is prohibited from giving any competitor of
 Gaussian, Inc. access to this program.  By using this program,
 the user acknowledges that Gaussian, Inc. is engaged in the
 business of creating and licensing software in the field of
 computational chemistry and represents and warrants to the
 licensee that it is not a competitor of Gaussian, Inc. and that
 it will not use this program in any manner prohibited above.
 ---------------------------------------------------------------
  

 Cite this work as:
 Gaussian 16, Revision A.03,
 M. J. Frisch, G. W. Trucks, H. B. Schlegel, G. E. Scuseria, 
 M. A. Robb, J. R. Cheeseman, G. Scalmani, V. Barone, 
 G. A. Petersson, H. Nakatsuji, X. Li, M. Caricato, A. V. Marenich, 
 J. Bloino, B. G. Janesko, R. Gomperts, B. Mennucci, H. P. Hratchian, 
 J. V. Ortiz, A. F. Izmaylov, J. L. Sonnenberg, D. Williams-Young, 
 F. Ding, F. Lipparini, F. Egidi, J. Goings, B. Peng, A. Petrone, 
 T. Henderson, D. Ranasinghe, V. G. Zakrzewski, J. Gao, N. Rega, 
 G. Zheng, W. Liang, M. Hada, M. Ehara, K. Toyota, R. Fukuda, 
 J. Hasegawa, M. Ishida, T. Nakajima, Y. Honda, O. Kitao, H. Nakai, 
 T. Vreven, K. Throssell, J. A. Montgomery, Jr., J. E. Peralta, 
 F. Ogliaro, M. J. Bearpark, J. J. Heyd, E. N. Brothers, K. N. Kudin, 
 V. N. Staroverov, T. A. Keith, R. Kobayashi, J. Normand, 
 K. Raghavachari, A. P. Rendell, J. C. Burant, S. S. Iyengar, 
 J. Tomasi, M. Cossi, J. M. Millam, M. Klene, C. Adamo, R. Cammi, 
 J. W. Ochterski, R. L. Martin, K. Morokuma, O. Farkas, 
 J. B. Foresman, and D. J. Fox, Gaussian, Inc., Wallingford CT, 2016.
 
 ******************************************
 Gaussian 16:  ES64L-G16RevA.03 25-Dec-2016
                12-Dec-2022 
 ******************************************
 %nprocshared=28
 Will use up to   28 processors via shared memory.
 %mem=41GB
 -----------------------------
 # wB97XD/aug-cc-pVDZ opt freq
 -----------------------------
 1/18=20,19=15,26=3,38=1/1,3;
 2/9=110,12=2,17=6,18=5,40=1/2;
 3/5=16,7=10,11=2,25=1,30=1,71=1,74=-58/1,2,3;
 4//1;
 5/5=2,38=5/2;
 6/7=2,8=2,9=2,10=2,28=1/1;
 7//1,2,3,16;
 1/18=20,19=15,26=3/3(2);
 2/9=110/2;
 99//99;
 2/9=110/2;
 3/5=16,7=10,11=2,25=1,30=1,71=1,74=-58/1,2,3;
 4/5=5,16=3,69=1/1;
 5/5=2,38=5/2;
 7//1,2,3,16;
 1/18=20,19=15,26=3/3(-5);
 2/9=110/2;
 6/7=2,8=2,9=2,10=2,19=2,28=1/1;
 99/9=1/99;
 ----
 blah
 ----
 Symbolic Z-matrix:
 Charge =  1 Multiplicity = 1
 C                     2.56893   0.02967  -1.66082 
 C                     1.99881   0.86654  -0.48948 
 N                     2.22913   0.03588   0.7119 
 C                     3.51711  -0.62683   0.45862 
 C                     3.38512  -1.09451  -0.98663 
 C                     0.54536   1.26502  -0.60415 
 C                     0.10471   2.56193  -0.33447 
 C                    -1.25171   2.88251  -0.39295 
 C                    -2.15677   1.89088  -0.72371 
 N                    -1.71182   0.65805  -1. 
 C                    -0.41808   0.32608  -0.94581 
 O                    -3.19178  -1.85599  -1.0948 
 O                    -3.89743  -0.86897   1.39489 
 O                     0.42281  -1.92379   1.29578 
 O                    -1.11734  -3.38353  -0.33249 
 H                     3.67302  -1.44056   1.17772 
 H                     4.35822  -1.25247  -1.46139 
 H                     2.83525  -2.04293  -1.02427 
 H                     3.19615   0.66531  -2.29433 
 H                     1.77933  -0.37528  -2.30238 
 H                     4.34985   0.09153   0.5701 
 H                     2.59092   1.79483  -0.39205 
 H                    -0.19676  -0.71448  -1.18064 
 H                    -3.23246   2.03908  -0.77009 
 H                    -1.60463   3.88807  -0.17758 
 H                     0.82989   3.33185  -0.06891 
 C                     2.20287   0.80797   1.95057 
 H                    -2.3972   -0.14103  -1.21284 
 H                     1.08754  -1.22259   1.05974 
 H                    -0.17849  -1.36295   1.84754 
 H                    -2.42709  -2.41753  -0.79464 
 H                    -3.45638  -2.36211  -1.88418 
 H                    -4.75501  -1.30405   1.5307 
 H                    -3.68324  -1.15436   0.47592 
 H                    -0.54537  -2.82682   0.26063 
 H                    -0.72183  -4.25286  -0.14417 
 O                    -1.41148  -0.14848   2.26298 
 H                    -2.35613  -0.42033   2.16683 
 H                    -1.37364   0.52188   1.55125 
 H                     2.41742   0.14665   2.79864 
 H                     1.20586   1.24157   2.09722 
 H                     2.95209   1.61895   1.94422 
 
 Add virtual bond connecting atoms H35        and O14        Dist= 3.18D+00.
 Add virtual bond connecting atoms H31        and O15        Dist= 3.20D+00.
 Add virtual bond connecting atoms H29        and N3         Dist= 3.28D+00.
 Add virtual bond connecting atoms O37        and H30        Dist= 3.36D+00.
 Add virtual bond connecting atoms O12        and H34        Dist= 3.38D+00.
 Add virtual bond connecting atoms H38        and O13        Dist= 3.37D+00.

 GradGradGradGradGradGradGradGradGradGradGradGradGradGradGradGradGradGrad
 Berny optimization.
 Initialization pass.
                           ----------------------------
                           !    Initial Parameters    !
                           ! (Angstroms and Degrees)  !
 --------------------------                            --------------------------
 ! Name  Definition              Value          Derivative Info.                !
 --------------------------------------------------------------------------------
 ! R1    R(1,2)                  1.5484         estimate D2E/DX2                !
 ! R2    R(1,5)                  1.5442         estimate D2E/DX2                !
 ! R3    R(1,19)                 1.0949         estimate D2E/DX2                !
 ! R4    R(1,20)                 1.095          estimate D2E/DX2                !
 ! R5    R(2,3)                  1.4786         estimate D2E/DX2                !
 ! R6    R(2,6)                  1.5114         estimate D2E/DX2                !
 ! R7    R(2,22)                 1.1054         estimate D2E/DX2                !
 ! R8    R(3,4)                  1.4704         estimate D2E/DX2                !
 ! R9    R(3,27)                 1.4598         estimate D2E/DX2                !
 ! R10   R(3,29)                 1.7344         estimate D2E/DX2                !
 ! R11   R(4,5)                  1.5248         estimate D2E/DX2                !
 ! R12   R(4,16)                 1.0971         estimate D2E/DX2                !
 ! R13   R(4,21)                 1.1054         estimate D2E/DX2                !
 ! R14   R(5,17)                 1.0942         estimate D2E/DX2                !
 ! R15   R(5,18)                 1.0969         estimate D2E/DX2                !
 ! R16   R(6,7)                  1.396          estimate D2E/DX2                !
 ! R17   R(6,11)                 1.388          estimate D2E/DX2                !
 ! R18   R(7,8)                  1.395          estimate D2E/DX2                !
 ! R19   R(7,26)                 1.0905         estimate D2E/DX2                !
 ! R20   R(8,9)                  1.3827         estimate D2E/DX2                !
 ! R21   R(8,25)                 1.0872         estimate D2E/DX2                !
 ! R22   R(9,10)                 1.3395         estimate D2E/DX2                !
 ! R23   R(9,24)                 1.0868         estimate D2E/DX2                !
 ! R24   R(10,11)                1.3367         estimate D2E/DX2                !
 ! R25   R(10,28)                1.074          estimate D2E/DX2                !
 ! R26   R(11,23)                1.0894         estimate D2E/DX2                !
 ! R27   R(12,31)                0.9951         estimate D2E/DX2                !
 ! R28   R(12,32)                0.9743         estimate D2E/DX2                !
 ! R29   R(12,34)                1.7891         estimate D2E/DX2                !
 ! R30   R(13,33)                0.9712         estimate D2E/DX2                !
 ! R31   R(13,34)                0.9858         estimate D2E/DX2                !
 ! R32   R(13,38)                1.7812         estimate D2E/DX2                !
 ! R33   R(14,29)                0.9946         estimate D2E/DX2                !
 ! R34   R(14,30)                0.9902         estimate D2E/DX2                !
 ! R35   R(14,35)                1.6806         estimate D2E/DX2                !
 ! R36   R(15,31)                1.6918         estimate D2E/DX2                !
 ! R37   R(15,35)                0.9944         estimate D2E/DX2                !
 ! R38   R(15,36)                0.9735         estimate D2E/DX2                !
 ! R39   R(27,40)                1.0966         estimate D2E/DX2                !
 ! R40   R(27,41)                1.0971         estimate D2E/DX2                !
 ! R41   R(27,42)                1.1041         estimate D2E/DX2                !
 ! R42   R(30,37)                1.7798         estimate D2E/DX2                !
 ! R43   R(37,38)                0.9877         estimate D2E/DX2                !
 ! R44   R(37,39)                0.9785         estimate D2E/DX2                !
 ! A1    A(2,1,5)              104.9404         estimate D2E/DX2                !
 ! A2    A(2,1,19)             109.5646         estimate D2E/DX2                !
 ! A3    A(2,1,20)             112.1853         estimate D2E/DX2                !
 ! A4    A(5,1,19)             111.8681         estimate D2E/DX2                !
 ! A5    A(5,1,20)             111.5745         estimate D2E/DX2                !
 ! A6    A(19,1,20)            106.7848         estimate D2E/DX2                !
 ! A7    A(1,2,3)              104.6946         estimate D2E/DX2                !
 ! A8    A(1,2,6)              116.0518         estimate D2E/DX2                !
 ! A9    A(1,2,22)             108.8658         estimate D2E/DX2                !
 ! A10   A(3,2,6)              111.0717         estimate D2E/DX2                !
 ! A11   A(3,2,22)             108.4653         estimate D2E/DX2                !
 ! A12   A(6,2,22)             107.4815         estimate D2E/DX2                !
 ! A13   A(2,3,4)              104.4581         estimate D2E/DX2                !
 ! A14   A(2,3,27)             112.9222         estimate D2E/DX2                !
 ! A15   A(2,3,29)             117.9084         estimate D2E/DX2                !
 ! A16   A(4,3,27)             113.595          estimate D2E/DX2                !
 ! A17   A(4,3,29)             106.5032         estimate D2E/DX2                !
 ! A18   A(27,3,29)            101.6394         estimate D2E/DX2                !
 ! A19   A(3,4,5)              103.0428         estimate D2E/DX2                !
 ! A20   A(3,4,16)             110.2346         estimate D2E/DX2                !
 ! A21   A(3,4,21)             110.4628         estimate D2E/DX2                !
 ! A22   A(5,4,16)             113.9594         estimate D2E/DX2                !
 ! A23   A(5,4,21)             111.1082         estimate D2E/DX2                !
 ! A24   A(16,4,21)            107.99           estimate D2E/DX2                !
 ! A25   A(1,5,4)              103.6675         estimate D2E/DX2                !
 ! A26   A(1,5,17)             112.6887         estimate D2E/DX2                !
 ! A27   A(1,5,18)             110.4571         estimate D2E/DX2                !
 ! A28   A(4,5,17)             112.2447         estimate D2E/DX2                !
 ! A29   A(4,5,18)             109.9444         estimate D2E/DX2                !
 ! A30   A(17,5,18)            107.8242         estimate D2E/DX2                !
 ! A31   A(2,6,7)              122.2631         estimate D2E/DX2                !
 ! A32   A(2,6,11)             120.5185         estimate D2E/DX2                !
 ! A33   A(7,6,11)             117.1869         estimate D2E/DX2                !
 ! A34   A(6,7,8)              120.8175         estimate D2E/DX2                !
 ! A35   A(6,7,26)             119.5403         estimate D2E/DX2                !
 ! A36   A(8,7,26)             119.6412         estimate D2E/DX2                !
 ! A37   A(7,8,9)              118.7947         estimate D2E/DX2                !
 ! A38   A(7,8,25)             121.3228         estimate D2E/DX2                !
 ! A39   A(9,8,25)             119.881          estimate D2E/DX2                !
 ! A40   A(8,9,10)             119.4706         estimate D2E/DX2                !
 ! A41   A(8,9,24)             124.0738         estimate D2E/DX2                !
 ! A42   A(10,9,24)            116.4538         estimate D2E/DX2                !
 ! A43   A(9,10,11)            122.7998         estimate D2E/DX2                !
 ! A44   A(9,10,28)            120.9076         estimate D2E/DX2                !
 ! A45   A(11,10,28)           116.1591         estimate D2E/DX2                !
 ! A46   A(6,11,10)            120.915          estimate D2E/DX2                !
 ! A47   A(6,11,23)            123.9284         estimate D2E/DX2                !
 ! A48   A(10,11,23)           115.1557         estimate D2E/DX2                !
 ! A49   A(31,12,32)            99.2031         estimate D2E/DX2                !
 ! A50   A(31,12,34)            99.6472         estimate D2E/DX2                !
 ! A51   A(32,12,34)           147.1818         estimate D2E/DX2                !
 ! A52   A(33,13,34)           101.0995         estimate D2E/DX2                !
 ! A53   A(33,13,38)           144.7182         estimate D2E/DX2                !
 ! A54   A(34,13,38)           106.7925         estimate D2E/DX2                !
 ! A55   A(29,14,30)            97.9764         estimate D2E/DX2                !
 ! A56   A(29,14,35)           128.1458         estimate D2E/DX2                !
 ! A57   A(30,14,35)           107.3204         estimate D2E/DX2                !
 ! A58   A(31,15,35)           106.7721         estimate D2E/DX2                !
 ! A59   A(31,15,36)           151.3184         estimate D2E/DX2                !
 ! A60   A(35,15,36)            98.6771         estimate D2E/DX2                !
 ! A61   A(3,27,40)            109.4945         estimate D2E/DX2                !
 ! A62   A(3,27,41)            109.8043         estimate D2E/DX2                !
 ! A63   A(3,27,42)            111.8013         estimate D2E/DX2                !
 ! A64   A(40,27,41)           108.2264         estimate D2E/DX2                !
 ! A65   A(40,27,42)           108.3386         estimate D2E/DX2                !
 ! A66   A(41,27,42)           109.0959         estimate D2E/DX2                !
 ! A67   A(14,30,37)           159.5865         estimate D2E/DX2                !
 ! A68   A(30,37,38)           116.8746         estimate D2E/DX2                !
 ! A69   A(30,37,39)           105.7182         estimate D2E/DX2                !
 ! A70   A(38,37,39)            98.9027         estimate D2E/DX2                !
 ! A71   A(13,38,37)           159.9035         estimate D2E/DX2                !
 ! A72   L(3,29,14,8,-1)       179.3227         estimate D2E/DX2                !
 ! A73   L(12,31,15,2,-1)      180.0576         estimate D2E/DX2                !
 ! A74   L(12,34,13,2,-1)      179.3544         estimate D2E/DX2                !
 ! A75   L(14,35,15,9,-1)      181.4624         estimate D2E/DX2                !
 ! A76   L(3,29,14,8,-2)       182.5446         estimate D2E/DX2                !
 ! A77   L(12,31,15,2,-2)      181.7866         estimate D2E/DX2                !
 ! A78   L(12,34,13,2,-2)      187.6615         estimate D2E/DX2                !
 ! A79   L(14,35,15,9,-2)      180.8997         estimate D2E/DX2                !
 ! D1    D(5,1,2,3)            -12.7786         estimate D2E/DX2                !
 ! D2    D(5,1,2,6)           -135.5936         estimate D2E/DX2                !
 ! D3    D(5,1,2,22)           103.0474         estimate D2E/DX2                !
 ! D4    D(19,1,2,3)          -133.0406         estimate D2E/DX2                !
 ! D5    D(19,1,2,6)           104.1444         estimate D2E/DX2                !
 ! D6    D(19,1,2,22)          -17.2146         estimate D2E/DX2                !
 ! D7    D(20,1,2,3)           108.5414         estimate D2E/DX2                !
 ! D8    D(20,1,2,6)           -14.2736         estimate D2E/DX2                !
 ! D9    D(20,1,2,22)         -135.6326         estimate D2E/DX2                !
 ! D10   D(2,1,5,4)            -13.7627         estimate D2E/DX2                !
 ! D11   D(2,1,5,17)          -135.3595         estimate D2E/DX2                !
 ! D12   D(2,1,5,18)           103.9726         estimate D2E/DX2                !
 ! D13   D(19,1,5,4)           104.9589         estimate D2E/DX2                !
 ! D14   D(19,1,5,17)          -16.6379         estimate D2E/DX2                !
 ! D15   D(19,1,5,18)         -137.3058         estimate D2E/DX2                !
 ! D16   D(20,1,5,4)          -135.4827         estimate D2E/DX2                !
 ! D17   D(20,1,5,17)          102.9205         estimate D2E/DX2                !
 ! D18   D(20,1,5,18)          -17.7473         estimate D2E/DX2                !
 ! D19   D(1,2,3,4)             35.7946         estimate D2E/DX2                !
 ! D20   D(1,2,3,27)           159.7005         estimate D2E/DX2                !
 ! D21   D(1,2,3,29)           -82.1446         estimate D2E/DX2                !
 ! D22   D(6,2,3,4)            161.7824         estimate D2E/DX2                !
 ! D23   D(6,2,3,27)           -74.3117         estimate D2E/DX2                !
 ! D24   D(6,2,3,29)            43.8432         estimate D2E/DX2                !
 ! D25   D(22,2,3,4)           -80.3093         estimate D2E/DX2                !
 ! D26   D(22,2,3,27)           43.5967         estimate D2E/DX2                !
 ! D27   D(22,2,3,29)          161.7515         estimate D2E/DX2                !
 ! D28   D(1,2,6,7)           -134.2432         estimate D2E/DX2                !
 ! D29   D(1,2,6,11)            47.8586         estimate D2E/DX2                !
 ! D30   D(3,2,6,7)            106.3542         estimate D2E/DX2                !
 ! D31   D(3,2,6,11)           -71.544          estimate D2E/DX2                !
 ! D32   D(22,2,6,7)           -12.1492         estimate D2E/DX2                !
 ! D33   D(22,2,6,11)          169.9526         estimate D2E/DX2                !
 ! D34   D(2,3,4,5)            -44.9489         estimate D2E/DX2                !
 ! D35   D(2,3,4,16)          -166.9309         estimate D2E/DX2                !
 ! D36   D(2,3,4,21)            73.8021         estimate D2E/DX2                !
 ! D37   D(27,3,4,5)          -168.421          estimate D2E/DX2                !
 ! D38   D(27,3,4,16)           69.597          estimate D2E/DX2                !
 ! D39   D(27,3,4,21)          -49.67           estimate D2E/DX2                !
 ! D40   D(29,3,4,5)            80.5387         estimate D2E/DX2                !
 ! D41   D(29,3,4,16)          -41.4432         estimate D2E/DX2                !
 ! D42   D(29,3,4,21)         -160.7103         estimate D2E/DX2                !
 ! D43   D(2,3,14,30)          -89.0617         estimate D2E/DX2                !
 ! D44   D(2,3,14,35)           29.8194         estimate D2E/DX2                !
 ! D45   D(4,3,14,30)          153.4399         estimate D2E/DX2                !
 ! D46   D(4,3,14,35)          -87.6791         estimate D2E/DX2                !
 ! D47   D(27,3,14,30)          34.4757         estimate D2E/DX2                !
 ! D48   D(27,3,14,35)         153.3567         estimate D2E/DX2                !
 ! D49   D(2,3,27,40)         -177.8271         estimate D2E/DX2                !
 ! D50   D(2,3,27,41)           63.4789         estimate D2E/DX2                !
 ! D51   D(2,3,27,42)          -57.7557         estimate D2E/DX2                !
 ! D52   D(4,3,27,40)          -59.1083         estimate D2E/DX2                !
 ! D53   D(4,3,27,41)         -177.8023         estimate D2E/DX2                !
 ! D54   D(4,3,27,42)           60.9631         estimate D2E/DX2                !
 ! D55   D(29,3,27,40)          54.8746         estimate D2E/DX2                !
 ! D56   D(29,3,27,41)         -63.8194         estimate D2E/DX2                !
 ! D57   D(29,3,27,42)         174.946          estimate D2E/DX2                !
 ! D58   D(3,4,5,1)             35.6514         estimate D2E/DX2                !
 ! D59   D(3,4,5,17)           157.5449         estimate D2E/DX2                !
 ! D60   D(3,4,5,18)           -82.4401         estimate D2E/DX2                !
 ! D61   D(16,4,5,1)           155.0867         estimate D2E/DX2                !
 ! D62   D(16,4,5,17)          -83.0197         estimate D2E/DX2                !
 ! D63   D(16,4,5,18)           36.9953         estimate D2E/DX2                !
 ! D64   D(21,4,5,1)           -82.649          estimate D2E/DX2                !
 ! D65   D(21,4,5,17)           39.2446         estimate D2E/DX2                !
 ! D66   D(21,4,5,18)          159.2596         estimate D2E/DX2                !
 ! D67   D(2,6,7,8)           -177.1671         estimate D2E/DX2                !
 ! D68   D(2,6,7,26)             2.4551         estimate D2E/DX2                !
 ! D69   D(11,6,7,8)             0.7975         estimate D2E/DX2                !
 ! D70   D(11,6,7,26)         -179.5804         estimate D2E/DX2                !
 ! D71   D(2,6,11,10)          177.4426         estimate D2E/DX2                !
 ! D72   D(2,6,11,23)           -2.2036         estimate D2E/DX2                !
 ! D73   D(7,6,11,10)           -0.5595         estimate D2E/DX2                !
 ! D74   D(7,6,11,23)          179.7943         estimate D2E/DX2                !
 ! D75   D(6,7,8,9)              0.0016         estimate D2E/DX2                !
 ! D76   D(6,7,8,25)           179.5583         estimate D2E/DX2                !
 ! D77   D(26,7,8,9)          -179.6201         estimate D2E/DX2                !
 ! D78   D(26,7,8,25)           -0.0635         estimate D2E/DX2                !
 ! D79   D(7,8,9,10)            -1.0735         estimate D2E/DX2                !
 ! D80   D(7,8,9,24)           178.4198         estimate D2E/DX2                !
 ! D81   D(25,8,9,10)          179.3632         estimate D2E/DX2                !
 ! D82   D(25,8,9,24)           -1.1434         estimate D2E/DX2                !
 ! D83   D(8,9,10,11)            1.365          estimate D2E/DX2                !
 ! D84   D(8,9,10,28)          177.0016         estimate D2E/DX2                !
 ! D85   D(24,9,10,11)        -178.1662         estimate D2E/DX2                !
 ! D86   D(24,9,10,28)          -2.5297         estimate D2E/DX2                !
 ! D87   D(9,10,11,6)           -0.5285         estimate D2E/DX2                !
 ! D88   D(9,10,11,23)         179.1472         estimate D2E/DX2                !
 ! D89   D(28,10,11,6)        -176.3577         estimate D2E/DX2                !
 ! D90   D(28,10,11,23)          3.3179         estimate D2E/DX2                !
 ! D91   D(31,12,13,33)       -111.6686         estimate D2E/DX2                !
 ! D92   D(31,12,13,38)         44.2751         estimate D2E/DX2                !
 ! D93   D(32,12,13,33)          8.3608         estimate D2E/DX2                !
 ! D94   D(32,12,13,38)        164.3045         estimate D2E/DX2                !
 ! D95   D(32,12,15,35)        159.8643         estimate D2E/DX2                !
 ! D96   D(32,12,15,36)        -47.2997         estimate D2E/DX2                !
 ! D97   D(34,12,15,35)        -47.0179         estimate D2E/DX2                !
 ! D98   D(34,12,15,36)        105.8181         estimate D2E/DX2                !
 ! D99   D(33,13,38,37)        160.9873         estimate D2E/DX2                !
 ! D100  D(34,13,38,37)         20.2145         estimate D2E/DX2                !
 ! D101  D(29,14,15,31)        -79.3333         estimate D2E/DX2                !
 ! D102  D(29,14,15,36)        114.3754         estimate D2E/DX2                !
 ! D103  D(30,14,15,31)         36.5736         estimate D2E/DX2                !
 ! D104  D(30,14,15,36)       -129.7177         estimate D2E/DX2                !
 ! D105  D(29,14,30,37)         74.4284         estimate D2E/DX2                !
 ! D106  D(35,14,30,37)        -59.7601         estimate D2E/DX2                !
 ! D107  D(14,30,37,38)         80.1902         estimate D2E/DX2                !
 ! D108  D(14,30,37,39)        -28.6456         estimate D2E/DX2                !
 ! D109  D(30,37,38,13)        -71.3341         estimate D2E/DX2                !
 ! D110  D(39,37,38,13)         41.4211         estimate D2E/DX2                !
 --------------------------------------------------------------------------------
 Trust Radius=3.00D-01 FncErr=1.00D-07 GrdErr=1.00D-06 EigMax=2.50D+02 EigMin=1.00D-04
 Number of steps in this run=    243 maximum allowed number of steps=    252.
 GradGradGradGradGradGradGradGradGradGradGradGradGradGradGradGradGradGrad

                          Input orientation:                          
 ---------------------------------------------------------------------
 Center     Atomic      Atomic             Coordinates (Angstroms)
 Number     Number       Type             X           Y           Z
 ---------------------------------------------------------------------
      1          6           0        2.568928    0.029667   -1.660815
      2          6           0        1.998814    0.866535   -0.489481
      3          7           0        2.229132    0.035877    0.711896
      4          6           0        3.517108   -0.626830    0.458620
      5          6           0        3.385122   -1.094511   -0.986630
      6          6           0        0.545358    1.265017   -0.604146
      7          6           0        0.104705    2.561930   -0.334465
      8          6           0       -1.251706    2.882507   -0.392950
      9          6           0       -2.156767    1.890880   -0.723708
     10          7           0       -1.711817    0.658053   -1.000000
     11          6           0       -0.418081    0.326079   -0.945808
     12          8           0       -3.191776   -1.855986   -1.094802
     13          8           0       -3.897431   -0.868967    1.394890
     14          8           0        0.422814   -1.923791    1.295781
     15          8           0       -1.117340   -3.383535   -0.332491
     16          1           0        3.673021   -1.440557    1.177722
     17          1           0        4.358221   -1.252471   -1.461394
     18          1           0        2.835251   -2.042926   -1.024266
     19          1           0        3.196154    0.665306   -2.294327
     20          1           0        1.779333   -0.375284   -2.302375
     21          1           0        4.349845    0.091526    0.570101
     22          1           0        2.590924    1.794826   -0.392050
     23          1           0       -0.196755   -0.714479   -1.180641
     24          1           0       -3.232459    2.039080   -0.770085
     25          1           0       -1.604630    3.888070   -0.177581
     26          1           0        0.829886    3.331845   -0.068909
     27          6           0        2.202871    0.807971    1.950566
     28          1           0       -2.397198   -0.141027   -1.212838
     29          1           0        1.087538   -1.222591    1.059744
     30          1           0       -0.178486   -1.362946    1.847538
     31          1           0       -2.427093   -2.417534   -0.794644
     32          1           0       -3.456376   -2.362111   -1.884177
     33          1           0       -4.755014   -1.304054    1.530697
     34          1           0       -3.683244   -1.154364    0.475915
     35          1           0       -0.545367   -2.826823    0.260635
     36          1           0       -0.721828   -4.252861   -0.144170
     37          8           0       -1.411482   -0.148475    2.262982
     38          1           0       -2.356134   -0.420332    2.166834
     39          1           0       -1.373639    0.521878    1.551250
     40          1           0        2.417422    0.146650    2.798640
     41          1           0        1.205863    1.241569    2.097215
     42          1           0        2.952088    1.618949    1.944215
 ---------------------------------------------------------------------
                    Distance matrix (angstroms):
                    1          2          3          4          5
     1  C    0.000000
     2  C    1.548354   0.000000
     3  N    2.396927   1.478630   0.000000
     4  C    2.412890   2.331148   1.470446   0.000000
     5  C    1.544174   2.452490   2.345012   1.524760   0.000000
     6  C    2.595665   1.511446   2.465329   3.679654   3.711863
     7  C    3.774116   2.546771   3.462514   4.737264   4.955403
     8  C    4.933905   3.826139   4.630359   5.981823   6.137532
     9  C    5.164734   4.286374   4.973742   6.318989   6.300335
    10  N    4.376794   3.751383   4.341517   5.578544   5.389847
    11  C    3.085663   2.518275   3.136867   4.285577   4.060061
    12  O    6.087838   5.892432   6.019098   6.995217   6.621717
    13  O    7.208237   6.428727   6.230570   7.477341   7.665382
    14  O    4.142857   3.668359   2.728371   3.457977   3.830454
    15  O    5.196438   5.272396   4.897142   5.450081   5.093102
    16  H    3.381992   3.302304   2.116995   1.097073   2.210668
    17  H    2.210252   3.316866   3.303945   2.187545   1.094200
    18  H    2.184437   3.074180   2.775439   2.160835   1.096935
    19  H    1.094891   2.175221   3.220045   3.057997   2.200622
    20  H    1.095009   2.208364   3.075256   3.272038   2.197050
    21  H    2.855254   2.692712   2.126176   1.105402   2.181922
    22  H    2.173945   1.105356   2.107959   2.728713   3.054921
    23  H    2.904018   2.792460   3.166964   4.060497   3.607202
    24  H    6.203808   5.368409   6.003171   7.360261   7.325207
    25  H    5.874167   4.712936   5.507113   6.857206   7.097767
    26  H    4.057439   2.760621   3.664826   4.813580   5.192694
    27  C    3.712388   2.449265   1.459836   2.451892   3.693816
    28  H    4.989211   4.567641   5.013863   6.165127   5.864770
    29  H    3.341273   2.755897   1.734352   2.572760   3.079439
    30  H    4.668640   3.895238   3.007160   4.016014   4.561126
    31  H    5.630211   5.519682   5.474424   6.333310   5.963983
    32  H    6.486508   6.490642   6.694396   7.558398   7.015589
    33  H    8.099672   7.376094   7.158502   8.368751   8.523066
    34  H    6.712466   6.107520   6.035607   7.219672   7.218339
    35  H    4.642234   4.547134   4.012048   4.624162   4.472730
    36  H    5.609753   5.807697   5.275821   5.610707   5.248995
    37  O    5.592099   4.498490   3.961555   5.270251   5.870466
    38  H    6.253770   5.260952   4.832146   6.120099   6.584898
    39  H    5.109155   3.956868   3.731041   5.141281   5.630218
    40  H    4.463561   3.391933   2.098148   2.698754   4.099414
    41  H    4.177253   2.731377   2.102351   3.393783   4.440331
    42  H    3.958392   2.719878   2.132462   2.751320   4.017491
                    6          7          8          9         10
     6  C    0.000000
     7  C    1.396025   0.000000
     8  C    2.426997   1.395006   0.000000
     9  C    2.776235   2.390831   1.382700   0.000000
    10  N    2.370642   2.714302   2.351257   1.339470   0.000000
    11  C    1.388003   2.376147   2.745161   2.349672   1.336748
    12  O    4.893626   5.564430   5.168151   3.904863   2.918845
    13  O    5.318685   5.547866   4.926438   3.890388   3.583880
    14  O    3.713925   4.783366   5.362493   5.028349   4.061180
    15  O    4.944431   6.069757   6.267774   5.390075   4.139252
    16  H    4.503050   5.571310   6.738607   6.978563   6.176011
    17  H    4.648714   5.823403   7.050595   7.271169   6.380309
    18  H    4.045071   5.397815   6.431304   6.362815   5.288828
    19  H    3.200482   4.122535   5.321153   5.711623   5.075777
    20  H    2.664069   3.912068   4.842138   4.808386   3.866794
    21  H    4.150911   4.994232   6.332015   6.873690   6.287282
    22  H    2.123681   2.602508   3.993602   4.760230   4.491707
    23  H    2.191229   3.397315   3.830364   3.292162   2.052289
    24  H    3.859872   3.405848   2.185631   1.086843   2.066990
    25  H    3.418306   2.169121   1.087242   2.142867   3.334797
    26  H    2.153883   1.090494   2.154050   3.380124   3.804780
    27  C    3.079415   3.563711   4.661531   5.227894   4.904396
    28  H    3.317544   3.786428   3.335585   2.103735   1.074047
    29  H    3.041493   4.151190   4.943097   4.837346   3.951678
    30  H    3.666182   4.499554   4.918888   4.594811   3.813662
    31  H    4.736342   5.605072   5.443650   4.317469   3.164337
    32  H    5.550532   6.271290   5.881355   4.596042   3.598144
    33  H    6.265112   6.483944   5.787994   4.694766   4.417617
    34  H    4.990091   5.368064   4.792038   3.611473   3.057729
    35  H    4.322115   5.460348   5.789865   5.081561   3.885121
    36  H    5.680168   6.867368   7.159339   6.335650   5.082283
    37  O    3.748013   4.048685   4.033157   3.692524   3.374572
    38  H    4.351711   4.605010   4.322153   3.706304   3.406890
    39  H    2.980023   3.146940   3.060613   2.768192   2.577166
    40  H    4.041574   4.582421   5.579755   6.030960   5.633987
    41  H    2.781037   2.978082   3.864356   4.436946   4.294891
    42  H    3.523033   3.766854   4.973007   5.769936   5.598547
                   11         12         13         14         15
    11  C    0.000000
    12  O    3.532278   0.000000
    13  O    4.360376   2.769607   0.000000
    14  O    3.285383   4.334138   4.448258   0.000000
    15  O    3.824442   2.686598   4.127445   2.674733   0.000000
    16  H    4.936345   7.243092   7.595105   3.288054   5.385487
    17  H    5.056749   7.582946   8.744211   4.851816   5.983112
    18  H    4.025234   6.030338   7.249793   3.349129   4.230693
    19  H    3.872502   6.971472   8.141453   5.223382   6.232828
    20  H    2.675969   5.325658   6.792580   4.145449   4.617438
    21  H    5.008604   7.964970   8.343883   4.473219   6.540706
    22  H    3.393814   6.874729   7.237935   4.623591   6.369473
    23  H    1.089446   3.206331   4.511344   2.824707   2.947998
    24  H    3.299390   3.908789   3.685924   5.773489   5.836949
    25  H    3.832212   6.029469   5.509900   6.329223   7.289560
    26  H    3.370609   6.643780   6.491306   5.445163   6.996963
    27  C    3.935809   6.743378   6.350951   3.325639   5.814196
    28  H    2.050950   1.893771   3.095293   4.174193   3.595401
    29  H    2.947458   4.832782   5.008721   0.994612   3.386663
    30  H    3.273071   4.240327   3.778818   0.990225   3.117171
    31  H    3.403879   0.995074   3.058433   3.568701   1.691803
    32  H    4.163909   0.974314   3.629915   5.035114   2.986993
    33  H    5.253513   3.105091   0.971181   5.220073   4.585672
    34  H    3.856721   1.789125   0.985821   4.257219   3.493793
    35  H    3.378239   3.127813   4.044264   1.680586   0.994424
    36  H    4.658495   3.570624   4.889161   2.967866   0.973459
    37  O    3.392400   4.166504   2.729952   2.729811   4.157958
    38  H    3.741888   3.660283   1.781227   3.277449   4.069620
    39  H    2.680807   3.995178   2.885901   3.045292   4.343549
    40  H    4.700336   7.115655   6.548233   3.244037   5.895823
    41  H    3.568656   6.254842   5.566977   3.357822   5.717721
    42  H    4.624044   7.684911   7.308036   4.400989   6.838749
                   16         17         18         19         20
    16  H    0.000000
    17  H    2.733095   0.000000
    18  H    2.431760   1.770688   0.000000
    19  H    4.088665   2.392080   3.012943   0.000000
    20  H    4.102674   2.850854   2.351501   1.757918   0.000000
    21  H    1.781733   2.435851   3.064618   3.140887   3.882855
    22  H    3.755372   3.681420   3.897144   2.293638   3.002898
    23  H    4.589579   4.595222   3.313953   3.828307   2.297447
    24  H    7.974176   8.302448   7.317410   6.748158   5.770193
    25  H    7.621333   7.976774   7.456952   6.157463   5.843128
    26  H    5.693270   5.950136   5.815699   4.202635   4.430872
    27  C    2.795444   4.531272   4.168590   4.361890   4.434747
    28  H    6.652151   6.850750   5.570575   5.753727   4.322659
    29  H    2.597335   4.129697   2.840871   4.388645   3.535584
    30  H    3.910087   5.616311   4.218085   5.714634   4.693646
    31  H    6.485068   6.916821   5.280656   6.585884   4.913050
    32  H    7.813628   7.904301   6.358136   7.320494   5.615605
    33  H    8.436528   9.591993   8.042754   9.040479   7.632349
    34  H    7.395206   8.272119   6.747656   7.636200   6.177832
    35  H    4.534047   5.430391   3.700546   5.720295   4.240671
    36  H    5.382485   6.045189   4.279158   6.645459   5.094041
    37  O    5.357185   6.955519   5.694706   6.531586   5.574515
    38  H    6.194345   7.677178   6.306061   7.204754   6.089167
    39  H    5.427656   6.714056   5.561138   5.974281   5.059304
    40  H    2.592900   4.885911   4.425317   5.178199   5.167197
    41  H    3.758475   5.368547   4.815232   4.855819   4.722232
    42  H    3.235403   4.671235   4.715385   4.351349   4.835891
                   21         22         23         24         25
    21  H    0.000000
    22  H    2.630735   0.000000
    23  H    4.938250   3.832707   0.000000
    24  H    7.942317   5.840750   4.118998   0.000000
    25  H    7.101306   4.693649   4.916472   2.533703   0.000000
    26  H    4.826812   2.359683   4.320032   4.320363   2.499613
    27  C    2.651127   2.571443   4.228536   6.201644   5.339764
    28  H    6.982517   5.413186   2.274166   2.376249   4.234801
    29  H    3.550958   3.670515   2.631903   5.713943   5.907419
    30  H    4.924745   4.759927   3.096888   5.268063   5.805873
    31  H    7.354237   6.564035   2.832631   4.528866   6.388885
    32  H    8.542886   7.488418   3.719514   4.545527   6.738412
    33  H    9.261147   8.201391   5.336354   4.334549   6.308826
    34  H    8.129676   6.986864   3.885007   3.457428   5.493071
    35  H    5.707506   5.623341   2.580853   5.653305   6.812038
    36  H    6.716081   6.900021   3.724261   6.803202   8.188725
    37  O    6.009686   5.181203   3.695194   4.159429   4.720948
    38  H    6.912432   5.994014   3.994375   3.929650   4.962194
    39  H    5.822896   4.595059   3.221313   3.338519   3.791235
    40  H    2.950201   3.595426   4.838403   6.945376   6.247641
    41  H    3.679579   2.901883   4.066670   5.343794   4.480796
    42  H    2.484942   2.370550   5.012467   6.767020   5.514944
                   26         27         28         29         30
    26  H    0.000000
    27  C    3.511881   0.000000
    28  H    4.876831   5.662893   0.000000
    29  H    4.699269   2.482078   4.298581   0.000000
    30  H    5.170169   3.224027   3.972616   1.497710   0.000000
    31  H    6.647553   6.275080   2.314793   4.149611   3.626227
    32  H    7.354480   7.535366   2.550640   5.532841   5.066418
    33  H    7.432456   7.283482   3.799857   5.862069   4.587861
    34  H    6.386802   6.377437   2.352159   4.806857   3.769375
    35  H    6.318949   4.860083   3.579651   2.424565   2.189932
    36  H    7.742173   6.209171   4.566847   3.729041   3.551582
    37  O    4.751218   3.751791   3.612896   2.974324   1.779835
    38  H    5.406303   4.726524   3.391443   3.705151   2.394289
    39  H    3.921269   3.610087   3.021142   3.056492   2.251386
    40  H    4.570402   1.096634   6.273379   2.582087   3.149954
    41  H    3.033596   1.097059   5.084297   2.676272   2.960111
    42  H    3.389753   1.104107   6.455955   3.511863   4.324527
                   31         32         33         34         35
    31  H    0.000000
    32  H    1.499859   0.000000
    33  H    3.473653   3.803591   0.000000
    34  H    2.188112   2.660856   1.511179   0.000000
    35  H    2.195911   3.645566   4.653280   3.562266   0.000000
    36  H    2.588334   3.752374   5.269462   4.330724   1.492846
    37  O    3.940706   5.126470   3.612591   3.060445   3.454432
    38  H    3.572702   4.625119   2.634437   2.271394   3.564221
    39  H    3.905525   4.945436   3.842935   3.049657   3.683140
    40  H    6.554087   7.919858   7.426713   6.656261   4.905215
    41  H    5.911874   7.111572   6.506396   5.680887   4.794961
    42  H    7.261552   8.460132   8.253143   7.339945   5.901824
                   36         37         38         39         40
    36  H    0.000000
    37  O    4.807908   0.000000
    38  H    4.764449   0.987683   0.000000
    39  H    5.108565   0.978452   1.493989   0.000000
    40  H    6.153919   3.877439   4.848452   4.008606   0.000000
    41  H    6.239275   2.968197   3.931232   2.733105   1.777279
    42  H    7.234443   4.718701   5.690821   4.479944   1.784257
                   41         42
    41  H    0.000000
    42  H    1.793077   0.000000
 Stoichiometry    C10H25N2O5(1+)
 Framework group  C1[X(C10H25N2O5)]
 Deg. of freedom   120
 Full point group                 C1      NOp   1
 Largest Abelian subgroup         C1      NOp   1
 Largest concise Abelian subgroup C1      NOp   1
                         Standard orientation:                         
 ---------------------------------------------------------------------
 Center     Atomic      Atomic             Coordinates (Angstroms)
 Number     Number       Type             X           Y           Z
 ---------------------------------------------------------------------
      1          6           0        2.635486   -0.072066   -1.645384
      2          6           0        2.154662    0.716261   -0.402505
      3          7           0        2.222191   -0.257263    0.708367
      4          6           0        3.407912   -1.073869    0.409315
      5          6           0        3.257106   -1.367303   -1.079324
      6          6           0        0.779059    1.334862   -0.500085
      7          6           0        0.522775    2.648408   -0.102845
      8          6           0       -0.770030    3.170300   -0.151080
      9          6           0       -1.798107    2.362285   -0.600556
     10          7           0       -1.528048    1.111821   -0.997530
     11          6           0       -0.298734    0.588422   -0.955872
     12          8           0       -3.353479   -1.132884   -1.383221
     13          8           0       -3.989973   -0.311017    1.183904
     14          8           0        0.132182   -1.977440    1.050221
     15          8           0       -1.549130   -3.019964   -0.749926
     16          1           0        3.420217   -1.970637    1.041156
     17          1           0        4.212060   -1.618254   -1.550874
     18          1           0        2.576874   -2.215170   -1.226538
     19          1           0        3.368905    0.524994   -2.197112
     20          1           0        1.817029   -0.288369   -2.339924
     21          1           0        4.332012   -0.501667    0.610657
     22          1           0        2.871769    1.531998   -0.197218
     23          1           0       -0.223250   -0.444051   -1.295276
     24          1           0       -2.838754    2.671859   -0.649995
     25          1           0       -0.980084    4.189787    0.162958
     26          1           0        1.342929    3.271550    0.255232
     27          6           0        2.267530    0.380069    2.020950
     28          1           0       -2.314819    0.448737   -1.305568
     29          1           0        0.899104   -1.361893    0.901266
     30          1           0       -0.399147   -1.392964    1.647399
     31          1           0       -2.688764   -1.828939   -1.130568
     32          1           0       -3.662617   -1.511300   -2.226147
     33          1           0       -4.905654   -0.626053    1.257889
     34          1           0       -3.789336   -0.529894    0.243861
     35          1           0       -0.922232   -2.617256   -0.091363
     36          1           0       -1.290480   -3.952822   -0.647461
     37          8           0       -1.455716   -0.058198    2.166891
     38          1           0       -2.426147   -0.176167    2.025946
     39          1           0       -1.297490    0.668126    1.530663
     40          1           0        2.355702   -0.388570    2.798142
     41          1           0        1.339774    0.939119    2.194939
     42          1           0        3.126375    1.067733    2.113440
 ---------------------------------------------------------------------
 Rotational constants (GHZ):           0.4928428           0.3034467           0.2535824
 Standard basis: Aug-CC-pVDZ (5D, 7F)
 There are   650 symmetry adapted cartesian basis functions of A   symmetry.
 There are   616 symmetry adapted basis functions of A   symmetry.
   616 basis functions,  1006 primitive gaussians,   650 cartesian basis functions
    69 alpha electrons       69 beta electrons
       nuclear repulsion energy      1426.2150350490 Hartrees.
 NAtoms=   42 NActive=   42 NUniq=   42 SFac= 1.00D+00 NAtFMM=   60 NAOKFM=F Big=F
 Integral buffers will be    131072 words long.
 Raffenetti 2 integral format.
 Two-electron integral symmetry is turned on.
 Nuclear repulsion after empirical dispersion term =     1426.1783727739 Hartrees.
 One-electron integrals computed using PRISM.
 NBasis=   616 RedAO= T EigKep=  1.79D-06  NBF=   616
 NBsUse=   616 1.00D-06 EigRej= -1.00D+00 NBFU=   616
 ExpMin= 2.97D-02 ExpMax= 1.17D+04 ExpMxC= 4.01D+02 IAcc=3 IRadAn=         5 AccDes= 0.00D+00
 Harris functional with IExCor= 4639 and IRadAn=       5 diagonalized for initial guess.
 HarFok:  IExCor= 4639 AccDes= 0.00D+00 IRadAn=         5 IDoV= 1 UseB2=F ITyADJ=14
 ICtDFT=  3500011 ScaDFX=  1.000000  1.000000  1.000000  1.000000
 FoFCou: FMM=F IPFlag=           0 FMFlag=      100000 FMFlg1=           0
         NFxFlg=           0 DoJE=T BraDBF=F KetDBF=T FulRan=T
         wScrn=  0.000000 ICntrl=       500 IOpCl=  0 I1Cent=   200000004 NGrid=           0
         NMat0=    1 NMatS0=      1 NMatT0=    0 NMatD0=    1 NMtDS0=    0 NMtDT0=    0
 Petite list used in FoFCou.
 Requested convergence on RMS density matrix=1.00D-08 within 128 cycles.
 Requested convergence on MAX density matrix=1.00D-06.
 Requested convergence on             energy=1.00D-06.
 No special actions if energy rises.
 SCF Done:  E(RwB97XD) =  -881.446759147     A.U. after   15 cycles
            NFock= 15  Conv=0.37D-08     -V/T= 2.0064

 **********************************************************************

            Population analysis using the SCF density.

 **********************************************************************

 Orbital symmetries:
       Occupied  (A) (A) (A) (A) (A) (A) (A) (A) (A) (A) (A) (A)
                 (A) (A) (A) (A) (A) (A) (A) (A) (A) (A) (A) (A)
                 (A) (A) (A) (A) (A) (A) (A) (A) (A) (A) (A) (A)
                 (A) (A) (A) (A) (A) (A) (A) (A) (A) (A) (A) (A)
                 (A) (A) (A) (A) (A) (A) (A) (A) (A) (A) (A) (A)
                 (A) (A) (A) (A) (A) (A) (A) (A) (A)
       Virtual   (A) (A) (A) (A) (A) (A) (A) (A) (A) (A) (A) (A)
                 (A) (A) (A) (A) (A) (A) (A) (A) (A) (A) (A) (A)
                 (A) (A) (A) (A) (A) (A) (A) (A) (A) (A) (A) (A)
                 (A) (A) (A) (A) (A) (A) (A) (A) (A) (A) (A) (A)
                 (A) (A) (A) (A) (A) (A) (A) (A) (A) (A) (A) (A)
                 (A) (A) (A) (A) (A) (A) (A) (A) (A) (A) (A) (A)
                 (A) (A) (A) (A) (A) (A) (A) (A) (A) (A) (A) (A)
                 (A) (A) (A) (A) (A) (A) (A) (A) (A) (A) (A) (A)
                 (A) (A) (A) (A) (A) (A) (A) (A) (A) (A) (A) (A)
                 (A) (A) (A) (A) (A) (A) (A) (A) (A) (A) (A) (A)
                 (A) (A) (A) (A) (A) (A) (A) (A) (A) (A) (A) (A)
                 (A) (A) (A) (A) (A) (A) (A) (A) (A) (A) (A) (A)
                 (A) (A) (A) (A) (A) (A) (A) (A) (A) (A) (A) (A)
                 (A) (A) (A) (A) (A) (A) (A) (A) (A) (A) (A) (A)
                 (A) (A) (A) (A) (A) (A) (A) (A) (A) (A) (A) (A)
                 (A) (A) (A) (A) (A) (A) (A) (A) (A) (A) (A) (A)
                 (A) (A) (A) (A) (A) (A) (A) (A) (A) (A) (A) (A)
                 (A) (A) (A) (A) (A) (A) (A) (A) (A) (A) (A) (A)
                 (A) (A) (A) (A) (A) (A) (A) (A) (A) (A) (A) (A)
                 (A) (A) (A) (A) (A) (A) (A) (A) (A) (A) (A) (A)
                 (A) (A) (A) (A) (A) (A) (A) (A) (A) (A) (A) (A)
                 (A) (A) (A) (A) (A) (A) (A) (A) (A) (A) (A) (A)
                 (A) (A) (A) (A) (A) (A) (A) (A) (A) (A) (A) (A)
                 (A) (A) (A) (A) (A) (A) (A) (A) (A) (A) (A) (A)
                 (A) (A) (A) (A) (A) (A) (A) (A) (A) (A) (A) (A)
                 (A) (A) (A) (A) (A) (A) (A) (A) (A) (A) (A) (A)
                 (A) (A) (A) (A) (A) (A) (A) (A) (A) (A) (A) (A)
                 (A) (A) (A) (A) (A) (A) (A) (A) (A) (A) (A) (A)
                 (A) (A) (A) (A) (A) (A) (A) (A) (A) (A) (A) (A)
                 (A) (A) (A) (A) (A) (A) (A) (A) (A) (A) (A) (A)
                 (A) (A) (A) (A) (A) (A) (A) (A) (A) (A) (A) (A)
                 (A) (A) (A) (A) (A) (A) (A) (A) (A) (A) (A) (A)
                 (A) (A) (A) (A) (A) (A) (A) (A) (A) (A) (A) (A)
                 (A) (A) (A) (A) (A) (A) (A) (A) (A) (A) (A) (A)
                 (A) (A) (A) (A) (A) (A) (A) (A) (A) (A) (A) (A)
                 (A) (A) (A) (A) (A) (A) (A) (A) (A) (A) (A) (A)
                 (A) (A) (A) (A) (A) (A) (A) (A) (A) (A) (A) (A)
                 (A) (A) (A) (A) (A) (A) (A) (A) (A) (A) (A) (A)
                 (A) (A) (A) (A) (A) (A) (A) (A) (A) (A) (A) (A)
                 (A) (A) (A) (A) (A) (A) (A) (A) (A) (A) (A) (A)
                 (A) (A) (A) (A) (A) (A) (A) (A) (A) (A) (A) (A)
                 (A) (A) (A) (A) (A) (A) (A) (A) (A) (A) (A) (A)
                 (A) (A) (A) (A) (A) (A) (A) (A) (A) (A) (A) (A)
                 (A) (A) (A) (A) (A) (A) (A) (A) (A) (A) (A) (A)
                 (A) (A) (A) (A) (A) (A) (A) (A) (A) (A) (A) (A)
                 (A) (A) (A) (A) (A) (A) (A)
 The electronic state is 1-A.
 Alpha  occ. eigenvalues --  -19.42107 -19.38911 -19.38547 -19.37505 -19.34970
 Alpha  occ. eigenvalues --  -14.71196 -14.58359 -10.53469 -10.53175 -10.49934
 Alpha  occ. eigenvalues --  -10.49268 -10.49087 -10.47426 -10.43409 -10.43359
 Alpha  occ. eigenvalues --  -10.42306 -10.40827  -1.28827  -1.26026  -1.23190
 Alpha  occ. eigenvalues --   -1.22025  -1.21437  -1.19047  -1.17514  -1.10437
 Alpha  occ. eigenvalues --   -1.07034  -1.01133  -0.97265  -0.92783  -0.91313
 Alpha  occ. eigenvalues --   -0.89504  -0.84463  -0.80689  -0.80268  -0.76774
 Alpha  occ. eigenvalues --   -0.76210  -0.75410  -0.73152  -0.72816  -0.72500
 Alpha  occ. eigenvalues --   -0.71269  -0.70840  -0.70221  -0.70066  -0.68359
 Alpha  occ. eigenvalues --   -0.66445  -0.66129  -0.65941  -0.64691  -0.63264
 Alpha  occ. eigenvalues --   -0.62428  -0.61921  -0.60123  -0.59372  -0.58607
 Alpha  occ. eigenvalues --   -0.57647  -0.57101  -0.56404  -0.56189  -0.55433
 Alpha  occ. eigenvalues --   -0.55132  -0.54186  -0.52866  -0.52221  -0.51517
 Alpha  occ. eigenvalues --   -0.50918  -0.50795  -0.48569  -0.44405
 Alpha virt. eigenvalues --   -0.16200  -0.13158  -0.07549  -0.05966  -0.05106
 Alpha virt. eigenvalues --   -0.04427  -0.03806  -0.03666  -0.03576  -0.02890
 Alpha virt. eigenvalues --   -0.02070  -0.01711  -0.01371  -0.01169  -0.00751
 Alpha virt. eigenvalues --   -0.00494  -0.00047   0.00420   0.00943   0.01182
 Alpha virt. eigenvalues --    0.01495   0.01605   0.01898   0.02080   0.02190
 Alpha virt. eigenvalues --    0.02960   0.02977   0.03111   0.03430   0.04002
 Alpha virt. eigenvalues --    0.04126   0.04359   0.04569   0.04996   0.05410
 Alpha virt. eigenvalues --    0.05443   0.05778   0.05929   0.06245   0.06644
 Alpha virt. eigenvalues --    0.06824   0.07095   0.07212   0.07348   0.07715
 Alpha virt. eigenvalues --    0.08505   0.08550   0.08580   0.08905   0.09520
 Alpha virt. eigenvalues --    0.09761   0.09982   0.10251   0.10444   0.10626
 Alpha virt. eigenvalues --    0.10909   0.11412   0.11449   0.11923   0.12357
 Alpha virt. eigenvalues --    0.12507   0.12629   0.12711   0.13334   0.13754
 Alpha virt. eigenvalues --    0.14146   0.14213   0.14653   0.15026   0.15205
 Alpha virt. eigenvalues --    0.15357   0.15684   0.16093   0.16266   0.16715
 Alpha virt. eigenvalues --    0.16860   0.16954   0.17500   0.17669   0.17939
 Alpha virt. eigenvalues --    0.18019   0.18225   0.18396   0.18750   0.19023
 Alpha virt. eigenvalues --    0.19333   0.19619   0.19911   0.20186   0.20491
 Alpha virt. eigenvalues --    0.20784   0.21080   0.21129   0.21305   0.21623
 Alpha virt. eigenvalues --    0.22241   0.22549   0.22829   0.23033   0.23328
 Alpha virt. eigenvalues --    0.23448   0.24059   0.24146   0.24474   0.24787
 Alpha virt. eigenvalues --    0.25037   0.25100   0.25732   0.25940   0.26549
 Alpha virt. eigenvalues --    0.27242   0.27514   0.27637   0.27948   0.28116
 Alpha virt. eigenvalues --    0.28740   0.29310   0.29561   0.30112   0.30873
 Alpha virt. eigenvalues --    0.31153   0.31383   0.31991   0.32127   0.32393
 Alpha virt. eigenvalues --    0.32597   0.33027   0.33107   0.33451   0.33609
 Alpha virt. eigenvalues --    0.34373   0.34743   0.34911   0.35120   0.35533
 Alpha virt. eigenvalues --    0.36277   0.36752   0.37024   0.37507   0.37762
 Alpha virt. eigenvalues --    0.37944   0.38187   0.38487   0.38862   0.39275
 Alpha virt. eigenvalues --    0.40429   0.40657   0.41157   0.41298   0.41738
 Alpha virt. eigenvalues --    0.41961   0.42365   0.42647   0.43117   0.43384
 Alpha virt. eigenvalues --    0.43816   0.44040   0.44519   0.44966   0.45327
 Alpha virt. eigenvalues --    0.45606   0.45921   0.46482   0.46732   0.47121
 Alpha virt. eigenvalues --    0.47574   0.48075   0.48762   0.48893   0.49151
 Alpha virt. eigenvalues --    0.49508   0.49884   0.50387   0.50836   0.51103
 Alpha virt. eigenvalues --    0.51295   0.51886   0.52360   0.52707   0.52880
 Alpha virt. eigenvalues --    0.53204   0.53640   0.53955   0.54298   0.54938
 Alpha virt. eigenvalues --    0.55218   0.55840   0.55859   0.56356   0.56694
 Alpha virt. eigenvalues --    0.57048   0.57274   0.57602   0.57937   0.58326
 Alpha virt. eigenvalues --    0.58791   0.59064   0.59265   0.59426   0.60222
 Alpha virt. eigenvalues --    0.60410   0.60681   0.61104   0.61524   0.61949
 Alpha virt. eigenvalues --    0.62167   0.62873   0.63149   0.63216   0.63646
 Alpha virt. eigenvalues --    0.64220   0.64972   0.65148   0.65769   0.66378
 Alpha virt. eigenvalues --    0.66514   0.67201   0.67667   0.68210   0.68661
 Alpha virt. eigenvalues --    0.68873   0.69391   0.70126   0.70394   0.70671
 Alpha virt. eigenvalues --    0.71363   0.71843   0.72186   0.72524   0.73215
 Alpha virt. eigenvalues --    0.73423   0.73913   0.73962   0.74473   0.74820
 Alpha virt. eigenvalues --    0.75522   0.75737   0.76543   0.76691   0.76980
 Alpha virt. eigenvalues --    0.77794   0.78483   0.79467   0.80018   0.80210
 Alpha virt. eigenvalues --    0.80804   0.81346   0.81885   0.82726   0.82996
 Alpha virt. eigenvalues --    0.83880   0.84226   0.85173   0.85542   0.86068
 Alpha virt. eigenvalues --    0.86319   0.87239   0.87538   0.87709   0.88569
 Alpha virt. eigenvalues --    0.89793   0.89894   0.90762   0.91341   0.92257
 Alpha virt. eigenvalues --    0.92660   0.93708   0.94021   0.94993   0.95699
 Alpha virt. eigenvalues --    0.95935   0.96578   0.97234   0.97855   0.98490
 Alpha virt. eigenvalues --    0.99320   0.99510   1.00033   1.00605   1.01305
 Alpha virt. eigenvalues --    1.01482   1.02332   1.03402   1.04025   1.04325
 Alpha virt. eigenvalues --    1.05570   1.06171   1.06736   1.07095   1.08090
 Alpha virt. eigenvalues --    1.08959   1.09801   1.10481   1.10951   1.11780
 Alpha virt. eigenvalues --    1.12743   1.13616   1.13739   1.14252   1.14978
 Alpha virt. eigenvalues --    1.15944   1.16705   1.17558   1.18140   1.19021
 Alpha virt. eigenvalues --    1.19819   1.20037   1.20750   1.21927   1.22521
 Alpha virt. eigenvalues --    1.23357   1.24309   1.25051   1.25145   1.25748
 Alpha virt. eigenvalues --    1.27059   1.27797   1.28659   1.29659   1.30619
 Alpha virt. eigenvalues --    1.31458   1.32611   1.33373   1.34294   1.34900
 Alpha virt. eigenvalues --    1.35561   1.36472   1.37291   1.37558   1.38222
 Alpha virt. eigenvalues --    1.38705   1.39799   1.40186   1.41268   1.41897
 Alpha virt. eigenvalues --    1.42861   1.43316   1.44185   1.45457   1.46269
 Alpha virt. eigenvalues --    1.47016   1.48002   1.48673   1.49499   1.49969
 Alpha virt. eigenvalues --    1.50612   1.53124   1.53370   1.53907   1.54627
 Alpha virt. eigenvalues --    1.55727   1.56261   1.57388   1.57674   1.58930
 Alpha virt. eigenvalues --    1.59464   1.60500   1.61179   1.61616   1.62192
 Alpha virt. eigenvalues --    1.62762   1.64236   1.65994   1.66481   1.67008
 Alpha virt. eigenvalues --    1.67883   1.68738   1.68926   1.69793   1.70246
 Alpha virt. eigenvalues --    1.71052   1.72167   1.73106   1.74193   1.75585
 Alpha virt. eigenvalues --    1.75861   1.76416   1.77051   1.77311   1.77811
 Alpha virt. eigenvalues --    1.78476   1.79226   1.79970   1.81063   1.81380
 Alpha virt. eigenvalues --    1.81976   1.82312   1.83829   1.84718   1.85083
 Alpha virt. eigenvalues --    1.85607   1.86027   1.87286   1.87350   1.88778
 Alpha virt. eigenvalues --    1.88890   1.89201   1.90106   1.90366   1.90991
 Alpha virt. eigenvalues --    1.92208   1.92296   1.92800   1.93961   1.94350
 Alpha virt. eigenvalues --    1.94994   1.95506   1.96221   1.96888   1.97512
 Alpha virt. eigenvalues --    1.97844   1.99079   2.00586   2.00927   2.02409
 Alpha virt. eigenvalues --    2.02994   2.03608   2.04212   2.05451   2.06511
 Alpha virt. eigenvalues --    2.08168   2.08957   2.09680   2.10410   2.11439
 Alpha virt. eigenvalues --    2.11616   2.12135   2.13391   2.14582   2.15253
 Alpha virt. eigenvalues --    2.16385   2.17119   2.17572   2.19142   2.19805
 Alpha virt. eigenvalues --    2.20011   2.20574   2.20820   2.21822   2.23644
 Alpha virt. eigenvalues --    2.24513   2.25518   2.26487   2.27094   2.27994
 Alpha virt. eigenvalues --    2.28891   2.30322   2.30837   2.32055   2.32618
 Alpha virt. eigenvalues --    2.33414   2.34070   2.35606   2.36861   2.37620
 Alpha virt. eigenvalues --    2.38273   2.40756   2.41317   2.42219   2.43229
 Alpha virt. eigenvalues --    2.43903   2.45648   2.47591   2.48159   2.49244
 Alpha virt. eigenvalues --    2.50408   2.51782   2.51974   2.53279   2.53511
 Alpha virt. eigenvalues --    2.55411   2.56705   2.57159   2.57927   2.58435
 Alpha virt. eigenvalues --    2.59354   2.60514   2.62158   2.63421   2.63874
 Alpha virt. eigenvalues --    2.66133   2.67771   2.67983   2.70154   2.70712
 Alpha virt. eigenvalues --    2.71837   2.72951   2.73900   2.75221   2.76006
 Alpha virt. eigenvalues --    2.77176   2.77691   2.79203   2.80756   2.83930
 Alpha virt. eigenvalues --    2.84475   2.85629   2.85699   2.87356   2.88131
 Alpha virt. eigenvalues --    2.89650   2.91496   2.93556   2.95792   2.96340
 Alpha virt. eigenvalues --    2.99343   2.99945   3.02111   3.05305   3.07249
 Alpha virt. eigenvalues --    3.16959   3.18986   3.20053   3.21627   3.28424
 Alpha virt. eigenvalues --    3.36324   3.36664   3.38376   3.38641   3.40372
 Alpha virt. eigenvalues --    3.41114   3.43072   3.43753   3.44746   3.48097
 Alpha virt. eigenvalues --    3.50276   3.53212   3.53948   3.57065   3.58305
 Alpha virt. eigenvalues --    3.61121   3.62961   3.63515   3.69327   3.72021
 Alpha virt. eigenvalues --    3.80060   3.80417   3.84649   3.86490   3.97119
 Alpha virt. eigenvalues --    4.00109   4.03817   4.07060   4.09027   4.20809
 Alpha virt. eigenvalues --    4.31703   4.89475
          Condensed to atoms (all electrons):
               1          2          3          4          5          6
     1  C    9.384194  -2.313473  -0.944917   0.782193  -0.791009   0.056309
     2  C   -2.313473  24.035661  -6.505155  -0.407528  -0.091459  -7.333689
     3  N   -0.944917  -6.505155  16.621199  -0.315085  -0.338971   2.502783
     4  C    0.782193  -0.407528  -0.315085   6.129611   0.042889  -0.577129
     5  C   -0.791009  -0.091459  -0.338971   0.042889   6.216271   0.450743
     6  C    0.056309  -7.333689   2.502783  -0.577129   0.450743  26.305313
     7  C    0.159153  -1.248242  -0.718641   0.137742  -0.242389 -12.136135
     8  C   -0.134175   0.369892   0.050678   0.013287  -0.003649   1.267447
     9  C   -0.077442  -0.519287   0.017356  -0.052392   0.020208  -0.890311
    10  N   -0.033226   0.337467  -0.104231   0.007856   0.031745   0.157919
    11  C   -0.565970  -0.745011  -0.023787  -0.124917  -0.101679  -5.726898
    12  O   -0.003000  -0.005307   0.001447  -0.000878  -0.000932  -0.142986
    13  O   -0.000154  -0.000072  -0.001744  -0.000365  -0.000015   0.012169
    14  O    0.081250   0.125326  -0.235216  -0.012248  -0.018796   0.015390
    15  O   -0.008067   0.008311  -0.011222  -0.002951   0.005645  -0.003468
    16  H    0.213621   0.516500  -0.905522  -0.158831  -0.055458  -0.206023
    17  H    0.184586   0.194947  -0.076625   0.127259  -0.352354  -0.046255
    18  H    0.148917  -0.042629   0.153892  -0.157955  -0.197527   0.046957
    19  H   -0.995467   0.167100   0.491418  -0.251748   0.073398   0.336463
    20  H   -0.363317   0.203705  -0.063808   0.090551   0.360768  -0.321766
    21  H   -0.103658   0.099301  -0.168691  -0.229993   0.086601   0.067664
    22  H    0.638251  -2.456893   0.027629   0.009438   0.043079   0.851818
    23  H   -0.118504   0.340677  -0.403068   0.012982   0.001220  -0.751212
    24  H    0.002956   0.003938   0.009532  -0.000051   0.000397  -0.066759
    25  H    0.005139  -0.005972  -0.007714  -0.002370   0.001625   0.028810
    26  H   -0.054042   0.308947  -0.051600   0.011346  -0.014734   1.052197
    27  C   -0.311956  -0.804761   1.085159  -0.274607   0.064104   0.555592
    28  H   -0.023852   0.002552   0.003952  -0.004563  -0.001602  -0.247328
    29  H    0.066022   0.534919  -0.439225  -0.120039  -0.027147  -0.173563
    30  H   -0.021977   0.012674  -0.049860   0.016302   0.024218   0.005360
    31  H   -0.003918   0.004216   0.001648  -0.002658   0.005325   0.022768
    32  H    0.000886   0.000386   0.000334   0.000309  -0.000505   0.013022
    33  H    0.000116   0.000579   0.000067   0.000142   0.000028   0.003052
    34  H   -0.000735  -0.007001  -0.001159  -0.000831  -0.000449  -0.019510
    35  H    0.016357  -0.036936   0.007595   0.005213  -0.010554   0.025702
    36  H   -0.000737  -0.000037   0.001444   0.000863  -0.000496  -0.001342
    37  O   -0.008126  -0.009136  -0.030023  -0.005316   0.001118   0.066366
    38  H   -0.002474   0.000029   0.002952  -0.004121  -0.000836   0.013189
    39  H    0.004819   0.013936  -0.006444   0.009689  -0.000018   0.027671
    40  H   -0.094083   0.067241  -0.594070  -0.139450   0.070053   0.149573
    41  H    0.067234   0.318505   0.301722   0.025465  -0.040699  -0.192068
    42  H    0.001128   0.033192  -0.761040   0.095457   0.021035  -0.008415
               7          8          9         10         11         12
     1  C    0.159153  -0.134175  -0.077442  -0.033226  -0.565970  -0.003000
     2  C   -1.248242   0.369892  -0.519287   0.337467  -0.745011  -0.005307
     3  N   -0.718641   0.050678   0.017356  -0.104231  -0.023787   0.001447
     4  C    0.137742   0.013287  -0.052392   0.007856  -0.124917  -0.000878
     5  C   -0.242389  -0.003649   0.020208   0.031745  -0.101679  -0.000932
     6  C  -12.136135   1.267447  -0.890311   0.157919  -5.726898  -0.142986
     7  C   26.359919  -4.926001   1.183670  -0.337895  -1.108418   0.045323
     8  C   -4.926001  12.314000  -2.610973  -0.028306  -0.582981  -0.023581
     9  C    1.183670  -2.610973   9.821981   0.246640  -1.030707   0.034860
    10  N   -0.337895  -0.028306   0.246640   7.809768  -1.036609  -0.172281
    11  C   -1.108418  -0.582981  -1.030707  -1.036609  17.500585   0.131418
    12  O    0.045323  -0.023581   0.034860  -0.172281   0.131418   8.288255
    13  O   -0.019516   0.021914  -0.033365   0.008186   0.011475  -0.045438
    14  O   -0.040475   0.000738  -0.003354  -0.018564  -0.071833   0.001802
    15  O   -0.004010   0.000107   0.001248   0.021592  -0.027507  -0.093017
    16  H    0.024280   0.001652  -0.005206  -0.001190  -0.003730   0.000061
    17  H    0.007070   0.002621   0.000278   0.001013   0.020826  -0.000092
    18  H   -0.004374  -0.002540   0.002608   0.000392  -0.039028  -0.000267
    19  H    0.004160  -0.004005  -0.000487  -0.020786   0.160864   0.000343
    20  H   -0.023648  -0.020692   0.000705   0.067478  -0.093623  -0.000387
    21  H    0.024500  -0.006404   0.001470   0.000228   0.008033  -0.000050
    22  H   -0.099841   0.017055   0.001324   0.001518  -0.100482  -0.000123
    23  H   -0.042783  -0.015228   0.015181   0.098845  -1.483850   0.002112
    24  H    0.220891   0.130063  -0.591212  -0.134930   0.185969   0.001394
    25  H    0.632750  -1.210765   0.373112  -0.002457  -0.100913  -0.000474
    26  H   -2.757347   0.856817  -0.257667  -0.062448   0.032384   0.001111
    27  C   -0.218514   0.095441  -0.016868  -0.004519  -0.124787   0.000451
    28  H   -0.089738   0.016165  -0.380724   0.260323   0.147744   0.046947
    29  H    0.006151  -0.016510   0.018701   0.002964  -0.070067  -0.004724
    30  H   -0.006067   0.002991  -0.005499   0.007150  -0.005913   0.005033
    31  H   -0.012757  -0.002810   0.004877   0.018748  -0.038314   0.296003
    32  H   -0.002272   0.004085  -0.003015   0.005147  -0.011377   0.298758
    33  H   -0.002449   0.003551  -0.001675   0.006173  -0.004054  -0.009621
    34  H    0.020190  -0.010047   0.003209  -0.031181   0.034121   0.014132
    35  H   -0.004790   0.002225   0.002445   0.010975  -0.008396  -0.008957
    36  H    0.000379   0.000213  -0.000207  -0.002141   0.008584   0.008731
    37  O   -0.012655  -0.024762   0.002521   0.016401  -0.033174   0.009938
    38  H   -0.025272   0.018660  -0.014486  -0.004637   0.000450  -0.007241
    39  H    0.074938  -0.065171   0.016432   0.064779  -0.042404   0.001681
    40  H   -0.086518   0.012995  -0.000518   0.005093  -0.031581  -0.000198
    41  H    0.045159  -0.001589  -0.000571  -0.012834   0.028037   0.000375
    42  H    0.080940  -0.015403   0.009031  -0.002250   0.020379   0.000024
              13         14         15         16         17         18
     1  C   -0.000154   0.081250  -0.008067   0.213621   0.184586   0.148917
     2  C   -0.000072   0.125326   0.008311   0.516500   0.194947  -0.042629
     3  N   -0.001744  -0.235216  -0.011222  -0.905522  -0.076625   0.153892
     4  C   -0.000365  -0.012248  -0.002951  -0.158831   0.127259  -0.157955
     5  C   -0.000015  -0.018796   0.005645  -0.055458  -0.352354  -0.197527
     6  C    0.012169   0.015390  -0.003468  -0.206023  -0.046255   0.046957
     7  C   -0.019516  -0.040475  -0.004010   0.024280   0.007070  -0.004374
     8  C    0.021914   0.000738   0.000107   0.001652   0.002621  -0.002540
     9  C   -0.033365  -0.003354   0.001248  -0.005206   0.000278   0.002608
    10  N    0.008186  -0.018564   0.021592  -0.001190   0.001013   0.000392
    11  C    0.011475  -0.071833  -0.027507  -0.003730   0.020826  -0.039028
    12  O   -0.045438   0.001802  -0.093017   0.000061  -0.000092  -0.000267
    13  O    7.818201   0.003760  -0.000802  -0.000096  -0.000003  -0.000023
    14  O    0.003760   8.670148  -0.064648   0.035121  -0.006084  -0.003720
    15  O   -0.000802  -0.064648   7.917218  -0.000133  -0.000148   0.000853
    16  H   -0.000096   0.035121  -0.000133   2.622143   0.049119  -0.249258
    17  H   -0.000003  -0.006084  -0.000148   0.049119   2.053080  -0.550171
    18  H   -0.000023  -0.003720   0.000853  -0.249258  -0.550171   2.133197
    19  H   -0.000036  -0.000063  -0.000032  -0.029448  -0.311689   0.218846
    20  H    0.000136   0.018272   0.001602   0.035874   0.140873  -0.402959
    21  H    0.000026  -0.007755  -0.000003  -0.470666  -0.170816   0.170941
    22  H    0.000075   0.006198   0.000538   0.057811   0.059010  -0.084519
    23  H   -0.001512   0.025155   0.026770  -0.018159   0.012017   0.042825
    24  H   -0.001075  -0.001314   0.000167  -0.000091   0.000034   0.000093
    25  H    0.000151   0.000424   0.000045   0.000002   0.000060   0.000033
    26  H   -0.000048  -0.001907  -0.000183  -0.002590  -0.000122   0.001791
    27  C   -0.001651  -0.089603  -0.000991  -0.099706  -0.005824   0.039304
    28  H    0.013225   0.000592  -0.006240   0.000043  -0.000340   0.001611
    29  H    0.003151   0.073035   0.004607   0.109739   0.006396  -0.004351
    30  H    0.000680   0.283691   0.002452  -0.007832  -0.001033  -0.000253
    31  H   -0.003798  -0.017237   0.032295   0.000200  -0.000308   0.001923
    32  H    0.005398   0.000806  -0.004761  -0.000011  -0.000012  -0.000190
    33  H    0.346645   0.000013   0.000818   0.000022   0.000002  -0.000005
    34  H    0.287384   0.001186   0.000475  -0.000131   0.000019  -0.000121
    35  H   -0.004693   0.073173   0.235029  -0.002511   0.000468   0.002836
    36  H    0.000990  -0.018141   0.368667   0.000378   0.000241  -0.001025
    37  O   -0.103281  -0.084641  -0.000723  -0.001578  -0.000245   0.001606
    38  H    0.014067   0.001822  -0.000144  -0.000038  -0.000048   0.000041
    39  H   -0.003240  -0.024287   0.001467  -0.000439   0.000290   0.000270
    40  H    0.000222   0.019499   0.000388  -0.021888   0.000302   0.011389
    41  H   -0.000219   0.012724  -0.000515   0.011626   0.001629  -0.009259
    42  H   -0.000210  -0.012314  -0.000071   0.032697  -0.004530   0.005990
              19         20         21         22         23         24
     1  C   -0.995467  -0.363317  -0.103658   0.638251  -0.118504   0.002956
     2  C    0.167100   0.203705   0.099301  -2.456893   0.340677   0.003938
     3  N    0.491418  -0.063808  -0.168691   0.027629  -0.403068   0.009532
     4  C   -0.251748   0.090551  -0.229993   0.009438   0.012982  -0.000051
     5  C    0.073398   0.360768   0.086601   0.043079   0.001220   0.000397
     6  C    0.336463  -0.321766   0.067664   0.851818  -0.751212  -0.066759
     7  C    0.004160  -0.023648   0.024500  -0.099841  -0.042783   0.220891
     8  C   -0.004005  -0.020692  -0.006404   0.017055  -0.015228   0.130063
     9  C   -0.000487   0.000705   0.001470   0.001324   0.015181  -0.591212
    10  N   -0.020786   0.067478   0.000228   0.001518   0.098845  -0.134930
    11  C    0.160864  -0.093623   0.008033  -0.100482  -1.483850   0.185969
    12  O    0.000343  -0.000387  -0.000050  -0.000123   0.002112   0.001394
    13  O   -0.000036   0.000136   0.000026   0.000075  -0.001512  -0.001075
    14  O   -0.000063   0.018272  -0.007755   0.006198   0.025155  -0.001314
    15  O   -0.000032   0.001602  -0.000003   0.000538   0.026770   0.000167
    16  H   -0.029448   0.035874  -0.470666   0.057811  -0.018159  -0.000091
    17  H   -0.311689   0.140873  -0.170816   0.059010   0.012017   0.000034
    18  H    0.218846  -0.402959   0.170941  -0.084519   0.042825   0.000093
    19  H    2.555357  -0.687549   0.044312  -0.424188   0.047333   0.000642
    20  H   -0.687549   2.531539  -0.044163   0.243618  -0.175143  -0.000564
    21  H    0.044312  -0.044163   2.140996  -0.066022   0.014462   0.000093
    22  H   -0.424188   0.243618  -0.066022   3.276754  -0.048771   0.000065
    23  H    0.047333  -0.175143   0.014462  -0.048771   4.820727   0.028522
    24  H    0.000642  -0.000564   0.000093   0.000065   0.028522   2.162342
    25  H   -0.001055   0.001088  -0.000341   0.002298  -0.013832  -0.100651
    26  H    0.004714  -0.008839   0.002663  -0.133640  -0.018713  -0.009173
    27  C    0.062928  -0.045502  -0.032294  -0.040884  -0.018462   0.002353
    28  H    0.002337  -0.008938  -0.000081  -0.002004  -0.166579  -0.191146
    29  H   -0.010347   0.015332   0.002897   0.005061   0.063098  -0.003733
    30  H    0.000462  -0.002937   0.003730  -0.000841   0.009182   0.001415
    31  H    0.000083   0.000357  -0.000078  -0.000192  -0.006724  -0.001989
    32  H   -0.000028   0.000638   0.000003   0.000025   0.001906   0.001358
    33  H   -0.000011   0.000024   0.000001   0.000026   0.000445   0.001929
    34  H    0.000147  -0.000975   0.000022  -0.000125   0.016001   0.001432
    35  H   -0.001114   0.002980  -0.001061   0.000862  -0.025078   0.000039
    36  H   -0.000008  -0.000233   0.000103  -0.000093   0.005007  -0.000060
    37  O    0.000386  -0.002182   0.000405  -0.001484  -0.000029  -0.002808
    38  H    0.000001  -0.000603  -0.000068   0.000101   0.001306  -0.001510
    39  H    0.000555   0.000380  -0.000167  -0.003116   0.006023  -0.001832
    40  H   -0.001459  -0.006155  -0.007515   0.019255  -0.002081   0.000459
    41  H   -0.007023   0.009841   0.003196   0.007046   0.010716  -0.002888
    42  H    0.017224  -0.006718   0.066168  -0.009500   0.001880   0.000172
              25         26         27         28         29         30
     1  C    0.005139  -0.054042  -0.311956  -0.023852   0.066022  -0.021977
     2  C   -0.005972   0.308947  -0.804761   0.002552   0.534919   0.012674
     3  N   -0.007714  -0.051600   1.085159   0.003952  -0.439225  -0.049860
     4  C   -0.002370   0.011346  -0.274607  -0.004563  -0.120039   0.016302
     5  C    0.001625  -0.014734   0.064104  -0.001602  -0.027147   0.024218
     6  C    0.028810   1.052197   0.555592  -0.247328  -0.173563   0.005360
     7  C    0.632750  -2.757347  -0.218514  -0.089738   0.006151  -0.006067
     8  C   -1.210765   0.856817   0.095441   0.016165  -0.016510   0.002991
     9  C    0.373112  -0.257667  -0.016868  -0.380724   0.018701  -0.005499
    10  N   -0.002457  -0.062448  -0.004519   0.260323   0.002964   0.007150
    11  C   -0.100913   0.032384  -0.124787   0.147744  -0.070067  -0.005913
    12  O   -0.000474   0.001111   0.000451   0.046947  -0.004724   0.005033
    13  O    0.000151  -0.000048  -0.001651   0.013225   0.003151   0.000680
    14  O    0.000424  -0.001907  -0.089603   0.000592   0.073035   0.283691
    15  O    0.000045  -0.000183  -0.000991  -0.006240   0.004607   0.002452
    16  H    0.000002  -0.002590  -0.099706   0.000043   0.109739  -0.007832
    17  H    0.000060  -0.000122  -0.005824  -0.000340   0.006396  -0.001033
    18  H    0.000033   0.001791   0.039304   0.001611  -0.004351  -0.000253
    19  H   -0.001055   0.004714   0.062928   0.002337  -0.010347   0.000462
    20  H    0.001088  -0.008839  -0.045502  -0.008938   0.015332  -0.002937
    21  H   -0.000341   0.002663  -0.032294  -0.000081   0.002897   0.003730
    22  H    0.002298  -0.133640  -0.040884  -0.002004   0.005061  -0.000841
    23  H   -0.013832  -0.018713  -0.018462  -0.166579   0.063098   0.009182
    24  H   -0.100651  -0.009173   0.002353  -0.191146  -0.003733   0.001415
    25  H    2.098044  -0.138213  -0.009175   0.009707   0.001290   0.000409
    26  H   -0.138213   3.087345   0.062665   0.006966   0.000445  -0.000719
    27  C   -0.009175   0.062665   4.715550  -0.002152  -0.115395  -0.003878
    28  H    0.009707   0.006966  -0.002152   1.505424   0.001236  -0.000806
    29  H    0.001290   0.000445  -0.115395   0.001236   0.779341  -0.149948
    30  H    0.000409  -0.000719  -0.003878  -0.000806  -0.149948   0.494847
    31  H    0.000628  -0.000663   0.000545  -0.012731   0.002226   0.000447
    32  H   -0.000103   0.000024   0.000121   0.007251   0.000048  -0.000638
    33  H   -0.000035   0.000051  -0.000205  -0.003788  -0.000713   0.001140
    34  H   -0.000376  -0.000241   0.000221   0.005338   0.002673  -0.002435
    35  H    0.000025   0.000118   0.010813   0.002091  -0.001738  -0.014687
    36  H   -0.000001   0.000021  -0.000211  -0.000912  -0.003618   0.004281
    37  O    0.000909  -0.000764   0.022775  -0.005848  -0.010634   0.014518
    38  H   -0.001026   0.001250   0.002802   0.001536   0.004680  -0.004190
    39  H    0.007525  -0.010411  -0.000029  -0.011122  -0.009393  -0.001417
    40  H   -0.001300   0.004231   0.356366  -0.001070   0.055344  -0.013778
    41  H   -0.001927  -0.025374  -0.122073   0.004322  -0.017204   0.013927
    42  H    0.000373   0.016848   0.216540   0.000475  -0.009266   0.001943
              31         32         33         34         35         36
     1  C   -0.003918   0.000886   0.000116  -0.000735   0.016357  -0.000737
     2  C    0.004216   0.000386   0.000579  -0.007001  -0.036936  -0.000037
     3  N    0.001648   0.000334   0.000067  -0.001159   0.007595   0.001444
     4  C   -0.002658   0.000309   0.000142  -0.000831   0.005213   0.000863
     5  C    0.005325  -0.000505   0.000028  -0.000449  -0.010554  -0.000496
     6  C    0.022768   0.013022   0.003052  -0.019510   0.025702  -0.001342
     7  C   -0.012757  -0.002272  -0.002449   0.020190  -0.004790   0.000379
     8  C   -0.002810   0.004085   0.003551  -0.010047   0.002225   0.000213
     9  C    0.004877  -0.003015  -0.001675   0.003209   0.002445  -0.000207
    10  N    0.018748   0.005147   0.006173  -0.031181   0.010975  -0.002141
    11  C   -0.038314  -0.011377  -0.004054   0.034121  -0.008396   0.008584
    12  O    0.296003   0.298758  -0.009621   0.014132  -0.008957   0.008731
    13  O   -0.003798   0.005398   0.346645   0.287384  -0.004693   0.000990
    14  O   -0.017237   0.000806   0.000013   0.001186   0.073173  -0.018141
    15  O    0.032295  -0.004761   0.000818   0.000475   0.235029   0.368667
[...]
 .00001592,-0.00001009,-0.00007229,0.00002069,-0.00000309,-0.00000341,-
 0.00005945,0.00006011,-0.00003531,0.00006054,-0.00002138,0.00007332,-0
 .00007390,0.00033632,-0.00023186,-0.00001015,-0.00005679,0.00008363,-0
 .00004938,-0.00004808,0.00004516,-0.00023136,0.00021598,0.00014096,0.0
 0048565,0.00021042,-0.00103893,-0.00060273,-0.00026289,0.00041912,-0.0
 0187985,0.00336103,0.00225541,0.00106704,-0.00063088,0.00023421,-0.000
 10397,-0.00001506,-0.00006863,0.00224119,0.00136549,0.00427792,-0.0004
 7513,-0.00129171,-0.00254412,0.00063126,0.00061875,0.00101384,0.000000
 85,-0.00001415,0.00001211,-0.08804322,-0.03514702,-0.08946183,0.125144
 54,0.04409474,0.11035377,-0.00003320,0.00000134,-0.00002599,0.00018101
 ,-0.00010561,0.00011848,0.00000468,-0.00010610,-0.00020608,-0.00009363
 ,0.00003139,-0.00008979,0.00003718,-0.00000706,0.00000771,0.00015794,0
 .00003013,0.00008443,0.00003807,0.00008632,-0.00000036,-0.00006615,-0.
 00004448,-0.00002654,-0.00003299,0.00014214,-0.00006516,-0.00021959,-0
 .00003311,0.00002218,0.00020264,-0.00007110,-0.00013205,-0.00011723,0.
 00006790,0.00006258,-0.00255534,-0.00008094,0.00063155,-0.00183940,0.0
 0126652,-0.00082772,-0.00014103,-0.00002312,-0.00007964,-0.00000785,0.
 00002974,0.00000309,-0.00000390,-0.00000341,-0.00002486,-0.00000520,-0
 .00001353,-0.00000922,-0.00000403,0.00000238,-0.00000257,-0.00000356,-
 0.00001128,-0.00004118,-0.00000518,0.00000490,0.00001353,-0.00003089,0
 .00001079,0.00000535,0.00002973,-0.00000499,-0.00002642,0.00001486,-0.
 00001599,-0.00003016,0.00001816,0.00001165,0.00000082,-0.00000687,-0.0
 0004317,0.00003254,-0.00019514,0.00036058,0.00029366,0.00000436,0.0000
 1276,0.00001241,0.00025270,0.00011181,0.00019941,0.00178980,-0.0013199
 2,0.00308479,0.00010770,-0.00006523,0.00001016,0.00000897,-0.00000708,
 -0.00001544,-0.00053996,-0.00030095,-0.00076779,0.00021781,-0.00013173
 ,-0.00000536,0.00010973,0.00006986,0.00010856,0.00001588,-0.00000318,-
 0.00000354,-0.05115278,0.00954772,0.07923131,0.00699200,-0.00749461,-0
 .04219758,0.04687041,-0.00000210,-0.00000167,0.00000229,0.00000083,0.0
 0002114,-0.00002271,-0.00005722,-0.00026077,0.00000473,-0.00001580,0.0
 0003852,-0.00006575,0.00003343,0.00000655,-0.00001163,-0.00004921,-0.0
 0011411,-0.00010104,-0.00005312,0.00013143,0.00000622,0.00002667,0.000
 03973,0.00005512,-0.00013689,0.00031616,-0.00004140,-0.00008840,-0.000
 29619,0.00030537,0.00034994,-0.00002110,-0.00009995,-0.00000525,-0.000
 09061,0.00007644,-0.00021952,-0.00020907,0.00045317,0.00080447,-0.0009
 8658,0.00098704,0.00002944,-0.00000489,0.00021635,0.00001693,-0.000004
 73,0.00000815,-0.00000193,-0.00000892,-0.00000528,-0.00000663,-0.00001
 501,-0.00001234,0.00000039,-0.00000621,0.00000167,0.00000219,0.0000000
 6,-0.00000488,-0.00001521,-0.00000724,0.00000918,-0.00001692,-0.000030
 68,0.00001508,-0.00001571,0.00003869,-0.00000160,-0.00000704,0.0000322
 9,0.00000763,0.00001633,-0.00007287,0.00010274,-0.00004780,-0.00001393
 ,0.00003938,-0.00018046,0.00024315,0.00008219,0.00006404,0.00005364,0.
 00001822,0.00038061,0.00026417,-0.00008403,-0.00061699,0.00045825,-0.0
 0344605,-0.00005708,0.00008822,-0.00005358,-0.00000766,0.00000465,-0.0
 0002744,-0.00025224,0.00027367,-0.00023854,0.00009899,0.00000338,-0.00
 004816,-0.00006665,-0.00007080,-0.00022853,0.00003491,-0.00000917,-0.0
 0005420,-0.00107584,-0.02176495,-0.08829852,0.00270643,-0.00194126,-0.
 01129543,-0.00163799,0.02399328,-0.00000734,0.00000391,-0.00002078,0.0
 0007767,0.00002525,-0.00002126,-0.00018207,-0.00005392,-0.00001148,0.0
 0006705,-0.00004701,-0.00001402,0.00000097,0.00000866,0.00000932,0.000
 03711,0.00001890,0.00005742,0.00013868,-0.00005241,0.00005143,-0.00014
 151,-0.00001255,0.00007151,0.00007334,-0.00006262,-0.00013052,0.000085
 02,0.00000729,-0.00005123,-0.00023716,-0.00002727,0.00001619,-0.000076
 56,0.00009436,0.00016441,0.00041340,0.00023521,0.00106284,-0.00132194,
 0.00073739,0.00063565,-0.00003960,0.00013620,0.00012234,0.00000741,0.0
 0001511,0.00000097,-0.00001135,0.00000293,0.00000309,0.00000528,-0.000
 01196,-0.00000850,-0.00001192,-0.00000011,0.00000208,0.00000433,-0.000
 00207,-0.00001721,-0.00002928,-0.00000802,0.00000319,-0.00001252,-0.00
 000999,0.00000437,0.00000861,-0.00000192,-0.00002976,-0.00001447,0.000
 01990,-0.00004906,-0.00000208,0.00004549,-0.00003352,0.00000912,0.0000
 1371,-0.00001478,0.00009916,-0.00004821,0.00005134,0.00004258,0.000034
 90,-0.00002561,0.00016015,0.00018269,-0.00000938,0.00198826,-0.0012321
 2,-0.00118361,0.00006048,-0.00005738,-0.00002186,-0.00002391,-0.000009
 28,-0.00001864,-0.00021011,-0.00005163,-0.00008200,0.00014683,-0.00011
 208,-0.00022846,-0.00000459,-0.00014638,-0.00016243,0.00000975,-0.0000
 3529,-0.00000782,0.02962532,-0.10018328,-0.51802571,0.00867782,-0.0011
 5444,-0.01558998,-0.03937003,0.10164406,0.53343615,0.00007061,0.000300
 69,-0.00001263,0.00055490,-0.00063054,-0.00002925,-0.00194019,0.001722
 11,-0.00178712,0.00044901,-0.00054279,0.00082692,-0.00007556,-0.000010
 49,0.00006040,0.00036026,-0.00002812,0.00006589,0.00001263,-0.00005065
 ,0.00009789,-0.00000428,-0.00004357,-0.00000361,0.00000824,0.00006350,
 -0.00000035,-0.00011535,-0.00008691,-0.00001446,0.00020481,0.00015768,
 0.00000335,0.00001077,-0.00007389,0.00004365,0.00005679,-0.00000458,0.
 00008399,0.00025210,0.00018204,0.00088299,0.00008022,0.00011347,0.0002
 4561,0.00025422,0.00012226,-0.00001900,0.00000518,-0.00000975,0.000019
 10,-0.00003568,-0.00001255,-0.00004417,0.00003595,-0.00005275,-0.00008
 618,0.00003160,0.00001803,0.00003728,-0.00006871,-0.00022625,0.0000155
 0,-0.00003071,0.00032938,-0.00015537,0.00000993,0.00001521,-0.00002667
 ,0.00000571,0.00000185,-0.00000797,-0.00000442,-0.00000211,-0.00000691
 ,-0.00005693,-0.00006561,-0.00000698,-0.05593211,0.02954851,-0.0372312
 3,0.00005205,0.00010569,-0.00000562,0.00012134,0.00015928,-0.00104383,
 -0.00036634,0.00005796,-0.00025576,-0.00006830,0.00004056,-0.00004336,
 -0.00000045,0.00000127,-0.00000598,-0.00001181,0.00000312,-0.00000708,
 0.00000622,0.00000274,-0.00003765,-0.00011433,-0.00024088,-0.00033673,
 0.00001869,-0.00001218,-0.00000496,0.00027331,-0.00012701,0.00020167,-
 0.00010479,-0.00002317,-0.00009507,-0.00018334,0.00006350,-0.00004080,
 0.05529768,-0.00006122,0.00046006,-0.00099505,0.00021976,-0.00200170,-
 0.00288823,-0.00513492,0.01307927,-0.01904107,-0.00012928,0.00142992,-
 0.00070984,-0.00035316,0.00031476,0.00017956,0.00028044,0.00009333,-0.
 00003700,-0.00008958,-0.00014467,-0.00000247,-0.00001452,0.00005899,0.
 00004341,-0.00004234,-0.00000571,-0.00001223,0.00012915,0.00004909,0.0
 0001998,-0.00014959,-0.00011482,-0.00002549,0.00003488,0.00002118,-0.0
 0000067,0.00000849,-0.00000171,-0.00002904,0.00018209,-0.00012346,0.00
 001020,0.00003093,0.00003633,0.00003967,-0.00008021,-0.00009069,0.0002
 9196,-0.00000152,-0.00001141,0.00004781,0.00000202,-0.00001823,-0.0000
 0037,0.00003941,-0.00006400,-0.00017834,0.00007202,-0.00000658,-0.0002
 2496,0.00002759,-0.00038839,0.00013513,0.00022132,0.00037745,-0.000335
 11,0.00001731,0.00000400,-0.00000843,0.00000279,0.00000702,0.00000390,
 -0.00001055,0.00000403,0.00000310,-0.00003395,0.00012155,-0.00006722,0
 .03177319,-0.16036181,0.13657190,-0.00003373,-0.00005210,-0.00000931,-
 0.00016444,0.00021647,-0.00032590,0.00001344,0.00012083,0.00012399,-0.
 00002346,-0.00000020,-0.00000751,-0.00000623,-0.00000091,-0.00000368,-
 0.00000277,0.00000146,0.00000717,-0.00001523,0.00000230,0.00001576,-0.
 00002273,-0.00004421,-0.00005611,-0.00000477,-0.00000867,-0.00000232,-
 0.00001599,-0.00002381,-0.00010770,0.00001516,0.00000830,0.00002098,0.
 00008040,0.00000035,0.00004508,-0.03236538,0.16684536,-0.00058933,0.00
 079479,-0.00095888,0.00120012,-0.00429743,-0.00303682,-0.00803686,0.01
 626386,-0.02679316,-0.00054863,0.00164812,0.00067908,-0.00026480,0.000
 03079,0.00004495,0.00077101,-0.00002526,0.00006855,-0.00014814,-0.0001
 0145,0.00004444,-0.00004048,0.00002813,0.00004491,-0.00005241,0.000047
 99,-0.00002510,-0.00002246,-0.00006381,0.00000551,-0.00014098,-0.00001
 319,0.00000735,0.00000586,-0.00006489,0.00002520,0.00001904,-0.0000097
 7,0.00004258,0.00010507,-0.00020310,0.00068687,0.00006861,0.00003404,0
 .00013997,0.00035594,-0.00069910,-0.00009517,0.00002706,-0.00004584,0.
 00009615,0.00002520,-0.00002393,0.00002851,0.00006442,-0.00012804,-0.0
 0022430,0.00021356,-0.00022695,-0.00029711,0.00028570,-0.00004268,-0.0
 0008214,0.00003885,-0.00015603,0.00024277,0.00001619,0.00004507,-0.000
 03555,0.00000774,0.00000503,-0.00000816,-0.00002127,-0.00000029,-0.000
 00576,0.00003128,0.00002546,-0.00005633,-0.03552257,0.12651341,-0.2014
 9520,0.00002891,0.00008282,-0.00000208,0.00007015,0.00051794,-0.001071
 08,-0.00019537,0.00005382,-0.00004788,-0.00005088,0.00003762,-0.000029
 27,0.00000233,0.00000309,-0.00000225,-0.00000185,0.00000101,-0.0000037
 5,0.00000278,0.00000788,-0.00001794,-0.00007045,-0.00011943,-0.0001813
 3,-0.00000555,-0.00000378,-0.00000258,0.00013150,-0.00004032,0.0000527
 2,-0.00003728,0.00000524,-0.00005193,-0.00004774,0.00000695,0.00001435
 ,0.04163818,-0.13689793,0.22705455,-0.00011885,-0.00003554,0.00014972,
 0.00025955,0.00079025,-0.00061100,0.00566696,-0.00223663,0.00049897,0.
 00098565,-0.00076574,-0.00031841,0.00028785,0.00000141,-0.00032397,-0.
 00010376,-0.00045156,-0.00022644,-0.00006784,0.00036023,-0.00008011,-0
 .00002819,-0.00002718,-0.00010365,0.00008050,-0.00003892,0.00003201,-0
 .00034537,-0.00006854,-0.00005113,0.00056843,0.00019276,0.00012176,0.0
 0001304,-0.00006497,0.00000789,0.00000683,-0.00001533,0.00001016,0.000
 21779,0.00019999,-0.00010410,0.00006577,-0.00000619,0.00002634,-0.0000
 4551,-0.00004506,-0.00004706,-0.00000120,-0.00004255,-0.00002597,0.000
 03748,0.00001181,0.00012320,0.00000997,-0.00001416,-0.00000268,0.00006
 175,-0.00003112,0.00003502,0.00043594,-0.00015452,-0.00027462,-0.00035
 725,-0.00028899,-0.00009198,-0.00004863,0.00001782,-0.00000749,-0.0000
 0394,-0.00000777,-0.00000653,0.00002201,-0.00001320,0.00003573,-0.0000
 0810,-0.00017092,0.00005762,-0.25343690,0.10941121,0.03747380,0.000042
 16,0.00008843,-0.00001392,-0.00021728,-0.00016910,0.00014088,0.0000796
 6,0.00000601,0.00006117,-0.00005155,0.00003337,-0.00001959,-0.00000057
 ,0.00000159,0.00000120,-0.00000291,0.00000193,0.00000191,-0.00000030,0
 .00001256,-0.00000076,-0.00003099,-0.00001663,-0.00004114,-0.00001715,
 -0.00000550,0.00000541,-0.00034796,-0.00006678,0.00006338,-0.00002239,
 0.00002197,-0.00003326,0.00006010,-0.00001737,0.00005181,-0.00375085,0
 .00055159,0.00104189,0.26816521,0.00002538,-0.00025937,0.00002656,0.00
 013087,0.00011565,0.00081008,0.01685783,-0.01309850,-0.00419598,-0.001
 90992,0.00011382,-0.00347492,0.00129616,-0.00022162,-0.00026234,0.0000
 1595,0.00035679,-0.00011587,0.00005925,0.00019527,0.00005033,0.0000196
 6,-0.00003086,0.00000431,-0.00007418,0.00001970,-0.00004575,-0.0000371
 9,-0.00005088,-0.00000157,-0.00014650,-0.00008334,-0.00002725,-0.00001
 500,0.00000715,0.00005395,0.00013497,0.00003323,0.00013175,-0.00041566
 ,0.00036095,0.00069921,-0.00000283,0.00011225,0.00019353,-0.00020235,0
 .00032458,0.00010597,-0.00013159,-0.00010890,-0.00042389,-0.00003123,-
 0.00001349,0.00006081,-0.00000614,0.00001712,-0.00002370,-0.00003913,0
 .00004890,-0.00005031,0.00038032,-0.00001871,-0.00010638,-0.00029708,0
 .00006272,-0.00019672,0.00001323,0.00000371,-0.00004455,-0.00000378,0.
 00000131,-0.00000839,0.00000439,0.00001587,-0.00000955,-0.00000168,-0.
 00010057,0.00020923,0.10390939,-0.10358227,-0.01975681,0.00000498,0.00
 001275,-0.00003183,0.00107650,0.00003095,-0.00066705,-0.00024312,-0.00
 052989,-0.00021841,0.00000583,-0.00000655,-0.00002235,-0.00000120,-0.0
 0000104,-0.00001064,-0.00001930,0.00000486,0.00000086,0.00001539,-0.00
 002438,-0.00005920,-0.00006865,-0.00019544,-0.00028058,0.00003251,-0.0
 0000517,-0.00000938,0.00037773,0.00014023,0.00037133,-0.00015087,-0.00
 006023,-0.00021417,-0.00028376,-0.00001830,0.00004513,0.01668407,-0.00
 822076,-0.00409614,-0.11821967,0.11385132,0.00012255,-0.00019078,0.000
 29462,0.00128001,-0.00021924,0.00098966,0.02764195,-0.01920941,-0.0077
 9502,-0.00237685,-0.00057455,-0.00475236,0.00143263,-0.00111245,-0.000
 27387,-0.00015515,0.00017006,-0.00040876,-0.00028374,0.00000578,-0.000
 35662,-0.00012388,0.00013788,0.00004954,0.00001089,0.00004447,0.000022
 30,0.00028442,0.00009124,-0.00001410,-0.00032336,-0.00034890,-0.000013
 51,0.00002805,0.00013240,-0.00001654,-0.00000243,0.00001428,-0.0000826
 2,-0.00033065,-0.00014886,-0.00006739,-0.00007706,0.00003057,-0.000051
 35,0.00001788,-0.00031950,0.00016781,-0.00019065,-0.00017481,-0.000503
 19,-0.00003025,-0.00004201,-0.00008006,-0.00004128,0.00005178,0.000040
 16,-0.00006747,0.00006106,-0.00001288,-0.00003308,0.00018231,-0.000071
 96,0.00001239,0.00025804,-0.00018617,0.00006855,0.00001447,0.00001009,
 -0.00000434,0.00000763,0.00000836,0.00000104,-0.00000969,0.00002371,0.
 00003198,0.00015135,-0.00008736,0.03095270,-0.01622656,-0.05378763,-0.
 00010614,-0.00019285,-0.00001991,0.00051809,0.00016521,-0.00015151,0.0
 0003908,-0.00006067,0.00019782,0.00005808,-0.00006021,0.00003121,-0.00
 000728,-0.00000471,-0.00000572,0.00000005,0.00000398,0.00001218,-0.000
 02384,-0.00001369,0.00003315,0.00004980,0.00003087,0.00007148,0.000014
 34,0.00000277,-0.00001037,-0.00006721,0.00003625,-0.00033745,0.0000646
 6,0.00000043,0.00007031,0.00021897,0.00009127,0.00004548,-0.02137441,0
 .01011673,0.00558071,-0.04002859,0.02774343,0.06181352,0.00011844,0.00
 018110,0.00003778,0.00046463,-0.00048140,0.00111130,-0.00062530,-0.003
 81042,-0.00571233,0.00276514,0.00172511,-0.00007584,0.00011963,0.00012
 400,0.00027052,-0.00005556,0.00024342,0.00015599,-0.00014320,-0.000430
 93,0.00002046,0.00000168,0.00005620,0.00002845,0.00004318,0.00001862,0
 .00002025,0.00004974,0.00004393,0.00000486,0.00015678,-0.00005970,0.00
 007492,-0.00005889,0.00000888,-0.00003763,-0.00010294,-0.00000735,-0.0
 0005576,-0.00053326,-0.00038166,0.00016244,-0.00010608,-0.00011217,-0.
 00016144,-0.00011701,-0.00009312,0.00004420,-0.00001752,-0.00001318,-0
 .00006351,-0.00007728,0.00005219,0.00011458,0.00004058,0.00000266,-0.0
 0006549,-0.00002662,0.00010950,0.00002592,0.00043612,-0.00138026,-0.00
 059938,-0.00037860,0.00064735,-0.00120572,0.00004565,0.00001558,0.0000
 6288,0.00001066,0.00000787,0.00000950,-0.00002159,-0.00001680,0.000013
 39,-0.00007026,0.00010055,-0.00009794,-0.18618545,-0.12051918,0.016329
 64,0.00001813,0.00000969,0.00001284,0.00079305,0.00080143,-0.00044728,
 0.00016955,0.00006571,0.00002431,0.00007491,-0.00002255,0.00003589,0.0
 0001361,0.00000213,0.00001217,0.00001932,-0.00000795,-0.00000685,0.000
 01292,0.00000460,0.00001780,0.00013516,0.00020176,0.00021622,-0.000003
 45,0.00002676,0.00000851,-0.00033093,-0.00005417,-0.00011075,0.0001257
 3,0.00001467,0.00011988,0.00012354,0.00002194,-0.00005291,0.00469192,0
 .00505359,-0.00035433,-0.01805916,-0.01874358,0.00279953,0.19648305,0.
 00019148,0.00013685,0.00031297,0.00185846,0.00088369,0.00202035,-0.014
 44308,-0.01931631,-0.01075718,-0.00342437,0.00116380,0.00097662,0.0004
 2494,0.00017994,-0.00006812,0.00020305,0.00016127,0.00004717,-0.000004
 36,-0.00006996,-0.00006623,-0.00012889,-0.00002950,0.00001755,-0.00004
 255,0.00011320,0.00003083,0.00009959,-0.00003794,-0.00005027,-0.000064
 02,-0.00015934,0.00008188,-0.00008498,0.00001003,-0.00001465,-0.000022
 83,0.00001532,0.00003315,-0.00107175,-0.00049957,0.00053063,-0.0001298
 4,-0.00011938,-0.00015015,0.00012796,-0.00009713,0.00009613,0.00005567
 ,0.00002355,-0.00017637,0.00017880,0.00010114,0.00024491,0.00000943,-0
 .00001068,-0.00007532,0.00001261,0.00004337,0.00001580,0.00139685,-0.0
 0007937,-0.00021964,-0.00035812,0.00079527,-0.00118876,0.00006012,0.00
 001675,0.00006234,0.00000808,0.00000377,0.00000051,-0.00001190,0.00000
 232,-0.00000587,-0.00001974,0.00001907,-0.00005820,-0.11951149,-0.1558
 3427,0.01546970,0.00002845,0.00002963,-0.00000822,0.00145977,0.0009820
 1,-0.00109357,0.00017245,-0.00035660,-0.00007429,0.00009707,-0.0000298
 4,0.00003290,0.00001404,0.00000354,0.00000950,0.00001052,-0.00000529,-
 0.00000557,0.00003006,-0.00001233,-0.00001989,0.00014466,0.00021602,0.
 00020429,-0.00000037,0.00002741,0.00000684,0.00000474,0.00020664,0.000
 11914,0.00000700,0.00000175,-0.00004289,-0.00005996,-0.00005828,0.0000
 0377,-0.01508372,-0.01156823,0.00110632,0.01127102,0.01080113,-0.00063
 536,0.13659516,0.17234658,0.00023173,0.00014175,0.00039070,-0.00144937
 ,-0.00564033,0.00375727,-0.02371395,-0.02691275,-0.00968492,-0.0036839
 1,0.00105900,0.00105153,0.00021040,0.00013676,0.00007977,0.00016953,0.
 00068009,-0.00007785,0.00002148,-0.00011438,0.00003768,-0.00011936,-0.
 00000441,0.00001356,-0.00004299,0.00013581,0.00000613,0.00013750,0.000
 00617,-0.00000056,-0.00000863,-0.00015583,-0.00007175,-0.00000653,0.00
 000518,0.00002223,0.00005627,0.00001337,0.00005684,-0.00058364,-0.0001
 6505,0.00104846,-0.00000948,0.00003795,0.00009191,0.00039807,-0.000012
 17,-0.00016912,0.00010704,0.00009805,-0.00007456,0.00009306,0.00012740
 ,0.00005606,0.00005348,0.00002400,-0.00005677,-0.00002595,0.00006794,0
 .00007728,0.00108967,0.00095950,0.00030749,0.00096282,0.00172530,0.000
 38622,0.00007370,0.00003241,0.00004092,0.00000347,0.00000901,0.0000044
 6,-0.00000881,0.00000400,0.00000155,0.00000353,0.00004150,0.00000030,0
 .01706604,0.01618607,-0.05096283,0.00001502,-0.00000836,-0.00000992,0.
 00094540,0.00035216,-0.00158729,-0.00020629,-0.00022429,-0.00015549,0.
 00000525,-0.00000054,-0.00000876,-0.00000194,-0.00000048,-0.00000533,-
 0.00001001,0.00000250,-0.00000142,0.00000644,-0.00001059,-0.00002520,-
 0.00001222,-0.00007208,-0.00013305,0.00001296,-0.00000076,-0.00000653,
 0.00020253,0.00007195,0.00015335,-0.00008220,-0.00002783,-0.00008203,-
 0.00014631,0.00000782,0.00000548,0.01846073,0.01428964,-0.00033541,0.0
 0247253,0.00384725,-0.00037575,-0.01268706,-0.00671275,0.05623531\\-0.
 00000233,-0.00000106,0.00000053,0.00000001,0.00000116,-0.00001501,-0.0
 0000131,-0.00000923,0.00001359,0.00000627,0.00000489,-0.00000215,0.000
 00364,0.00000226,-0.00000022,-0.00000176,0.00000202,0.00000396,-0.0000
 0170,-0.00000026,-0.00000066,0.00000053,0.00000010,0.00000026,-0.00000
 269,-0.00000163,-0.00000069,-0.00001458,-0.00001189,-0.00001153,0.0000
 0772,-0.00000349,-0.00000007,0.00001557,0.00001745,0.00001212,0.000012
 04,0.00002729,0.00001356,0.00000807,0.00002101,0.00001691,0.00001145,-
 0.00001020,0.00000708,0.00000023,0.00000027,-0.00000069,-0.00000095,-0
 .00000139,-0.00000009,-0.00000124,0.00000004,0.00000126,0.00000014,0.0
 0000008,0.,0.00000011,-0.00000114,0.00000036,-0.00000142,0.00000130,-0
 .00000039,-0.00000090,-0.00000250,0.00000075,-0.00000126,-0.00000087,0
 .00000014,-0.00000144,-0.00000042,-0.00000004,-0.00000053,-0.00000039,
 -0.00000151,-0.00000063,0.00000025,-0.00000174,0.00000471,0.00000398,0
 .00000399,-0.00000778,0.00000078,-0.00001047,0.00000078,-0.00001696,0.
 00000062,-0.00001388,-0.00000586,-0.00002621,-0.00001691,0.00000109,0.
 00000094,0.00001082,-0.00000215,0.00000189,0.00000200,-0.00000609,-0.0
 0000133,-0.00000219,0.00000384,0.00000780,0.00000012,0.00000689,0.0000
 0542,0.00000152,0.00000328,-0.00000528,0.00000713,0.00002840,0.0000082
 9,-0.00000936,-0.00004210,-0.00000079,-0.00000530,-0.00000922,-0.00001
 806,-0.00000115,0.00000050,-0.00000152,-0.00000298,-0.00000004,0.00000
 024,-0.00000055,0.00000002,-0.00000128\\\@


 THE SCIENTIFIC THEORIST IS NOT TO BE ENVIED. FOR NATURE, OR MORE
 PRECISELY EXPERIMENT, IS AN INEXORABLE AND NOT VERY FRIENDLY JUDGE OF HIS
 WORK.  IT NEVER SAYS "YES" TO A THEORY. IN THE MOST FAVORABLE CASES
 IT SAYS "MAYBE", AND IN THE GREAT MAJORITY OF CASES SIMPLY "NO"...
 PROBABLY EVERY THEORY WILL SOME DAY EXPERIENCE ITS "NO" - MOST
 THEORIES, SOON AFTER CONCEPTION.  -- A.EINSTEIN, NOV 11, 1922.
 Job cpu time:       1 days 21 hours 59 minutes 27.1 seconds.
 Elapsed time:       0 days  1 hours 38 minutes 37.7 seconds.
 File lengths (MBytes):  RWF=   1440 Int=      0 D2E=      0 Chk=     36 Scr=      8
 Normal termination of Gaussian 16 at Mon Dec 12 23:34:11 2022.
