 Entering Gaussian System, Link 0=g16
 Input=NicPySa3h3wB97XD130K.gjf
 Output=NicPySa3h3wB97XD130K.log
 Initial command:
 /sw/contrib/gaussian/g16/A03/g16/l1.exe "/gscratch/scrubbed/gds001/Gau-699.inp" -scrdir="/gscratch/scrubbed/gds001/"
 Entering Link 1 = /sw/contrib/gaussian/g16/A03/g16/l1.exe PID=       700.
  
 Copyright (c) 1988,1990,1992,1993,1995,1998,2003,2009,2016,
            Gaussian, Inc.  All Rights Reserved.
  
 This is part of the Gaussian(R) 16 program.  It is based on
 the Gaussian(R) 09 system (copyright 2009, Gaussian, Inc.),
 the Gaussian(R) 03 system (copyright 2003, Gaussian, Inc.),
 the Gaussian(R) 98 system (copyright 1998, Gaussian, Inc.),
 the Gaussian(R) 94 system (copyright 1995, Gaussian, Inc.),
 the Gaussian 92(TM) system (copyright 1992, Gaussian, Inc.),
 the Gaussian 90(TM) system (copyright 1990, Gaussian, Inc.),
 the Gaussian 88(TM) system (copyright 1988, Gaussian, Inc.),
 the Gaussian 86(TM) system (copyright 1986, Carnegie Mellon
 University), and the Gaussian 82(TM) system (copyright 1983,
 Carnegie Mellon University). Gaussian is a federally registered
 trademark of Gaussian, Inc.
  
 This software contains proprietary and confidential information,
 including trade secrets, belonging to Gaussian, Inc.
  
 This software is provided under written license and may be
 used, copied, transmitted, or stored only in accord with that
 written license.
  
 The following legend is applicable only to US Government
 contracts under FAR:
  
                    RESTRICTED RIGHTS LEGEND
  
 Use, reproduction and disclosure by the US Government is
 subject to restrictions as set forth in subparagraphs (a)
 and (c) of the Commercial Computer Software - Restricted
 Rights clause in FAR 52.227-19.
  
 Gaussian, Inc.
 340 Quinnipiac St., Bldg. 40, Wallingford CT 06492
  
  
 ---------------------------------------------------------------
 Warning -- This program may not be used in any manner that
 competes with the business of Gaussian, Inc. or will provide
 assistance to any competitor of Gaussian, Inc.  The licensee
 of this program is prohibited from giving any competitor of
 Gaussian, Inc. access to this program.  By using this program,
 the user acknowledges that Gaussian, Inc. is engaged in the
 business of creating and licensing software in the field of
 computational chemistry and represents and warrants to the
 licensee that it is not a competitor of Gaussian, Inc. and that
 it will not use this program in any manner prohibited above.
 ---------------------------------------------------------------
  

 Cite this work as:
 Gaussian 16, Revision A.03,
 M. J. Frisch, G. W. Trucks, H. B. Schlegel, G. E. Scuseria, 
 M. A. Robb, J. R. Cheeseman, G. Scalmani, V. Barone, 
 G. A. Petersson, H. Nakatsuji, X. Li, M. Caricato, A. V. Marenich, 
 J. Bloino, B. G. Janesko, R. Gomperts, B. Mennucci, H. P. Hratchian, 
 J. V. Ortiz, A. F. Izmaylov, J. L. Sonnenberg, D. Williams-Young, 
 F. Ding, F. Lipparini, F. Egidi, J. Goings, B. Peng, A. Petrone, 
 T. Henderson, D. Ranasinghe, V. G. Zakrzewski, J. Gao, N. Rega, 
 G. Zheng, W. Liang, M. Hada, M. Ehara, K. Toyota, R. Fukuda, 
 J. Hasegawa, M. Ishida, T. Nakajima, Y. Honda, O. Kitao, H. Nakai, 
 T. Vreven, K. Throssell, J. A. Montgomery, Jr., J. E. Peralta, 
 F. Ogliaro, M. J. Bearpark, J. J. Heyd, E. N. Brothers, K. N. Kudin, 
 V. N. Staroverov, T. A. Keith, R. Kobayashi, J. Normand, 
 K. Raghavachari, A. P. Rendell, J. C. Burant, S. S. Iyengar, 
 J. Tomasi, M. Cossi, J. M. Millam, M. Klene, C. Adamo, R. Cammi, 
 J. W. Ochterski, R. L. Martin, K. Morokuma, O. Farkas, 
 J. B. Foresman, and D. J. Fox, Gaussian, Inc., Wallingford CT, 2016.
 
 ******************************************
 Gaussian 16:  ES64L-G16RevA.03 25-Dec-2016
                12-Jul-2021 
 ******************************************
 %nprocshared=28
 Will use up to   28 processors via shared memory.
 %mem=41GB
 %chk=NicPySa3h3.chk
 ---------------------------------------------
 # wB97XD/aug-cc-pVDZ opt freq Temperature=130
 ---------------------------------------------
 1/18=20,19=15,26=3,38=1,112=130000/1,3;
 2/9=110,12=2,17=6,18=5,40=1/2;
 3/5=16,7=10,11=2,25=1,30=1,71=1,74=-58/1,2,3;
 4//1;
 5/5=2,38=5/2;
 6/7=2,8=2,9=2,10=2,28=1/1;
 7//1,2,3,16;
 1/18=20,19=15,26=3/3(2);
 2/9=110/2;
 99//99;
 2/9=110/2;
 3/5=16,7=10,11=2,25=1,30=1,71=1,74=-58/1,2,3;
 4/5=5,16=3,69=1/1;
 5/5=2,38=5/2;
 7//1,2,3,16;
 1/18=20,19=15,26=3/3(-5);
 2/9=110/2;
 6/7=2,8=2,9=2,10=2,19=2,28=1/1;
 99/9=1/99;
 --------
 Nicotine
 --------
 Symbolic Z-matrix:
 Charge =  1 Multiplicity = 1
 C                    -1.53152   2.12998  -0.45258 
 C                    -1.59563   0.73232  -0.4202 
 C                    -0.47221   0.05466   0.02783 
 N                     0.62243   0.72594   0.42039 
 C                     0.70072   2.06407   0.39851 
 C                    -0.38233   2.80313  -0.04375 
 C                    -2.85163  -0.0183   -0.83929 
 N                    -2.6105   -1.4607   -0.91258 
 C                    -3.5679   -2.17302  -0.04929 
 C                    -3.90872  -1.1377    1.0177 
 C                    -3.99041   0.15206   0.19787 
 O                     2.7704   -0.59232   1.24888 
 O                     4.68558  -1.33003  -0.42513 
 H                    -3.10958  -3.07937   0.36425 
 H                    -4.84022  -1.36412   1.54657 
 H                    -3.10118  -1.07516   1.76106 
 H                    -4.95148   0.20005  -0.32947 
 H                    -3.89141   1.06295   0.79953 
 H                    -4.47977  -2.46761  -0.59449 
 H                    -3.16071   0.39438  -1.81141 
 H                    -0.44175  -1.03141   0.06489 
 H                     1.63726   2.50135   0.73565 
 H                    -0.32221   3.88864  -0.06794 
 H                    -2.3923    2.70026  -0.80502 
 C                    -2.58599  -1.97718  -2.27133 
 H                     1.45886   0.18077   0.75644 
 H                     3.50331  -0.88559   0.65549 
 H                     2.97059  -0.912     2.13051 
 H                     5.58805  -0.95872  -0.42036 
 H                     4.76136  -2.21885  -0.77848 
 O                     7.21176  -0.24014  -0.41263 
 H                     7.9296   -0.48321   0.17788 
 H                     7.62705   0.15163  -1.1854 
 H                    -1.81301  -1.47388  -2.86252 
 H                    -3.54811  -1.84585  -2.77925 
 H                    -2.34021  -3.04462  -2.27108 
 
 Add virtual bond connecting atoms H26        and O12        Dist= 3.02D+00.
 Add virtual bond connecting atoms H27        and O13        Dist= 3.14D+00.
 Add virtual bond connecting atoms O31        and H29        Dist= 3.36D+00.

 GradGradGradGradGradGradGradGradGradGradGradGradGradGradGradGradGradGrad
 Berny optimization.
 Initialization pass.
                           ----------------------------
                           !    Initial Parameters    !
                           ! (Angstroms and Degrees)  !
 --------------------------                            --------------------------
 ! Name  Definition              Value          Derivative Info.                !
 --------------------------------------------------------------------------------
 ! R1    R(1,2)                  1.3995         estimate D2E/DX2                !
 ! R2    R(1,6)                  1.3932         estimate D2E/DX2                !
 ! R3    R(1,24)                 1.091          estimate D2E/DX2                !
 ! R4    R(2,3)                  1.3864         estimate D2E/DX2                !
 ! R5    R(2,7)                  1.522          estimate D2E/DX2                !
 ! R6    R(3,4)                  1.3427         estimate D2E/DX2                !
 ! R7    R(3,21)                 1.0871         estimate D2E/DX2                !
 ! R8    R(4,5)                  1.3406         estimate D2E/DX2                !
 ! R9    R(4,26)                 1.0534         estimate D2E/DX2                !
 ! R10   R(5,6)                  1.3838         estimate D2E/DX2                !
 ! R11   R(5,22)                 1.0872         estimate D2E/DX2                !
 ! R12   R(6,23)                 1.0874         estimate D2E/DX2                !
 ! R13   R(7,8)                  1.4643         estimate D2E/DX2                !
 ! R14   R(7,11)                 1.5497         estimate D2E/DX2                !
 ! R15   R(7,20)                 1.1004         estimate D2E/DX2                !
 ! R16   R(8,9)                  1.4728         estimate D2E/DX2                !
 ! R17   R(8,25)                 1.4538         estimate D2E/DX2                !
 ! R18   R(9,10)                 1.5253         estimate D2E/DX2                !
 ! R19   R(9,14)                 1.0966         estimate D2E/DX2                !
 ! R20   R(9,19)                 1.1025         estimate D2E/DX2                !
 ! R21   R(10,11)                1.5304         estimate D2E/DX2                !
 ! R22   R(10,15)                1.0948         estimate D2E/DX2                !
 ! R23   R(10,16)                1.0994         estimate D2E/DX2                !
 ! R24   R(11,17)                1.0973         estimate D2E/DX2                !
 ! R25   R(11,18)                1.0961         estimate D2E/DX2                !
 ! R26   R(12,26)                1.6001         estimate D2E/DX2                !
 ! R27   R(12,27)                0.9876         estimate D2E/DX2                !
 ! R28   R(12,28)                0.9589         estimate D2E/DX2                !
 ! R29   R(13,27)                1.6622         estimate D2E/DX2                !
 ! R30   R(13,29)                0.9759         estimate D2E/DX2                !
 ! R31   R(13,30)                0.9595         estimate D2E/DX2                !
 ! R32   R(25,34)                1.0956         estimate D2E/DX2                !
 ! R33   R(25,35)                1.0959         estimate D2E/DX2                !
 ! R34   R(25,36)                1.0954         estimate D2E/DX2                !
 ! R35   R(29,31)                1.7756         estimate D2E/DX2                !
 ! R36   R(31,32)                0.9608         estimate D2E/DX2                !
 ! R37   R(31,33)                0.9608         estimate D2E/DX2                !
 ! A1    A(2,1,6)              120.9004         estimate D2E/DX2                !
 ! A2    A(2,1,24)             119.56           estimate D2E/DX2                !
 ! A3    A(6,1,24)             119.5394         estimate D2E/DX2                !
 ! A4    A(1,2,3)              117.2911         estimate D2E/DX2                !
 ! A5    A(1,2,7)              121.5978         estimate D2E/DX2                !
 ! A6    A(3,2,7)              121.1053         estimate D2E/DX2                !
 ! A7    A(2,3,4)              120.7114         estimate D2E/DX2                !
 ! A8    A(2,3,21)             121.4694         estimate D2E/DX2                !
 ! A9    A(4,3,21)             117.8166         estimate D2E/DX2                !
 ! A10   A(3,4,5)              122.81           estimate D2E/DX2                !
 ! A11   A(3,4,26)             118.8045         estimate D2E/DX2                !
 ! A12   A(5,4,26)             118.3849         estimate D2E/DX2                !
 ! A13   A(4,5,6)              119.5126         estimate D2E/DX2                !
 ! A14   A(4,5,22)             116.5335         estimate D2E/DX2                !
 ! A15   A(6,5,22)             123.9536         estimate D2E/DX2                !
 ! A16   A(1,6,5)              118.7731         estimate D2E/DX2                !
 ! A17   A(1,6,23)             121.4266         estimate D2E/DX2                !
 ! A18   A(5,6,23)             119.8002         estimate D2E/DX2                !
 ! A19   A(2,7,8)              111.3275         estimate D2E/DX2                !
 ! A20   A(2,7,11)             111.586          estimate D2E/DX2                !
 ! A21   A(2,7,20)             106.8629         estimate D2E/DX2                !
 ! A22   A(8,7,11)             105.2362         estimate D2E/DX2                !
 ! A23   A(8,7,20)             111.8064         estimate D2E/DX2                !
 ! A24   A(11,7,20)            110.0982         estimate D2E/DX2                !
 ! A25   A(7,8,9)              109.8791         estimate D2E/DX2                !
 ! A26   A(7,8,25)             113.5476         estimate D2E/DX2                !
 ! A27   A(9,8,25)             112.7657         estimate D2E/DX2                !
 ! A28   A(8,9,10)             103.1199         estimate D2E/DX2                !
 ! A29   A(8,9,14)             110.4318         estimate D2E/DX2                !
 ! A30   A(8,9,19)             112.1483         estimate D2E/DX2                !
 ! A31   A(10,9,14)            112.9916         estimate D2E/DX2                !
 ! A32   A(10,9,19)            110.0277         estimate D2E/DX2                !
 ! A33   A(14,9,19)            108.1388         estimate D2E/DX2                !
 ! A34   A(9,10,11)            102.0771         estimate D2E/DX2                !
 ! A35   A(9,10,15)            112.8084         estimate D2E/DX2                !
 ! A36   A(9,10,16)            110.3332         estimate D2E/DX2                !
 ! A37   A(11,10,15)           112.8079         estimate D2E/DX2                !
 ! A38   A(11,10,16)           110.7003         estimate D2E/DX2                !
 ! A39   A(15,10,16)           108.0645         estimate D2E/DX2                !
 ! A40   A(7,11,10)            103.1            estimate D2E/DX2                !
 ! A41   A(7,11,17)            109.0734         estimate D2E/DX2                !
 ! A42   A(7,11,18)            113.1002         estimate D2E/DX2                !
 ! A43   A(10,11,17)           109.9408         estimate D2E/DX2                !
 ! A44   A(10,11,18)           113.6695         estimate D2E/DX2                !
 ! A45   A(17,11,18)           107.8514         estimate D2E/DX2                !
 ! A46   A(26,12,27)           124.5322         estimate D2E/DX2                !
 ! A47   A(26,12,28)           127.9614         estimate D2E/DX2                !
 ! A48   A(27,12,28)           107.3675         estimate D2E/DX2                !
 ! A49   A(27,13,29)           123.5618         estimate D2E/DX2                !
 ! A50   A(27,13,30)           122.9069         estimate D2E/DX2                !
 ! A51   A(29,13,30)           106.3334         estimate D2E/DX2                !
 ! A52   A(8,25,34)            110.6723         estimate D2E/DX2                !
 ! A53   A(8,25,35)            112.0737         estimate D2E/DX2                !
 ! A54   A(8,25,36)            110.4731         estimate D2E/DX2                !
 ! A55   A(34,25,35)           108.3176         estimate D2E/DX2                !
 ! A56   A(34,25,36)           106.8278         estimate D2E/DX2                !
 ! A57   A(35,25,36)           108.2935         estimate D2E/DX2                !
 ! A58   A(29,31,32)           125.6982         estimate D2E/DX2                !
 ! A59   A(29,31,33)           123.8323         estimate D2E/DX2                !
 ! A60   A(32,31,33)           105.9356         estimate D2E/DX2                !
 ! A61   L(4,26,12,14,-1)      182.4844         estimate D2E/DX2                !
 ! A62   L(12,27,13,25,-1)     177.3357         estimate D2E/DX2                !
 ! A63   L(13,29,31,22,-1)     178.5432         estimate D2E/DX2                !
 ! A64   L(4,26,12,14,-2)      179.4221         estimate D2E/DX2                !
 ! A65   L(12,27,13,25,-2)     177.2183         estimate D2E/DX2                !
 ! A66   L(13,29,31,22,-2)     180.431          estimate D2E/DX2                !
 ! D1    D(6,1,2,3)             -0.2537         estimate D2E/DX2                !
 ! D2    D(6,1,2,7)            178.8799         estimate D2E/DX2                !
 ! D3    D(24,1,2,3)           179.5991         estimate D2E/DX2                !
 ! D4    D(24,1,2,7)            -1.2674         estimate D2E/DX2                !
 ! D5    D(2,1,6,5)             -0.0543         estimate D2E/DX2                !
 ! D6    D(2,1,6,23)           179.8298         estimate D2E/DX2                !
 ! D7    D(24,1,6,5)          -179.907          estimate D2E/DX2                !
 ! D8    D(24,1,6,23)           -0.023          estimate D2E/DX2                !
 ! D9    D(1,2,3,4)              0.4527         estimate D2E/DX2                !
 ! D10   D(1,2,3,21)          -178.9495         estimate D2E/DX2                !
 ! D11   D(7,2,3,4)           -178.6854         estimate D2E/DX2                !
 ! D12   D(7,2,3,21)             1.9124         estimate D2E/DX2                !
 ! D13   D(1,2,7,8)            171.4093         estimate D2E/DX2                !
 ! D14   D(1,2,7,11)           -71.3408         estimate D2E/DX2                !
 ! D15   D(1,2,7,20)            49.0622         estimate D2E/DX2                !
 ! D16   D(3,2,7,8)             -9.4899         estimate D2E/DX2                !
 ! D17   D(3,2,7,11)           107.7599         estimate D2E/DX2                !
 ! D18   D(3,2,7,20)          -131.837          estimate D2E/DX2                !
 ! D19   D(2,3,4,5)             -0.3494         estimate D2E/DX2                !
 ! D20   D(2,3,4,26)           179.934          estimate D2E/DX2                !
 ! D21   D(21,3,4,5)           179.0741         estimate D2E/DX2                !
 ! D22   D(21,3,4,26)           -0.6425         estimate D2E/DX2                !
 ! D23   D(3,4,5,6)              0.0217         estimate D2E/DX2                !
 ! D24   D(3,4,5,22)          -179.7787         estimate D2E/DX2                !
 ! D25   D(26,4,5,6)           179.7394         estimate D2E/DX2                !
 ! D26   D(26,4,5,22)           -0.061          estimate D2E/DX2                !
 ! D27   D(3,4,12,27)           89.9066         estimate D2E/DX2                !
 ! D28   D(3,4,12,28)          -86.5771         estimate D2E/DX2                !
 ! D29   D(5,4,12,27)          -89.1279         estimate D2E/DX2                !
 ! D30   D(5,4,12,28)           94.3884         estimate D2E/DX2                !
 ! D31   D(4,5,6,1)              0.1771         estimate D2E/DX2                !
 ! D32   D(4,5,6,23)          -179.7089         estimate D2E/DX2                !
 ! D33   D(22,5,6,1)           179.9618         estimate D2E/DX2                !
 ! D34   D(22,5,6,23)            0.0758         estimate D2E/DX2                !
 ! D35   D(2,7,8,9)            124.0            estimate D2E/DX2                !
 ! D36   D(2,7,8,25)          -108.6676         estimate D2E/DX2                !
 ! D37   D(11,7,8,9)             2.9573         estimate D2E/DX2                !
 ! D38   D(11,7,8,25)          130.2897         estimate D2E/DX2                !
 ! D39   D(20,7,8,9)          -116.5526         estimate D2E/DX2                !
 ! D40   D(20,7,8,25)           10.7798         estimate D2E/DX2                !
 ! D41   D(2,7,11,10)          -98.9361         estimate D2E/DX2                !
 ! D42   D(2,7,11,17)          144.2584         estimate D2E/DX2                !
 ! D43   D(2,7,11,18)           24.251          estimate D2E/DX2                !
 ! D44   D(8,7,11,10)           21.9372         estimate D2E/DX2                !
 ! D45   D(8,7,11,17)          -94.8683         estimate D2E/DX2                !
 ! D46   D(8,7,11,18)          145.1243         estimate D2E/DX2                !
 ! D47   D(20,7,11,10)         142.5766         estimate D2E/DX2                !
 ! D48   D(20,7,11,17)          25.7712         estimate D2E/DX2                !
 ! D49   D(20,7,11,18)         -94.2362         estimate D2E/DX2                !
 ! D50   D(7,8,9,10)           -26.7793         estimate D2E/DX2                !
 ! D51   D(7,8,9,14)          -147.7646         estimate D2E/DX2                !
 ! D52   D(7,8,9,19)            91.55           estimate D2E/DX2                !
 ! D53   D(25,8,9,10)         -154.5467         estimate D2E/DX2                !
 ! D54   D(25,8,9,14)           84.468          estimate D2E/DX2                !
 ! D55   D(25,8,9,19)          -36.2174         estimate D2E/DX2                !
 ! D56   D(7,8,25,34)           58.3253         estimate D2E/DX2                !
 ! D57   D(7,8,25,35)          -62.7051         estimate D2E/DX2                !
 ! D58   D(7,8,25,36)          176.4344         estimate D2E/DX2                !
 ! D59   D(9,8,25,34)         -175.8612         estimate D2E/DX2                !
 ! D60   D(9,8,25,35)           63.1084         estimate D2E/DX2                !
 ! D61   D(9,8,25,36)          -57.7522         estimate D2E/DX2                !
 ! D62   D(8,9,10,11)           39.5468         estimate D2E/DX2                !
 ! D63   D(8,9,10,15)          160.8805         estimate D2E/DX2                !
 ! D64   D(8,9,10,16)          -78.1499         estimate D2E/DX2                !
 ! D65   D(14,9,10,11)         158.7741         estimate D2E/DX2                !
 ! D66   D(14,9,10,15)         -79.8922         estimate D2E/DX2                !
 ! D67   D(14,9,10,16)          41.0774         estimate D2E/DX2                !
 ! D68   D(19,9,10,11)         -80.254          estimate D2E/DX2                !
 ! D69   D(19,9,10,15)          41.0797         estimate D2E/DX2                !
 ! D70   D(19,9,10,16)         162.0493         estimate D2E/DX2                !
 ! D71   D(9,10,11,7)          -37.6176         estimate D2E/DX2                !
 ! D72   D(9,10,11,17)          78.5714         estimate D2E/DX2                !
 ! D73   D(9,10,11,18)        -160.4257         estimate D2E/DX2                !
 ! D74   D(15,10,11,7)        -158.9517         estimate D2E/DX2                !
 ! D75   D(15,10,11,17)        -42.7627         estimate D2E/DX2                !
 ! D76   D(15,10,11,18)         78.2403         estimate D2E/DX2                !
 ! D77   D(16,10,11,7)          79.8158         estimate D2E/DX2                !
 ! D78   D(16,10,11,17)       -163.9951         estimate D2E/DX2                !
 ! D79   D(16,10,11,18)        -42.9922         estimate D2E/DX2                !
 ! D80   D(26,12,13,29)        113.3094         estimate D2E/DX2                !
 ! D81   D(26,12,13,30)        -98.6978         estimate D2E/DX2                !
 ! D82   D(28,12,13,29)        -70.5739         estimate D2E/DX2                !
 ! D83   D(28,12,13,30)         77.419          estimate D2E/DX2                !
 ! D84   D(27,13,31,32)         79.7405         estimate D2E/DX2                !
 ! D85   D(27,13,31,33)       -126.9298         estimate D2E/DX2                !
 ! D86   D(30,13,31,32)        -71.788          estimate D2E/DX2                !
 ! D87   D(30,13,31,33)         81.5417         estimate D2E/DX2                !
 --------------------------------------------------------------------------------
 Trust Radius=3.00D-01 FncErr=1.00D-07 GrdErr=1.00D-06 EigMax=2.50D+02 EigMin=1.00D-04
 Number of steps in this run=    200 maximum allowed number of steps=    216.
 GradGradGradGradGradGradGradGradGradGradGradGradGradGradGradGradGradGrad

                          Input orientation:                          
 ---------------------------------------------------------------------
 Center     Atomic      Atomic             Coordinates (Angstroms)
 Number     Number       Type             X           Y           Z
 ---------------------------------------------------------------------
      1          6           0       -1.531517    2.129976   -0.452580
      2          6           0       -1.595633    0.732324   -0.420198
      3          6           0       -0.472208    0.054661    0.027826
      4          7           0        0.622427    0.725942    0.420389
      5          6           0        0.700724    2.064070    0.398508
      6          6           0       -0.382329    2.803130   -0.043754
      7          6           0       -2.851633   -0.018300   -0.839292
      8          7           0       -2.610504   -1.460704   -0.912580
      9          6           0       -3.567896   -2.173024   -0.049288
     10          6           0       -3.908721   -1.137695    1.017699
     11          6           0       -3.990409    0.152058    0.197874
     12          8           0        2.770401   -0.592317    1.248877
     13          8           0        4.685579   -1.330027   -0.425127
     14          1           0       -3.109581   -3.079368    0.364253
     15          1           0       -4.840215   -1.364119    1.546573
     16          1           0       -3.101183   -1.075159    1.761063
     17          1           0       -4.951475    0.200051   -0.329468
     18          1           0       -3.891407    1.062948    0.799534
     19          1           0       -4.479766   -2.467609   -0.594486
     20          1           0       -3.160708    0.394379   -1.811412
     21          1           0       -0.441753   -1.031409    0.064885
     22          1           0        1.637257    2.501349    0.735654
     23          1           0       -0.322206    3.888642   -0.067935
     24          1           0       -2.392295    2.700257   -0.805016
     25          6           0       -2.585986   -1.977178   -2.271335
     26          1           0        1.458855    0.180771    0.756437
     27          1           0        3.503314   -0.885587    0.655488
     28          1           0        2.970587   -0.912003    2.130515
     29          1           0        5.588052   -0.958716   -0.420355
     30          1           0        4.761361   -2.218854   -0.778480
     31          8           0        7.211761   -0.240135   -0.412626
     32          1           0        7.929603   -0.483214    0.177876
     33          1           0        7.627050    0.151627   -1.185404
     34          1           0       -1.813013   -1.473881   -2.862515
     35          1           0       -3.548114   -1.845849   -2.779250
     36          1           0       -2.340214   -3.044617   -2.271084
 ---------------------------------------------------------------------
                    Distance matrix (angstroms):
                    1          2          3          4          5
     1  C    0.000000
     2  C    1.399497   0.000000
     3  C    2.379046   1.386375   0.000000
     4  N    2.715301   2.372007   1.342740   0.000000
     5  C    2.389894   2.777964   2.356035   1.340595   0.000000
     6  C    1.393165   2.429414   2.750870   2.353651   1.383766
     7  C    2.550949   1.522042   2.533551   3.769587   4.299727
     8  N    3.777406   2.466126   2.784422   4.124327   5.010710
     9  C    4.777582   3.531068   3.814684   5.116972   6.031136
    10  C    4.300057   3.303770   3.769772   4.935709   5.646386
    11  C    3.222018   2.540408   3.523654   4.653720   5.069790
    12  O    5.367712   4.858265   3.524778   2.652921   3.473195
    13  O    7.115101   6.611122   5.359598   4.631534   5.298805
    14  H    5.504068   4.175691   4.109873   5.330236   6.401137
    15  H    5.210834   4.334810   4.837253   5.956266   6.616082
    16  H    4.199638   3.208048   3.345462   4.348177   5.115253
    17  H    3.928852   3.399003   4.495846   5.648649   5.995988
    18  H    2.876703   2.620618   3.647341   4.542248   4.717068
    19  H    5.463524   4.311400   4.775944   6.104188   6.954109
    20  H    2.740982   2.121118   3.275093   4.404881   4.752081
    21  H    3.383742   2.162753   1.087129   2.084981   3.316406
    22  H    3.404548   3.862256   3.307136   2.069140   1.087186
    23  H    2.168707   3.421703   3.838109   3.336684   2.143133
    24  H    1.091041   2.157664   3.373357   3.806322   3.379345
    25  C    4.613945   3.427668   3.725932   4.984591   5.853393
    26  H    3.768746   3.319424   2.067796   1.053447   2.061478
    27  H    5.972517   5.456555   4.133135   3.309351   4.076889
    28  H    6.016224   5.482729   4.148322   3.334854   4.124213
    29  H    7.760755   7.380037   6.160726   5.310589   5.804631
    30  H    7.656295   7.017777   5.762746   5.219184   6.018099
    31  O    9.058915   8.860921   7.702226   6.711672   6.954200
    32  H    9.835600   9.621089   8.420348   7.410512   7.667726
    33  H    9.398417   9.272574   8.190196   7.209241   7.358003
    34  H    4.344515   3.298410   3.533875   4.641988   5.428650
    35  H    5.028642   4.003034   4.577424   5.851941   6.590769
    36  H    5.544128   4.271471   4.287185   5.498944   6.517109
                    6          7          8          9         10
     6  C    0.000000
     7  C    3.832859   0.000000
     8  N    4.888753   1.464255   0.000000
     9  C    5.908466   2.404158   1.472845   0.000000
    10  C    5.393721   2.412239   2.348548   1.525296   0.000000
    11  C    4.483839   1.549692   2.395464   2.376050   1.530441
    12  O    4.810370   6.024717   5.863457   6.660171   6.705338
    13  O    6.550735   7.661705   7.313516   8.304923   8.716693
    14  H    6.496780   3.299272   2.121192   1.096598   2.199025
    15  H    6.306176   3.384973   3.320899   2.195426   1.094832
    16  H    5.068595   2.817991   2.745501   2.168063   1.099372
    17  H    5.266379   2.171850   2.928869   2.761209   2.166047
    18  H    4.006619   2.221706   3.307698   3.361052   2.211498
    19  H    6.698730   2.951247   2.146901   1.102510   2.166542
    20  H    4.079962   1.100386   2.133531   3.140452   3.303126
    21  H    3.836538   2.766125   2.417274   3.330029   3.597085
    22  H    2.185698   5.383235   6.038047   7.039852   6.639282
    23  H    1.087445   4.717752   5.879221   6.875947   6.269430
    24  H    2.151759   2.757303   4.168067   5.069717   4.511287
    25  C    5.715730   2.441008   1.453809   2.437210   3.643090
    26  H    3.302579   4.600683   4.694650   5.608723   5.533307
    27  H    5.403128   6.585735   6.337852   7.221926   7.425161
    28  H    5.456345   6.596719   6.380445   7.006674   6.972387
    29  H    7.066736   8.502245   8.228645   9.243572   9.606702
    30  H    7.226181   7.924886   7.411961   8.361241   8.919949
    31  O    8.189489  10.074877   9.910430  10.957604  11.247958
    32  H    8.940771  10.839088  10.641355  11.623233  11.886108
    33  H    8.513753  10.485774  10.367331  11.490064  11.814822
    34  H    5.318373   2.700163   2.106754   3.388608   4.422790
    35  H    6.254449   2.754715   2.124125   2.749568   3.879219
    36  H    6.556711   3.386764   2.104132   2.683888   4.112500
                   11         12         13         14         15
    11  C    0.000000
    12  O    6.882387   0.000000
    13  O    8.823688   2.648474   0.000000
    14  H    3.353454   6.445322   8.027941   0.000000
    15  H    2.199989   7.655441   9.727770   2.708330   0.000000
    16  H    2.177233   5.913626   8.091851   2.442950   1.775876
    17  H    1.097288   7.921262   9.758232   3.824711   2.445105
    18  H    1.096137   6.879062   8.988371   4.237865   2.710896
    19  H    2.780281   7.712304   9.237225   1.780684   2.435518
    20  H    2.187316   6.746628   8.152275   4.099152   4.145977
    21  H    3.743159   3.451459   5.159343   3.376546   4.653231
    22  H    6.122009   3.334394   5.031811   7.335858   7.586638
    23  H    5.242941   5.601536   7.241547   7.517274   7.114108
    24  H    3.170658   6.458556   8.153760   5.940181   5.295416
    25  C    3.550076   6.557485   7.530136   2.904358   4.475914
    26  H    5.477891   1.600098   3.753712   5.626093   6.533704
    27  H    7.579050   0.987562   1.662229   6.973369   8.404612
    28  H    7.302246   0.958936   3.106002   6.692204   7.845637
    29  H    9.662450   3.295412   0.975885   8.986745  10.619883
    30  H    9.119647   3.274098   0.959487   7.999878   9.915982
    31  O   11.225646   4.755029   2.751294  10.732888  12.261808
    32  H   11.936945   5.270324   3.406523  11.341884  12.873134
    33  H   11.699522   5.483267   3.380173  11.318834  12.852777
    34  H    4.092763   6.219999   6.942136   3.830236   5.349398
    35  H    3.612551   7.597419   8.579141   3.405215   4.540301
    36  H    4.363213   6.672502   7.463856   2.745566   4.862981
                   16         17         18         19         20
    16  H    0.000000
    17  H    3.069212   0.000000
    18  H    2.473963   1.772845   0.000000
    19  H    3.063987   2.721976   3.841131   0.000000
    20  H    3.863375   2.332545   2.792480   3.378135   0.000000
    21  H    3.154600   4.691439   4.101969   4.336241   3.598066
    22  H    6.024590   7.059876   5.713073   7.992358   5.826434
    23  H    5.975556   5.924883   4.634247   7.613441   4.827699
    24  H    4.619637   3.609235   2.739105   5.577517   2.630659
    25  C    4.164048   3.755890   4.514059   2.576576   2.483167
    26  H    4.835347   6.501684   5.422674   6.641245   5.289597
    27  H    6.699076   8.580921   7.648492   8.233759   7.220325
    28  H    6.085187   8.369423   7.263532   8.084139   7.405282
    29  H    8.959629  10.603425   9.769104  10.181750   8.961401
    30  H    8.341278  10.019576   9.387798   9.246305   8.405660
    31  O   10.572559  12.171483  11.244896  11.903215  10.485577
    32  H   11.159530  12.909160  11.937896  12.590743  11.301435
    33  H   11.192929  12.607706  11.723708  12.400991  10.808633
    34  H    4.816205   4.366728   4.915875   3.639096   2.532093
    35  H    4.626894   3.486626   4.624569   2.455149   2.470914
    36  H    4.551488   4.595261   5.357890   2.778777   3.565277
                   21         22         23         24         25
    21  H    0.000000
    22  H    4.153624   0.000000
    23  H    4.923295   2.531765   0.000000
    24  H    4.299613   4.318625   2.498162   0.000000
    25  C    3.309099   6.850910   6.662396   4.905712   0.000000
    26  H    2.357952   2.327518   4.195244   4.859764   5.494077
    27  H    3.991695   3.867807   6.160455   7.053336   6.843788
    28  H    3.990633   3.921017   6.222689   7.101146   7.168430
    29  H    6.049735   5.377470   7.651943   8.787604   8.442647
    30  H    5.403118   5.859432   7.978035   8.681771   7.501369
    31  O    7.709112   6.317387   8.598039  10.051754  10.122646
    32  H    8.390047   6.986584   9.341622  10.846296  10.899916
    33  H    8.250356   6.714855   8.854642  10.345409  10.488907
    34  H    3.262791   6.376021   6.228068   4.689594   1.095577
    35  H    4.289743   7.625008   7.116326   5.089263   1.095863
    36  H    3.621314   7.457780   7.549589   5.929219   1.095367
                   26         27         28         29         30
    26  H    0.000000
    27  H    2.308056   0.000000
    28  H    2.316804   1.568503   0.000000
    29  H    4.442245   2.347109   3.655167   0.000000
    30  H    4.361275   2.327348   3.657456   1.549070   0.000000
    31  O    5.885558   3.912807   4.990644   1.775626   3.170747
    32  H    6.530405   4.470129   5.346821   2.463096   3.736953
    33  H    6.466701   4.633562   5.814574   2.444519   3.741249
    34  H    5.151680   6.402013   6.937499   7.810590   6.936900
    35  H    6.455851   7.902035   8.214093   9.477390   8.555091
    36  H    5.831118   6.882809   7.219884   8.404379   7.303569
                   31         32         33         34         35
    31  O    0.000000
    32  H    0.960769   0.000000
    33  H    0.960796   1.533980   0.000000
    34  H    9.432425  10.253973   9.724699   0.000000
    35  H   11.133469  11.930606  11.463618   1.776476   0.000000
    36  H   10.127152  10.864039  10.523356   1.759245   1.776035
                   36
    36  H    0.000000
 Stoichiometry    C10H21N2O3(1+)
 Framework group  C1[X(C10H21N2O3)]
 Deg. of freedom   102
 Full point group                 C1      NOp   1
 Largest Abelian subgroup         C1      NOp   1
 Largest concise Abelian subgroup C1      NOp   1
                         Standard orientation:                         
 ---------------------------------------------------------------------
 Center     Atomic      Atomic             Coordinates (Angstroms)
 Number     Number       Type             X           Y           Z
 ---------------------------------------------------------------------
      1          6           0       -1.287548    2.218534   -0.701266
      2          6           0       -1.399445    0.859900   -0.384750
      3          6           0       -0.284845    0.239917    0.158689
      4          7           0        0.846311    0.930138    0.375555
      5          6           0        0.970666    2.232039    0.080961
      6          6           0       -0.101248    2.911581   -0.470429
      7          6           0       -2.695515    0.093431   -0.606881
      8          7           0       -2.507999   -1.343009   -0.393522
      9          6           0       -3.457552   -1.826455    0.623287
     10          6           0       -3.722541   -0.584314    1.467914
     11          6           0       -3.788876    0.516385    0.406637
     12          8           0        2.975589   -0.283013    1.391640
     13          8           0        4.801128   -1.421767   -0.152725
     14          1           0       -3.016494   -2.649398    1.198406
     15          1           0       -4.641421   -0.660597    2.058252
     16          1           0       -2.886633   -0.407279    2.159676
     17          1           0       -4.766327    0.497395   -0.091630
     18          1           0       -3.636007    1.524753    0.808312
     19          1           0       -4.398546   -2.186360    0.175487
     20          1           0       -3.025299    0.314628   -1.633118
     21          1           0       -0.291187   -0.816793    0.413978
     22          1           0        1.933683    2.688704    0.295507
     23          1           0       -0.003993    3.966553   -0.715606
     24          1           0       -2.140108    2.741688   -1.136952
     25          6           0       -2.551382   -2.122859   -1.619701
     26          1           0        1.674833    0.429278    0.790816
     27          1           0        3.675543   -0.720021    0.849083
     28          1           0        3.196575   -0.426858    2.313612
     29          1           0        5.715645   -1.095111   -0.249193
     30          1           0        4.832683   -2.365884   -0.320835
     31          8           0        7.362765   -0.458122   -0.433826
     32          1           0        8.092771   -0.607189    0.172761
     33          1           0        7.762977   -0.247542   -1.281537
     34          1           0       -1.783385   -1.781526   -2.322525
     35          1           0       -3.526258   -2.056338   -2.115793
     36          1           0       -2.343378   -3.177733   -1.410408
 ---------------------------------------------------------------------
 Rotational constants (GHZ):           0.7993740           0.1888151           0.1684198
 Standard basis: Aug-CC-pVDZ (5D, 7F)
 There are   564 symmetry adapted cartesian basis functions of A   symmetry.
 There are   534 symmetry adapted basis functions of A   symmetry.
   534 basis functions,   876 primitive gaussians,   564 cartesian basis functions
    59 alpha electrons       59 beta electrons
       nuclear repulsion energy      1007.6784447398 Hartrees.
 NAtoms=   36 NActive=   36 NUniq=   36 SFac= 1.00D+00 NAtFMM=   60 NAOKFM=F Big=F
 Integral buffers will be    131072 words long.
 Raffenetti 2 integral format.
 Two-electron integral symmetry is turned on.
 Nuclear repulsion after empirical dispersion term =     1007.6556256245 Hartrees.
 One-electron integrals computed using PRISM.
 NBasis=   534 RedAO= T EigKep=  2.79D-06  NBF=   534
 NBsUse=   534 1.00D-06 EigRej= -1.00D+00 NBFU=   534
 ExpMin= 2.97D-02 ExpMax= 1.17D+04 ExpMxC= 4.01D+02 IAcc=3 IRadAn=         5 AccDes= 0.00D+00
 Harris functional with IExCor= 4639 and IRadAn=       5 diagonalized for initial guess.
 HarFok:  IExCor= 4639 AccDes= 0.00D+00 IRadAn=         5 IDoV= 1 UseB2=F ITyADJ=14
 ICtDFT=  3500011 ScaDFX=  1.000000  1.000000  1.000000  1.000000
 FoFCou: FMM=F IPFlag=           0 FMFlag=      100000 FMFlg1=           0
         NFxFlg=           0 DoJE=T BraDBF=F KetDBF=T FulRan=T
         wScrn=  0.000000 ICntrl=       500 IOpCl=  0 I1Cent=   200000004 NGrid=           0
         NMat0=    1 NMatS0=      1 NMatT0=    0 NMatD0=    1 NMtDS0=    0 NMtDT0=    0
 Petite list used in FoFCou.
 Requested convergence on RMS density matrix=1.00D-08 within 128 cycles.
 Requested convergence on MAX density matrix=1.00D-06.
 Requested convergence on             energy=1.00D-06.
 No special actions if energy rises.
 SCF Done:  E(RwB97XD) =  -728.586790508     A.U. after   14 cycles
            NFock= 14  Conv=0.68D-08     -V/T= 2.0063

 **********************************************************************

            Population analysis using the SCF density.

 **********************************************************************

 Orbital symmetries:
       Occupied  (A) (A) (A) (A) (A) (A) (A) (A) (A) (A) (A) (A)
                 (A) (A) (A) (A) (A) (A) (A) (A) (A) (A) (A) (A)
                 (A) (A) (A) (A) (A) (A) (A) (A) (A) (A) (A) (A)
                 (A) (A) (A) (A) (A) (A) (A) (A) (A) (A) (A) (A)
                 (A) (A) (A) (A) (A) (A) (A) (A) (A) (A) (A)
       Virtual   (A) (A) (A) (A) (A) (A) (A) (A) (A) (A) (A) (A)
                 (A) (A) (A) (A) (A) (A) (A) (A) (A) (A) (A) (A)
                 (A) (A) (A) (A) (A) (A) (A) (A) (A) (A) (A) (A)
                 (A) (A) (A) (A) (A) (A) (A) (A) (A) (A) (A) (A)
                 (A) (A) (A) (A) (A) (A) (A) (A) (A) (A) (A) (A)
                 (A) (A) (A) (A) (A) (A) (A) (A) (A) (A) (A) (A)
                 (A) (A) (A) (A) (A) (A) (A) (A) (A) (A) (A) (A)
                 (A) (A) (A) (A) (A) (A) (A) (A) (A) (A) (A) (A)
                 (A) (A) (A) (A) (A) (A) (A) (A) (A) (A) (A) (A)
                 (A) (A) (A) (A) (A) (A) (A) (A) (A) (A) (A) (A)
                 (A) (A) (A) (A) (A) (A) (A) (A) (A) (A) (A) (A)
                 (A) (A) (A) (A) (A) (A) (A) (A) (A) (A) (A) (A)
                 (A) (A) (A) (A) (A) (A) (A) (A) (A) (A) (A) (A)
                 (A) (A) (A) (A) (A) (A) (A) (A) (A) (A) (A) (A)
                 (A) (A) (A) (A) (A) (A) (A) (A) (A) (A) (A) (A)
                 (A) (A) (A) (A) (A) (A) (A) (A) (A) (A) (A) (A)
                 (A) (A) (A) (A) (A) (A) (A) (A) (A) (A) (A) (A)
                 (A) (A) (A) (A) (A) (A) (A) (A) (A) (A) (A) (A)
                 (A) (A) (A) (A) (A) (A) (A) (A) (A) (A) (A) (A)
                 (A) (A) (A) (A) (A) (A) (A) (A) (A) (A) (A) (A)
                 (A) (A) (A) (A) (A) (A) (A) (A) (A) (A) (A) (A)
                 (A) (A) (A) (A) (A) (A) (A) (A) (A) (A) (A) (A)
                 (A) (A) (A) (A) (A) (A) (A) (A) (A) (A) (A) (A)
                 (A) (A) (A) (A) (A) (A) (A) (A) (A) (A) (A) (A)
                 (A) (A) (A) (A) (A) (A) (A) (A) (A) (A) (A) (A)
                 (A) (A) (A) (A) (A) (A) (A) (A) (A) (A) (A) (A)
                 (A) (A) (A) (A) (A) (A) (A) (A) (A) (A) (A) (A)
                 (A) (A) (A) (A) (A) (A) (A) (A) (A) (A) (A) (A)
                 (A) (A) (A) (A) (A) (A) (A) (A) (A) (A) (A) (A)
                 (A) (A) (A) (A) (A) (A) (A) (A) (A) (A) (A) (A)
                 (A) (A) (A) (A) (A) (A) (A) (A) (A) (A) (A) (A)
                 (A) (A) (A) (A) (A) (A) (A) (A) (A) (A) (A) (A)
                 (A) (A) (A) (A) (A) (A) (A) (A) (A) (A) (A) (A)
                 (A) (A) (A) (A) (A) (A) (A) (A) (A) (A) (A) (A)
                 (A) (A) (A) (A) (A) (A) (A) (A) (A) (A) (A) (A)
                 (A) (A) (A) (A) (A) (A) (A) (A) (A) (A) (A) (A)
                 (A) (A) (A) (A) (A) (A) (A) (A) (A) (A) (A) (A)
                 (A) (A) (A) (A) (A) (A) (A) (A) (A) (A) (A) (A)
                 (A) (A) (A) (A) (A) (A) (A) (A) (A) (A) (A) (A)
                 (A) (A) (A) (A) (A) (A) (A)
 The electronic state is 1-A.
 Alpha  occ. eigenvalues --  -19.39784 -19.38885 -19.37918 -14.66725 -14.54655
 Alpha  occ. eigenvalues --  -10.50238 -10.49321 -10.46901 -10.46125 -10.45927
 Alpha  occ. eigenvalues --  -10.44890 -10.41311 -10.40837 -10.40356 -10.39287
 Alpha  occ. eigenvalues --   -1.25040  -1.24241  -1.23361  -1.21683  -1.14850
 Alpha  occ. eigenvalues --   -1.07249  -1.03522  -0.99037  -0.94634  -0.89762
 Alpha  occ. eigenvalues --   -0.88409  -0.86833  -0.81583  -0.78401  -0.77323
 Alpha  occ. eigenvalues --   -0.74728  -0.74531  -0.73484  -0.73408  -0.72821
 Alpha  occ. eigenvalues --   -0.69998  -0.68665  -0.68164  -0.66676  -0.64043
 Alpha  occ. eigenvalues --   -0.63302  -0.62737  -0.61501  -0.61388  -0.60313
 Alpha  occ. eigenvalues --   -0.58871  -0.57615  -0.56548  -0.55940  -0.54328
 Alpha  occ. eigenvalues --   -0.54030  -0.52765  -0.52640  -0.52251  -0.52017
 Alpha  occ. eigenvalues --   -0.51405  -0.51245  -0.48175  -0.40574
 Alpha virt. eigenvalues --   -0.13281  -0.09545  -0.06322  -0.05109  -0.04415
 Alpha virt. eigenvalues --   -0.04074  -0.03446  -0.02864  -0.02633  -0.02277
 Alpha virt. eigenvalues --   -0.01931  -0.01368  -0.01031  -0.00635  -0.00253
 Alpha virt. eigenvalues --    0.00059   0.00323   0.01051   0.01207   0.01884
 Alpha virt. eigenvalues --    0.02066   0.02649   0.03089   0.03500   0.03595
 Alpha virt. eigenvalues --    0.03721   0.04020   0.04521   0.04902   0.04947
 Alpha virt. eigenvalues --    0.05535   0.05687   0.06043   0.06494   0.06547
 Alpha virt. eigenvalues --    0.06903   0.07399   0.07681   0.07850   0.08239
 Alpha virt. eigenvalues --    0.08432   0.08826   0.09049   0.09260   0.09463
 Alpha virt. eigenvalues --    0.09928   0.10135   0.10400   0.10631   0.10890
 Alpha virt. eigenvalues --    0.11287   0.11654   0.12028   0.12318   0.12465
 Alpha virt. eigenvalues --    0.12706   0.12903   0.13221   0.13607   0.13776
 Alpha virt. eigenvalues --    0.14165   0.14557   0.14831   0.15131   0.15637
 Alpha virt. eigenvalues --    0.15746   0.16208   0.16294   0.16844   0.17213
 Alpha virt. eigenvalues --    0.17416   0.17668   0.17984   0.18156   0.18231
 Alpha virt. eigenvalues --    0.18736   0.19361   0.19437   0.19607   0.20144
 Alpha virt. eigenvalues --    0.20474   0.20795   0.20932   0.21279   0.21547
 Alpha virt. eigenvalues --    0.22149   0.22241   0.22574   0.22942   0.23096
 Alpha virt. eigenvalues --    0.23548   0.24047   0.24681   0.24789   0.25091
 Alpha virt. eigenvalues --    0.25589   0.25875   0.26501   0.26935   0.27059
 Alpha virt. eigenvalues --    0.27345   0.27740   0.27908   0.28656   0.29010
 Alpha virt. eigenvalues --    0.29222   0.29761   0.30488   0.30514   0.30676
 Alpha virt. eigenvalues --    0.31098   0.31711   0.32534   0.32904   0.33413
 Alpha virt. eigenvalues --    0.33644   0.34045   0.34537   0.34779   0.35340
 Alpha virt. eigenvalues --    0.35837   0.36098   0.36334   0.36555   0.37092
 Alpha virt. eigenvalues --    0.37415   0.37493   0.38127   0.38913   0.39093
 Alpha virt. eigenvalues --    0.39352   0.40143   0.40362   0.41188   0.41774
 Alpha virt. eigenvalues --    0.42028   0.42854   0.43298   0.43456   0.43522
 Alpha virt. eigenvalues --    0.43582   0.44003   0.44736   0.44996   0.45104
 Alpha virt. eigenvalues --    0.45525   0.45864   0.46339   0.46928   0.47633
 Alpha virt. eigenvalues --    0.47754   0.48419   0.48962   0.49150   0.49454
 Alpha virt. eigenvalues --    0.49823   0.50101   0.50595   0.50820   0.51302
 Alpha virt. eigenvalues --    0.51405   0.51481   0.52197   0.52529   0.52845
 Alpha virt. eigenvalues --    0.53107   0.53303   0.53918   0.54552   0.54841
 Alpha virt. eigenvalues --    0.55310   0.55946   0.56269   0.56497   0.56992
 Alpha virt. eigenvalues --    0.57325   0.57776   0.57969   0.58959   0.59107
 Alpha virt. eigenvalues --    0.59750   0.60236   0.60793   0.60865   0.61193
 Alpha virt. eigenvalues --    0.61852   0.62759   0.63012   0.63456   0.63936
 Alpha virt. eigenvalues --    0.64361   0.64715   0.64970   0.65215   0.65964
 Alpha virt. eigenvalues --    0.66363   0.67215   0.67641   0.67755   0.68206
 Alpha virt. eigenvalues --    0.68627   0.69210   0.69342   0.70153   0.70616
 Alpha virt. eigenvalues --    0.71140   0.71629   0.72414   0.72885   0.73305
 Alpha virt. eigenvalues --    0.73601   0.74136   0.74240   0.74943   0.75819
 Alpha virt. eigenvalues --    0.76433   0.77055   0.77596   0.77924   0.78317
 Alpha virt. eigenvalues --    0.78454   0.79334   0.79709   0.80320   0.80845
 Alpha virt. eigenvalues --    0.81559   0.82250   0.82382   0.83284   0.83509
 Alpha virt. eigenvalues --    0.84807   0.85727   0.86717   0.86777   0.87364
 Alpha virt. eigenvalues --    0.88493   0.88813   0.89088   0.90722   0.90841
 Alpha virt. eigenvalues --    0.92404   0.93080   0.93437   0.94890   0.95848
 Alpha virt. eigenvalues --    0.96189   0.96477   0.96788   0.98321   0.98947
 Alpha virt. eigenvalues --    0.99707   1.00570   1.01673   1.01717   1.02155
 Alpha virt. eigenvalues --    1.03424   1.04379   1.04774   1.05975   1.06525
 Alpha virt. eigenvalues --    1.06783   1.08426   1.08916   1.10300   1.10539
 Alpha virt. eigenvalues --    1.11035   1.11807   1.12564   1.13479   1.15156
 Alpha virt. eigenvalues --    1.16245   1.16581   1.18105   1.20162   1.20978
 Alpha virt. eigenvalues --    1.21889   1.22392   1.22647   1.24596   1.25450
 Alpha virt. eigenvalues --    1.26206   1.26915   1.27164   1.29319   1.29601
 Alpha virt. eigenvalues --    1.31453   1.32195   1.33171   1.33472   1.34867
 Alpha virt. eigenvalues --    1.35045   1.36291   1.36886   1.37373   1.37882
 Alpha virt. eigenvalues --    1.39312   1.40413   1.41145   1.41775   1.42540
 Alpha virt. eigenvalues --    1.43271   1.44723   1.45767   1.46164   1.47745
 Alpha virt. eigenvalues --    1.48409   1.49571   1.49925   1.50801   1.52255
 Alpha virt. eigenvalues --    1.52927   1.54388   1.55661   1.56750   1.58420
 Alpha virt. eigenvalues --    1.59902   1.60056   1.61308   1.61670   1.63093
 Alpha virt. eigenvalues --    1.64164   1.64975   1.65383   1.66873   1.67459
 Alpha virt. eigenvalues --    1.68139   1.68266   1.70056   1.70511   1.71815
 Alpha virt. eigenvalues --    1.72150   1.72341   1.73091   1.73757   1.74594
 Alpha virt. eigenvalues --    1.75400   1.77158   1.77839   1.78282   1.79233
 Alpha virt. eigenvalues --    1.80114   1.80414   1.81904   1.82353   1.82703
 Alpha virt. eigenvalues --    1.83118   1.84776   1.85662   1.86063   1.86436
 Alpha virt. eigenvalues --    1.87039   1.88385   1.89117   1.90141   1.90379
 Alpha virt. eigenvalues --    1.91296   1.93011   1.93717   1.94679   1.95175
 Alpha virt. eigenvalues --    1.95656   1.96201   1.97614   1.97991   1.99910
 Alpha virt. eigenvalues --    2.00244   2.01164   2.03044   2.03694   2.03973
 Alpha virt. eigenvalues --    2.04331   2.06005   2.06774   2.09216   2.09870
 Alpha virt. eigenvalues --    2.10557   2.11628   2.12767   2.14017   2.14485
 Alpha virt. eigenvalues --    2.15524   2.16026   2.16182   2.17297   2.18356
 Alpha virt. eigenvalues --    2.20241   2.21131   2.21654   2.22664   2.23813
 Alpha virt. eigenvalues --    2.24430   2.25019   2.27142   2.27971   2.29229
 Alpha virt. eigenvalues --    2.29507   2.31543   2.31909   2.33803   2.34600
 Alpha virt. eigenvalues --    2.35601   2.36514   2.38164   2.39315   2.40537
 Alpha virt. eigenvalues --    2.42938   2.43487   2.45382   2.45889   2.47473
 Alpha virt. eigenvalues --    2.47758   2.48373   2.50992   2.51431   2.52587
 Alpha virt. eigenvalues --    2.54961   2.55635   2.56508   2.57053   2.58776
 Alpha virt. eigenvalues --    2.59032   2.60283   2.62725   2.63827   2.64927
 Alpha virt. eigenvalues --    2.66022   2.66813   2.67905   2.68601   2.69362
 Alpha virt. eigenvalues --    2.70435   2.73101   2.74636   2.75671   2.77528
 Alpha virt. eigenvalues --    2.79046   2.81085   2.81977   2.83029   2.83692
 Alpha virt. eigenvalues --    2.84524   2.85166   2.86601   2.88917   2.89854
 Alpha virt. eigenvalues --    2.92086   2.98599   3.02842   3.03854   3.08604
 Alpha virt. eigenvalues --    3.12118   3.14765   3.21546   3.28855   3.31320
 Alpha virt. eigenvalues --    3.32051   3.34298   3.35788   3.41227   3.43328
 Alpha virt. eigenvalues --    3.46409   3.48553   3.49976   3.51159   3.61380
 Alpha virt. eigenvalues --    3.62378   3.66597   3.78857   3.81626   3.89549
 Alpha virt. eigenvalues --    3.90019   4.03291   4.05498   4.07031   4.40050
          Condensed to atoms (all electrons):
               1          2          3          4          5          6
     1  C   22.681689  -9.879407  -1.383647  -0.010317   1.907806  -4.219456
     2  C   -9.879407  19.598711  -3.302855   0.144365  -2.342694   1.903388
     3  C   -1.383647  -3.302855  15.138236  -1.078062  -0.468773  -1.136379
     4  N   -0.010317   0.144365  -1.078062   7.487626   0.471463  -0.041461
     5  C    1.907806  -2.342694  -0.468773   0.471463   9.703554  -2.543266
     6  C   -4.219456   1.903388  -1.136379  -0.041461  -2.543266  11.828834
     7  C   -2.009294  -2.269933  -2.641272   0.360853  -0.276311  -0.119715
     8  N   -0.306935   0.372741   0.165267   0.016511  -0.074530   0.034700
     9  C    0.079055  -0.038969  -0.279991   0.033359  -0.014589  -0.008155
    10  C   -0.369122   0.403290   0.359845  -0.056170  -0.035393   0.031654
    11  C   -0.096910   0.103563  -0.550338   0.054140  -0.160560   0.196642
    12  O    0.059265  -0.127920   0.090160  -0.187847   0.060530  -0.064085
    13  O   -0.000390   0.002711  -0.010956   0.002817   0.009929   0.000814
    14  H   -0.001548  -0.106698   0.019862   0.007202   0.002814  -0.004714
    15  H    0.010526  -0.105883  -0.031361   0.001140  -0.004438   0.006681
    16  H    0.015975   0.201181   0.051543  -0.008128   0.016037  -0.016114
    17  H   -0.043697   0.406331   0.051749  -0.003717   0.002001  -0.001474
    18  H    0.028347  -0.409909   0.122755  -0.004566   0.009673   0.010812
    19  H    0.014752   0.156511  -0.033123  -0.002471   0.000433   0.004456
    20  H    0.054133   0.285417   0.091021  -0.007953  -0.007846   0.044528
    21  H   -0.121773  -0.245372  -0.814699  -0.026932  -0.040703   0.038008
    22  H    0.041815   0.112817   0.189968  -0.060980  -0.827943   0.282689
    23  H    0.758562  -0.297382   0.029701  -0.030885   0.474223  -1.165841
    24  H   -2.167521   1.001310   0.158577  -0.071230  -0.222915   0.770064
    25  C   -0.135652  -0.008596   0.110293  -0.019922  -0.015332   0.002697
    26  H    0.089071  -0.471089   0.362298  -0.008042  -0.317790  -0.159441
    27  H    0.008539  -0.005262   0.006759   0.004139  -0.004872  -0.005832
    28  H   -0.005704   0.008899  -0.000346   0.000350  -0.009055   0.011557
    29  H   -0.000677   0.000735   0.000186   0.000834  -0.000993   0.000136
    30  H   -0.000555   0.000645  -0.002180   0.000402   0.000279   0.000887
    31  O    0.000005   0.000132  -0.000081   0.000144   0.000441   0.000125
    32  H    0.000009   0.000015  -0.000017   0.000029  -0.000001  -0.000042
    33  H    0.000014  -0.000020   0.000070  -0.000053  -0.000067   0.000041
    34  H   -0.089118   0.195846   0.056200  -0.010830  -0.007954   0.011757
    35  H    0.028137   0.003163  -0.038762   0.000676  -0.000495  -0.001086
    36  H    0.023758  -0.045507   0.040558  -0.002585   0.002673  -0.004228
               7          8          9         10         11         12
     1  C   -2.009294  -0.306935   0.079055  -0.369122  -0.096910   0.059265
     2  C   -2.269933   0.372741  -0.038969   0.403290   0.103563  -0.127920
     3  C   -2.641272   0.165267  -0.279991   0.359845  -0.550338   0.090160
     4  N    0.360853   0.016511   0.033359  -0.056170   0.054140  -0.187847
     5  C   -0.276311  -0.074530  -0.014589  -0.035393  -0.160560   0.060530
     6  C   -0.119715   0.034700  -0.008155   0.031654   0.196642  -0.064085
     7  C   16.414205  -1.441595  -0.265553  -0.724160   0.071723  -0.003674
     8  N   -1.441595   8.884695   0.198276  -0.069224  -0.339535   0.001380
     9  C   -0.265553   0.198276   5.364222   0.212210   0.045275  -0.000431
    10  C   -0.724160  -0.069224   0.212210   5.837701  -0.101233  -0.000016
    11  C    0.071723  -0.339535   0.045275  -0.101233   5.946639  -0.001020
    12  O   -0.003674   0.001380  -0.000431  -0.000016  -0.001020   7.986463
    13  O    0.000444  -0.000065  -0.000052  -0.000007   0.000020  -0.045295
    14  H    0.239376  -0.358690  -0.124889   0.039210   0.064142  -0.000239
    15  H    0.183370   0.020971   0.066185  -0.066673   0.097543   0.000004
    16  H   -0.354196   0.125296   0.043724  -0.308238   0.078465   0.000458
    17  H    0.027383   0.048264  -0.148440  -0.012857  -0.351705  -0.000024
    18  H   -0.213782   0.058699   0.063531   0.193259  -0.289689  -0.000026
    19  H   -0.329486   0.156967  -0.175347  -0.130812   0.080359  -0.000035
    20  H   -1.390383  -0.105897  -0.010763   0.099477   0.217906  -0.000054
    21  H    0.545697  -0.335784   0.018441   0.015667   0.019404  -0.001743
    22  H   -0.001211   0.003746  -0.000734  -0.000104   0.007717  -0.001204
    23  H   -0.025018  -0.001432   0.000132   0.002790  -0.011864  -0.001204
    24  H   -0.297878   0.061012  -0.013683   0.023467   0.040223   0.001166
    25  C   -0.128351   0.436907  -0.219172  -0.026332  -0.031487  -0.000153
    26  H   -0.055575  -0.005731   0.005031   0.003305  -0.029041   0.019865
    27  H   -0.002747   0.000949   0.000832  -0.000032  -0.000221   0.320925
    28  H    0.002222   0.000039  -0.000490   0.000096   0.000678   0.363296
    29  H    0.000136  -0.000087  -0.000083   0.000006  -0.000010   0.002946
    30  H    0.000283  -0.000032   0.000043  -0.000002   0.000027   0.001108
    31  O    0.000003   0.000000   0.000001  -0.000000   0.000000   0.000672
    32  H   -0.000001   0.000000   0.000000  -0.000000  -0.000000   0.000142
    33  H    0.000001   0.000001   0.000001  -0.000000   0.000000  -0.000074
    34  H   -0.001484  -0.000503  -0.162859   0.037489  -0.025484  -0.000002
    35  H   -0.009896   0.009069   0.150005  -0.000831   0.022899   0.000038
    36  H   -0.070170  -0.262239   0.045296  -0.022749   0.020076   0.000049
              13         14         15         16         17         18
     1  C   -0.000390  -0.001548   0.010526   0.015975  -0.043697   0.028347
     2  C    0.002711  -0.106698  -0.105883   0.201181   0.406331  -0.409909
     3  C   -0.010956   0.019862  -0.031361   0.051543   0.051749   0.122755
     4  N    0.002817   0.007202   0.001140  -0.008128  -0.003717  -0.004566
     5  C    0.009929   0.002814  -0.004438   0.016037   0.002001   0.009673
     6  C    0.000814  -0.004714   0.006681  -0.016114  -0.001474   0.010812
     7  C    0.000444   0.239376   0.183370  -0.354196   0.027383  -0.213782
     8  N   -0.000065  -0.358690   0.020971   0.125296   0.048264   0.058699
     9  C   -0.000052  -0.124889   0.066185   0.043724  -0.148440   0.063531
    10  C   -0.000007   0.039210  -0.066673  -0.308238  -0.012857   0.193259
    11  C    0.000020   0.064142   0.097543   0.078465  -0.351705  -0.289689
    12  O   -0.045295  -0.000239   0.000004   0.000458  -0.000024  -0.000026
    13  O    7.777164   0.000015  -0.000001  -0.000042  -0.000000   0.000015
    14  H    0.000015   2.260078  -0.005178  -0.175953  -0.005307   0.001031
    15  H   -0.000001  -0.005178   1.793602  -0.429647  -0.187066   0.023508
    16  H   -0.000042  -0.175953  -0.429647   2.070004   0.148274  -0.175860
    17  H   -0.000000  -0.005307  -0.187066   0.148274   2.194639  -0.585023
    18  H    0.000015   0.001031   0.023508  -0.175860  -0.585023   2.545300
    19  H   -0.000009  -0.398516  -0.150119   0.135253   0.051549   0.005703
    20  H    0.000010   0.021769   0.028694  -0.038435  -0.248651   0.143336
    21  H    0.003621   0.020122   0.002961  -0.044675  -0.010480   0.036118
    22  H    0.002730   0.000034  -0.000065   0.000093   0.000821   0.000015
    23  H   -0.000038  -0.000107   0.000265   0.000492  -0.001006  -0.004155
    24  H   -0.000022  -0.000581  -0.000636   0.008374   0.019840  -0.059231
    25  C   -0.000013  -0.035489  -0.003114   0.025055   0.018931  -0.010056
    26  H   -0.018095  -0.003384   0.000835  -0.000088  -0.001303   0.004329
    27  H   -0.009557  -0.000264  -0.000020   0.000219   0.000056  -0.000096
    28  H    0.005220   0.000214   0.000010  -0.000032   0.000005  -0.000026
    29  H    0.329272   0.000008   0.000001  -0.000026  -0.000003   0.000011
    30  H    0.361277   0.000003  -0.000000   0.000005   0.000002  -0.000004
    31  O   -0.034850   0.000001  -0.000000  -0.000000   0.000000   0.000000
    32  H    0.001546   0.000000  -0.000000   0.000000   0.000000  -0.000000
    33  H    0.001363   0.000000   0.000000   0.000000   0.000000  -0.000000
    34  H   -0.000025  -0.012116  -0.003137   0.010536   0.006777  -0.008526
    35  H    0.000004   0.013229   0.007385  -0.010351  -0.005535   0.005745
    36  H   -0.000014   0.009171  -0.002974   0.002175   0.004459   0.000127
              19         20         21         22         23         24
     1  C    0.014752   0.054133  -0.121773   0.041815   0.758562  -2.167521
     2  C    0.156511   0.285417  -0.245372   0.112817  -0.297382   1.001310
     3  C   -0.033123   0.091021  -0.814699   0.189968   0.029701   0.158577
     4  N   -0.002471  -0.007953  -0.026932  -0.060980  -0.030885  -0.071230
     5  C    0.000433  -0.007846  -0.040703  -0.827943   0.474223  -0.222915
     6  C    0.004456   0.044528   0.038008   0.282689  -1.165841   0.770064
     7  C   -0.329486  -1.390383   0.545697  -0.001211  -0.025018  -0.297878
     8  N    0.156967  -0.105897  -0.335784   0.003746  -0.001432   0.061012
     9  C   -0.175347  -0.010763   0.018441  -0.000734   0.000132  -0.013683
    10  C   -0.130812   0.099477   0.015667  -0.000104   0.002790   0.023467
    11  C    0.080359   0.217906   0.019404   0.007717  -0.011864   0.040223
    12  O   -0.000035  -0.000054  -0.001743  -0.001204  -0.001204   0.001166
    13  O   -0.000009   0.000010   0.003621   0.002730  -0.000038  -0.000022
    14  H   -0.398516   0.021769   0.020122   0.000034  -0.000107  -0.000581
    15  H   -0.150119   0.028694   0.002961  -0.000065   0.000265  -0.000636
    16  H    0.135253  -0.038435  -0.044675   0.000093   0.000492   0.008374
    17  H    0.051549  -0.248651  -0.010480   0.000821  -0.001006   0.019840
    18  H    0.005703   0.143336   0.036118   0.000015  -0.004155  -0.059231
    19  H    2.029645  -0.029187   0.011656   0.000023   0.000033   0.000720
    20  H   -0.029187   2.288462   0.051532  -0.002186  -0.003199  -0.048841
    21  H    0.011656   0.051532   3.000520   0.014939  -0.001219  -0.034247
    22  H    0.000023  -0.002186   0.014939   2.167307  -0.119576  -0.010902
    23  H    0.000033  -0.003199  -0.001219  -0.119576   2.075680  -0.132607
    24  H    0.000720  -0.048841  -0.034247  -0.010902  -0.132607   2.814117
    25  C    0.046707  -0.001733  -0.036428  -0.000074   0.000930   0.010546
    26  H    0.000461   0.001108  -0.065036  -0.151136   0.013448   0.011396
    27  H    0.000110  -0.000230  -0.001392  -0.000068  -0.000009   0.000078
    28  H   -0.000064   0.000051   0.003120   0.006681  -0.000263  -0.000115
    29  H   -0.000006   0.000020   0.000648  -0.000340   0.000019  -0.000017
    30  H   -0.000002  -0.000004  -0.000497   0.000009   0.000005  -0.000010
    31  O    0.000000   0.000000  -0.000133  -0.000057   0.000008  -0.000001
    32  H    0.000000   0.000000  -0.000013  -0.000004   0.000000   0.000000
    33  H    0.000000  -0.000000  -0.000021   0.000009  -0.000002   0.000001
    34  H    0.007548   0.016347  -0.013464   0.000795   0.000518  -0.002939
    35  H    0.026253  -0.018761  -0.005102  -0.000027  -0.000027   0.003068
    36  H   -0.021141   0.002997   0.012942  -0.000057  -0.000067   0.001916
              25         26         27         28         29         30
     1  C   -0.135652   0.089071   0.008539  -0.005704  -0.000677  -0.000555
     2  C   -0.008596  -0.471089  -0.005262   0.008899   0.000735   0.000645
     3  C    0.110293   0.362298   0.006759  -0.000346   0.000186  -0.002180
     4  N   -0.019922  -0.008042   0.004139   0.000350   0.000834   0.000402
     5  C   -0.015332  -0.317790  -0.004872  -0.009055  -0.000993   0.000279
     6  C    0.002697  -0.159441  -0.005832   0.011557   0.000136   0.000887
     7  C   -0.128351  -0.055575  -0.002747   0.002222   0.000136   0.000283
     8  N    0.436907  -0.005731   0.000949   0.000039  -0.000087  -0.000032
     9  C   -0.219172   0.005031   0.000832  -0.000490  -0.000083   0.000043
    10  C   -0.026332   0.003305  -0.000032   0.000096   0.000006  -0.000002
    11  C   -0.031487  -0.029041  -0.000221   0.000678  -0.000010   0.000027
    12  O   -0.000153   0.019865   0.320925   0.363296   0.002946   0.001108
    13  O   -0.000013  -0.018095  -0.009557   0.005220   0.329272   0.361277
    14  H   -0.035489  -0.003384  -0.000264   0.000214   0.000008   0.000003
    15  H   -0.003114   0.000835  -0.000020   0.000010   0.000001  -0.000000
    16  H    0.025055  -0.000088   0.000219  -0.000032  -0.000026   0.000005
    17  H    0.018931  -0.001303   0.000056   0.000005  -0.000003   0.000002
    18  H   -0.010056   0.004329  -0.000096  -0.000026   0.000011  -0.000004
    19  H    0.046707   0.000461   0.000110  -0.000064  -0.000006  -0.000002
    20  H   -0.001733   0.001108  -0.000230   0.000051   0.000020  -0.000004
    21  H   -0.036428  -0.065036  -0.001392   0.003120   0.000648  -0.000497
    22  H   -0.000074  -0.151136  -0.000068   0.006681  -0.000340   0.000009
    23  H    0.000930   0.013448  -0.000009  -0.000263   0.000019   0.000005
    24  H    0.010546   0.011396   0.000078  -0.000115  -0.000017  -0.000010
    25  C    4.438073  -0.002070  -0.000591   0.000271   0.000058  -0.000008
    26  H   -0.002070   1.699620   0.000851  -0.020019   0.000801   0.001963
    27  H   -0.000591   0.000851   0.510823  -0.111295  -0.003148  -0.005213
    28  H    0.000271  -0.020019  -0.111295   0.610589  -0.000147  -0.000355
    29  H    0.000058   0.000801  -0.003148  -0.000147   0.541660  -0.105575
    30  H   -0.000008   0.001963  -0.005213  -0.000355  -0.105575   0.611990
    31  O   -0.000000  -0.000643  -0.001141   0.000423   0.007774   0.001162
    32  H   -0.000000   0.000191   0.000167  -0.000110  -0.002003  -0.000376
    33  H   -0.000001  -0.000088   0.000776  -0.000057  -0.004281  -0.000931
    34  H    0.301478  -0.004857   0.000059   0.000062  -0.000044   0.000019
    35  H    0.094361   0.001391   0.000081  -0.000016  -0.000000  -0.000000
    36  H    0.382282   0.001803  -0.000234  -0.000024   0.000029  -0.000026
              31         32         33         34         35         36
     1  C    0.000005   0.000009   0.000014  -0.089118   0.028137   0.023758
     2  C    0.000132   0.000015  -0.000020   0.195846   0.003163  -0.045507
     3  C   -0.000081  -0.000017   0.000070   0.056200  -0.038762   0.040558
     4  N    0.000144   0.000029  -0.000053  -0.010830   0.000676  -0.002585
     5  C    0.000441  -0.000001  -0.000067  -0.007954  -0.000495   0.002673
     6  C    0.000125  -0.000042   0.000041   0.011757  -0.001086  -0.004228
     7  C    0.000003  -0.000001   0.000001  -0.001484  -0.009896  -0.070170
     8  N    0.000000   0.000000   0.000001  -0.000503   0.009069  -0.262239
     9  C    0.000001   0.000000   0.000001  -0.162859   0.150005   0.045296
    10  C   -0.000000  -0.000000  -0.000000   0.037489  -0.000831  -0.022749
    11  C    0.000000  -0.000000   0.000000  -0.025484   0.022899   0.020076
    12  O    0.000672   0.000142  -0.000074  -0.000002   0.000038   0.000049
    13  O   -0.034850   0.001546   0.001363  -0.000025   0.000004  -0.000014
    14  H    0.000001   0.000000   0.000000  -0.012116   0.013229   0.009171
    15  H   -0.000000  -0.000000   0.000000  -0.003137   0.007385  -0.002974
    16  H   -0.000000   0.000000   0.000000   0.010536  -0.010351   0.002175
    17  H    0.000000   0.000000   0.000000   0.006777  -0.005535   0.004459
    18  H    0.000000  -0.000000  -0.000000  -0.008526   0.005745   0.000127
    19  H    0.000000   0.000000   0.000000   0.007548   0.026253  -0.021141
    20  H    0.000000   0.000000  -0.000000   0.016347  -0.018761   0.002997
    21  H   -0.000133  -0.000013  -0.000021  -0.013464  -0.005102   0.012942
    22  H   -0.000057  -0.000004   0.000009   0.000795  -0.000027  -0.000057
    23  H    0.000008   0.000000  -0.000002   0.000518  -0.000027  -0.000067
    24  H   -0.000001   0.000000   0.000001  -0.002939   0.003068   0.001916
    25  C   -0.000000  -0.000000  -0.000001   0.301478   0.094361   0.382282
    26  H   -0.000643   0.000191  -0.000088  -0.004857   0.001391   0.001803
    27  H   -0.001141   0.000167   0.000776   0.000059   0.000081  -0.000234
    28  H    0.000423  -0.000110  -0.000057   0.000062  -0.000016  -0.000024
    29  H    0.007774  -0.002003  -0.004281  -0.000044  -0.000000   0.000029
    30  H    0.001162  -0.000376  -0.000931   0.000019  -0.000000  -0.000026
    31  O    7.627333   0.355934   0.359331   0.000004  -0.000000  -0.000001
    32  H    0.355934   0.570320  -0.074953   0.000000  -0.000000   0.000000
    33  H    0.359331  -0.074953   0.573001   0.000001  -0.000000  -0.000001
    34  H    0.000004   0.000000   0.000001   1.896382  -0.352210  -0.527514
    35  H   -0.000000  -0.000000  -0.000000  -0.352210   1.508209  -0.288867
    36  H   -0.000001   0.000000  -0.000001  -0.527514  -0.288867   1.955032
 Mulliken charges:
               1
     1  C    1.040265
     2  C    0.755727
     3  C    0.727793
     4  N    0.046101
     5  C    0.714664
     6  C    0.310816
     7  C    0.785985
     8  N   -0.293211
     9  C    1.138580
    10  C    0.664491
    11  C    0.921656
    12  O   -0.473421
    13  O   -0.379541
    14  H   -0.464610
    15  H   -0.253368
    16  H   -0.371372
    17  H   -0.374789
    18  H   -0.491363
    19  H   -0.458822
    20  H   -0.432686
    21  H   -0.995681
    22  H   -0.655542
    23  H   -0.560904
    24  H   -0.862501
    25  C    0.805983
    26  H    0.095661
    27  H    0.296861
    28  H    0.134334
    29  H    0.232160
    30  H    0.135662
    31  O   -0.316584
    32  H    0.149166
    33  H    0.145937
    34  H   -0.318754
    35  H   -0.141747
    36  H   -0.256945
 Sum of Mulliken charges =   1.00000
 Mulliken charges with hydrogens summed into heavy atoms:
               1
     1  C    0.177764
     2  C    0.755727
     3  C   -0.267888
     4  N    0.141762
     5  C    0.059123
     6  C   -0.250088
     7  C    0.353299
     8  N   -0.293211
     9  C    0.215148
    10  C    0.039751
    11  C    0.055504
    12  O   -0.042226
    13  O   -0.011720
    25  C    0.088537
    31  O   -0.021481
 Electronic spatial extent (au):  <R**2>=           6529.9751
 Charge=              1.0000 electrons
 Dipole moment (field-independent basis, Debye):
    X=              6.7213    Y=              1.7964    Z=             -0.0878  Tot=              6.9578
 Quadrupole moment (field-independent basis, Debye-Ang):
   XX=             13.4012   YY=            -66.5488   ZZ=            -81.4345
   XY=             -8.6453   XZ=              0.8151   YZ=             -2.8643
 Traceless Quadrupole moment (field-independent basis, Debye-Ang):
   XX=             58.2619   YY=            -21.6881   ZZ=            -36.5738
   XY=             -8.6453   XZ=              0.8151   YZ=             -2.8643
 Octapole moment (field-independent basis, Debye-Ang**2):
  XXX=            692.5865  YYY=             17.3816  ZZZ=             15.2614  XYY=             39.0335
  XXY=            -80.8088  XXZ=            -30.6543  XZZ=             49.3792  YZZ=            -10.2065
  YYZ=            -12.9642  XYZ=              2.2997
 Hexadecapole moment (field-independent basis, Debye-Ang**3):
 XXXX=            -94.6520 YYYY=          -1103.8994 ZZZZ=           -466.9617 XXXY=           -513.8352
 XXXZ=           -345.6685 YYYX=            -92.1060 YYYZ=            -26.7463 ZZZX=             26.3436
 ZZZY=             -5.3123 XXYY=          -1078.7810 XXZZ=           -869.0675 YYZZ=           -306.3555
 XXYZ=            -26.5819 YYXZ=             11.9138 ZZXY=            -21.3673
 N-N= 1.007655625624D+03 E-N=-3.700138720235D+03  KE= 7.240346564473D+02
 Calling FoFJK, ICntrl=      2127 FMM=F ISym2X=0 I1Cent= 0 IOpClX= 0 NMat=1 NMatS=1 NMatT=0.
 ***** Axes restored to original set *****
 -------------------------------------------------------------------
 Center     Atomic                   Forces (Hartrees/Bohr)
 Number     Number              X              Y              Z
 -------------------------------------------------------------------
      1        6           0.000042662    0.000067121   -0.000068652
      2        6          -0.000312898   -0.000420538   -0.000930169
      3        6           0.000005388   -0.000033155   -0.000197847
      4        7           0.000125935    0.000072761   -0.000109215
      5        6           0.000032265   -0.000074303    0.000063187
      6        6          -0.000081876    0.000007012    0.000011380
      7        6          -0.000655437   -0.001153967    0.006192576
      8        7          -0.002872343   -0.004623019   -0.005048818
      9        6           0.003323266    0.007262002    0.004108761
     10        6          -0.000369014   -0.000727475    0.000963357
     11        6           0.000326952    0.000180487   -0.000036512
     12        8           0.000000519   -0.000044876   -0.000023754
     13        8          -0.000044322   -0.000014467   -0.000016445
     14        1           0.000288905   -0.000529631   -0.000852396
     15        1          -0.000044159    0.000184829    0.000203175
     16        1          -0.000182332   -0.000013213    0.000068672
     17        1           0.000084847   -0.000014626   -0.000043448
     18        1          -0.000259799    0.000105350    0.000079593
     19        1          -0.000915329    0.000019827   -0.002493681
     20        1          -0.000688104   -0.000683321   -0.001284184
     21        1          -0.000158452   -0.000026658    0.000168380
     22        1          -0.000014216    0.000007251    0.000028987
     23        1          -0.000004023   -0.000018571    0.000018492
     24        1           0.000042912   -0.000055352   -0.000016424
     25        6           0.007455334   -0.000542735    0.000974566
     26        1          -0.000037046    0.000038328   -0.000023197
     27        1           0.000001600    0.000015377    0.000019302
     28        1           0.000000449    0.000010725    0.000008488
     29        1           0.000032815    0.000017207    0.000002852
     30        1           0.000020181   -0.000000901    0.000003568
     31        8          -0.000003517    0.000002210   -0.000009945
     32        1           0.000003631   -0.000005315    0.000012309
     33        1          -0.000005026    0.000004936   -0.000003560
     34        1           0.001303284    0.001769841   -0.000223768
     35        1          -0.005940175    0.000417308   -0.003412920
     36        1          -0.000502878   -0.001200451    0.001867292
 -------------------------------------------------------------------
 Cartesian Forces:  Max     0.007455334 RMS     0.001677399

 GradGradGradGradGradGradGradGradGradGradGradGradGradGradGradGradGradGrad
 Berny optimization.
 FormGI is forming the generalized inverse of G from B-inverse, IUseBI=4.
 Internal  Forces:  Max     0.006847404 RMS     0.000911229
 Search for a local minimum.
 Step number   1 out of a maximum of  200
 All quantities printed in internal units (Hartrees-Bohrs-Radians)
 Mixed Optimization -- En-DIIS/RFO-DIIS
 Second derivative matrix not updated -- first step.
 ITU=  0
     Eigenvalues ---    0.00230   0.00230   0.00230   0.00230   0.00230
     Eigenvalues ---    0.00230   0.00230   0.00230   0.00230   0.00244
     Eigenvalues ---    0.00474   0.00483   0.00717   0.00901   0.00957
     Eigenvalues ---    0.00980   0.01478   0.01935   0.02060   0.02135
     Eigenvalues ---    0.02172   0.02241   0.02292   0.02351   0.02382
     Eigenvalues ---    0.02443   0.02629   0.03446   0.04670   0.04987
     Eigenvalues ---    0.05130   0.05395   0.05860   0.06196   0.06269
     Eigenvalues ---    0.06400   0.06583   0.06693   0.06825   0.07212
     Eigenvalues ---    0.07473   0.07991   0.08129   0.09092   0.09200
     Eigenvalues ---    0.10395   0.13454   0.15125   0.15982   0.15999
     Eigenvalues ---    0.16000   0.16000   0.16000   0.16000   0.16000
     Eigenvalues ---    0.16000   0.16000   0.16000   0.16000   0.16000
     Eigenvalues ---    0.16000   0.16329   0.18001   0.20535   0.21998
     Eigenvalues ---    0.22000   0.23457   0.24996   0.26197   0.27556
     Eigenvalues ---    0.28563   0.30171   0.33406   0.33588   0.33640
     Eigenvalues ---    0.33752   0.33984   0.34061   0.34113   0.34144
     Eigenvalues ---    0.34176   0.34200   0.34260   0.34693   0.35102
     Eigenvalues ---    0.35110   0.35140   0.35147   0.37750   0.39403
     Eigenvalues ---    0.43203   0.43662   0.46820   0.48205   0.49942
     Eigenvalues ---    0.52192   0.54264   0.55303   0.55308   0.55584
     Eigenvalues ---    0.55703   0.56211
 RFO step:  Lambda=-1.14120410D-03 EMin= 2.30000000D-03
 Linear search not attempted -- first point.
 Iteration  1 RMS(Cart)=  0.04242950 RMS(Int)=  0.00077939
 Iteration  2 RMS(Cart)=  0.00120024 RMS(Int)=  0.00007668
 Iteration  3 RMS(Cart)=  0.00000081 RMS(Int)=  0.00007668
 Variable       Old X    -DE/DX   Delta X   Delta X   Delta X     New X
                                 (Linear)    (Quad)   (Total)
    R1        2.64467  -0.00002   0.00000  -0.00006  -0.00006   2.64461
    R2        2.63270  -0.00004   0.00000  -0.00008  -0.00008   2.63262
    R3        2.06177  -0.00006   0.00000  -0.00017  -0.00017   2.06160
    R4        2.61987  -0.00010   0.00000  -0.00020  -0.00020   2.61966
    R5        2.87624  -0.00081   0.00000  -0.00267  -0.00267   2.87358
    R6        2.53741   0.00006   0.00000   0.00011   0.00011   2.53752
    R7        2.05438   0.00003   0.00000   0.00008   0.00008   2.05445
    R8        2.53336  -0.00004   0.00000  -0.00007  -0.00007   2.53329
    R9        1.99073  -0.00005   0.00000  -0.00011  -0.00011   1.99061
   R10        2.61494   0.00006   0.00000   0.00012   0.00012   2.61506
   R11        2.05448  -0.00000   0.00000  -0.00000  -0.00000   2.05448
   R12        2.05497  -0.00002   0.00000  -0.00005  -0.00005   2.05492
   R13        2.76704  -0.00017   0.00000  -0.00205  -0.00201   2.76503
   R14        2.92849  -0.00022   0.00000   0.00067   0.00060   2.92909
   R15        2.07943   0.00107   0.00000   0.00317   0.00317   2.08260
   R16        2.78327  -0.00220   0.00000  -0.00838  -0.00829   2.77498
   R17        2.74730   0.00062   0.00000   0.00165   0.00165   2.74895
   R18        2.88239  -0.00045   0.00000  -0.00008  -0.00003   2.88236
   R19        2.07227   0.00024   0.00000   0.00069   0.00069   2.07296
   R20        2.08344   0.00199   0.00000   0.00592   0.00592   2.08936
   R21        2.89211  -0.00107   0.00000  -0.00203  -0.00212   2.89000
   R22        2.06893   0.00010   0.00000   0.00028   0.00028   2.06922
   R23        2.07751  -0.00009   0.00000  -0.00026  -0.00026   2.07725
   R24        2.07357  -0.00005   0.00000  -0.00016  -0.00016   2.07341
   R25        2.07140   0.00011   0.00000   0.00032   0.00032   2.07171
   R26        3.02375   0.00001   0.00000   0.00012   0.00012   3.02387
   R27        1.86622  -0.00000   0.00000  -0.00001  -0.00001   1.86621
   R28        1.81213   0.00000   0.00000   0.00001   0.00001   1.81214
   R29        3.14116   0.00001   0.00000   0.00013   0.00013   3.14129
   R30        1.84416   0.00003   0.00000   0.00006   0.00006   1.84422
   R31        1.81317   0.00000   0.00000   0.00000   0.00000   1.81317
   R32        2.07034   0.00185   0.00000   0.00541   0.00541   2.07575
   R33        2.07088   0.00685   0.00000   0.01999   0.01999   2.09087
[...]
 107,0.00000496,-0.00000122,-0.00000488,0.00001809,-0.00000162,-0.00003
 717,-0.00028327,0.00016318,-0.00016638,-0.00003414,-0.00025818,-0.0003
 6286,-0.00024060,-0.00008428,0.00000531,-0.00173110,0.00226955,-0.0102
 7185,0.00037076,0.00007406,-0.00038352,0.05891437,-0.21411943,0.638132
 73,-0.00000471,0.00000068,-0.00000137,-0.00001075,-0.00000750,0.000001
 34,-0.00001349,-0.00001721,-0.00000274,0.00006952,-0.00004624,0.000030
 09,-0.00001318,0.00002554,-0.00001119,0.00002232,0.00000417,0.00000648
 ,-0.00000751,-0.00001238,-0.00001148,0.00002186,0.00000983,0.00000710,
 -0.00001501,-0.00000610,0.00000368,0.00000100,-0.00000221,-0.00000218,
 -0.00000314,0.00000535,0.00000472,0.00019219,0.00003683,0.00008864,-0.
 00058098,-0.00114464,0.00081234,-0.00000103,0.00000176,-0.00000049,0.0
 0000282,0.00000179,-0.00000070,-0.00000088,-0.00000069,0.00000209,0.00
 000366,0.00000038,0.00000005,-0.00000253,0.00000154,0.00000212,0.00000
 564,-0.00000013,0.00000328,0.00000401,0.00000295,0.00000240,-0.0000106
 0,-0.00000415,-0.00000303,-0.00001208,0.00000995,-0.00000255,-0.000001
 37,0.00000144,0.00000079,0.00000128,0.00000017,0.00000070,-0.00000695,
 -0.00000241,-0.00000830,-0.00015103,0.00007850,-0.00005991,-0.00010108
 ,-0.00009052,-0.00011940,-0.00011375,-0.00002849,0.00002990,0.00074715
 ,0.00257820,-0.00223094,-0.00044477,-0.00009970,-0.00003983,-0.3417571
 9,0.07043606,-0.26066054,0.33076828,0.00001158,0.00001444,0.00000079,0
 .00002324,-0.00001948,0.00000816,-0.00002185,0.00001135,-0.00000697,0.
 00000021,0.00000895,-0.00000046,0.00003831,-0.00000049,0.00001163,-0.0
 0003194,-0.00000508,-0.00000809,0.00000450,0.00002255,0.00000834,-0.00
 000400,-0.00002099,-0.00000512,0.00000504,0.00000704,-0.00000557,-0.00
 000354,0.00000275,-0.00000055,0.00000131,-0.00000338,-0.00000450,-0.00
 005857,-0.00011254,0.00002330,-0.00167063,-0.00128549,0.00108165,-0.00
 000042,-0.00000441,0.00000033,-0.00000097,-0.00000125,0.00000055,0.000
 00105,0.00000083,0.00000059,-0.00000126,-0.00000102,0.00000154,0.00000
 064,-0.00000189,-0.00000334,-0.00000262,-0.00000077,-0.00000022,-0.000
 00176,-0.00000457,0.00000115,0.00000008,0.00000729,0.00000062,0.000015
 29,0.00000451,0.00000213,0.00000618,-0.00000110,0.00000140,-0.00000030
 ,0.00000119,-0.00000019,-0.00000241,0.00000754,0.00000750,0.00000730,0
 .00002036,0.00000003,-0.00000144,0.00004217,-0.00002373,0.00000203,0.0
 0009235,-0.00000211,0.00208575,0.00178860,-0.00217674,-0.00038602,0.00
 011397,-0.00025101,0.05339034,-0.02210559,0.06745543,-0.06611733,0.023
 67985,-0.00000092,0.00000261,0.00000039,-0.00000331,-0.00000436,-0.000
 00045,-0.00000381,0.00000098,0.00000269,-0.00000556,0.00000372,-0.0000
 1315,0.00000228,0.00000569,0.00000488,-0.00000117,-0.00000005,-0.00000
 722,0.00000070,0.00000313,0.00000132,0.00001184,-0.00000056,-0.0000153
 3,-0.00000700,-0.00000715,0.00000438,0.00000465,-0.00000154,0.00000231
 ,-0.00000120,0.00000239,0.00000300,0.00009060,-0.00013704,-0.00033914,
 0.00204901,0.00118292,-0.00085774,0.00000009,0.00000059,0.00000145,0.0
 0000186,0.00000041,-0.00000094,-0.00000249,0.00000084,-0.00000124,0.00
 000086,0.00000039,-0.00000083,-0.00000057,-0.00000225,-0.00000048,0.00
 000117,0.00000085,-0.00000102,-0.00000112,0.00000036,-0.00000088,-0.00
 000321,0.00000012,0.00000867,-0.00000136,0.00000418,0.00002248,-0.0000
 0157,0.00000150,0.00000581,-0.00000121,0.00000045,0.00000243,-0.000011
 25,0.00000078,0.00001379,0.00001536,-0.00000986,0.00003859,-0.00029504
 ,0.00021028,0.00047986,0.00012736,0.00002782,0.00005418,-0.00318439,-0
 .00234532,0.00127877,0.00002060,-0.00001929,0.00005808,-0.20664124,0.0
 6923470,-0.22890748,0.24314618,-0.07456664,0.25126270,-0.00001420,-0.0
 0000580,-0.00000423,-0.00002590,0.00000549,-0.00000431,0.00000886,-0.0
 0001053,0.00000811,0.00000417,-0.00001475,-0.00001075,-0.00003161,0.00
 001011,-0.00001753,0.00003010,0.00001188,0.00000418,-0.00000666,-0.000
 01427,-0.00001118,0.00002630,0.00001561,-0.00000514,-0.00001847,-0.000
 01259,0.00000665,0.00000513,-0.00000346,-0.00000034,-0.00000415,0.0000
 0693,0.00000715,-0.00003315,0.00006426,-0.00003344,-0.00205402,-0.0009
 0292,-0.00120659,-0.00000038,0.00000309,0.00000038,0.00000352,0.000002
 23,-0.00000176,-0.00000213,-0.00000024,0.00000056,0.00000405,0.0000008
 9,-0.00000090,-0.00000239,0.00000041,0.00000224,0.00000596,0.00000060,
 0.00000241,0.00000173,0.00000411,0.00000099,-0.00000499,-0.00000548,0.
 00000509,-0.00001488,0.00000991,0.00002759,-0.00000675,0.00000527,0.00
 000501,-0.00000031,0.00000066,0.00000290,-0.00001627,-0.00000532,0.000
 00264,0.00000145,-0.00002555,0.00004051,0.00005124,-0.00008056,-0.0000
 0764,0.00001504,-0.00000262,0.00000846,0.00340994,0.00128330,0.0034565
 9,-0.00032545,-0.00009895,0.00015242,-0.13661517,-0.07735708,0.2014947
 5,0.01140642,0.01271665,-0.03530707,0.12419447,0.00001901,0.00002264,0
 .00000237,0.00003295,-0.00003426,0.00001306,-0.00004522,0.00000213,-0.
 00001768,0.00004527,-0.00001200,0.00002255,0.00005348,0.00001650,0.000
 01677,-0.00003950,-0.00000491,-0.00000708,0.00000428,0.00002655,0.0000
 0738,0.00000206,-0.00002444,-0.00000540,0.00000238,0.00000476,-0.00000
 544,-0.00000346,0.00000313,-0.00000072,0.00000069,-0.00000370,-0.00000
 542,0.00017772,-0.00016913,-0.00006738,-0.00045875,-0.00018752,-0.0006
 9118,-0.00000078,-0.00000467,0.00000071,-0.00000038,-0.00000151,0.0000
 0037,0.00000085,0.00000026,0.00000086,-0.00000080,-0.00000093,0.000001
 77,0.00000046,-0.00000173,-0.00000372,-0.00000190,-0.00000045,0.000000
 33,-0.00000065,-0.00000494,0.00000246,-0.00000582,0.00000656,0.0000009
 8,0.00001828,0.00001072,-0.00001992,0.00001157,-0.00000311,-0.00000196
 ,0.00000082,0.00000170,-0.00000095,-0.00000617,0.00000829,0.00000886,-
 0.00009515,0.00008757,-0.00004985,-0.00025360,0.00015517,0.00014610,-0
 .00001332,0.00002616,0.00001810,0.00041374,-0.00033149,0.00138048,-0.0
 0021130,-0.00006736,0.00033152,-0.05841927,-0.05298728,0.14437018,-0.0
 0561682,-0.00225455,0.00640656,0.06439421,0.05572396,0.00000034,0.0000
 0017,-0.00000191,0.00000246,0.00000597,-0.00000251,0.00001664,0.000015
 47,0.00000703,-0.00007615,0.00004613,-0.00004056,0.00001641,-0.0000243
 8,0.00001197,-0.00002006,-0.00000207,-0.00001009,0.00000726,0.00001254
 ,0.00001120,-0.00000563,-0.00000569,-0.00002321,0.00000414,-0.00000406
 ,0.00000078,0.00000251,0.00000064,0.00000280,0.00000060,-0.00000261,-0
 .00000196,-0.00025836,0.00006130,0.00004864,-0.00235529,-0.00068148,-0
 .00042288,0.00000072,-0.00000056,0.00000158,-0.00000013,-0.00000105,-0
 .00000051,-0.00000111,0.00000079,-0.00000257,-0.00000205,0.00000002,-0
 .00000018,0.00000147,-0.00000253,-0.00000239,-0.00000328,0.00000081,-0
 .00000265,-0.00000566,-0.00000164,-0.00000298,0.00000990,0.00000269,0.
 00000828,0.00001331,-0.00000719,0.00001497,-0.00000143,0.00000172,0.00
 000605,-0.00000342,0.00000054,0.00000248,-0.00000728,0.00000096,0.0000
 2201,0.00017321,-0.00009151,0.00008355,0.00021312,-0.00007147,-0.00015
 425,0.00004312,0.00002446,-0.00001789,0.00348359,0.00098391,0.00066647
 ,0.00005588,0.00001181,0.00021718,0.14829833,0.14312601,-0.40368959,0.
 01901478,0.00845091,-0.02309678,-0.16861510,-0.15185325,0.42636652,0.0
 0015468,0.00038658,0.00008433,0.00012562,0.00006649,0.00000852,0.00011
 246,-0.00008151,0.00014978,0.00006019,0.00024929,-0.00007002,0.0000618
 3,-0.00016903,0.00010164,-0.00013213,0.00004558,-0.00014853,0.00027178
 ,-0.00153467,0.00019513,-0.00611549,-0.00283090,0.00505376,0.00088855,
 0.00224105,0.00094224,-0.00015435,-0.00053044,0.00018409,-0.00014542,-
 0.00003441,0.00002935,-0.00004093,0.00004815,-0.00002875,-0.00001153,0
 .00001509,-0.00000648,0.00003436,-0.00014907,0.00000345,-0.00001586,0.
 00013431,0.00014447,-0.00001883,0.00010685,0.00013002,0.00002109,0.000
 01122,-0.00003406,0.00005893,0.00008995,-0.00000826,0.00047659,0.00009
 797,-0.00024361,-0.00045930,0.00016213,-0.00041863,-0.00004452,0.00005
 316,0.00001434,0.00000876,0.00001166,0.00000589,0.00000349,0.00000676,
 -0.00000169,-0.00003737,0.00000499,0.00003250,-0.22938221,-0.10860853,
 0.05811889,0.00009266,-0.00006527,0.00007300,0.00001030,-0.00001377,-0
 .00000788,-0.00001066,-0.00000516,0.00001055,0.00000906,-0.00000190,0.
 00000519,-0.00000183,-0.00000683,0.00000594,-0.00000959,0.00000494,-0.
 00000547,0.00000233,-0.00000247,0.00000288,0.00000548,-0.00000294,0.00
 000286,0.24621170,0.00020661,0.00023148,0.00004444,-0.00036119,-0.0002
 3477,-0.00020211,-0.00029086,0.00001182,-0.00027579,0.00028586,0.00010
 597,0.00004283,0.00005571,-0.00009621,0.00006026,-0.00012932,-0.000025
 70,-0.00009373,0.00123492,0.00022013,0.00028402,0.01025858,0.00566954,
 -0.00413873,0.00044110,-0.00041046,-0.00118007,0.00031060,0.00038771,-
 0.00053332,-0.00008488,0.00020701,0.00024695,0.00006035,-0.00008627,-0
 .00005228,-0.00005263,-0.00004097,-0.00006052,0.00004758,0.00037737,-0
 .00026926,-0.00001919,-0.00002457,-0.00013792,0.00004076,0.00000397,-0
 .00003684,-0.00002798,0.00001173,0.00002019,-0.00002077,0.00002203,0.0
 0003124,0.00001410,-0.00011709,-0.00003331,0.00013888,-0.00007390,-0.0
 0013625,-0.00000217,0.00011357,0.00018102,0.00000193,-0.00000346,-0.00
 000288,0.00000916,0.00001140,-0.00000346,-0.00000051,-0.00001908,0.000
 00143,-0.11128854,-0.11402753,0.03558661,-0.00010991,0.00011477,0.0000
 0290,-0.00001339,0.00004068,0.00007090,-0.00000316,0.00000602,0.000014
 89,0.00004203,0.00002406,0.00000257,0.00004700,0.00000087,0.00003044,-
 0.00002435,-0.00001782,-0.00000973,0.00000272,0.00000287,0.00000633,0.
 00000546,0.00000679,0.00000403,0.11865212,0.11688166,-0.00026001,-0.00
 048245,-0.00001809,0.00007034,-0.00014871,-0.00034537,-0.00001342,-0.0
 0038885,-0.00013331,-0.00025901,-0.00029686,0.00001914,-0.00011342,0.0
 0034232,-0.00015611,0.00034519,0.00000045,0.00014926,0.00026881,0.0011
 7401,0.00109308,0.02941285,0.01916449,-0.01457978,0.00017476,-0.004595
 58,-0.00404142,0.00178706,0.00088115,-0.00044462,-0.00003557,0.0003639
 6,-0.00014830,0.00009783,-0.00002682,0.00004845,0.00006339,0.00000034,
 -0.00001741,-0.00023507,0.00003095,0.00008502,0.00007445,-0.00038741,-
 0.00055034,-0.00004528,0.00002944,-0.00003232,-0.00003430,-0.00003984,
 0.00004833,-0.00003322,-0.00009365,0.00000212,0.00046109,0.00001389,0.
 00000463,-0.00013052,-0.00041437,-0.00009111,0.00016383,0.00015568,-0.
 00033167,-0.00000604,0.00000652,-0.00001430,0.00000446,-0.00000500,-0.
 00000318,-0.00000564,0.00005016,-0.00000169,0.05264404,0.03021153,-0.0
 6468943,-0.00013733,0.00003083,-0.00007448,-0.00005937,0.00001042,0.00
 002525,0.00000644,-0.00000090,-0.00001849,-0.00003352,-0.00001658,0.00
 000492,-0.00001772,0.00000462,0.00000125,0.00002177,0.00000517,-0.0000
 0510,-0.00000324,0.00000126,-0.00000040,-0.00000196,0.00000037,0.00000
 469,-0.06734067,-0.03558327,0.07822900,0.00003774,0.00035423,-0.000084
 29,-0.00034796,-0.00030800,0.00005760,-0.00008243,0.00019222,0.0000409
 1,0.00020295,0.00017929,-0.00000493,0.00007798,-0.00018175,0.00005178,
 -0.00020706,-0.00002739,-0.00004336,0.00151840,-0.00106158,0.00162628,
 0.00963167,-0.00297047,0.00564529,0.00404143,0.00040098,0.00167925,-0.
 00005177,0.00012768,0.00020250,0.00001384,-0.00015862,0.00001259,-0.00
 009103,-0.00000302,-0.00004026,-0.00008986,-0.00001345,0.00000881,-0.0
 0034967,0.00009895,-0.00011102,-0.00004290,-0.00000712,-0.00008144,-0.
 00014151,0.00003153,0.00004562,0.00004818,-0.00000223,-0.00001329,0.00
 000215,-0.00006594,0.00004552,0.00026203,0.00063819,-0.00193470,-0.000
 23866,-0.00125724,-0.00123002,0.00014963,0.00016134,0.00023788,0.00000
 915,-0.00000538,0.00000347,-0.00000739,-0.00000357,-0.00001700,0.00002
 272,-0.00002312,-0.00001439,-0.18337907,0.03768209,-0.11236397,0.00008
 521,-0.00001503,0.00007877,0.00006675,-0.00000202,-0.00001981,0.000007
 12,0.00000856,0.00001866,0.00005549,0.00002728,-0.00000588,0.00003427,
 -0.00000250,0.00000387,-0.00003458,-0.00001342,0.00000572,0.00000552,0
 .00000019,0.00000067,0.00000481,0.00000241,-0.00000556,-0.01826165,0.0
 0671934,-0.01620757,0.19119038,0.00004031,0.00018002,-0.00001783,0.000
 03621,-0.00038880,0.00050805,-0.00005714,-0.00003667,-0.00000407,0.000
 15763,0.00011538,0.00005275,0.00004999,-0.00014119,0.00004665,-0.00011
 936,-0.00001982,-0.00007276,-0.00275956,0.00364829,-0.00291619,-0.0066
 5209,0.00140209,-0.00936874,0.00054923,-0.00009967,0.00069048,-0.00014
 407,0.00009520,0.00009797,0.00003322,0.00008518,0.00014300,0.00001922,
 0.00001350,0.00000409,0.00002196,0.00001241,-0.00000521,0.00023834,-0.
 00008740,-0.00005481,0.00002357,0.00000531,0.00006640,-0.00003989,-0.0
 0010717,-0.00001500,0.00003683,-0.00001375,0.00001798,-0.00005110,-0.0
 0000690,0.00005856,0.00002918,-0.00009658,0.00023499,0.00053084,0.0001
 4608,0.00148231,0.00006302,-0.00002421,0.00002610,0.00000792,-0.000005
 63,-0.00001231,0.00000032,0.00000083,-0.00000970,-0.00000317,-0.000023
 97,0.00000699,0.03724758,-0.06093267,0.03146182,-0.00000190,0.00001265
 ,0.00001180,-0.00001162,-0.00000584,0.00000479,-0.00000538,-0.00000690
 ,-0.00000529,-0.00001612,-0.00000852,0.00000215,-0.00001449,-0.0000058
 2,0.00000042,0.00000951,0.00000559,-0.00000108,-0.00000174,-0.00000085
 ,-0.00000043,-0.00000118,-0.00000130,0.00000122,-0.01213988,0.00324616
 ,-0.01023461,-0.04037052,0.05757922,-0.00019502,0.00003829,-0.00006687
 ,0.00004751,-0.00058340,0.00038248,-0.00008384,0.00009998,0.00004941,-
 0.00009550,-0.00015579,0.00002799,-0.00000815,-0.00007291,-0.00005197,
 -0.00005747,-0.00007391,0.00001504,-0.00102435,0.00578496,0.00042606,-
 0.01645437,-0.00106416,-0.04058062,-0.00472549,-0.00208156,0.00151221,
 0.00038677,0.00006322,0.00038655,-0.00005422,0.00031820,0.00050803,-0.
 00010628,0.00005193,0.00002189,-0.00001834,0.00001836,0.00004470,0.000
 31367,0.00024407,-0.00005354,0.00020887,-0.00015659,-0.00004512,0.0000
 5017,0.00015173,0.00033582,0.00009722,-0.00006759,-0.00003838,-0.00001
 329,-0.00003438,0.00007964,0.00193458,0.00053605,0.00057273,0.00061448
 ,-0.00190068,0.00094429,0.00048235,0.00012699,-0.00002060,0.00000235,-
 0.00001856,-0.00000596,-0.00001850,-0.00001255,-0.00002111,0.00003051,
 -0.00000159,-0.00000002,-0.11218880,0.03198436,-0.14179114,0.00013544,
 -0.00007401,0.00004660,0.00004842,-0.00003178,-0.00006561,0.00001301,0
 .00000307,0.00000084,0.00000531,0.00000132,-0.00000450,-0.00001007,-0.
 00000315,-0.00001387,-0.00000482,0.00000339,0.00000834,0.00000191,-0.0
 0000201,-0.00000326,-0.00000041,-0.00000254,-0.00000471,0.00581682,-0.
 00164091,0.00621399,0.12518242,-0.03162501,0.17049100,0.00006395,0.000
 19799,-0.00000132,-0.00001969,0.00000678,0.00013961,0.00010810,-0.0000
 2734,0.00010378,0.00002808,0.00009645,-0.00004062,0.00003951,-0.000067
 12,0.00003956,-0.00006365,0.00001130,-0.00003931,-0.00026524,0.0000963
 6,0.00141575,-0.00197419,0.00891037,0.00184596,0.00034913,0.00125588,-
 0.00045473,-0.00001149,0.00003232,0.00001780,0.00010751,0.00032121,0.0
 0024461,-0.00001543,0.00005229,0.00001814,0.00003633,0.00003124,0.0000
 1670,0.00011710,-0.00021072,0.00028591,-0.00000206,-0.00001861,0.00000
 173,-0.00000328,-0.00004359,-0.00004732,0.00000865,0.00000094,0.000001
 91,-0.00011516,0.00001930,0.00013426,-0.00019420,0.00010548,-0.0001748
 0,0.00000394,-0.00038549,0.00009705,-0.00002111,-0.00010701,-0.0000278
 7,0.00000076,0.00000233,0.00000911,-0.00000101,0.00000130,-0.00000090,
 -0.00001169,-0.00000509,0.00000290,-0.05717193,0.04957213,-0.00025787,
 0.00005209,-0.00005027,0.00001177,-0.00000120,-0.00002423,-0.00002304,
 -0.00000270,-0.00000726,-0.00000992,-0.00002804,-0.00001678,0.00000196
 ,-0.00003200,-0.00000874,-0.00001096,0.00001513,0.00001260,0.00000212,
 -0.00000196,-0.00000217,-0.00000262,-0.00000179,-0.00000436,-0.0000001
 0,0.00623179,-0.02614596,-0.00062343,-0.00414189,0.02329432,-0.0003129
 0,0.05691765,-0.00008304,0.00002989,-0.00000352,0.00040419,0.00024771,
 0.00011734,0.00000097,-0.00010021,0.00008516,-0.00014566,0.00006486,-0
 .00006891,-0.00001571,-0.00006004,0.00001625,-0.00001996,0.00001090,-0
 .00001734,0.00106761,0.00146769,-0.00160995,0.00049686,-0.00866742,-0.
 00233168,-0.00079005,0.00073524,0.00067373,0.00001253,0.00010600,-0.00
 017574,-0.00029292,-0.00040473,0.00013230,-0.00009664,0.00011054,0.000
 00768,0.00001205,0.00004369,0.00003941,0.00051264,0.00018368,-0.000424
 81,0.00000670,0.00004795,0.00000905,-0.00000791,0.00000593,-0.00000151
 ,0.00005798,0.00000246,-0.00008165,0.00014274,0.00009596,-0.00013719,0
 .00024353,-0.00013290,0.00011237,-0.00031023,0.00034700,0.00006047,0.0
 0006468,-0.00014347,-0.00006481,0.00000439,0.00000190,0.00000181,-0.00
 001124,-0.00000311,-0.00000546,-0.00000202,0.00003486,0.00000781,0.051
 82722,-0.31086770,-0.00022700,0.00017288,-0.00014073,0.00006018,0.0000
 3309,-0.00004740,-0.00006079,-0.00000483,-0.00001225,-0.00000298,-0.00
 001554,-0.00001360,-0.00000066,-0.00003095,-0.00001334,-0.00001424,0.0
 0000537,0.00001658,0.00000541,0.00000039,-0.00000517,-0.00000313,0.000
 00022,-0.00000758,-0.00000261,0.00378846,-0.01251976,0.00023735,-0.000
 13193,-0.00453423,0.00017713,-0.05689587,0.33412081,-0.00020349,-0.000
 11214,-0.00003209,0.00046038,0.00015242,0.00009259,-0.00002102,-0.0000
 3303,0.00002027,-0.00008908,-0.00000040,-0.00002749,-0.00003416,0.0000
 1666,-0.00003335,0.00002879,-0.00003428,0.00004514,0.00290458,0.000107
 33,-0.00521235,0.00563789,-0.03733226,-0.00462438,-0.00021540,-0.00134
 806,0.00148615,-0.00046289,-0.00019176,0.00021622,0.00012194,-0.001637
 56,-0.00024599,0.00000051,0.00003326,-0.00000269,0.00001412,0.00000569
 ,-0.00000739,0.00006226,0.00053498,-0.00017165,-0.00002639,0.00009383,
 0.00002979,-0.00000710,0.00002514,-0.00001712,0.00018216,-0.00008707,-
 0.00022568,0.00034773,-0.00008292,-0.00027139,0.00012289,0.00033804,-0
 .00026624,0.00027486,-0.00027412,0.00008972,0.00005274,-0.00004670,0.0
 0000622,0.00000086,0.00000032,-0.00000284,-0.00001139,-0.00001014,-0.0
 0001328,0.00001417,0.00001073,-0.00001715,-0.00121840,0.00925980,-0.04
 744530,0.00003161,-0.00004547,0.00001073,-0.00001319,-0.00000494,-0.00
 000008,-0.00000828,-0.00000843,-0.00000224,-0.00000825,-0.00000406,0.0
 0000173,-0.00000770,-0.00000132,0.00000736,0.00000483,0.00000143,-0.00
 000208,-0.00000069,-0.00000008,0.00000058,-0.00000029,0.00000073,0.000
 00141,-0.00280157,0.00775932,-0.00023220,-0.00277013,0.01942452,0.0006
 9966,-0.00236292,0.00349055,0.05614541\\-0.00000065,-0.00000106,-0.000
 00043,0.00000043,0.00000126,0.00000033,-0.00000144,-0.00000082,0.00000
 010,0.00000216,0.00000153,-0.00000008,-0.00000124,0.00000052,0.0000003
 9,0.00000096,-0.00000035,0.00000086,0.00000154,-0.00000479,-0.00000056
 ,-0.00000416,0.00000309,-0.00000298,0.00000222,-0.00000020,-0.00000703
 ,0.00000101,0.00000015,0.00000636,-0.00000215,0.00000044,-0.00000159,-
 0.00000246,-0.00000051,-0.00000085,0.00000167,0.00000118,-0.00000144,0
 .00000081,0.00000080,0.00000080,-0.00000012,0.00000090,-0.00000167,-0.
 00000065,0.00000018,0.00000011,0.00000023,0.00000037,0.00000093,0.0000
 0071,-0.00000053,0.00000080,0.00000075,-0.00000065,0.00000074,0.000000
 19,0.00000090,0.00000141,0.00000098,-0.00000008,0.00000015,0.00000018,
 -0.00000013,-0.00000020,0.00000007,0.00000004,0.00000077,-0.00000003,0
 .00000027,0.00000085,-0.00000536,0.00000159,0.00000399,-0.00000055,-0.
 00000102,-0.00000005,0.00000015,-0.00000128,0.00000216,0.00000146,-0.0
 0000053,-0.00000047,-0.00000253,-0.00000119,0.00000152,-0.00000054,-0.
 00000035,-0.00000068,0.00000165,0.00000136,-0.00000229,-0.00000066,-0.
 00000046,0.00000026,0.00000069,-0.00000030,-0.00000004,0.00000101,-0.0
 0000096,-0.00000162,0.00000224,0.00000026,0.00000101,0.00000144,0.0000
 0040,-0.00000158\\\@


 ... A MOLECULAR SYSTEM ... (PASSES) ... FROM ONE STATE OF EQUILIBRIUM 
 TO ANOTHER ... BY MEANS OF ALL POSSIBLE INTERMEDIATE PATHS, 
 BUT THE PATH MOST ECONOMICAL OF ENERGY WILL BE THE MORE OFTEN TRAVELED.

                      -- HENRY EYRING, 1945
 Job cpu time:       0 days 18 hours 58 minutes 38.0 seconds.
 Elapsed time:       0 days  0 hours 40 minutes 44.8 seconds.
 File lengths (MBytes):  RWF=   1060 Int=      0 D2E=      0 Chk=     28 Scr=      8
 Normal termination of Gaussian 16 at Mon Jul 12 14:01:33 2021.
