 Entering Gaussian System, Link 0=g16
 Input=NicPySs3h3.gjf
 Output=NicPySs3h3.log
 Initial command:
 /sw/contrib/gaussian/g16/A03/g16/l1.exe "/gscratch/scrubbed/gds001/Gau-17972.inp" -scrdir="/gscratch/scrubbed/gds001/"
 Entering Link 1 = /sw/contrib/gaussian/g16/A03/g16/l1.exe PID=     17973.
  
 Copyright (c) 1988,1990,1992,1993,1995,1998,2003,2009,2016,
            Gaussian, Inc.  All Rights Reserved.
  
 This is part of the Gaussian(R) 16 program.  It is based on
 the Gaussian(R) 09 system (copyright 2009, Gaussian, Inc.),
 the Gaussian(R) 03 system (copyright 2003, Gaussian, Inc.),
 the Gaussian(R) 98 system (copyright 1998, Gaussian, Inc.),
 the Gaussian(R) 94 system (copyright 1995, Gaussian, Inc.),
 the Gaussian 92(TM) system (copyright 1992, Gaussian, Inc.),
 the Gaussian 90(TM) system (copyright 1990, Gaussian, Inc.),
 the Gaussian 88(TM) system (copyright 1988, Gaussian, Inc.),
 the Gaussian 86(TM) system (copyright 1986, Carnegie Mellon
 University), and the Gaussian 82(TM) system (copyright 1983,
 Carnegie Mellon University). Gaussian is a federally registered
 trademark of Gaussian, Inc.
  
 This software contains proprietary and confidential information,
 including trade secrets, belonging to Gaussian, Inc.
  
 This software is provided under written license and may be
 used, copied, transmitted, or stored only in accord with that
 written license.
  
 The following legend is applicable only to US Government
 contracts under FAR:
  
                    RESTRICTED RIGHTS LEGEND
  
 Use, reproduction and disclosure by the US Government is
 subject to restrictions as set forth in subparagraphs (a)
 and (c) of the Commercial Computer Software - Restricted
 Rights clause in FAR 52.227-19.
  
 Gaussian, Inc.
 340 Quinnipiac St., Bldg. 40, Wallingford CT 06492
  
  
 ---------------------------------------------------------------
 Warning -- This program may not be used in any manner that
 competes with the business of Gaussian, Inc. or will provide
 assistance to any competitor of Gaussian, Inc.  The licensee
 of this program is prohibited from giving any competitor of
 Gaussian, Inc. access to this program.  By using this program,
 the user acknowledges that Gaussian, Inc. is engaged in the
 business of creating and licensing software in the field of
 computational chemistry and represents and warrants to the
 licensee that it is not a competitor of Gaussian, Inc. and that
 it will not use this program in any manner prohibited above.
 ---------------------------------------------------------------
  

 Cite this work as:
 Gaussian 16, Revision A.03,
 M. J. Frisch, G. W. Trucks, H. B. Schlegel, G. E. Scuseria, 
 M. A. Robb, J. R. Cheeseman, G. Scalmani, V. Barone, 
 G. A. Petersson, H. Nakatsuji, X. Li, M. Caricato, A. V. Marenich, 
 J. Bloino, B. G. Janesko, R. Gomperts, B. Mennucci, H. P. Hratchian, 
 J. V. Ortiz, A. F. Izmaylov, J. L. Sonnenberg, D. Williams-Young, 
 F. Ding, F. Lipparini, F. Egidi, J. Goings, B. Peng, A. Petrone, 
 T. Henderson, D. Ranasinghe, V. G. Zakrzewski, J. Gao, N. Rega, 
 G. Zheng, W. Liang, M. Hada, M. Ehara, K. Toyota, R. Fukuda, 
 J. Hasegawa, M. Ishida, T. Nakajima, Y. Honda, O. Kitao, H. Nakai, 
 T. Vreven, K. Throssell, J. A. Montgomery, Jr., J. E. Peralta, 
 F. Ogliaro, M. J. Bearpark, J. J. Heyd, E. N. Brothers, K. N. Kudin, 
 V. N. Staroverov, T. A. Keith, R. Kobayashi, J. Normand, 
 K. Raghavachari, A. P. Rendell, J. C. Burant, S. S. Iyengar, 
 J. Tomasi, M. Cossi, J. M. Millam, M. Klene, C. Adamo, R. Cammi, 
 J. W. Ochterski, R. L. Martin, K. Morokuma, O. Farkas, 
 J. B. Foresman, and D. J. Fox, Gaussian, Inc., Wallingford CT, 2016.
 
 ******************************************
 Gaussian 16:  ES64L-G16RevA.03 25-Dec-2016
                26-Jan-2023 
 ******************************************
 %nprocshared=28
 Will use up to   28 processors via shared memory.
 %mem=41GB
 -----------------------------
 # wB97XD/aug-cc-pVDZ opt freq
 -----------------------------
 1/18=20,19=15,26=3,38=1/1,3;
 2/9=110,12=2,17=6,18=5,40=1/2;
 3/5=16,7=10,11=2,25=1,30=1,71=1,74=-58/1,2,3;
 4//1;
 5/5=2,38=5/2;
 6/7=2,8=2,9=2,10=2,28=1/1;
 7//1,2,3,16;
 1/18=20,19=15,26=3/3(2);
 2/9=110/2;
 99//99;
 2/9=110/2;
 3/5=16,7=10,11=2,25=1,30=1,71=1,74=-58/1,2,3;
 4/5=5,16=3,69=1/1;
 5/5=2,38=5/2;
 7//1,2,3,16;
 1/18=20,19=15,26=3/3(-5);
 2/9=110/2;
 6/7=2,8=2,9=2,10=2,19=2,28=1/1;
 99/9=1/99;
 ----
 blah
 ----
 Symbolic Z-matrix:
 Charge =  1 Multiplicity = 1
 C                    -2.04658  -1.56313  -0.90675 
 C                    -1.66592  -0.60485   0.25239 
 N                    -2.85584   0.20432   0.45948 
 C                    -3.98107  -0.70966   0.2775 
 C                    -3.59126  -1.51782  -0.95891 
 C                    -0.46477   0.25182  -0.07047 
 C                     0.79622  -0.06459   0.40636 
 N                     1.86452   0.68158   0.07463 
 C                     1.77488   1.7616   -0.71442 
 C                     0.5414    2.14034  -1.21647 
 C                    -0.57943   1.38103  -0.89184 
 C                    -2.87576   0.91289   1.72588 
 H                    -1.42918  -1.20363   1.1575 
 H                    -1.6069   -1.22626  -1.85311 
 H                    -1.6602   -2.56945  -0.70973 
 H                    -3.92726  -1.00577  -1.86749 
 H                    -4.0374   -2.51759  -0.95366 
 H                    -4.09666  -1.37334   1.15845 
 H                    -4.91293  -0.14501   0.15652 
 H                    -1.56939   1.65524  -1.25653 
 H                     2.70111   2.29403  -0.9159 
 H                     2.80363   0.41041   0.45483 
 H                     0.98902  -0.91167   1.06166 
 H                    -2.03336   1.61504   1.78561 
 H                    -2.81914   0.22409   2.59234 
 H                    -3.80167   1.49382   1.80597 
 H                     0.46578   3.01976  -1.85173 
 O                     4.25974  -0.02255   1.03904 
 H                     4.66463   0.275     1.85665 
 H                     4.904    -0.61517   0.59933 
 O                     5.98308  -1.6746   -0.2462 
 H                     6.15409  -2.58622   0.0058 
 H                     6.76227  -1.38317  -0.72761 
 O                     8.137    -1.177    -1.85899 
 H                     9.0943   -1.02097  -1.92871 
 H                     7.82189  -0.97039  -2.75698 
 
 Add virtual bond connecting atoms O28        and H22        Dist= 3.08D+00.
 Add virtual bond connecting atoms O31        and H30        Dist= 3.27D+00.
 Add virtual bond connecting atoms O34        and H33        Dist= 3.39D+00.

 GradGradGradGradGradGradGradGradGradGradGradGradGradGradGradGradGradGrad
 Berny optimization.
 Initialization pass.
                           ----------------------------
                           !    Initial Parameters    !
                           ! (Angstroms and Degrees)  !
 --------------------------                            --------------------------
 ! Name  Definition              Value          Derivative Info.                !
 --------------------------------------------------------------------------------
 ! R1    R(1,2)                  1.5514         estimate D2E/DX2                !
 ! R2    R(1,5)                  1.5462         estimate D2E/DX2                !
 ! R3    R(1,14)                 1.0965         estimate D2E/DX2                !
 ! R4    R(1,15)                 1.0958         estimate D2E/DX2                !
 ! R5    R(2,3)                  1.4538         estimate D2E/DX2                !
 ! R6    R(2,6)                  1.5103         estimate D2E/DX2                !
 ! R7    R(2,13)                 1.1108         estimate D2E/DX2                !
 ! R8    R(3,4)                  1.461          estimate D2E/DX2                !
 ! R9    R(3,12)                 1.4513         estimate D2E/DX2                !
 ! R10   R(4,5)                  1.5277         estimate D2E/DX2                !
 ! R11   R(4,18)                 1.109          estimate D2E/DX2                !
 ! R12   R(4,19)                 1.0963         estimate D2E/DX2                !
 ! R13   R(5,16)                 1.0957         estimate D2E/DX2                !
 ! R14   R(5,17)                 1.0948         estimate D2E/DX2                !
 ! R15   R(6,7)                  1.3848         estimate D2E/DX2                !
 ! R16   R(6,11)                 1.401          estimate D2E/DX2                !
 ! R17   R(7,8)                  1.3446         estimate D2E/DX2                !
 ! R18   R(7,23)                 1.0882         estimate D2E/DX2                !
 ! R19   R(8,9)                  1.3406         estimate D2E/DX2                !
 ! R20   R(8,22)                 1.0488         estimate D2E/DX2                !
 ! R21   R(9,10)                 1.3846         estimate D2E/DX2                !
 ! R22   R(9,21)                 1.0872         estimate D2E/DX2                !
 ! R23   R(10,11)                1.3922         estimate D2E/DX2                !
 ! R24   R(10,27)                1.0875         estimate D2E/DX2                !
 ! R25   R(11,20)                1.0901         estimate D2E/DX2                !
 ! R26   R(12,24)                1.0983         estimate D2E/DX2                !
 ! R27   R(12,25)                1.1083         estimate D2E/DX2                !
 ! R28   R(12,26)                1.096          estimate D2E/DX2                !
 ! R29   R(22,28)                1.6276         estimate D2E/DX2                !
 ! R30   R(28,29)                0.9597         estimate D2E/DX2                !
 ! R31   R(28,30)                0.9796         estimate D2E/DX2                !
 ! R32   R(30,31)                1.7325         estimate D2E/DX2                !
 ! R33   R(31,32)                0.9611         estimate D2E/DX2                !
 ! R34   R(31,33)                0.9612         estimate D2E/DX2                !
 ! R35   R(33,34)                1.7923         estimate D2E/DX2                !
 ! R36   R(34,35)                0.9724         estimate D2E/DX2                !
 ! R37   R(34,36)                0.9738         estimate D2E/DX2                !
 ! A1    A(2,1,5)              104.6092         estimate D2E/DX2                !
 ! A2    A(2,1,14)             110.8968         estimate D2E/DX2                !
 ! A3    A(2,1,15)             110.2666         estimate D2E/DX2                !
 ! A4    A(5,1,14)             111.2511         estimate D2E/DX2                !
 ! A5    A(5,1,15)             112.6579         estimate D2E/DX2                !
 ! A6    A(14,1,15)            107.2125         estimate D2E/DX2                !
 ! A7    A(1,2,3)              104.4418         estimate D2E/DX2                !
 ! A8    A(1,2,6)              112.6929         estimate D2E/DX2                !
 ! A9    A(1,2,13)             109.1566         estimate D2E/DX2                !
 ! A10   A(3,2,6)              111.4505         estimate D2E/DX2                !
 ! A11   A(3,2,13)             111.0027         estimate D2E/DX2                !
 ! A12   A(6,2,13)             108.0874         estimate D2E/DX2                !
 ! A13   A(2,3,4)              105.3336         estimate D2E/DX2                !
 ! A14   A(2,3,12)             114.0341         estimate D2E/DX2                !
 ! A15   A(4,3,12)             113.7997         estimate D2E/DX2                !
 ! A16   A(3,4,5)              103.6047         estimate D2E/DX2                !
 ! A17   A(3,4,18)             110.8366         estimate D2E/DX2                !
 ! A18   A(3,4,19)             110.2543         estimate D2E/DX2                !
 ! A19   A(5,4,18)             110.6661         estimate D2E/DX2                !
 ! A20   A(5,4,19)             113.5815         estimate D2E/DX2                !
 ! A21   A(18,4,19)            107.8965         estimate D2E/DX2                !
 ! A22   A(1,5,4)              104.0703         estimate D2E/DX2                !
 ! A23   A(1,5,16)             110.365          estimate D2E/DX2                !
 ! A24   A(1,5,17)             112.3443         estimate D2E/DX2                !
 ! A25   A(4,5,16)             110.222          estimate D2E/DX2                !
 ! A26   A(4,5,17)             112.0382         estimate D2E/DX2                !
 ! A27   A(16,5,17)            107.8046         estimate D2E/DX2                !
 ! A28   A(2,6,7)              121.4            estimate D2E/DX2                !
 ! A29   A(2,6,11)             121.1597         estimate D2E/DX2                !
 ! A30   A(7,6,11)             117.4231         estimate D2E/DX2                !
 ! A31   A(6,7,8)              120.7783         estimate D2E/DX2                !
 ! A32   A(6,7,23)             123.1322         estimate D2E/DX2                !
 ! A33   A(8,7,23)             116.0893         estimate D2E/DX2                !
 ! A34   A(7,8,9)              122.6267         estimate D2E/DX2                !
 ! A35   A(7,8,22)             118.5857         estimate D2E/DX2                !
 ! A36   A(9,8,22)             118.7861         estimate D2E/DX2                !
 ! A37   A(8,9,10)             119.5632         estimate D2E/DX2                !
 ! A38   A(8,9,21)             116.5303         estimate D2E/DX2                !
 ! A39   A(10,9,21)            123.9059         estimate D2E/DX2                !
 ! A40   A(9,10,11)            118.9138         estimate D2E/DX2                !
 ! A41   A(9,10,27)            119.6675         estimate D2E/DX2                !
 ! A42   A(11,10,27)           121.4187         estimate D2E/DX2                !
 ! A43   A(6,11,10)            120.6909         estimate D2E/DX2                !
 ! A44   A(6,11,20)            118.2428         estimate D2E/DX2                !
 ! A45   A(10,11,20)           121.0607         estimate D2E/DX2                !
 ! A46   A(3,12,24)            110.4303         estimate D2E/DX2                !
 ! A47   A(3,12,25)            112.2124         estimate D2E/DX2                !
 ! A48   A(3,12,26)            109.521          estimate D2E/DX2                !
 ! A49   A(24,12,25)           108.3981         estimate D2E/DX2                !
 ! A50   A(24,12,26)           107.7671         estimate D2E/DX2                !
 ! A51   A(25,12,26)           108.3873         estimate D2E/DX2                !
 ! A52   A(22,28,29)           126.9259         estimate D2E/DX2                !
 ! A53   A(22,28,30)           126.0296         estimate D2E/DX2                !
 ! A54   A(29,28,30)           107.0091         estimate D2E/DX2                !
 ! A55   A(30,31,32)           124.2524         estimate D2E/DX2                !
 ! A56   A(30,31,33)           124.3285         estimate D2E/DX2                !
 ! A57   A(32,31,33)           105.9421         estimate D2E/DX2                !
 ! A58   A(33,34,35)           144.964          estimate D2E/DX2                !
 ! A59   A(33,34,36)           110.9947         estimate D2E/DX2                !
 ! A60   A(35,34,36)           102.6144         estimate D2E/DX2                !
 ! A61   L(8,22,28,23,-1)      179.7489         estimate D2E/DX2                !
 ! A62   L(28,30,31,15,-1)     177.4372         estimate D2E/DX2                !
 ! A63   L(31,33,34,27,-1)     183.3441         estimate D2E/DX2                !
 ! A64   L(8,22,28,23,-2)      179.5455         estimate D2E/DX2                !
 ! A65   L(28,30,31,15,-2)     178.2837         estimate D2E/DX2                !
 ! A66   L(31,33,34,27,-2)     194.437          estimate D2E/DX2                !
 ! D1    D(5,1,2,3)            -17.8308         estimate D2E/DX2                !
 ! D2    D(5,1,2,6)           -138.9626         estimate D2E/DX2                !
 ! D3    D(5,1,2,13)           100.9374         estimate D2E/DX2                !
 ! D4    D(14,1,2,3)           102.1993         estimate D2E/DX2                !
 ! D5    D(14,1,2,6)           -18.9325         estimate D2E/DX2                !
 ! D6    D(14,1,2,13)         -139.0325         estimate D2E/DX2                !
 ! D7    D(15,1,2,3)          -139.2045         estimate D2E/DX2                !
 ! D8    D(15,1,2,6)            99.6637         estimate D2E/DX2                !
 ! D9    D(15,1,2,13)          -20.4363         estimate D2E/DX2                !
 ! D10   D(2,1,5,4)             -7.6937         estimate D2E/DX2                !
 ! D11   D(2,1,5,16)           110.5448         estimate D2E/DX2                !
 ! D12   D(2,1,5,17)          -129.1098         estimate D2E/DX2                !
 ! D13   D(14,1,5,4)          -127.4864         estimate D2E/DX2                !
 ! D14   D(14,1,5,16)           -9.2479         estimate D2E/DX2                !
 ! D15   D(14,1,5,17)          111.0974         estimate D2E/DX2                !
 ! D16   D(15,1,5,4)           112.0887         estimate D2E/DX2                !
 ! D17   D(15,1,5,16)         -129.6728         estimate D2E/DX2                !
 ! D18   D(15,1,5,17)           -9.3274         estimate D2E/DX2                !
 ! D19   D(1,2,3,4)             38.1545         estimate D2E/DX2                !
 ! D20   D(1,2,3,12)           163.6356         estimate D2E/DX2                !
 ! D21   D(6,2,3,4)            160.107          estimate D2E/DX2                !
 ! D22   D(6,2,3,12)           -74.4119         estimate D2E/DX2                !
 ! D23   D(13,2,3,4)           -79.3517         estimate D2E/DX2                !
 ! D24   D(13,2,3,12)           46.1293         estimate D2E/DX2                !
 ! D25   D(1,2,6,7)           -100.1352         estimate D2E/DX2                !
 ! D26   D(1,2,6,11)            78.3159         estimate D2E/DX2                !
 ! D27   D(3,2,6,7)            142.8164         estimate D2E/DX2                !
 ! D28   D(3,2,6,11)           -38.7325         estimate D2E/DX2                !
 ! D29   D(13,2,6,7)            20.5788         estimate D2E/DX2                !
 ! D30   D(13,2,6,11)         -160.9702         estimate D2E/DX2                !
 ! D31   D(2,3,4,5)            -43.4242         estimate D2E/DX2                !
 ! D32   D(2,3,4,18)            75.3023         estimate D2E/DX2                !
 ! D33   D(2,3,4,19)          -165.297          estimate D2E/DX2                !
 ! D34   D(12,3,4,5)          -169.0507         estimate D2E/DX2                !
 ! D35   D(12,3,4,18)          -50.3242         estimate D2E/DX2                !
 ! D36   D(12,3,4,19)           69.0765         estimate D2E/DX2                !
 ! D37   D(2,3,12,24)           61.6522         estimate D2E/DX2                !
 ! D38   D(2,3,12,25)          -59.4061         estimate D2E/DX2                !
 ! D39   D(2,3,12,26)         -179.8221         estimate D2E/DX2                !
 ! D40   D(4,3,12,24)         -177.4751         estimate D2E/DX2                !
 ! D41   D(4,3,12,25)           61.4666         estimate D2E/DX2                !
 ! D42   D(4,3,12,26)          -58.9494         estimate D2E/DX2                !
 ! D43   D(3,4,5,1)             30.4859         estimate D2E/DX2                !
 ! D44   D(3,4,5,16)           -87.8509         estimate D2E/DX2                !
 ! D45   D(3,4,5,17)           152.1056         estimate D2E/DX2                !
 ! D46   D(18,4,5,1)           -88.3581         estimate D2E/DX2                !
 ! D47   D(18,4,5,16)          153.3051         estimate D2E/DX2                !
 ! D48   D(18,4,5,17)           33.2616         estimate D2E/DX2                !
 ! D49   D(19,4,5,1)           150.1079         estimate D2E/DX2                !
 ! D50   D(19,4,5,16)           31.7711         estimate D2E/DX2                !
 ! D51   D(19,4,5,17)          -88.2724         estimate D2E/DX2                !
 ! D52   D(2,6,7,8)            177.7624         estimate D2E/DX2                !
 ! D53   D(2,6,7,23)            -2.3915         estimate D2E/DX2                !
 ! D54   D(11,6,7,8)            -0.7443         estimate D2E/DX2                !
 ! D55   D(11,6,7,23)          179.1018         estimate D2E/DX2                !
 ! D56   D(2,6,11,10)         -178.0175         estimate D2E/DX2                !
 ! D57   D(2,6,11,20)            2.8303         estimate D2E/DX2                !
 ! D58   D(7,6,11,10)            0.4931         estimate D2E/DX2                !
 ! D59   D(7,6,11,20)         -178.6592         estimate D2E/DX2                !
 ! D60   D(6,7,8,9)              0.4845         estimate D2E/DX2                !
 ! D61   D(6,7,8,22)          -179.9664         estimate D2E/DX2                !
 ! D62   D(23,7,8,9)          -179.372          estimate D2E/DX2                !
 ! D63   D(23,7,8,22)            0.1771         estimate D2E/DX2                !
 ! D64   D(7,8,9,10)             0.0621         estimate D2E/DX2                !
 ! D65   D(7,8,9,21)           179.7982         estimate D2E/DX2                !
 ! D66   D(22,8,9,10)         -179.4861         estimate D2E/DX2                !
 ! D67   D(22,8,9,21)            0.2499         estimate D2E/DX2                !
 ! D68   D(7,8,28,29)          -90.8136         estimate D2E/DX2                !
 ! D69   D(7,8,28,30)           91.49           estimate D2E/DX2                !
 ! D70   D(9,8,28,29)           89.0219         estimate D2E/DX2                !
 ! D71   D(9,8,28,30)          -88.6745         estimate D2E/DX2                !
 ! D72   D(8,9,10,11)           -0.3088         estimate D2E/DX2                !
 ! D73   D(8,9,10,27)          179.6237         estimate D2E/DX2                !
 ! D74   D(21,9,10,11)         179.9758         estimate D2E/DX2                !
 ! D75   D(21,9,10,27)          -0.0917         estimate D2E/DX2                !
 ! D76   D(9,10,11,6)            0.0214         estimate D2E/DX2                !
 ! D77   D(9,10,11,20)         179.1496         estimate D2E/DX2                !
 ! D78   D(27,10,11,6)        -179.9099         estimate D2E/DX2                !
 ! D79   D(27,10,11,20)         -0.7817         estimate D2E/DX2                !
 ! D80   D(22,28,31,32)       -105.9855         estimate D2E/DX2                !
 ! D81   D(22,28,31,33)        102.4074         estimate D2E/DX2                !
 ! D82   D(29,28,31,32)         76.0143         estimate D2E/DX2                !
 ! D83   D(29,28,31,33)        -75.5929         estimate D2E/DX2                !
 ! D84   D(30,31,34,35)         87.9488         estimate D2E/DX2                !
 ! D85   D(30,31,34,36)        -81.8792         estimate D2E/DX2                !
 ! D86   D(32,31,34,35)        -71.9212         estimate D2E/DX2                !
 ! D87   D(32,31,34,36)        118.2508         estimate D2E/DX2                !
 --------------------------------------------------------------------------------
 Trust Radius=3.00D-01 FncErr=1.00D-07 GrdErr=1.00D-06 EigMax=2.50D+02 EigMin=1.00D-04
 Number of steps in this run=    200 maximum allowed number of steps=    216.
 GradGradGradGradGradGradGradGradGradGradGradGradGradGradGradGradGradGrad

                          Input orientation:                          
 ---------------------------------------------------------------------
 Center     Atomic      Atomic             Coordinates (Angstroms)
 Number     Number       Type             X           Y           Z
 ---------------------------------------------------------------------
      1          6           0       -2.046582   -1.563129   -0.906754
      2          6           0       -1.665920   -0.604853    0.252393
      3          7           0       -2.855838    0.204318    0.459479
      4          6           0       -3.981071   -0.709663    0.277502
      5          6           0       -3.591264   -1.517816   -0.958910
      6          6           0       -0.464768    0.251823   -0.070474
      7          6           0        0.796224   -0.064594    0.406356
      8          7           0        1.864516    0.681579    0.074631
      9          6           0        1.774881    1.761604   -0.714415
     10          6           0        0.541395    2.140341   -1.216468
     11          6           0       -0.579425    1.381033   -0.891839
     12          6           0       -2.875760    0.912893    1.725879
     13          1           0       -1.429182   -1.203625    1.157499
     14          1           0       -1.606902   -1.226256   -1.853111
     15          1           0       -1.660196   -2.569450   -0.709729
     16          1           0       -3.927255   -1.005771   -1.867488
     17          1           0       -4.037401   -2.517589   -0.953656
     18          1           0       -4.096665   -1.373342    1.158449
     19          1           0       -4.912925   -0.145011    0.156523
     20          1           0       -1.569385    1.655236   -1.256533
     21          1           0        2.701107    2.294032   -0.915896
     22          1           0        2.803625    0.410411    0.454834
     23          1           0        0.989023   -0.911667    1.061664
     24          1           0       -2.033361    1.615039    1.785611
     25          1           0       -2.819140    0.224088    2.592338
     26          1           0       -3.801672    1.493819    1.805971
     27          1           0        0.465784    3.019763   -1.851732
     28          8           0        4.259743   -0.022554    1.039040
     29          1           0        4.664630    0.275001    1.856651
     30          1           0        4.903999   -0.615169    0.599331
     31          8           0        5.983075   -1.674600   -0.246204
     32          1           0        6.154088   -2.586224    0.005797
     33          1           0        6.762270   -1.383165   -0.727613
     34          8           0        8.137001   -1.177002   -1.858986
     35          1           0        9.094302   -1.020974   -1.928709
     36          1           0        7.821886   -0.970392   -2.756975
 ---------------------------------------------------------------------
                    Distance matrix (angstroms):
                    1          2          3          4          5
     1  C    0.000000
     2  C    1.551392   0.000000
     3  N    2.375996   1.453804   0.000000
     4  C    2.423451   2.317658   1.461036   0.000000
     5  C    1.546226   2.451062   2.349133   1.527670   0.000000
     6  C    2.548637   1.510266   2.449556   3.661957   3.700800
     7  C    3.471514   2.525418   3.662334   4.822371   4.819321
     8  N    4.615032   3.761713   4.760003   6.012287   5.972527
     9  C    5.068967   4.286484   5.024612   6.342085   6.293638
    10  C    4.528713   3.816528   4.254195   5.550421   5.525153
    11  C    3.289508   2.536431   2.897029   4.160476   4.180789
    12  C    3.707961   2.436889   1.451291   2.439712   3.691664
    13  H    2.184392   1.110761   2.122471   2.744181   3.041793
    14  H    1.096537   2.196081   2.992400   3.231572   2.195972
    15  H    1.095808   2.187545   3.238888   3.133671   2.212928
    16  H    2.184168   3.125423   2.833201   2.166001   1.095716
    17  H    2.208292   3.276742   3.286612   2.188040   1.094811
    18  H    2.916149   2.705556   2.125376   1.109008   2.181631
    19  H    3.370095   3.280806   2.108416   1.096275   2.208070
    20  H    3.272298   2.719224   2.589367   3.709749   3.774233
    21  H    6.117052   5.370229   6.094112   7.422795   7.357035
    22  H    5.410480   4.587873   5.663216   6.878816   6.827250
    23  H    3.676135   2.792450   4.048581   5.035628   5.042734
    24  H    4.165304   2.722809   2.103623   3.387065   4.446823
    25  H    4.004327   2.737225   2.133266   2.753260   4.030108
    26  H    4.447938   3.373346   2.090563   2.687701   4.093749
    27  H    5.311108   4.702058   4.929665   6.181972   6.151942
    28  O    6.777110   6.005944   7.142748   8.304401   8.238078
    29  H    7.487022   6.589662   7.649479   8.843722   8.905131
    30  H    7.174782   6.579081   7.804242   8.891399   8.684030
    31  O    8.057552   7.739514   9.063923  10.024449   9.602109
    32  H    8.314473   8.070884   9.443078  10.311002   9.851093
    33  H    8.812511   8.520597   9.820249  10.811255  10.356993
    34  O   10.235292  10.044030  11.319268  12.313840  11.767688
    35  H   11.200787  10.986935  12.247883  13.263848  12.732280
    36  H   10.057898   9.960340  11.213354  12.189578  11.566879
                    6          7          8          9         10
     6  C    0.000000
     7  C    1.384770   0.000000
     8  N    2.373038   1.344642   0.000000
     9  C    2.776711   2.355610   1.340553   0.000000
    10  C    2.427379   2.749588   2.354904   1.384553   0.000000
    11  C    1.401036   2.380663   2.719586   2.391458   1.392182
    12  C    3.078438   4.022448   5.024972   5.320132   4.673434
    13  H    2.134559   2.610371   3.946523   4.750017   4.549835
    14  H    2.582050   3.497094   4.405311   4.654073   4.044066
    15  H    3.130060   3.681569   4.858807   5.527911   5.223593
    16  H    4.098734   5.326109   6.337475   6.442228   5.503697
    17  H    4.605796   5.588448   6.791515   7.221589   6.536877
    18  H    4.164383   5.120432   6.397893   6.914518   6.284727
    19  H    4.471589   5.715179   6.828152   7.008599   6.071041
    20  H    2.143941   3.364390   3.809420   3.389590   2.166177
    21  H    3.861104   3.307574   2.069066   1.087184   2.185937
    22  H    3.314135   2.063405   1.048815   2.061839   3.302059
    23  H    2.179209   1.088179   2.068612   3.304301   3.834711
    24  H    2.786376   3.567921   4.358009   4.557885   3.989710
    25  H    3.554491   4.234703   5.337113   5.865458   5.428833
    26  H    4.024740   5.052546   5.980214   6.125520   5.330606
    27  H    3.420570   3.836849   3.336829   2.142473   1.087502
    28  O    4.860793   3.521082   2.676378   3.525956   4.857113
    29  H    5.479514   4.145268   3.343881   4.143793   5.470340
    30  H    5.479414   4.148998   3.345941   4.143230   5.470126
    31  O    6.731765   5.470044   4.755738   5.453037   6.716180
    32  H    7.202054   5.935130   5.392931   6.212871   7.438862
    33  H    7.438756   6.214356   5.375384   5.896083   7.166126
    34  O    8.901165   7.762489   6.821823   7.100846   8.313292
    35  H    9.820839   8.673252   7.692975   7.924089   9.146225
    36  H    8.796575   7.758032   6.799798   6.942775   8.065691
                   11         12         13         14         15
    11  C    0.000000
    12  C    3.513511   0.000000
    13  H    3.406219   2.625889   0.000000
    14  H    2.962720   4.358340   3.015936   0.000000
    15  H    4.099701   4.420011   2.324949   1.764747   0.000000
    16  H    4.225718   4.207042   3.928112   2.330849   2.987483
    17  H    5.211590   4.505277   3.603649   2.895494   2.390250
    18  H    4.915408   2.653197   2.672877   3.910249   3.295018
    19  H    4.712440   2.780662   3.776120   4.017152   4.148318
    20  H    1.090050   3.339531   3.744368   2.942840   4.260893
    21  H    3.405295   6.323604   5.795848   5.641785   6.535819
    22  H    3.768377   5.841529   4.584267   5.240042   5.491947
    23  H    3.395979   4.325130   2.437650   3.915828   3.592275
    24  H    3.055720   1.098277   2.950326   4.636283   4.886299
    25  H    4.300504   1.108336   2.455425   4.830635   4.477795
    26  H    4.204019   1.095994   3.650401   5.060109   5.236871
    27  H    2.167785   5.329551   5.521175   4.724903   6.087961
    28  O    5.395915   7.229261   5.811439   6.650636   6.677616
    29  H    6.023090   7.568454   6.309492   7.439638   7.394635
    30  H    6.022985   8.008042   6.384905   6.984249   6.972912
    31  O    7.267747   9.437330   7.558687   7.771159   7.709423
    32  H    7.866707   9.835683   7.793843   8.095555   7.846993
    33  H    7.846544  10.207014   8.407483   8.445970   8.505617
    34  O    9.135371  11.768595  10.030541   9.744029   9.962167
    35  H   10.021264  12.664053  10.968216  10.703440  10.933569
    36  H    8.921320  11.750845  10.047873   9.475467   9.831484
                   16         17         18         19         20
    16  H    0.000000
    17  H    1.769976   0.000000
    18  H    3.052884   2.402873   0.000000
    19  H    2.410202   2.761913   1.782956   0.000000
    20  H    3.607461   4.857500   4.625102   4.051774   0.000000
    21  H    7.465213   8.280134   7.997640   8.066753   4.331420
    22  H    7.259717   7.573418   7.161763   7.742262   4.858146
    23  H    5.723511   5.648490   5.107517   6.019969   4.302148
    24  H    4.878587   5.347745   3.685238   3.747478   3.077585
    25  H    4.757155   4.644892   2.497977   3.233166   4.292305
    26  H    4.445000   4.874680   2.954136   2.577077   3.793164
    27  H    5.958520   7.193572   7.012596   6.555867   2.521529
    28  O    8.743086   8.890368   8.465722   9.215838   6.485628
    29  H    9.451459   9.561471   8.942305   9.736345   7.103514
    30  H    9.177626   9.272519   9.049828   9.838146   7.106593
    31  O   10.064320  10.080727  10.181599  11.010207   8.315541
    32  H   10.374994  10.236782  10.386415  11.334064   8.901432
    33  H   10.756751  10.861441  11.021515  11.773908   8.884149
    34  O   12.065474  12.281403  12.601827  13.244918  10.129089
    35  H   13.021710  13.252631  13.551986  14.188655  11.014906
    36  H   11.782816  12.094977  12.551684  13.089887   9.866165
                   21         22         23         24         25
    21  H    0.000000
    22  H    2.331832   0.000000
    23  H    4.137449   2.325707   0.000000
    24  H    5.493119   5.159315   4.005390   0.000000
    25  H    6.860430   6.018233   4.258522   1.789693   0.000000
    26  H    7.094719   6.828564   5.412127   1.772578   1.787725
    27  H    2.529653   4.194576   4.921158   4.631332   6.193245
    28  O    3.408474   1.627586   3.389490   6.545398   7.251493
    29  H    3.952079   2.333831   3.943383   6.831093   7.520016
    30  H    3.951215   2.341851   3.953315   7.382957   8.020181
    31  O    5.193250   3.866216   5.218538   8.900182   9.441468
    32  H    6.048925   4.517417   5.531446   9.372976   9.752275
    33  H    5.481813   4.503994   6.062525   9.626456  10.266877
    34  O    6.518162   6.026487   7.726201  11.158622  11.908584
    35  H    7.272414   6.877700   8.640013  12.023711  12.803131
    36  H    6.345740   6.115985   7.827737  11.155511  11.969685
                   26         27         28         29         30
    26  H    0.000000
    27  H    5.823957   0.000000
    28  O    8.238567   5.657418   0.000000
    29  H    8.553733   6.238279   0.959667   0.000000
    30  H    9.038391   6.238445   0.979593   1.559023   0.000000
    31  O   10.487687   7.419923   2.711269   3.156143   1.732550
    32  H   10.908920   8.199653   3.350901   3.718972   2.408332
    33  H   11.238014   7.764995   3.351860   3.718606   2.409101
    34  O   12.770948   8.744167   4.976388   5.288822   4.100156
    35  H   13.659362   9.528106   5.759977   5.969129   4.910632
    36  H   12.727918   8.417424   5.291218   5.727549   4.461506
                   31         32         33         34         35
    31  O    0.000000
    32  H    0.961149   0.000000
    33  H    0.961163   1.534642   0.000000
    34  O    2.736433   3.065170   1.792315   0.000000
    35  H    3.596913   3.851906   2.648054   0.972436   0.000000
    36  H    3.190785   3.609068   2.326258   0.973842   1.519088
                   36
    36  H    0.000000
 Stoichiometry    C10H21N2O3(1+)
 Framework group  C1[X(C10H21N2O3)]
 Deg. of freedom   102
 Full point group                 C1      NOp   1
 Largest Abelian subgroup         C1      NOp   1
 Largest concise Abelian subgroup C1      NOp   1
                         Standard orientation:                         
 ---------------------------------------------------------------------
 Center     Atomic      Atomic             Coordinates (Angstroms)
 Number     Number       Type             X           Y           Z
 ---------------------------------------------------------------------
      1          6           0        2.564928    1.768928   -0.693153
      2          6           0        2.350539    0.600910    0.305140
      3          7           0        3.599284   -0.142543    0.266922
      4          6           0        4.647931    0.868925    0.157850
      5          6           0        4.097940    1.846337   -0.879430
      6          6           0        1.175775   -0.273276   -0.064499
      7          6           0       -0.051060   -0.136372    0.562971
      8          7           0       -1.100970   -0.890754    0.193297
      9          6           0       -1.023649   -1.810054   -0.779324
     10          6           0        0.177074   -2.005875   -1.440313
     11          6           0        1.277770   -1.233529   -1.079592
     12          6           0        3.778712   -1.054318    1.381694
     13          1           0        2.165631    1.016734    1.318397
     14          1           0        2.058566    1.568009   -1.644794
     15          1           0        2.141375    2.695585   -0.289787
     16          1           0        4.376173    1.523576   -1.888888
     17          1           0        4.484238    2.860328   -0.733799
     18          1           0        4.807207    1.378432    1.129927
     19          1           0        5.595316    0.403064   -0.137541
     20          1           0        2.243307   -1.368005   -1.567306
     21          1           0       -1.932458   -2.366369   -0.995072
     22          1           0       -2.014335   -0.758199    0.691500
     23          1           0       -0.230038    0.569434    1.371635
     24          1           0        2.987504   -1.816020    1.385148
     25          1           0        3.764014   -0.530239    2.358185
     26          1           0        4.739989   -1.571068    1.281103
     27          1           0        0.243320   -2.755471   -2.225410
     28          8           0       -3.431756   -0.539466    1.460987
     29          1           0       -3.740339   -1.001569    2.243417
     30          1           0       -4.147495    0.071011    1.187790
     31          8           0       -5.360383    1.177883    0.635098
     32          1           0       -5.559258    2.017832    1.057877
     33          1           0       -6.163202    0.917075    0.175430
     34          8           0       -7.623820    0.807893   -0.857561
     35          1           0       -8.572850    0.596526   -0.874825
     36          1           0       -7.382945    0.781874   -1.800785
 ---------------------------------------------------------------------
 Rotational constants (GHZ):           1.0140883           0.1587083           0.1525522
 Standard basis: Aug-CC-pVDZ (5D, 7F)
 There are   564 symmetry adapted cartesian basis functions of A   symmetry.
 There are   534 symmetry adapted basis functions of A   symmetry.
   534 basis functions,   876 primitive gaussians,   564 cartesian basis functions
    59 alpha electrons       59 beta electrons
       nuclear repulsion energy       995.2690646342 Hartrees.
 NAtoms=   36 NActive=   36 NUniq=   36 SFac= 1.00D+00 NAtFMM=   60 NAOKFM=F Big=F
 Integral buffers will be    131072 words long.
 Raffenetti 2 integral format.
 Two-electron integral symmetry is turned on.
 Nuclear repulsion after empirical dispersion term =      995.2465590872 Hartrees.
 One-electron integrals computed using PRISM.
 NBasis=   534 RedAO= T EigKep=  2.46D-06  NBF=   534
 NBsUse=   534 1.00D-06 EigRej= -1.00D+00 NBFU=   534
 ExpMin= 2.97D-02 ExpMax= 1.17D+04 ExpMxC= 4.01D+02 IAcc=3 IRadAn=         5 AccDes= 0.00D+00
 Harris functional with IExCor= 4639 and IRadAn=       5 diagonalized for initial guess.
 HarFok:  IExCor= 4639 AccDes= 0.00D+00 IRadAn=         5 IDoV= 1 UseB2=F ITyADJ=14
 ICtDFT=  3500011 ScaDFX=  1.000000  1.000000  1.000000  1.000000
 FoFCou: FMM=F IPFlag=           0 FMFlag=      100000 FMFlg1=           0
         NFxFlg=           0 DoJE=T BraDBF=F KetDBF=T FulRan=T
         wScrn=  0.000000 ICntrl=       500 IOpCl=  0 I1Cent=   200000004 NGrid=           0
         NMat0=    1 NMatS0=      1 NMatT0=    0 NMatD0=    1 NMtDS0=    0 NMtDT0=    0
 Petite list used in FoFCou.
 Requested convergence on RMS density matrix=1.00D-08 within 128 cycles.
 Requested convergence on MAX density matrix=1.00D-06.
 Requested convergence on             energy=1.00D-06.
 No special actions if energy rises.
 SCF Done:  E(RwB97XD) =  -728.585210143     A.U. after   14 cycles
            NFock= 14  Conv=0.73D-08     -V/T= 2.0063

 **********************************************************************

            Population analysis using the SCF density.

 **********************************************************************

 Orbital symmetries:
       Occupied  (A) (A) (A) (A) (A) (A) (A) (A) (A) (A) (A) (A)
                 (A) (A) (A) (A) (A) (A) (A) (A) (A) (A) (A) (A)
                 (A) (A) (A) (A) (A) (A) (A) (A) (A) (A) (A) (A)
                 (A) (A) (A) (A) (A) (A) (A) (A) (A) (A) (A) (A)
                 (A) (A) (A) (A) (A) (A) (A) (A) (A) (A) (A)
       Virtual   (A) (A) (A) (A) (A) (A) (A) (A) (A) (A) (A) (A)
                 (A) (A) (A) (A) (A) (A) (A) (A) (A) (A) (A) (A)
                 (A) (A) (A) (A) (A) (A) (A) (A) (A) (A) (A) (A)
                 (A) (A) (A) (A) (A) (A) (A) (A) (A) (A) (A) (A)
                 (A) (A) (A) (A) (A) (A) (A) (A) (A) (A) (A) (A)
                 (A) (A) (A) (A) (A) (A) (A) (A) (A) (A) (A) (A)
                 (A) (A) (A) (A) (A) (A) (A) (A) (A) (A) (A) (A)
                 (A) (A) (A) (A) (A) (A) (A) (A) (A) (A) (A) (A)
                 (A) (A) (A) (A) (A) (A) (A) (A) (A) (A) (A) (A)
                 (A) (A) (A) (A) (A) (A) (A) (A) (A) (A) (A) (A)
                 (A) (A) (A) (A) (A) (A) (A) (A) (A) (A) (A) (A)
                 (A) (A) (A) (A) (A) (A) (A) (A) (A) (A) (A) (A)
                 (A) (A) (A) (A) (A) (A) (A) (A) (A) (A) (A) (A)
                 (A) (A) (A) (A) (A) (A) (A) (A) (A) (A) (A) (A)
                 (A) (A) (A) (A) (A) (A) (A) (A) (A) (A) (A) (A)
                 (A) (A) (A) (A) (A) (A) (A) (A) (A) (A) (A) (A)
                 (A) (A) (A) (A) (A) (A) (A) (A) (A) (A) (A) (A)
                 (A) (A) (A) (A) (A) (A) (A) (A) (A) (A) (A) (A)
                 (A) (A) (A) (A) (A) (A) (A) (A) (A) (A) (A) (A)
                 (A) (A) (A) (A) (A) (A) (A) (A) (A) (A) (A) (A)
                 (A) (A) (A) (A) (A) (A) (A) (A) (A) (A) (A) (A)
                 (A) (A) (A) (A) (A) (A) (A) (A) (A) (A) (A) (A)
                 (A) (A) (A) (A) (A) (A) (A) (A) (A) (A) (A) (A)
                 (A) (A) (A) (A) (A) (A) (A) (A) (A) (A) (A) (A)
                 (A) (A) (A) (A) (A) (A) (A) (A) (A) (A) (A) (A)
                 (A) (A) (A) (A) (A) (A) (A) (A) (A) (A) (A) (A)
                 (A) (A) (A) (A) (A) (A) (A) (A) (A) (A) (A) (A)
                 (A) (A) (A) (A) (A) (A) (A) (A) (A) (A) (A) (A)
                 (A) (A) (A) (A) (A) (A) (A) (A) (A) (A) (A) (A)
                 (A) (A) (A) (A) (A) (A) (A) (A) (A) (A) (A) (A)
                 (A) (A) (A) (A) (A) (A) (A) (A) (A) (A) (A) (A)
                 (A) (A) (A) (A) (A) (A) (A) (A) (A) (A) (A) (A)
                 (A) (A) (A) (A) (A) (A) (A) (A) (A) (A) (A) (A)
                 (A) (A) (A) (A) (A) (A) (A) (A) (A) (A) (A) (A)
                 (A) (A) (A) (A) (A) (A) (A) (A) (A) (A) (A) (A)
                 (A) (A) (A) (A) (A) (A) (A) (A) (A) (A) (A) (A)
                 (A) (A) (A) (A) (A) (A) (A) (A) (A) (A) (A) (A)
                 (A) (A) (A) (A) (A) (A) (A) (A) (A) (A) (A) (A)
                 (A) (A) (A) (A) (A) (A) (A) (A) (A) (A) (A) (A)
                 (A) (A) (A) (A) (A) (A) (A)
 The electronic state is 1-A.
 Alpha  occ. eigenvalues --  -19.39709 -19.39528 -19.37714 -14.67523 -14.54875
 Alpha  occ. eigenvalues --  -10.50880 -10.50503 -10.46965 -10.46570 -10.46501
 Alpha  occ. eigenvalues --  -10.44876 -10.41147 -10.41091 -10.40246 -10.38817
 Alpha  occ. eigenvalues --   -1.25766  -1.24015  -1.23511  -1.21822  -1.15392
 Alpha  occ. eigenvalues --   -1.07565  -1.04345  -0.98735  -0.94731  -0.90200
 Alpha  occ. eigenvalues --   -0.88503  -0.87198  -0.82464  -0.78122  -0.76980
 Alpha  occ. eigenvalues --   -0.75089  -0.74522  -0.74007  -0.73171  -0.72527
 Alpha  occ. eigenvalues --   -0.70310  -0.68556  -0.68149  -0.67486  -0.64270
 Alpha  occ. eigenvalues --   -0.63570  -0.62953  -0.62028  -0.61706  -0.59801
 Alpha  occ. eigenvalues --   -0.59107  -0.57011  -0.56716  -0.55840  -0.54945
 Alpha  occ. eigenvalues --   -0.53959  -0.53282  -0.52510  -0.52434  -0.52046
 Alpha  occ. eigenvalues --   -0.51201  -0.50440  -0.48648  -0.40937
 Alpha virt. eigenvalues --   -0.13787  -0.10240  -0.06581  -0.05009  -0.04802
 Alpha virt. eigenvalues --   -0.04164  -0.03396  -0.03096  -0.02549  -0.02486
 Alpha virt. eigenvalues --   -0.01811  -0.01480  -0.00849  -0.00666  -0.00477
 Alpha virt. eigenvalues --    0.00073   0.00125   0.00864   0.01472   0.01626
 Alpha virt. eigenvalues --    0.02112   0.02659   0.02891   0.03229   0.03636
 Alpha virt. eigenvalues --    0.03689   0.03915   0.04175   0.04347   0.04559
 Alpha virt. eigenvalues --    0.05365   0.05623   0.05977   0.06134   0.06385
 Alpha virt. eigenvalues --    0.06500   0.07388   0.07591   0.07986   0.08152
 Alpha virt. eigenvalues --    0.08287   0.08444   0.08641   0.09041   0.09331
 Alpha virt. eigenvalues --    0.09683   0.10074   0.10350   0.10743   0.10972
 Alpha virt. eigenvalues --    0.11186   0.11829   0.12062   0.12129   0.12479
 Alpha virt. eigenvalues --    0.12772   0.13179   0.13454   0.13762   0.13964
 Alpha virt. eigenvalues --    0.14281   0.14479   0.14718   0.15122   0.15643
 Alpha virt. eigenvalues --    0.15745   0.16249   0.16509   0.16953   0.17148
 Alpha virt. eigenvalues --    0.17175   0.17487   0.17683   0.18301   0.18481
 Alpha virt. eigenvalues --    0.18879   0.18979   0.19223   0.19697   0.20117
 Alpha virt. eigenvalues --    0.20397   0.20550   0.20845   0.21332   0.21745
 Alpha virt. eigenvalues --    0.21975   0.22236   0.22607   0.23203   0.23523
 Alpha virt. eigenvalues --    0.23745   0.24169   0.24598   0.24782   0.24926
 Alpha virt. eigenvalues --    0.25774   0.25987   0.26484   0.26764   0.26904
 Alpha virt. eigenvalues --    0.27134   0.27427   0.27982   0.28195   0.28587
 Alpha virt. eigenvalues --    0.28678   0.29595   0.29649   0.30345   0.30853
 Alpha virt. eigenvalues --    0.31279   0.31548   0.32053   0.32476   0.32894
 Alpha virt. eigenvalues --    0.33094   0.33570   0.33920   0.34625   0.35193
 Alpha virt. eigenvalues --    0.35474   0.36013   0.36290   0.36581   0.37104
 Alpha virt. eigenvalues --    0.37641   0.38038   0.38211   0.38360   0.38867
 Alpha virt. eigenvalues --    0.39347   0.39689   0.40481   0.41386   0.41621
 Alpha virt. eigenvalues --    0.42036   0.42386   0.42704   0.42916   0.43288
 Alpha virt. eigenvalues --    0.43454   0.44094   0.44248   0.44432   0.45100
 Alpha virt. eigenvalues --    0.45490   0.45977   0.46266   0.46462   0.46785
 Alpha virt. eigenvalues --    0.47598   0.47796   0.48113   0.49030   0.49234
 Alpha virt. eigenvalues --    0.50118   0.50225   0.50296   0.50683   0.50720
 Alpha virt. eigenvalues --    0.51284   0.51473   0.51800   0.52097   0.52274
 Alpha virt. eigenvalues --    0.52600   0.53232   0.53798   0.54180   0.54450
 Alpha virt. eigenvalues --    0.54555   0.55179   0.55201   0.55908   0.56166
 Alpha virt. eigenvalues --    0.56487   0.57446   0.57916   0.58038   0.58316
 Alpha virt. eigenvalues --    0.59284   0.59673   0.60304   0.60371   0.61365
 Alpha virt. eigenvalues --    0.61841   0.62776   0.63054   0.63523   0.64071
 Alpha virt. eigenvalues --    0.64391   0.64584   0.64793   0.65139   0.65825
 Alpha virt. eigenvalues --    0.66119   0.67138   0.67868   0.67928   0.68623
 Alpha virt. eigenvalues --    0.68901   0.69387   0.69776   0.70698   0.70801
 Alpha virt. eigenvalues --    0.71412   0.71907   0.72274   0.72568   0.73178
 Alpha virt. eigenvalues --    0.73515   0.73980   0.74593   0.74732   0.75712
 Alpha virt. eigenvalues --    0.75982   0.76512   0.76959   0.77246   0.77613
 Alpha virt. eigenvalues --    0.78800   0.79256   0.79748   0.79917   0.80570
 Alpha virt. eigenvalues --    0.81010   0.81731   0.82686   0.83487   0.84106
 Alpha virt. eigenvalues --    0.84849   0.85338   0.86095   0.86797   0.87115
 Alpha virt. eigenvalues --    0.87909   0.88414   0.89563   0.90669   0.91635
 Alpha virt. eigenvalues --    0.91919   0.92417   0.92948   0.93720   0.94566
 Alpha virt. eigenvalues --    0.95333   0.97059   0.97453   0.97657   0.98356
 Alpha virt. eigenvalues --    0.99379   0.99587   1.01008   1.01547   1.01862
 Alpha virt. eigenvalues --    1.02698   1.03346   1.03984   1.05371   1.06162
 Alpha virt. eigenvalues --    1.06773   1.07123   1.08147   1.08927   1.09638
 Alpha virt. eigenvalues --    1.11085   1.12588   1.13268   1.14114   1.15846
 Alpha virt. eigenvalues --    1.16209   1.16913   1.17308   1.17411   1.18567
 Alpha virt. eigenvalues --    1.19533   1.21374   1.22252   1.23080   1.24593
 Alpha virt. eigenvalues --    1.25182   1.26001   1.27464   1.28605   1.29743
 Alpha virt. eigenvalues --    1.30729   1.31582   1.31755   1.32695   1.33988
 Alpha virt. eigenvalues --    1.34759   1.35202   1.36155   1.36500   1.37773
 Alpha virt. eigenvalues --    1.38786   1.39294   1.41891   1.42543   1.43395
 Alpha virt. eigenvalues --    1.43884   1.44613   1.45159   1.47000   1.47325
 Alpha virt. eigenvalues --    1.48121   1.49076   1.50726   1.51747   1.52012
 Alpha virt. eigenvalues --    1.53126   1.54482   1.55056   1.56838   1.57486
 Alpha virt. eigenvalues --    1.58709   1.60177   1.60569   1.62075   1.62792
 Alpha virt. eigenvalues --    1.63653   1.65051   1.65256   1.66726   1.66804
 Alpha virt. eigenvalues --    1.67854   1.68799   1.69365   1.70672   1.71766
 Alpha virt. eigenvalues --    1.72369   1.72608   1.73376   1.73838   1.74454
 Alpha virt. eigenvalues --    1.74755   1.75889   1.77219   1.78320   1.79362
 Alpha virt. eigenvalues --    1.79622   1.80104   1.80349   1.81664   1.82185
 Alpha virt. eigenvalues --    1.83278   1.84254   1.84775   1.86020   1.86391
 Alpha virt. eigenvalues --    1.87226   1.88392   1.88927   1.89622   1.90560
 Alpha virt. eigenvalues --    1.91459   1.91986   1.93043   1.93849   1.94200
 Alpha virt. eigenvalues --    1.95875   1.97428   1.97732   1.99663   2.00237
 Alpha virt. eigenvalues --    2.00386   2.01287   2.02706   2.03548   2.05955
 Alpha virt. eigenvalues --    2.06246   2.06884   2.08060   2.08808   2.09324
 Alpha virt. eigenvalues --    2.11744   2.12155   2.12312   2.14105   2.14452
 Alpha virt. eigenvalues --    2.15734   2.16501   2.16976   2.17853   2.19843
 Alpha virt. eigenvalues --    2.20759   2.21604   2.22333   2.22862   2.23054
 Alpha virt. eigenvalues --    2.24156   2.24981   2.25694   2.27294   2.27767
 Alpha virt. eigenvalues --    2.29518   2.30590   2.31071   2.33033   2.33485
 Alpha virt. eigenvalues --    2.35341   2.36280   2.37579   2.39821   2.41317
 Alpha virt. eigenvalues --    2.41746   2.43672   2.44742   2.45417   2.47384
 Alpha virt. eigenvalues --    2.48192   2.49065   2.49425   2.51637   2.52406
 Alpha virt. eigenvalues --    2.54692   2.55035   2.55632   2.56281   2.56870
 Alpha virt. eigenvalues --    2.58670   2.60758   2.61339   2.63704   2.64238
 Alpha virt. eigenvalues --    2.65272   2.65909   2.67213   2.68420   2.69247
 Alpha virt. eigenvalues --    2.70662   2.71496   2.73618   2.74812   2.75689
 Alpha virt. eigenvalues --    2.77681   2.78522   2.79370   2.82201   2.82409
 Alpha virt. eigenvalues --    2.83429   2.84535   2.86764   2.88343   2.90478
 Alpha virt. eigenvalues --    2.93043   2.96176   3.01770   3.04042   3.13128
 Alpha virt. eigenvalues --    3.14209   3.15767   3.21702   3.26921   3.28257
 Alpha virt. eigenvalues --    3.31627   3.33419   3.35439   3.36540   3.39712
 Alpha virt. eigenvalues --    3.41816   3.44368   3.48203   3.49779   3.51308
 Alpha virt. eigenvalues --    3.59779   3.65167   3.70031   3.76932   3.81324
 Alpha virt. eigenvalues --    3.89625   4.02348   4.06137   4.25805   4.88703
          Condensed to atoms (all electrons):
               1          2          3          4          5          6
     1  C    7.015138  -0.812992  -0.416910   0.315932  -0.638723   0.309176
     2  C   -0.812992  19.237845  -2.144434  -0.238510  -0.879721  -5.103594
     3  N   -0.416910  -2.144434   8.852876   0.125831   0.137851   0.738027
     4  C    0.315932  -0.238510   0.125831   5.655990   0.120051  -0.201088
     5  C   -0.638723  -0.879721   0.137851   0.120051   6.082297   0.554960
     6  C    0.309176  -5.103594   0.738027  -0.201088   0.554960  22.491161
     7  C   -0.635474  -1.747090   0.021058  -0.220209   0.138274  -6.720628
     8  N    0.025605   0.466509  -0.060284   0.018583  -0.014567   0.312391
     9  C   -0.140059  -0.857478   0.064646  -0.056699  -0.008676  -0.615721
    10  C    0.307345   0.200205  -0.173242   0.080459   0.058722   1.456077
    11  C   -0.217737  -0.836321   0.392123  -0.114821  -0.358559  -8.349503
    12  C   -0.065658  -0.357451   0.424148  -0.208924   0.004175   0.188199
    13  H    0.371023  -2.149226  -0.142158  -0.119043   0.066190   0.444287
    14  H   -0.333397   0.030677   0.039868   0.068874   0.278559  -0.491298
    15  H   -0.684038   0.224041   0.138927  -0.147783   0.235488   0.177348
    16  H    0.110541  -0.050838   0.085204  -0.025898  -0.206830   0.060933
    17  H    0.326503  -0.007976  -0.028101   0.121392  -0.324273  -0.043280
    18  H   -0.126003  -0.263321   0.446072  -0.274056   0.065970   0.172726
    19  H    0.124520   0.527190  -0.685237  -0.102413  -0.038487  -0.213895
    20  H    0.071078   0.094379  -0.229076   0.032675   0.008297   0.161612
    21  H    0.004267   0.013844   0.004012  -0.001058  -0.000448   0.212544
    22  H   -0.020817  -0.016379   0.000669  -0.003582   0.003211  -0.656871
    23  H    0.158647   0.040074   0.058531   0.014044   0.001521   0.167879
    24  H    0.123411   0.169922  -0.171632  -0.073225  -0.067372   0.048799
    25  H   -0.024861  -0.270637   0.219948   0.011723   0.058511   0.001348
    26  H   -0.055823  -0.063006  -0.261508   0.030506   0.048518   0.122374
    27  H   -0.010500   0.015288  -0.004361   0.001259   0.005340  -0.386237
    28  O   -0.001737  -0.001984   0.000348   0.000128  -0.000184  -0.099592
    29  H    0.000454   0.002409   0.000004   0.000103  -0.000059   0.010944
    30  H   -0.000529   0.003266  -0.000012   0.000052  -0.000066  -0.008753
    31  O    0.000128  -0.000083  -0.000000  -0.000003   0.000011   0.001571
    32  H    0.000038   0.000173  -0.000013   0.000004  -0.000004   0.000748
    33  H    0.000028  -0.000334   0.000010  -0.000006   0.000011   0.000555
    34  O    0.000001   0.000007   0.000000   0.000000  -0.000000   0.000103
    35  H   -0.000000   0.000002   0.000000   0.000000  -0.000000  -0.000018
    36  H   -0.000002   0.000019  -0.000000   0.000000   0.000000   0.000012
               7          8          9         10         11         12
     1  C   -0.635474   0.025605  -0.140059   0.307345  -0.217737  -0.065658
     2  C   -1.747090   0.466509  -0.857478   0.200205  -0.836321  -0.357451
     3  N    0.021058  -0.060284   0.064646  -0.173242   0.392123   0.424148
     4  C   -0.220209   0.018583  -0.056699   0.080459  -0.114821  -0.208924
     5  C    0.138274  -0.014567  -0.008676   0.058722  -0.358559   0.004175
     6  C   -6.720628   0.312391  -0.615721   1.456077  -8.349503   0.188199
     7  C   18.275407  -0.938316  -0.541604  -1.451599  -1.024028  -0.022715
     8  N   -0.938316   7.393890   0.012589   0.395830  -0.450554  -0.016803
     9  C   -0.541604   0.012589  10.147710  -3.055882   1.212195   0.009501
    10  C   -1.451599   0.395830  -3.055882  13.663324  -5.578651  -0.010190
    11  C   -1.024028  -0.450554   1.212195  -5.578651  21.566996  -0.040242
    12  C   -0.022715  -0.016803   0.009501  -0.010190  -0.040242   4.474233
    13  H    0.407400  -0.012032   0.038629  -0.074337  -0.023719   0.057853
    14  H    0.116828   0.021123  -0.020531  -0.007011   0.086855   0.019606
    15  H   -0.028319  -0.012830   0.003258   0.029870  -0.050540   0.013567
    16  H    0.014378  -0.002258   0.001832   0.009448   0.010767  -0.015712
    17  H    0.003603  -0.000422   0.000895  -0.005042   0.001091   0.014555
    18  H    0.015629  -0.000228  -0.000520   0.003432   0.021729  -0.016168
    19  H   -0.015129   0.001987  -0.003031   0.003530  -0.007384  -0.011148
    20  H    0.177506  -0.027280  -0.232922   1.084729  -2.357751  -0.030931
    21  H    0.022800   0.016999  -0.870752   0.306784   0.055499   0.002828
    22  H    0.541492   0.019012  -0.366097  -0.169677   0.070206  -0.003322
    23  H   -1.059224   0.097002  -0.003367   0.036616  -0.007477   0.005666
    24  H   -0.203464   0.023976  -0.010841   0.061237  -0.047218   0.258215
    25  H    0.075984  -0.009254   0.003472  -0.000665   0.024495   0.140149
    26  H    0.026504  -0.003217   0.003518  -0.003899  -0.042276   0.355610
    27  H    0.068188  -0.035005   0.527410  -1.307795   0.842628  -0.007673
    28  O    0.090159  -0.176165   0.018319  -0.049246   0.047514  -0.000468
    29  H   -0.011819   0.007369  -0.009903   0.010277  -0.004027  -0.000023
    30  H    0.002563   0.004040  -0.003618  -0.002910   0.010970  -0.000092
    31  O   -0.001109  -0.001907   0.004938   0.001057  -0.000291   0.000001
    32  H   -0.002351   0.000654   0.000295   0.000538  -0.000283  -0.000002
    33  H    0.000899   0.000799  -0.000807   0.000170  -0.001034   0.000008
    34  O    0.000091  -0.000032   0.000462   0.000110   0.000025  -0.000000
    35  H    0.000017  -0.000039   0.000002  -0.000021   0.000031  -0.000000
    36  H    0.000090  -0.000008  -0.000059   0.000045  -0.000018  -0.000000
              13         14         15         16         17         18
     1  C    0.371023  -0.333397  -0.684038   0.110541   0.326503  -0.126003
     2  C   -2.149226   0.030677   0.224041  -0.050838  -0.007976  -0.263321
     3  N   -0.142158   0.039868   0.138927   0.085204  -0.028101   0.446072
     4  C   -0.119043   0.068874  -0.147783  -0.025898   0.121392  -0.274056
     5  C    0.066190   0.278559   0.235488  -0.206830  -0.324273   0.065970
     6  C    0.444287  -0.491298   0.177348   0.060933  -0.043280   0.172726
     7  C    0.407400   0.116828  -0.028319   0.014378   0.003603   0.015629
     8  N   -0.012032   0.021123  -0.012830  -0.002258  -0.000422  -0.000228
     9  C    0.038629  -0.020531   0.003258   0.001832   0.000895  -0.000520
    10  C   -0.074337  -0.007011   0.029870   0.009448  -0.005042   0.003432
    11  C   -0.023719   0.086855  -0.050540   0.010767   0.001091   0.021729
    12  C    0.057853   0.019606   0.013567  -0.015712   0.014555  -0.016168
    13  H    3.099057   0.134012  -0.289791  -0.047280   0.041815  -0.075398
    14  H    0.134012   2.207594  -0.483620  -0.341820   0.134016  -0.038191
    15  H   -0.289791  -0.483620   2.321643   0.187916  -0.299693   0.059423
    16  H   -0.047280  -0.341820   0.187916   2.063774  -0.446443   0.168051
    17  H    0.041815   0.134016  -0.299693  -0.446443   1.911738  -0.197182
    18  H   -0.075398  -0.038191   0.059423   0.168051  -0.197182   1.846921
    19  H    0.049142   0.017081  -0.024058  -0.253945   0.070028  -0.432824
    20  H    0.007820  -0.017044  -0.000415   0.008032   0.004796   0.001950
    21  H   -0.000014  -0.001812   0.001387   0.000271  -0.000007   0.000145
    22  H    0.005125   0.001276   0.000776   0.000131   0.000228  -0.000395
    23  H   -0.072155   0.015256   0.004396   0.001168   0.000127   0.004567
    24  H    0.028818   0.007383  -0.002819  -0.006970  -0.000847  -0.002956
    25  H    0.047047   0.001270   0.000762  -0.001064   0.007403   0.002448
    26  H    0.001354  -0.001838   0.000795   0.007064  -0.002503  -0.001000
    27  H    0.003715  -0.001969  -0.001224   0.000424  -0.000403  -0.000098
    28  O    0.001204   0.000174  -0.000031  -0.000018  -0.000002  -0.000033
    29  H   -0.000310   0.000036   0.000023  -0.000007  -0.000000   0.000006
    30  H    0.000519   0.000151  -0.000096  -0.000013   0.000001  -0.000014
    31  O   -0.000060   0.000010  -0.000027   0.000000   0.000001   0.000001
    32  H    0.000019   0.000007  -0.000007  -0.000002   0.000001  -0.000000
    33  H   -0.000087  -0.000029   0.000018   0.000003  -0.000001   0.000001
    34  O    0.000005   0.000003  -0.000001  -0.000000   0.000000  -0.000000
    35  H    0.000001   0.000001  -0.000000  -0.000000   0.000000   0.000000
    36  H    0.000001   0.000001  -0.000001  -0.000000   0.000000  -0.000000
              19         20         21         22         23         24
     1  C    0.124520   0.071078   0.004267  -0.020817   0.158647   0.123411
     2  C    0.527190   0.094379   0.013844  -0.016379   0.040074   0.169922
     3  N   -0.685237  -0.229076   0.004012   0.000669   0.058531  -0.171632
     4  C   -0.102413   0.032675  -0.001058  -0.003582   0.014044  -0.073225
     5  C   -0.038487   0.008297  -0.000448   0.003211   0.001521  -0.067372
     6  C   -0.213895   0.161612   0.212544  -0.656871   0.167879   0.048799
     7  C   -0.015129   0.177506   0.022800   0.541492  -1.059224  -0.203464
     8  N    0.001987  -0.027280   0.016999   0.019012   0.097002   0.023976
     9  C   -0.003031  -0.232922  -0.870752  -0.366097  -0.003367  -0.010841
    10  C    0.003530   1.084729   0.306784  -0.169677   0.036616   0.061237
    11  C   -0.007384  -2.357751   0.055499   0.070206  -0.007477  -0.047218
    12  C   -0.011148  -0.030931   0.002828  -0.003322   0.005666   0.258215
    13  H    0.049142   0.007820  -0.000014   0.005125  -0.072155   0.028818
    14  H    0.017081  -0.017044  -0.001812   0.001276   0.015256   0.007383
    15  H   -0.024058  -0.000415   0.001387   0.000776   0.004396  -0.002819
    16  H   -0.253945   0.008032   0.000271   0.000131   0.001168  -0.006970
    17  H    0.070028   0.004796  -0.000007   0.000228   0.000127  -0.000847
    18  H   -0.432824   0.001950   0.000145  -0.000395   0.004567  -0.002956
    19  H    2.484503   0.012434  -0.000161  -0.000097  -0.001481   0.006203
    20  H    0.012434   3.321378  -0.015556   0.017951  -0.020554   0.023335
    21  H   -0.000161  -0.015556   2.138955  -0.142975   0.006605  -0.000668
    22  H   -0.000097   0.017951  -0.142975   1.702119  -0.085092  -0.003330
    23  H   -0.001481  -0.020554   0.006605  -0.085092   2.449280   0.007224
    24  H    0.006203   0.023335  -0.000668  -0.003330   0.007224   2.120015
    25  H    0.006833   0.003914   0.000148   0.002215   0.000814  -0.403906
    26  H    0.014722  -0.003475   0.000316  -0.000289   0.002127  -0.546218
    27  H   -0.000622  -0.130787  -0.123273   0.015163  -0.001248   0.000693
    28  O    0.000009   0.000978  -0.003157   0.046357   0.000479   0.000090
    29  H    0.000006  -0.000074   0.005936  -0.013924   0.002849   0.000085
    30  H    0.000007  -0.000158   0.001343  -0.010268   0.002296   0.000014
    31  O   -0.000000  -0.000003   0.001833  -0.013944   0.001889   0.000009
    32  H    0.000000  -0.000005   0.000104   0.001599  -0.000108   0.000002
    33  H   -0.000001  -0.000013  -0.000406   0.001827   0.000000  -0.000003
    34  O    0.000000   0.000001   0.000044  -0.001590  -0.000074   0.000000
    35  H    0.000000   0.000001   0.000002   0.000124  -0.000003   0.000000
    36  H    0.000000  -0.000001  -0.000040  -0.000216   0.000012  -0.000000
              25         26         27         28         29         30
     1  C   -0.024861  -0.055823  -0.010500  -0.001737   0.000454  -0.000529
     2  C   -0.270637  -0.063006   0.015288  -0.001984   0.002409   0.003266
     3  N    0.219948  -0.261508  -0.004361   0.000348   0.000004  -0.000012
     4  C    0.011723   0.030506   0.001259   0.000128   0.000103   0.000052
     5  C    0.058511   0.048518   0.005340  -0.000184  -0.000059  -0.000066
     6  C    0.001348   0.122374  -0.386237  -0.099592   0.010944  -0.008753
     7  C    0.075984   0.026504   0.068188   0.090159  -0.011819   0.002563
     8  N   -0.009254  -0.003217  -0.035005  -0.176165   0.007369   0.004040
     9  C    0.003472   0.003518   0.527410   0.018319  -0.009903  -0.003618
    10  C   -0.000665  -0.003899  -1.307795  -0.049246   0.010277  -0.002910
    11  C    0.024495  -0.042276   0.842628   0.047514  -0.004027   0.010970
    12  C    0.140149   0.355610  -0.007673  -0.000468  -0.000023  -0.000092
    13  H    0.047047   0.001354   0.003715   0.001204  -0.000310   0.000519
    14  H    0.001270  -0.001838  -0.001969   0.000174   0.000036   0.000151
    15  H    0.000762   0.000795  -0.001224  -0.000031   0.000023  -0.000096
    16  H   -0.001064   0.007064   0.000424  -0.000018  -0.000007  -0.000013
    17  H    0.007403  -0.002503  -0.000403  -0.000002  -0.000000   0.000001
    18  H    0.002448  -0.001000  -0.000098  -0.000033   0.000006  -0.000014
    19  H    0.006833   0.014722  -0.000622   0.000009   0.000006   0.000007
    20  H    0.003914  -0.003475  -0.130787   0.000978  -0.000074  -0.000158
    21  H    0.000148   0.000316  -0.123273  -0.003157   0.005936   0.001343
    22  H    0.002215  -0.000289   0.015163   0.046357  -0.013924  -0.010268
    23  H    0.000814   0.002127  -0.001248   0.000479   0.002849   0.002296
    24  H   -0.403906  -0.546218   0.000693   0.000090   0.000085   0.000014
    25  H    1.546945  -0.276197  -0.001484   0.000019  -0.000025  -0.000000
    26  H   -0.276197   1.880164   0.000401  -0.000046  -0.000002  -0.000022
    27  H   -0.001484   0.000401   2.117389  -0.000967  -0.000300   0.000095
    28  O    0.000019  -0.000046  -0.000967   7.930418   0.363569   0.320367
    29  H   -0.000025  -0.000002  -0.000300   0.363569   0.605431  -0.110941
    30  H   -0.000000  -0.000022   0.000095   0.320367  -0.110941   0.526317
    31  O    0.000000   0.000000  -0.000030  -0.041920   0.004290   0.012825
    32  H   -0.000001  -0.000000   0.000004   0.001407  -0.000423  -0.003882
    33  H    0.000002   0.000001   0.000023   0.002609  -0.000289  -0.005613
    34  O   -0.000000  -0.000000   0.000002   0.000128   0.000530  -0.000209
    35  H   -0.000000  -0.000000  -0.000002   0.000050  -0.000080   0.000059
    36  H    0.000000  -0.000000   0.000002   0.000092   0.000064  -0.000350
              31         32         33         34         35         36
     1  C    0.000128   0.000038   0.000028   0.000001  -0.000000  -0.000002
     2  C   -0.000083   0.000173  -0.000334   0.000007   0.000002   0.000019
     3  N   -0.000000  -0.000013   0.000010   0.000000   0.000000  -0.000000
     4  C   -0.000003   0.000004  -0.000006   0.000000   0.000000   0.000000
     5  C    0.000011  -0.000004   0.000011  -0.000000  -0.000000   0.000000
     6  C    0.001571   0.000748   0.000555   0.000103  -0.000018   0.000012
     7  C   -0.001109  -0.002351   0.000899   0.000091   0.000017   0.000090
     8  N   -0.001907   0.000654   0.000799  -0.000032  -0.000039  -0.000008
     9  C    0.004938   0.000295  -0.000807   0.000462   0.000002  -0.000059
    10  C    0.001057   0.000538   0.000170   0.000110  -0.000021   0.000045
    11  C   -0.000291  -0.000283  -0.001034   0.000025   0.000031  -0.000018
    12  C    0.000001  -0.000002   0.000008  -0.000000  -0.000000  -0.000000
    13  H   -0.000060   0.000019  -0.000087   0.000005   0.000001   0.000001
    14  H    0.000010   0.000007  -0.000029   0.000003   0.000001   0.000001
    15  H   -0.000027  -0.000007   0.000018  -0.000001  -0.000000  -0.000001
    16  H    0.000000  -0.000002   0.000003  -0.000000  -0.000000  -0.000000
    17  H    0.000001   0.000001  -0.000001   0.000000   0.000000   0.000000
    18  H    0.000001  -0.000000   0.000001  -0.000000   0.000000  -0.000000
    19  H   -0.000000   0.000000  -0.000001   0.000000   0.000000   0.000000
    20  H   -0.000003  -0.000005  -0.000013   0.000001   0.000001  -0.000001
    21  H    0.001833   0.000104  -0.000406   0.000044   0.000002  -0.000040
    22  H   -0.013944   0.001599   0.001827  -0.001590   0.000124  -0.000216
    23  H    0.001889  -0.000108   0.000000  -0.000074  -0.000003   0.000012
    24  H    0.000009   0.000002  -0.000003   0.000000   0.000000  -0.000000
    25  H    0.000000  -0.000001   0.000002  -0.000000  -0.000000   0.000000
    26  H    0.000000  -0.000000   0.000001  -0.000000  -0.000000  -0.000000
    27  H   -0.000030   0.000004   0.000023   0.000002  -0.000002   0.000002
    28  O   -0.041920   0.001407   0.002609   0.000128   0.000050   0.000092
    29  H    0.004290  -0.000423  -0.000289   0.000530  -0.000080   0.000064
    30  H    0.012825  -0.003882  -0.005613  -0.000209   0.000059  -0.000350
    31  O    7.704759   0.363654   0.336544  -0.036732   0.003125   0.001174
    32  H    0.363654   0.599123  -0.100599   0.004768  -0.000035  -0.001250
    33  H    0.336544  -0.100599   0.561792   0.006832  -0.000416  -0.004177
    34  O   -0.036732   0.004768   0.006832   7.667847   0.343532   0.350366
    35  H    0.003125  -0.000035  -0.000416   0.343532   0.544537  -0.067941
    36  H    0.001174  -0.001250  -0.004177   0.350366  -0.067941   0.583691
 Mulliken charges:
               1
     1  C    0.921424
     2  C    0.775524
     3  N   -0.433183
     4  C    1.189709
     5  C    0.670012
     6  C    1.256705
     7  C    0.624207
     8  N   -0.057158
     9  C    0.748897
    10  C    0.180362
    11  C    1.169313
    12  C    0.839207
    13  H   -0.799426
    14  H   -0.442101
    15  H   -0.374345
    16  H   -0.330839
    17  H   -0.282018
    18  H   -0.380682
    19  H   -0.528283
    20  H   -0.966821
    21  H   -0.636339
    22  H    0.079383
    23  H   -0.828286
    24  H   -0.337963
    25  H   -0.167355
    26  H   -0.232658
    27  H   -0.584045
    28  O   -0.448869
    29  H    0.137821
    30  H    0.262664
    31  O   -0.341711
    32  H    0.135826
    33  H    0.201685
    34  O   -0.336221
    35  H    0.177070
    36  H    0.138494
 Sum of Mulliken charges =   1.00000
 Mulliken charges with hydrogens summed into heavy atoms:
               1
     1  C    0.104977
     2  C   -0.023902
     3  N   -0.433183
     4  C    0.280744
     5  C    0.057155
     6  C    1.256705
     7  C   -0.204080
     8  N    0.022225
     9  C    0.112558
    10  C   -0.403683
    11  C    0.202492
    12  C    0.101231
    28  O   -0.048384
    31  O   -0.004200
    34  O   -0.020657
 Electronic spatial extent (au):  <R**2>=           7214.5804
 Charge=              1.0000 electrons
 Dipole moment (field-independent basis, Debye):
    X=             -7.4721    Y=             -1.5390    Z=             -0.9062  Tot=              7.6826
 Quadrupole moment (field-independent basis, Debye-Ang):
   XX=             10.8341   YY=            -76.1755   ZZ=            -75.5071
   XY=             -0.4794   XZ=              6.6605   YZ=              4.3625
 Traceless Quadrupole moment (field-independent basis, Debye-Ang):
   XX=             57.7836   YY=            -29.2260   ZZ=            -28.5576
   XY=             -0.4794   XZ=              6.6605   YZ=              4.3625
 Octapole moment (field-independent basis, Debye-Ang**2):
  XXX=           -670.3786  YYY=             -0.0637  ZZZ=              2.5833  XYY=            -35.8971
  XXY=             58.5897  XXZ=            -72.7315  XZZ=            -74.1566  YZZ=             -9.4184
  YYZ=             -3.9146  XYZ=             -0.5523
 Hexadecapole moment (field-independent basis, Debye-Ang**3):
 XXXX=          -1202.1972 YYYY=           -854.4439 ZZZZ=           -523.2488 XXXY=           -395.7705
 XXXZ=            776.2578 YYYX=            -47.8299 YYYZ=             49.9451 ZZZX=              1.1363
 ZZZY=             -2.0652 XXYY=          -1226.3539 XXZZ=           -941.7741 YYZZ=           -207.1747
 XXYZ=            -43.8741 YYXZ=            -44.0694 ZZXY=            -32.3366
 N-N= 9.952465590872D+02 E-N=-3.675074918128D+03  KE= 7.239885175697D+02
 Calling FoFJK, ICntrl=      2127 FMM=F ISym2X=0 I1Cent= 0 IOpClX= 0 NMat=1 NMatS=1 NMatT=0.
 ***** Axes restored to original set *****
 -------------------------------------------------------------------
 Center     Atomic                   Forces (Hartrees/Bohr)
 Number     Number              X              Y              Z
 -------------------------------------------------------------------
      1        6          -0.000084657    0.000003766    0.000062018
      2        6           0.000152945   -0.000049632   -0.000126050
      3        7          -0.000156627    0.000014127    0.000026376
      4        6           0.000075485    0.000068625    0.000044919
      5        6           0.000043284   -0.000021790    0.000011554
      6        6          -0.000025971    0.000184112   -0.000122607
      7        6           0.000292350    0.000189282   -0.000081864
      8        7          -0.000839349    0.000177470   -0.000287280
      9        6          -0.000045376   -0.000262742    0.000182854
     10        6          -0.000033065   -0.000020304   -0.000008404
     11        6          -0.000037979   -0.000087025    0.000043327
     12        6           0.000013398   -0.000007973   -0.000026939
     13        1          -0.000015193   -0.000000085   -0.000017832
     14        1           0.000011716    0.000004354    0.000019486
     15        1           0.000004918    0.000008087    0.000001191
     16        1          -0.000015774    0.000016898   -0.000014660
     17        1          -0.000017307   -0.000018467   -0.000000284
     18        1          -0.000007430   -0.000021888    0.000013239
     19        1          -0.000024880    0.000007655    0.000004137
     20        1           0.000033826    0.000017162   -0.000008368
     21        1           0.000045144   -0.000077586    0.000078708
     22        1           0.001774334   -0.000578404    0.000684447
     23        1           0.000113220   -0.000009539   -0.000016669
     24        1          -0.000002815   -0.000031051   -0.000008821
     25        1           0.000011247   -0.000000243    0.000000087
     26        1          -0.000026769    0.000001587    0.000000658
     27        1          -0.000035509    0.000002003    0.000018476
     28        8          -0.002672639    0.002204126    0.001191020
     29        1           0.000026746   -0.000221704   -0.000397119
     30        1           0.003140239   -0.003241555   -0.002314740
     31        8          -0.012032546   -0.002200059    0.008091951
     32        1          -0.000162123    0.001829011   -0.000650339
     33        1           0.010247543    0.001334607   -0.004690198
     34        8           0.008860118    0.007111225   -0.018581801
     35        1          -0.009832122   -0.002618675    0.006079375
     36        1           0.001221617   -0.003705375    0.010800149
 -------------------------------------------------------------------
 Cartesian Forces:  Max     0.018581801 RMS     0.003247426

 GradGradGradGradGradGradGradGradGradGradGradGradGradGradGradGradGradGrad
 Berny optimization.
 FormGI is forming the generalized inverse of G from B-inverse, IUseBI=4.
 Internal  Forces:  Max     0.012328014 RMS     0.001567047
 Search for a local minimum.
 Step number   1 out of a maximum of  200
 All quantities printed in internal units (Hartrees-Bohrs-Radians)
 Mixed Optimization -- RFO/linear search
 Second derivative matrix not updated -- first step.
 ITU=  0
     Eigenvalues ---    0.00230   0.00230   0.00230   0.00230   0.00230
     Eigenvalues ---    0.00230   0.00230   0.00230   0.00230   0.00234
     Eigenvalues ---    0.00336   0.00414   0.00630   0.00739   0.00922
     Eigenvalues ---    0.01013   0.01545   0.01916   0.02130   0.02171
     Eigenvalues ---    0.02226   0.02242   0.02293   0.02349   0.02375
     Eigenvalues ---    0.02434   0.02580   0.03518   0.04557   0.04825
     Eigenvalues ---    0.05025   0.05215   0.05539   0.05990   0.06202
     Eigenvalues ---    0.06370   0.06838   0.06950   0.06957   0.06988
     Eigenvalues ---    0.07271   0.07586   0.08367   0.08582   0.09408
     Eigenvalues ---    0.10408   0.12963   0.15629   0.15844   0.15994
     Eigenvalues ---    0.15998   0.16000   0.16000   0.16000   0.16000
     Eigenvalues ---    0.16000   0.16000   0.16000   0.16000   0.16000
     Eigenvalues ---    0.16000   0.16000   0.18445   0.20636   0.21999
     Eigenvalues ---    0.22000   0.23455   0.24990   0.26448   0.26728
     Eigenvalues ---    0.28874   0.31324   0.32520   0.32705   0.32777
     Eigenvalues ---    0.33873   0.34068   0.34097   0.34129   0.34150
     Eigenvalues ---    0.34160   0.34262   0.34749   0.34807   0.35024
     Eigenvalues ---    0.35103   0.35140   0.35641   0.38076   0.40041
     Eigenvalues ---    0.43053   0.43746   0.46875   0.48258   0.51464
     Eigenvalues ---    0.52599   0.52882   0.54032   0.55212   0.55227
     Eigenvalues ---    0.55545   0.56075
 RFO step:  Lambda=-2.33629614D-03 EMin= 2.30000000D-03
 Linear search not attempted -- first point.
 Maximum step size (   0.300) exceeded in Quadratic search.
    -- Step size scaled by   0.705
 Iteration  1 RMS(Cart)=  0.11781899 RMS(Int)=  0.00704026
 Iteration  2 RMS(Cart)=  0.02736674 RMS(Int)=  0.00089218
 Iteration  3 RMS(Cart)=  0.00079953 RMS(Int)=  0.00079064
 Iteration  4 RMS(Cart)=  0.00000654 RMS(Int)=  0.00079064
 Iteration  5 RMS(Cart)=  0.00000004 RMS(Int)=  0.00079064
 Variable       Old X    -DE/DX   Delta X   Delta X   Delta X     New X
                                 (Linear)    (Quad)   (Total)
    R1        2.93171  -0.00004   0.00000  -0.00014  -0.00014   2.93157
    R2        2.92194  -0.00000   0.00000   0.00000   0.00000   2.92195
    R3        2.07215  -0.00001   0.00000  -0.00002  -0.00002   2.07213
    R4        2.07078  -0.00000   0.00000  -0.00001  -0.00000   2.07077
    R5        2.74729   0.00011   0.00000   0.00019   0.00019   2.74748
    R6        2.85399   0.00005   0.00000   0.00010   0.00011   2.85409
    R7        2.09903  -0.00002   0.00000  -0.00004  -0.00004   2.09900
    R8        2.76096  -0.00007   0.00000  -0.00014  -0.00014   2.76082
    R9        2.74254  -0.00005   0.00000  -0.00009  -0.00009   2.74245
   R10        2.88688   0.00000   0.00000   0.00005   0.00005   2.88692
   R11        2.09572   0.00002   0.00000   0.00005   0.00005   2.09577
   R12        2.07166   0.00002   0.00000   0.00005   0.00005   2.07171
   R13        2.07060   0.00002   0.00000   0.00005   0.00005   2.07065
   R14        2.06889   0.00002   0.00000   0.00005   0.00005   2.06894
   R15        2.61684   0.00008   0.00000   0.00012   0.00011   2.61695
   R16        2.64757  -0.00014   0.00000  -0.00019  -0.00019   2.64739
   R17        2.54101  -0.00043   0.00000  -0.00056  -0.00056   2.54044
   R18        2.05636   0.00002   0.00000   0.00003   0.00003   2.05639
   R19        2.53328  -0.00039   0.00000  -0.00050  -0.00050   2.53277
   R20        1.98197   0.00061   0.00000   0.00107   0.00105   1.98303
   R21        2.61643   0.00008   0.00000   0.00013   0.00013   2.61656
   R22        2.05448  -0.00001   0.00000  -0.00003  -0.00003   2.05445
   R23        2.63084  -0.00003   0.00000  -0.00002  -0.00001   2.63083
   R24        2.05508  -0.00002   0.00000  -0.00003  -0.00003   2.05505
   R25        2.05990  -0.00002   0.00000  -0.00005  -0.00005   2.05985
   R26        2.07544  -0.00002   0.00000  -0.00005  -0.00005   2.07540
   R27        2.09445   0.00000   0.00000   0.00000   0.00000   2.09445
   R28        2.07113   0.00002   0.00000   0.00005   0.00005   2.07118
   R29        3.07569  -0.00138   0.00000  -0.01102  -0.01102   3.06467
   R30        1.81351  -0.00040   0.00000  -0.00050  -0.00050   1.81301
   R31        1.85116   0.00243   0.00000   0.00331   0.00332   1.85448
[...]
 0000344,-0.00002344,-0.00002084,-0.00014960,-0.00386476,0.00099297,-0.
 00220366,-0.00016357,-0.00002788,-0.00005182,0.00000560,0.00003071,0.0
 0000214,-0.00000953,-0.00000747,0.00000671,0.00001581,-0.00000261,0.00
 000510,0.00005846,-0.00002802,-0.00000797,0.01174398,-0.01190659,-0.00
 340642,0.00038908,0.00054116,0.00075432,-0.00078581,0.00547731,-0.0076
 8956,-0.19111962,-0.15931413,0.14047665,-0.00000562,0.00002621,0.00000
 180,-0.00002903,0.00003458,-0.00001462,0.00002448,-0.00003935,-0.00000
 988,-0.00000194,-0.00000276,0.00000181,-0.00001136,-0.00000791,-0.0000
 0718,0.00001305,-0.00007108,0.00005432,-0.00005154,0.00009357,-0.00008
 480,-0.00011543,0.00005566,-0.00009621,0.00006051,-0.00001665,0.000029
 29,-0.00007081,-0.00001531,0.00000098,0.00001886,0.00005045,-0.0000280
 8,0.00000608,0.00001704,0.00001369,-0.00000048,-0.00000682,0.00001903,
 -0.00000352,0.00000863,-0.00000757,-0.00000982,-0.00002222,0.00000784,
 0.00000540,-0.00000346,0.00000177,-0.00000220,0.00000192,-0.00000166,-
 0.00000179,0.00000253,-0.00000044,0.00000551,-0.00000520,-0.00000224,-
 0.00000174,-0.00000010,0.00000276,0.00001978,-0.00001578,0.00001053,0.
 00038114,0.00003372,0.00015574,-0.00004077,0.00003847,0.00005162,-0.00
 000414,0.00000161,0.00000092,-0.00000261,0.00000014,-0.00000288,0.0000
 0602,-0.00000289,-0.00000089,-0.00000069,0.00000318,0.00000188,-0.0019
 2113,0.00076256,0.00225683,-0.00021240,0.00013227,0.00016882,0.0028329
 3,0.00031953,-0.00479052,-0.05144374,0.09835673,-0.00074188,0.04485098
 ,-0.00001463,0.00002219,0.00000871,0.00002323,0.00001901,-0.00003528,-
 0.00003037,-0.00003456,0.00000748,0.00001626,0.00002177,0.00000314,0.0
 0000341,-0.00000828,-0.00000420,0.00002603,0.00001114,0.00000683,0.000
 03402,0.00006160,-0.00004592,-0.00020097,0.00006221,-0.00007655,0.0000
 2736,-0.00007180,0.00004834,-0.00005390,-0.00000773,-0.00000314,0.0000
 0753,0.00000780,-0.00000656,0.00000522,0.00001057,-0.00000978,-0.00000
 565,-0.00000270,0.00000845,0.00000090,0.00000384,0.00000543,-0.0000023
 2,-0.00000856,0.00000348,-0.00000028,0.00000073,-0.00000008,-0.0000082
 7,-0.00000271,-0.00000016,-0.00000271,-0.00000631,0.00000621,-0.000003
 42,-0.00000139,0.00000018,0.00000486,0.00000373,-0.00000157,0.00001322
 ,-0.00001546,0.00000710,0.00044316,-0.00012173,0.00013732,0.00001614,0
 .00001723,0.00000362,-0.00000345,-0.00000718,-0.00000234,0.00000057,-0
 .00000395,0.00000214,-0.00000234,0.00000011,-0.00000014,-0.00000131,-0
 .00000061,0.00000127,-0.00075534,0.00081206,-0.00007200,0.00020639,-0.
 00020856,-0.00010100,0.00095090,-0.00256633,0.00036580,0.05257673,-0.5
 1342915,0.10982551,-0.06215300,0.52921269,0.00000077,-0.00000185,0.000
 00675,0.00000103,-0.00001641,0.00003415,-0.00000058,0.00000637,-0.0000
 3416,0.00000236,-0.00000578,0.00001154,-0.00000302,-0.00000293,-0.0000
 0323,-0.00001460,0.00002321,-0.00002428,-0.00000026,-0.00004654,0.0000
 5375,0.00003643,-0.00003405,0.00003685,-0.00000358,0.00002532,-0.00002
 192,0.00002405,0.00000500,-0.00000137,-0.00001580,-0.00001179,0.000004
 98,0.00000165,-0.00000181,0.00002628,0.00000258,0.00000443,-0.00001371
 ,-0.00000249,0.00001048,-0.00001067,-0.00000252,-0.00000415,0.00000974
 ,-0.00000102,0.00000217,-0.00000152,0.00000079,-0.00000043,0.00000140,
 -0.00000013,0.00000265,-0.00000689,0.00000129,-0.00000107,-0.00000147,
 -0.00000375,0.00000259,0.00000402,-0.00000290,0.00001224,0.00001113,-0
 .00001567,0.00002112,-0.00005160,0.00002047,-0.00000739,0.00002286,-0.
 00000161,-0.00000119,0.00000285,0.00000206,0.00000842,-0.00000747,0.00
 000087,0.00000015,-0.00000281,-0.00000161,0.00000591,0.00000416,0.0028
 3084,-0.00087363,-0.00271949,0.00015232,-0.00048674,0.00012890,-0.0040
 3036,-0.00063857,0.00428278,0.01035815,0.09312814,-0.03229971,-0.00403
 206,-0.11037238,0.03352201,0.00002743,-0.00000153,-0.00003014,-0.00011
 948,0.00001011,0.00006894,0.00012936,0.00000224,-0.00003457,-0.0000466
 4,-0.00005124,-0.00001339,-0.00002687,0.00001414,-0.00000383,0.0000136
 6,-0.00013579,0.00008179,-0.00025074,-0.00013058,0.00006579,0.00068875
 ,-0.00020700,0.00024713,0.00003166,0.00025016,-0.00015932,0.00004760,0
 .00000327,-0.00000269,0.00000968,0.00006446,-0.00002989,-0.00000204,0.
 00001407,0.00004683,0.00001766,-0.00000762,0.00001653,-0.00000781,0.00
 000226,-0.00002524,-0.00000492,-0.00001562,0.00000597,0.00001104,-0.00
 001004,0.00000574,0.00001358,0.00000944,-0.00000280,0.00000393,0.00001
 955,-0.00001136,0.00002131,-0.00000750,-0.00000355,-0.00001244,-0.0000
 0250,0.00000446,-0.00001778,0.00010277,-0.00002114,-0.00139801,0.00050
 929,-0.00046493,-0.00008925,0.00001023,0.00003369,-0.00000348,0.000023
 82,0.00000883,-0.00000696,0.00000675,-0.00000971,0.00002123,-0.0000057
 4,-0.00000118,0.00002096,0.00000532,0.00000122,0.00275554,-0.00237931,
 -0.00122346,0.00007087,0.00042248,0.00033105,-0.00427069,0.00292822,0.
 00232413,-0.34215632,-0.12543570,0.17245741,0.00782269,0.00829889,-0.0
 0605808,0.33545607,0.00000418,0.00001022,-0.00000950,-0.00004233,0.000
 00903,0.00000837,0.00004438,-0.00001674,-0.00000316,-0.00001178,-0.000
 01136,-0.00000564,-0.00000984,0.00000232,-0.00000408,0.00005896,-0.000
 09444,0.00007224,-0.00019470,-0.00007306,0.00002298,0.00047940,-0.0001
 0099,0.00017192,0.00015030,0.00018987,-0.00009598,-0.00005089,-0.00004
 617,0.00002551,0.00002830,0.00006325,-0.00003759,0.00000262,0.00001177
 ,0.00001135,0.00000274,-0.00000703,0.00001351,-0.00000280,0.00000290,-
 0.00000708,-0.00000314,-0.00001060,0.00000403,0.00000514,-0.00000396,0
 .00000280,0.00000216,0.00000258,-0.00000096,0.00000084,0.00000499,-0.0
 0000118,0.00000748,-0.00000325,-0.00000159,-0.00000505,-0.00000250,0.0
 0000179,0.00004040,0.00000145,-0.00003025,-0.00090460,0.00037090,-0.00
 043982,-0.00006077,0.00000595,0.00002162,-0.00000324,0.00000742,0.0000
 0153,-0.00000346,-0.00000103,-0.00000199,0.00000784,-0.00000178,-0.000
 00052,0.00002486,-0.00000296,0.00000280,0.00287071,-0.00497905,-0.0026
 4674,0.00055418,0.00002893,-0.00018946,-0.00247735,0.00865347,0.003928
 91,-0.07955714,-0.09375934,0.05072060,-0.03787395,-0.01441701,0.019528
 52,0.11438252,0.10849604,-0.00001295,-0.00000514,0.00002150,0.00005588
 ,-0.00000860,-0.00001138,-0.00006349,0.00000135,-0.00000951,0.00002365
 ,0.00002101,0.00001334,0.00001149,-0.00000866,0.00000074,-0.00004265,0
 .00010000,-0.00007244,0.00018752,0.00006740,-0.00001780,-0.00045357,0.
 00012551,-0.00015872,-0.00008191,-0.00015698,0.00010240,0.00001232,0.0
 0001504,-0.00002422,-0.00002796,-0.00005534,0.00003249,0.00000304,-0.0
 0000568,-0.00000354,-0.00000555,0.00000720,-0.00001715,0.00000275,0.00
 000484,0.00000624,0.00000214,0.00000636,0.00000090,-0.00000724,0.00000
 674,-0.00000401,-0.00000584,-0.00000486,0.00000198,-0.00000216,-0.0000
 0754,0.00000075,-0.00000927,0.00000268,0.00000135,0.00000265,0.0000046
 4,0.00000148,0.00000087,-0.00001018,0.00005796,0.00096456,-0.00044512,
 0.00038828,0.00006727,-0.00000154,-0.00001226,0.00000038,-0.00001234,-
 0.00000126,0.00000444,0.00000257,-0.00000055,-0.00000932,0.00000240,-0
 .00000059,-0.00002122,0.00000786,0.00000527,-0.00094485,0.00007119,0.0
 0035899,0.00032321,-0.00012371,-0.00031354,0.00222198,0.00006806,-0.00
 202934,0.15951408,0.07014240,-0.09513708,0.00624925,0.00075548,-0.0026
 8986,-0.16298601,-0.06920000,0.10614042,-0.00002141,0.00000851,0.00001
 967,0.00008717,-0.00000331,-0.00006343,-0.00009588,-0.00001161,0.00003
 590,0.00003635,0.00004221,0.00000674,0.00001987,-0.00001121,0.00000164
 ,0.00002057,0.00007311,-0.00003708,0.00013275,0.00008962,-0.00004692,-
 0.00042920,0.00014566,-0.00014580,0.00003257,-0.00014432,0.00010452,-0
 .00006988,-0.00001711,0.00000531,0.00000866,-0.00002379,0.00001050,0.0
 0000249,-0.00000704,-0.00004194,-0.00001467,0.00000316,-0.00000578,0.0
 0000529,-0.00000289,0.00002084,0.00000294,0.00000889,-0.00000456,-0.00
 000676,0.00000649,-0.00000351,-0.00001131,-0.00000729,0.00000167,-0.00
 000316,-0.00001583,0.00001147,-0.00001576,0.00000554,0.00000241,0.0000
 1175,0.00000137,-0.00000505,0.00003250,-0.00007415,-0.00000493,0.00085
 982,-0.00031052,0.00025449,0.00005284,-0.00000368,-0.00002435,0.000001
 44,-0.00001730,-0.00000714,0.00000452,-0.00000798,0.00000941,-0.000014
 99,0.00000411,0.00000132,-0.00000516,-0.00000840,-0.00000284,-0.001363
 34,0.00135237,0.00102839,-0.00012526,-0.00008706,-0.00019700,0.0016370
 1,-0.00207084,-0.00174174,-0.01101284,-0.00534038,0.00931468,-0.001505
 27,0.00070118,0.00037369,-0.00233235,-0.00129959,-0.00407451,0.5244168
 7,0.00000893,-0.00001982,-0.00000384,0.00000694,-0.00001836,0.00001960
 ,-0.00000127,0.00003762,-0.00000412,-0.00000744,-0.00001121,0.00000115
 ,0.00000256,0.00000469,0.00000660,-0.00006424,0.00005627,-0.00005583,0
 .00011619,0.00001217,0.00000426,-0.00015272,0.00002720,-0.00004058,-0.
 00013420,-0.00008222,0.00003539,0.00008228,0.00002819,-0.00001204,-0.0
 0003013,-0.00004870,0.00003267,-0.00000580,-0.00001638,0.00000118,0.00
 000273,0.00000679,-0.00001306,0.00000150,-0.00000619,0.00000097,0.0000
 0276,0.00001219,-0.00000560,-0.00000222,0.00000079,-0.00000157,0.00000
 470,0.00000122,0.00000025,0.00000159,0.00000250,-0.00000421,-0.0000018
 2,0.00000239,0.00000081,-0.00000140,-0.00000249,-0.00000006,-0.0000468
 8,-0.00001669,0.00001779,0.00029128,-0.00018105,0.00013901,0.00002898,
 -0.00001046,-0.00001435,0.00000565,0.00000093,0.00000076,0.00000151,0.
 00000464,-0.00000063,-0.00000370,0.00000049,0.00000061,-0.00002172,0.0
 0000034,-0.00000370,-0.00060743,0.00117983,0.00046027,-0.00015344,-0.0
 0018733,0.00004742,0.00100933,-0.00167635,-0.00100970,-0.00516503,0.00
 197243,0.00345760,0.00076456,0.00053003,-0.00055819,-0.00097190,-0.005
 12345,-0.00070494,0.05980879,0.02596431,0.00001003,0.00000197,-0.00001
 753,-0.00003338,0.00000468,0.00000364,0.00004128,0.00000364,0.00001777
 ,-0.00001739,-0.00001281,-0.00001259,-0.00000620,0.00000765,0.00000037
 ,0.00003277,-0.00006339,0.00004621,-0.00012530,-0.00005664,0.00001497,
 0.00034263,-0.00008264,0.00013575,0.00004755,0.00010106,-0.00007102,-0
 .00000160,-0.00000462,0.00001571,0.00002023,0.00003551,-0.00002037,-0.
 00000421,0.00000012,-0.00000719,0.00000326,-0.00000535,0.00001270,-0.0
 0000183,-0.00000635,-0.00000101,-0.00000019,-0.00000114,-0.00000282,0.
 00000506,-0.00000491,0.00000318,0.00000405,0.00000326,-0.00000140,0.00
 000203,0.00000412,0.00000143,0.00000538,-0.00000090,-0.00000067,-0.000
 00031,-0.00000316,-0.00000372,-0.00000849,0.00000711,-0.00005836,-0.00
 072494,0.00025373,-0.00031973,-0.00004218,-0.00000310,-0.00000234,0.00
 000121,0.00000897,-0.00000047,-0.00000309,-0.00000420,0.00000321,0.000
 00495,-0.00000111,0.00000098,0.00001667,-0.00000802,-0.00000834,0.0010
 0694,-0.00063740,-0.00027726,-0.00015247,0.00004093,0.00013380,-0.0009
 9260,0.00091530,0.00071918,0.00847833,0.00313921,0.00085942,0.00025338
 ,-0.00057174,-0.00029885,-0.00354033,-0.00023335,-0.00976447,0.0847318
 1,0.10207471,0.66126578,0.00000534,-0.00000368,-0.00000471,-0.00001918
 ,-0.00000004,0.00001565,0.00002215,0.00000542,-0.00000924,-0.00000958,
 -0.00001037,-0.00000107,-0.00000422,0.00000293,0.00000024,-0.00001125,
 -0.00000982,0.00000159,-0.00001375,-0.00001698,0.00000952,0.00007807,-
 0.00002834,0.00002950,-0.00002166,0.00001838,-0.00001696,0.00002565,0.
 00000687,-0.00000345,-0.00000594,-0.00000039,0.00000159,-0.00000148,0.
 00000012,0.00000974,0.00000367,-0.00000015,0.00000015,-0.00000068,0.00
 000043,-0.00000449,-0.00000030,-0.00000092,0.00000083,0.00000120,-0.00
 000136,0.00000069,0.00000275,0.00000183,-0.00000027,0.00000079,0.00000
 384,-0.00000312,0.00000353,-0.00000130,-0.00000044,-0.00000273,-0.0000
 0032,0.00000122,-0.00001382,0.00000984,-0.00000024,-0.00015905,0.00004
 482,-0.00004743,-0.00000752,-0.00000046,0.00000234,0.00000018,0.000004
 23,0.00000152,-0.00000104,0.00000222,-0.00000219,0.00000332,-0.0000010
 3,-0.00000007,-0.00000192,0.00000221,0.00000069,0.00020555,0.00001960,
 -0.00004372,-0.00007320,-0.00000854,0.00007045,-0.00015353,-0.00004761
 ,0.00004674,0.00022026,-0.00043242,0.00076362,-0.00037093,-0.00010765,
 0.00014059,-0.00070948,0.00088504,-0.00226731,-0.43931425,-0.06680654,
 -0.21794270,0.43454184,-0.00000510,0.00000792,0.00000331,0.00000294,0.
 00000746,-0.00001105,-0.00000727,-0.00001690,0.00000169,0.00000634,0.0
 0000794,0.00000014,0.00000043,-0.00000259,-0.00000239,0.00002059,-0.00
 001044,0.00001369,-0.00002252,0.00000788,-0.00000458,-0.00000088,0.000
 00247,-0.00000785,0.00003646,0.00000962,-0.00000003,-0.00002931,-0.000
 00855,-0.00000059,0.00000850,0.00001247,-0.00000796,0.00000315,0.00000
 751,-0.00000164,-0.00000162,-0.00000206,0.00000410,-0.00000017,0.00000
 240,0.00000082,-0.00000059,-0.00000418,0.00000186,0.00000016,0.0000003
 4,0.00000029,-0.00000269,-0.00000118,-0.00000004,-0.00000092,-0.000002
 10,0.00000241,-0.00000031,-0.00000065,-0.00000004,0.00000139,0.0000018
 4,0.00000004,0.00001433,0.00001141,0.00000554,0.00000891,0.00002349,0.
 00000476,-0.00000356,0.00000478,0.00000349,-0.00000273,-0.00000192,-0.
 00000027,-0.00000014,-0.00000208,0.00000035,0.00000068,0.00000006,-0.0
 0000027,0.00000555,0.00000163,0.00000285,-0.00000665,-0.00020910,-0.00
 004237,0.00005468,0.00009561,-0.00003823,-0.00011841,0.00021392,0.0001
 4926,-0.00034352,-0.00028330,0.00088575,-0.00038230,-0.00001607,-0.000
 12914,0.00001733,-0.00015432,-0.00150579,-0.05685368,-0.01050197,-0.03
 499103,0.06380381,0.01147260,-0.00000002,-0.00000094,0.00000221,-0.000
 00324,-0.00000203,0.00000943,0.00000099,-0.00000081,-0.00001359,0.0000
 0132,-0.00000229,0.00000362,-0.00000108,-0.00000094,-0.00000032,-0.000
 00920,0.00000462,-0.00000702,0.00001029,0.00000126,0.00000406,-0.00002
 444,0.00000101,-0.00001575,-0.00001344,-0.00000011,0.00000515,0.000008
 44,-0.00000054,-0.00000613,-0.00000512,-0.00000389,0.00000470,0.000001
 81,0.00000195,0.00001122,0.00000101,0.00000152,-0.00000318,-0.00000020
 ,0.00000263,-0.00000306,-0.00000068,-0.00000150,0.00000191,-0.00000040
 ,0.00000072,-0.00000071,0.00000027,-0.00000019,0.00000026,-0.00000030,
 0.00000118,-0.00000234,0.00000071,-0.00000047,-0.00000014,-0.00000157,
 0.00000052,0.00000225,-0.00000200,0.00000863,0.00001778,0.00005496,-0.
 00001132,0.00004817,0.00000210,0.00000294,0.00000757,-0.00000114,-0.00
 000060,0.00000180,0.00000048,0.00000336,-0.00000314,0.00000087,-0.0000
 0027,-0.00000067,-0.00000313,0.00000333,0.00000362,0.00001199,-0.00021
 042,-0.00026125,0.00014058,0.00000518,0.00001274,-0.00016224,0.0003683
 3,0.00035921,0.00210731,0.00101624,-0.00266180,0.00032888,0.00004489,0
 .00010356,-0.00285398,-0.00186315,0.00465737,-0.16228845,-0.03141591,-
 0.14285192,0.20679842,0.03803900,0.15963724,0.00000346,-0.00000513,0.0
 0000113,-0.00001701,0.00000076,0.00002052,0.00001810,0.00000335,-0.000
 01894,-0.00000720,-0.00000984,0.00000244,-0.00000491,0.00000105,-0.000
 00110,-0.00002606,0.00000418,-0.00000934,0.00001617,-0.00000327,0.0000
 0917,-0.00001687,-0.00001292,-0.00001436,-0.00003882,-0.00000475,-0.00
 000661,0.00002931,0.00001274,-0.00000975,-0.00001577,-0.00000949,0.000
 00534,0.,0.00000186,0.00001629,0.00000406,0.00000081,-0.00000340,-0.00
 000134,0.00000419,-0.00000714,-0.00000100,-0.00000233,0.00000285,0.000
 00024,-0.00000049,0.00000025,0.00000250,0.00000155,-0.00000014,0.00000
 037,0.00000393,-0.00000471,0.00000354,-0.00000187,-0.00000069,-0.00000
 406,0.00000122,0.00000328,-0.00000801,0.00002265,0.00002741,0.00006117
 ,-0.00001907,0.00007011,0.00000254,0.00000228,0.00000762,-0.00000067,0
 .00000295,0.00000227,-0.00000049,0.00000401,-0.00000422,0.00000342,-0.
 00000123,-0.00000075,-0.00000704,0.00000755,0.00000411,-0.00010967,0.0
 0007307,-0.00003663,0.00002485,0.00000043,-0.00000158,0.00011415,-0.00
 011445,-0.00002005,-0.00245005,-0.00146452,-0.00004212,-0.00024045,-0.
 00001038,0.00024009,0.00429227,0.00294859,0.00136833,-0.07102391,0.012
 03761,0.12858965,0.00578120,-0.00620289,-0.04409978,0.06361600,-0.0000
 0748,0.00001122,0.00000474,0.00000873,0.00000834,-0.00001589,-0.000011
 96,-0.00002033,0.00000486,0.00000829,0.00001112,0.00000126,0.00000128,
 -0.00000376,-0.00000350,0.00003239,-0.00001455,0.00001966,-0.00003385,
 0.00000380,-0.00000788,0.00000554,0.00000718,-0.00000288,0.00005937,0.
 00001426,0.00000032,-0.00004515,-0.00000975,0.00000338,0.00001497,0.00
 001817,-0.00001269,0.00000283,0.00000701,-0.00000491,-0.00000308,-0.00
 000290,0.00000497,-0.00000015,0.00000379,0.00000173,-0.00000088,-0.000
 00544,0.00000333,0.00000012,0.00000072,0.00000029,-0.00000402,-0.00000
 165,0.00000037,-0.00000122,-0.00000323,0.00000326,-0.00000099,-0.00000
 071,-0.00000024,0.00000259,0.00000210,-0.00000102,0.00001948,0.0000002
 3,-0.00001682,-0.00001214,0.00003153,-0.00002260,-0.00000402,0.0000038
 1,0.00000396,-0.00000258,-0.00000279,-0.00000150,-0.00000006,-0.000003
 08,0.00000125,-0.00000001,0.00000025,-0.00000033,0.00000988,-0.0000010
 4,0.00000009,0.00004735,-0.00012716,0.00001414,0.00000626,0.00003511,-
 0.00001249,-0.00012602,0.00011940,0.00003374,-0.00160681,-0.00085462,-
 0.00014191,-0.00008457,0.00013335,0.00040735,0.00226477,0.00094797,0.0
 0084371,0.00406698,-0.01194234,-0.06991011,0.00266631,-0.00067394,-0.0
 0599190,-0.00727216,0.01230797,-0.00000442,-0.00000059,0.00000788,0.00
 001116,-0.00000141,-0.00000089,-0.00001414,-0.00000281,-0.00000872,0.0
 0000623,0.00000446,0.00000547,0.00000212,-0.00000361,-0.00000031,-0.00
 000789,0.00001857,-0.00001252,0.00003570,0.00001798,-0.00000413,-0.000
 10324,0.00002564,-0.00004134,0.00000050,-0.00002589,0.00002082,-0.0000
 0693,-0.00000502,-0.00000264,-0.00000519,-0.00000919,0.00000427,0.0000
 0186,0.00000083,0.00000451,-0.00000145,0.00000148,-0.00000473,0.000000
 92,0.00000346,-0.00000017,-0.00000012,-0.00000033,0.00000149,-0.000002
 14,0.00000214,-0.00000127,-0.00000159,-0.00000121,0.00000063,-0.000000
 91,-0.00000128,-0.00000118,-0.00000175,0.00000007,0.00000025,-0.000000
 85,0.00000097,0.00000242,0.00001066,-0.00000400,0.00001899,0.00021929,
 -0.00006727,0.00008866,0.00001170,0.00000108,0.00000203,-0.00000081,-0
 .00000315,0.00000015,0.00000093,0.00000184,-0.00000169,-0.00000143,0.0
 0000030,-0.00000036,-0.00000430,0.00000404,0.00000492,-0.00029006,0.00
 014712,0.00008327,0.00003302,-0.00000386,-0.00003599,0.00026246,-0.000
 19899,-0.00018949,-0.00125848,-0.00016188,0.00064010,0.00020977,0.0000
 6146,-0.00007871,0.00177610,0.00023356,-0.00152374,0.07276059,-0.07245
 272,-0.50951403,0.01245229,-0.00237606,-0.01906285,-0.08608958,0.07479
 428,0.52959887\\0.00000002,0.00000031,-0.00000058,-0.00000031,-0.00000
 014,0.00000069,-0.00000011,-0.00000004,-0.00000027,-0.00000004,0.00000
 002,-0.00000040,0.00000017,-0.00000034,0.00000058,0.00000180,-0.000001
 13,0.00000077,-0.00000353,-0.00000145,0.00000062,0.00000605,0.00000184
 ,0.00000039,0.00000155,-0.00000191,0.00000137,-0.00000228,-0.00000034,
 -0.00000038,0.00000080,0.00000113,-0.00000135,-0.00000005,-0.00000020,
 -0.00000043,0.00000035,0.00000008,-0.00000018,0.00000030,-0.00000076,-
 0.00000002,0.,-0.00000011,0.00000062,0.00000010,0.00000002,0.00000003,
 0.00000005,-0.00000019,-0.00000011,0.00000007,-0.00000008,-0.00000005,
 -0.00000014,-0.00000023,-0.00000016,-0.00000008,-0.00000017,-0.0000002
 1,-0.00000017,0.00000004,-0.00000031,-0.00001007,0.00000237,-0.0000057
 9,0.00000049,0.00000039,0.00000009,-0.00000013,0.00000012,-0.00000045,
 -0.00000011,0.00000022,-0.00000019,-0.00000015,0.00000006,-0.00000041,
 0.00000012,-0.00000018,-0.00000029,-0.00000224,0.00000428,0.00000746,0
 .00000214,-0.00000137,-0.00000055,0.00000726,-0.00000562,-0.00000472,-
 0.00000037,-0.00000011,0.00000225,-0.00000214,0.00000175,0.00000117,0.
 00000117,0.00000180,-0.00000100,-0.00000149,0.00000013,0.00000147,0.00
 000035,0.00000035,-0.00000040,0.00000063,-0.00000053,0.00000073\\\@


 TO DRY ONE'S EYES AND LAUGH AT A FALL
 AND BAFFLED, GET UP AND BEGIN AGAIN.
           R. BROWNING
 Job cpu time:       0 days 17 hours 48 minutes 50.6 seconds.
 Elapsed time:       0 days  0 hours 38 minutes 12.5 seconds.
 File lengths (MBytes):  RWF=   1060 Int=      0 D2E=      0 Chk=     28 Scr=      8
 Normal termination of Gaussian 16 at Thu Jan 26 16:31:49 2023.
