 Entering Gaussian System, Link 0=g16
 Input=NicPyrNa3h5wB97XD130K.gjf
 Output=NicPyrNa3h5wB97XD130K.log
 Initial command:
 /sw/contrib/gaussian/g16/A03/g16/l1.exe "/gscratch/scrubbed/gds001/Gau-24614.inp" -scrdir="/gscratch/scrubbed/gds001/"
 Entering Link 1 = /sw/contrib/gaussian/g16/A03/g16/l1.exe PID=     24615.
  
 Copyright (c) 1988,1990,1992,1993,1995,1998,2003,2009,2016,
            Gaussian, Inc.  All Rights Reserved.
  
 This is part of the Gaussian(R) 16 program.  It is based on
 the Gaussian(R) 09 system (copyright 2009, Gaussian, Inc.),
 the Gaussian(R) 03 system (copyright 2003, Gaussian, Inc.),
 the Gaussian(R) 98 system (copyright 1998, Gaussian, Inc.),
 the Gaussian(R) 94 system (copyright 1995, Gaussian, Inc.),
 the Gaussian 92(TM) system (copyright 1992, Gaussian, Inc.),
 the Gaussian 90(TM) system (copyright 1990, Gaussian, Inc.),
 the Gaussian 88(TM) system (copyright 1988, Gaussian, Inc.),
 the Gaussian 86(TM) system (copyright 1986, Carnegie Mellon
 University), and the Gaussian 82(TM) system (copyright 1983,
 Carnegie Mellon University). Gaussian is a federally registered
 trademark of Gaussian, Inc.
  
 This software contains proprietary and confidential information,
 including trade secrets, belonging to Gaussian, Inc.
  
 This software is provided under written license and may be
 used, copied, transmitted, or stored only in accord with that
 written license.
  
 The following legend is applicable only to US Government
 contracts under FAR:
  
                    RESTRICTED RIGHTS LEGEND
  
 Use, reproduction and disclosure by the US Government is
 subject to restrictions as set forth in subparagraphs (a)
 and (c) of the Commercial Computer Software - Restricted
 Rights clause in FAR 52.227-19.
  
 Gaussian, Inc.
 340 Quinnipiac St., Bldg. 40, Wallingford CT 06492
  
  
 ---------------------------------------------------------------
 Warning -- This program may not be used in any manner that
 competes with the business of Gaussian, Inc. or will provide
 assistance to any competitor of Gaussian, Inc.  The licensee
 of this program is prohibited from giving any competitor of
 Gaussian, Inc. access to this program.  By using this program,
 the user acknowledges that Gaussian, Inc. is engaged in the
 business of creating and licensing software in the field of
 computational chemistry and represents and warrants to the
 licensee that it is not a competitor of Gaussian, Inc. and that
 it will not use this program in any manner prohibited above.
 ---------------------------------------------------------------
  

 Cite this work as:
 Gaussian 16, Revision A.03,
 M. J. Frisch, G. W. Trucks, H. B. Schlegel, G. E. Scuseria, 
 M. A. Robb, J. R. Cheeseman, G. Scalmani, V. Barone, 
 G. A. Petersson, H. Nakatsuji, X. Li, M. Caricato, A. V. Marenich, 
 J. Bloino, B. G. Janesko, R. Gomperts, B. Mennucci, H. P. Hratchian, 
 J. V. Ortiz, A. F. Izmaylov, J. L. Sonnenberg, D. Williams-Young, 
 F. Ding, F. Lipparini, F. Egidi, J. Goings, B. Peng, A. Petrone, 
 T. Henderson, D. Ranasinghe, V. G. Zakrzewski, J. Gao, N. Rega, 
 G. Zheng, W. Liang, M. Hada, M. Ehara, K. Toyota, R. Fukuda, 
 J. Hasegawa, M. Ishida, T. Nakajima, Y. Honda, O. Kitao, H. Nakai, 
 T. Vreven, K. Throssell, J. A. Montgomery, Jr., J. E. Peralta, 
 F. Ogliaro, M. J. Bearpark, J. J. Heyd, E. N. Brothers, K. N. Kudin, 
 V. N. Staroverov, T. A. Keith, R. Kobayashi, J. Normand, 
 K. Raghavachari, A. P. Rendell, J. C. Burant, S. S. Iyengar, 
 J. Tomasi, M. Cossi, J. M. Millam, M. Klene, C. Adamo, R. Cammi, 
 J. W. Ochterski, R. L. Martin, K. Morokuma, O. Farkas, 
 J. B. Foresman, and D. J. Fox, Gaussian, Inc., Wallingford CT, 2016.
 
 ******************************************
 Gaussian 16:  ES64L-G16RevA.03 25-Dec-2016
                12-Jul-2021 
 ******************************************
 %nprocshared=28
 Will use up to   28 processors via shared memory.
 %mem=41GB
 %chk=NicPyrNa3h5.chk
 ---------------------------------------------
 # wB97XD/aug-cc-pVDZ opt freq Temperature=130
 ---------------------------------------------
 1/18=20,19=15,26=3,38=1,112=130000/1,3;
 2/9=110,12=2,17=6,18=5,40=1/2;
 3/5=16,7=10,11=2,25=1,30=1,71=1,74=-58/1,2,3;
 4//1;
 5/5=2,38=5/2;
 6/7=2,8=2,9=2,10=2,28=1/1;
 7//1,2,3,16;
 1/18=20,19=15,26=3/3(2);
 2/9=110/2;
 99//99;
 2/9=110/2;
 3/5=16,7=10,11=2,25=1,30=1,71=1,74=-58/1,2,3;
 4/5=5,16=3,69=1/1;
 5/5=2,38=5/2;
 7//1,2,3,16;
 1/18=20,19=15,26=3/3(-5);
 2/9=110/2;
 6/7=2,8=2,9=2,10=2,19=2,28=1/1;
 99/9=1/99;
 --------
 Nicotine
 --------
 Symbolic Z-matrix:
 Charge =  1 Multiplicity = 1
 N                    -1.79241  -0.98802  -0.9375 
 C                    -2.10418   0.15735   0.01931 
 C                    -2.42621  -0.57763   1.31959 
 C                    -3.21433  -1.79833   0.84276 
 C                    -2.4712   -2.2388   -0.42236 
 C                    -0.99756   1.17758   0.03383 
 C                     0.26428   0.85075   0.53113 
 N                     1.30788   1.67842   0.51162 
 C                     1.11652   2.90995   0.02802 
 C                    -0.11136   3.35307  -0.45992 
 C                    -1.18215   2.46532  -0.47014 
 O                     0.7634   -1.78884  -1.11737 
 O                     2.78438  -0.76135   0.21965 
 H                    -3.12092  -2.64799  -1.20066 
 H                    -4.24796  -1.51727   0.60441 
 H                    -3.24646  -2.60204   1.58437 
 H                    -1.50223  -0.8807    1.82899 
 H                    -2.99136   0.06712   1.99956 
 H                    -1.67552  -2.95831  -0.20603 
 H                    -3.02229   0.62152  -0.36322 
 H                     0.46109  -0.13847   0.94877 
 H                     1.98451   3.57      0.02814 
 H                    -0.2181    4.36868  -0.83617 
 H                    -2.1511    2.77574  -0.86445 
 C                    -2.15359  -0.67316  -2.35859 
 H                    -0.75438  -1.17736  -1.00553 
 H                     1.08104  -2.37827  -1.8045 
 H                     1.56975  -1.42771  -0.66104 
 H                     2.72945   0.18903   0.40114 
 H                     3.72199  -1.02146   0.23078 
 O                     5.41141  -1.62749   0.2585 
 H                     5.82079  -1.96153   1.06095 
 H                     6.13406  -1.33592  -0.30319 
 H                    -1.871    -1.53085  -2.97524 
 H                    -1.58856   0.20855  -2.67067 
 H                    -3.23009  -0.49073  -2.41794 
 
 Add virtual bond connecting atoms H26        and O12        Dist= 3.10D+00.
 Add virtual bond connecting atoms H28        and O13        Dist= 3.10D+00.
 Add virtual bond connecting atoms O31        and H30        Dist= 3.39D+00.

 GradGradGradGradGradGradGradGradGradGradGradGradGradGradGradGradGradGrad
 Berny optimization.
 Initialization pass.
                           ----------------------------
                           !    Initial Parameters    !
                           ! (Angstroms and Degrees)  !
 --------------------------                            --------------------------
 ! Name  Definition              Value          Derivative Info.                !
 --------------------------------------------------------------------------------
 ! R1    R(1,2)                  1.5247         estimate D2E/DX2                !
 ! R2    R(1,5)                  1.5135         estimate D2E/DX2                !
 ! R3    R(1,25)                 1.4997         estimate D2E/DX2                !
 ! R4    R(1,26)                 1.0573         estimate D2E/DX2                !
 ! R5    R(2,3)                  1.5279         estimate D2E/DX2                !
 ! R6    R(2,6)                  1.5052         estimate D2E/DX2                !
 ! R7    R(2,20)                 1.0976         estimate D2E/DX2                !
 ! R8    R(3,4)                  1.5293         estimate D2E/DX2                !
 ! R9    R(3,17)                 1.0978         estimate D2E/DX2                !
 ! R10   R(3,18)                 1.0943         estimate D2E/DX2                !
 ! R11   R(4,5)                  1.5319         estimate D2E/DX2                !
 ! R12   R(4,15)                 1.0974         estimate D2E/DX2                !
 ! R13   R(4,16)                 1.0941         estimate D2E/DX2                !
 ! R14   R(5,14)                 1.0933         estimate D2E/DX2                !
 ! R15   R(5,19)                 1.0944         estimate D2E/DX2                !
 ! R16   R(6,7)                  1.3951         estimate D2E/DX2                !
 ! R17   R(6,11)                 1.3951         estimate D2E/DX2                !
 ! R18   R(7,8)                  1.3321         estimate D2E/DX2                !
 ! R19   R(7,21)                 1.0917         estimate D2E/DX2                !
 ! R20   R(8,9)                  1.3368         estimate D2E/DX2                !
 ! R21   R(9,10)                 1.3936         estimate D2E/DX2                !
 ! R22   R(9,22)                 1.0904         estimate D2E/DX2                !
 ! R23   R(10,11)                1.391          estimate D2E/DX2                !
 ! R24   R(10,23)                1.0883         estimate D2E/DX2                !
 ! R25   R(11,24)                1.0912         estimate D2E/DX2                !
 ! R26   R(12,26)                1.6401         estimate D2E/DX2                !
 ! R27   R(12,27)                0.9594         estimate D2E/DX2                !
 ! R28   R(12,28)                0.9944         estimate D2E/DX2                !
 ! R29   R(13,28)                1.6416         estimate D2E/DX2                !
 ! R30   R(13,29)                0.9691         estimate D2E/DX2                !
 ! R31   R(13,30)                0.9731         estimate D2E/DX2                !
 ! R32   R(25,34)                1.0935         estimate D2E/DX2                !
 ! R33   R(25,35)                1.0927         estimate D2E/DX2                !
 ! R34   R(25,36)                1.0935         estimate D2E/DX2                !
 ! R35   R(30,31)                1.795          estimate D2E/DX2                !
 ! R36   R(31,32)                0.9608         estimate D2E/DX2                !
 ! R37   R(31,33)                0.9606         estimate D2E/DX2                !
 ! A1    A(2,1,5)              108.3927         estimate D2E/DX2                !
 ! A2    A(2,1,25)             112.8117         estimate D2E/DX2                !
 ! A3    A(2,1,26)             112.0645         estimate D2E/DX2                !
 ! A4    A(5,1,25)             112.8315         estimate D2E/DX2                !
 ! A5    A(5,1,26)             108.3134         estimate D2E/DX2                !
 ! A6    A(25,1,26)            102.3022         estimate D2E/DX2                !
 ! A7    A(1,2,3)              102.4618         estimate D2E/DX2                !
 ! A8    A(1,2,6)              111.4013         estimate D2E/DX2                !
 ! A9    A(1,2,20)             105.6656         estimate D2E/DX2                !
 ! A10   A(3,2,6)              118.2148         estimate D2E/DX2                !
 ! A11   A(3,2,20)             108.8875         estimate D2E/DX2                !
 ! A12   A(6,2,20)             109.3717         estimate D2E/DX2                !
 ! A13   A(2,3,4)              103.1349         estimate D2E/DX2                !
 ! A14   A(2,3,17)             110.5055         estimate D2E/DX2                !
 ! A15   A(2,3,18)             110.7458         estimate D2E/DX2                !
 ! A16   A(4,3,17)             110.983          estimate D2E/DX2                !
 ! A17   A(4,3,18)             113.4477         estimate D2E/DX2                !
 ! A18   A(17,3,18)            108.0            estimate D2E/DX2                !
 ! A19   A(3,4,5)              103.7107         estimate D2E/DX2                !
 ! A20   A(3,4,15)             110.4081         estimate D2E/DX2                !
 ! A21   A(3,4,16)             112.9647         estimate D2E/DX2                !
 ! A22   A(5,4,15)             110.5601         estimate D2E/DX2                !
 ! A23   A(5,4,16)             111.2741         estimate D2E/DX2                !
 ! A24   A(15,4,16)            107.922          estimate D2E/DX2                !
 ! A25   A(1,5,4)              105.1315         estimate D2E/DX2                !
 ! A26   A(1,5,14)             109.4831         estimate D2E/DX2                !
 ! A27   A(1,5,19)             106.5317         estimate D2E/DX2                !
 ! A28   A(4,5,14)             114.0313         estimate D2E/DX2                !
 ! A29   A(4,5,19)             112.2408         estimate D2E/DX2                !
 ! A30   A(14,5,19)            109.0707         estimate D2E/DX2                !
 ! A31   A(2,6,7)              120.6374         estimate D2E/DX2                !
 ! A32   A(2,6,11)             121.6597         estimate D2E/DX2                !
 ! A33   A(7,6,11)             117.6893         estimate D2E/DX2                !
 ! A34   A(6,7,8)              123.9036         estimate D2E/DX2                !
 ! A35   A(6,7,21)             120.7787         estimate D2E/DX2                !
 ! A36   A(8,7,21)             115.3014         estimate D2E/DX2                !
 ! A37   A(7,8,9)              117.7446         estimate D2E/DX2                !
 ! A38   A(8,9,10)             123.0723         estimate D2E/DX2                !
 ! A39   A(8,9,22)             116.3362         estimate D2E/DX2                !
 ! A40   A(10,9,22)            120.5913         estimate D2E/DX2                !
 ! A41   A(9,10,11)            118.5491         estimate D2E/DX2                !
 ! A42   A(9,10,23)            120.2774         estimate D2E/DX2                !
 ! A43   A(11,10,23)           121.1678         estimate D2E/DX2                !
 ! A44   A(6,11,10)            118.986          estimate D2E/DX2                !
 ! A45   A(6,11,24)            120.7037         estimate D2E/DX2                !
 ! A46   A(10,11,24)           120.31           estimate D2E/DX2                !
 ! A47   A(26,12,27)           125.751          estimate D2E/DX2                !
 ! A48   A(26,12,28)           125.711          estimate D2E/DX2                !
 ! A49   A(27,12,28)           106.4579         estimate D2E/DX2                !
 ! A50   A(28,13,29)           117.1672         estimate D2E/DX2                !
 ! A51   A(28,13,30)           127.6297         estimate D2E/DX2                !
 ! A52   A(29,13,30)           108.3377         estimate D2E/DX2                !
 ! A53   A(1,25,34)            107.9059         estimate D2E/DX2                !
 ! A54   A(1,25,35)            108.3908         estimate D2E/DX2                !
 ! A55   A(1,25,36)            108.8787         estimate D2E/DX2                !
 ! A56   A(34,25,35)           109.7671         estimate D2E/DX2                !
 ! A57   A(34,25,36)           110.7734         estimate D2E/DX2                !
 ! A58   A(35,25,36)           111.0348         estimate D2E/DX2                !
 ! A59   A(30,31,32)           122.0927         estimate D2E/DX2                !
 ! A60   A(30,31,33)           126.6221         estimate D2E/DX2                !
 ! A61   A(32,31,33)           105.8639         estimate D2E/DX2                !
 ! A62   L(1,26,12,7,-1)       189.611          estimate D2E/DX2                !
 ! A63   L(12,28,13,6,-1)      174.5682         estimate D2E/DX2                !
 ! A64   L(13,30,31,27,-1)     177.1076         estimate D2E/DX2                !
 ! A65   L(1,26,12,7,-2)       173.4855         estimate D2E/DX2                !
 ! A66   L(12,28,13,6,-2)      176.3607         estimate D2E/DX2                !
 ! A67   L(13,30,31,27,-2)     183.8409         estimate D2E/DX2                !
 ! D1    D(5,1,2,3)             23.4853         estimate D2E/DX2                !
 ! D2    D(5,1,2,6)            150.8336         estimate D2E/DX2                !
 ! D3    D(5,1,2,20)           -90.4865         estimate D2E/DX2                !
 ! D4    D(25,1,2,3)           149.1799         estimate D2E/DX2                !
 ! D5    D(25,1,2,6)           -83.4719         estimate D2E/DX2                !
 ! D6    D(25,1,2,20)           35.208          estimate D2E/DX2                !
 ! D7    D(26,1,2,3)           -95.9919         estimate D2E/DX2                !
 ! D8    D(26,1,2,6)            31.3563         estimate D2E/DX2                !
 ! D9    D(26,1,2,20)          150.0362         estimate D2E/DX2                !
 ! D10   D(2,1,5,4)              1.1718         estimate D2E/DX2                !
 ! D11   D(2,1,5,14)           124.0703         estimate D2E/DX2                !
 ! D12   D(2,1,5,19)          -118.1203         estimate D2E/DX2                !
 ! D13   D(25,1,5,4)          -124.5111         estimate D2E/DX2                !
 ! D14   D(25,1,5,14)           -1.6127         estimate D2E/DX2                !
 ! D15   D(25,1,5,19)          116.1967         estimate D2E/DX2                !
 ! D16   D(26,1,5,4)           122.9779         estimate D2E/DX2                !
 ! D17   D(26,1,5,14)         -114.1236         estimate D2E/DX2                !
 ! D18   D(26,1,5,19)            3.6858         estimate D2E/DX2                !
 ! D19   D(2,1,12,27)         -167.9452         estimate D2E/DX2                !
 ! D20   D(2,1,12,28)           -1.9004         estimate D2E/DX2                !
 ! D21   D(5,1,12,27)           73.9603         estimate D2E/DX2                !
 ! D22   D(5,1,12,28)         -119.9949         estimate D2E/DX2                !
 ! D23   D(25,1,12,27)         -43.1546         estimate D2E/DX2                !
 ! D24   D(25,1,12,28)         122.8902         estimate D2E/DX2                !
 ! D25   D(2,1,25,34)          178.3469         estimate D2E/DX2                !
 ! D26   D(2,1,25,35)           59.5329         estimate D2E/DX2                !
 ! D27   D(2,1,25,36)          -61.3611         estimate D2E/DX2                !
 ! D28   D(5,1,25,34)          -58.3905         estimate D2E/DX2                !
 ! D29   D(5,1,25,35)         -177.2045         estimate D2E/DX2                !
 ! D30   D(5,1,25,36)           61.9015         estimate D2E/DX2                !
 ! D31   D(26,1,25,34)          57.7613         estimate D2E/DX2                !
 ! D32   D(26,1,25,35)         -61.0527         estimate D2E/DX2                !
 ! D33   D(26,1,25,36)         178.0533         estimate D2E/DX2                !
 ! D34   D(1,2,3,4)            -38.9991         estimate D2E/DX2                !
 ! D35   D(1,2,3,17)            79.677          estimate D2E/DX2                !
 ! D36   D(1,2,3,18)          -160.689          estimate D2E/DX2                !
 ! D37   D(6,2,3,4)           -161.8642         estimate D2E/DX2                !
 ! D38   D(6,2,3,17)           -43.1882         estimate D2E/DX2                !
 ! D39   D(6,2,3,18)            76.4459         estimate D2E/DX2                !
 ! D40   D(20,2,3,4)            72.5861         estimate D2E/DX2                !
 ! D41   D(20,2,3,17)         -168.7378         estimate D2E/DX2                !
 ! D42   D(20,2,3,18)          -49.1037         estimate D2E/DX2                !
 ! D43   D(1,2,6,7)            -66.2061         estimate D2E/DX2                !
 ! D44   D(1,2,6,11)           112.4197         estimate D2E/DX2                !
 ! D45   D(3,2,6,7)             52.0426         estimate D2E/DX2                !
 ! D46   D(3,2,6,11)          -129.3316         estimate D2E/DX2                !
 ! D47   D(20,2,6,7)           177.3561         estimate D2E/DX2                !
 ! D48   D(20,2,6,11)           -4.0181         estimate D2E/DX2                !
 ! D49   D(2,3,4,5)             40.391          estimate D2E/DX2                !
 ! D50   D(2,3,4,15)           -78.0642         estimate D2E/DX2                !
 ! D51   D(2,3,4,16)           160.9884         estimate D2E/DX2                !
 ! D52   D(17,3,4,5)           -77.9521         estimate D2E/DX2                !
 ! D53   D(17,3,4,15)          163.5926         estimate D2E/DX2                !
 ! D54   D(17,3,4,16)           42.6452         estimate D2E/DX2                !
 ! D55   D(18,3,4,5)           160.2383         estimate D2E/DX2                !
 ! D56   D(18,3,4,15)           41.783          estimate D2E/DX2                !
 ! D57   D(18,3,4,16)          -79.1644         estimate D2E/DX2                !
 ! D58   D(3,4,5,1)            -25.4851         estimate D2E/DX2                !
 ! D59   D(3,4,5,14)          -145.4103         estimate D2E/DX2                !
 ! D60   D(3,4,5,19)            89.9212         estimate D2E/DX2                !
 ! D61   D(15,4,5,1)            92.8651         estimate D2E/DX2                !
 ! D62   D(15,4,5,14)          -27.06           estimate D2E/DX2                !
 ! D63   D(15,4,5,19)         -151.7286         estimate D2E/DX2                !
 ! D64   D(16,4,5,1)          -147.2187         estimate D2E/DX2                !
 ! D65   D(16,4,5,14)           92.8562         estimate D2E/DX2                !
 ! D66   D(16,4,5,19)          -31.8124         estimate D2E/DX2                !
 ! D67   D(2,6,7,8)            176.3757         estimate D2E/DX2                !
 ! D68   D(2,6,7,21)            -2.0849         estimate D2E/DX2                !
 ! D69   D(11,6,7,8)            -2.3033         estimate D2E/DX2                !
 ! D70   D(11,6,7,21)          179.236          estimate D2E/DX2                !
 ! D71   D(2,6,11,10)         -178.3832         estimate D2E/DX2                !
 ! D72   D(2,6,11,24)            1.7923         estimate D2E/DX2                !
 ! D73   D(7,6,11,10)            0.2816         estimate D2E/DX2                !
 ! D74   D(7,6,11,24)         -179.543          estimate D2E/DX2                !
 ! D75   D(6,7,8,9)              2.4176         estimate D2E/DX2                !
 ! D76   D(21,7,8,9)          -179.0452         estimate D2E/DX2                !
 ! D77   D(7,8,9,10)            -0.5328         estimate D2E/DX2                !
 ! D78   D(7,8,9,22)           179.6579         estimate D2E/DX2                !
 ! D79   D(8,9,10,11)           -1.3481         estimate D2E/DX2                !
 ! D80   D(8,9,10,23)          179.5134         estimate D2E/DX2                !
 ! D81   D(22,9,10,11)         178.4534         estimate D2E/DX2                !
 ! D82   D(22,9,10,23)          -0.6851         estimate D2E/DX2                !
 ! D83   D(9,10,11,6)            1.4075         estimate D2E/DX2                !
 ! D84   D(9,10,11,24)        -178.7673         estimate D2E/DX2                !
 ! D85   D(23,10,11,6)        -179.462          estimate D2E/DX2                !
 ! D86   D(23,10,11,24)          0.3633         estimate D2E/DX2                !
 ! D87   D(26,12,13,29)        -30.004          estimate D2E/DX2                !
 ! D88   D(26,12,13,30)       -179.1389         estimate D2E/DX2                !
 ! D89   D(27,12,13,29)        135.6605         estimate D2E/DX2                !
 ! D90   D(27,12,13,30)        -13.4744         estimate D2E/DX2                !
 ! D91   D(28,13,31,32)       -117.1954         estimate D2E/DX2                !
 ! D92   D(28,13,31,33)         90.8728         estimate D2E/DX2                !
 ! D93   D(29,13,31,32)         91.4816         estimate D2E/DX2                !
 ! D94   D(29,13,31,33)        -60.4501         estimate D2E/DX2                !
 --------------------------------------------------------------------------------
 Trust Radius=3.00D-01 FncErr=1.00D-07 GrdErr=1.00D-06 EigMax=2.50D+02 EigMin=1.00D-04
 Number of steps in this run=    208 maximum allowed number of steps=    216.
 GradGradGradGradGradGradGradGradGradGradGradGradGradGradGradGradGradGrad

                          Input orientation:                          
 ---------------------------------------------------------------------
 Center     Atomic      Atomic             Coordinates (Angstroms)
 Number     Number       Type             X           Y           Z
 ---------------------------------------------------------------------
      1          7           0       -1.792410   -0.988016   -0.937502
      2          6           0       -2.104179    0.157352    0.019312
      3          6           0       -2.426212   -0.577628    1.319587
      4          6           0       -3.214327   -1.798334    0.842756
      5          6           0       -2.471204   -2.238802   -0.422358
      6          6           0       -0.997559    1.177581    0.033829
      7          6           0        0.264278    0.850747    0.531131
      8          7           0        1.307883    1.678420    0.511623
      9          6           0        1.116523    2.909948    0.028018
     10          6           0       -0.111364    3.353069   -0.459919
     11          6           0       -1.182147    2.465323   -0.470142
     12          8           0        0.763403   -1.788842   -1.117366
     13          8           0        2.784384   -0.761352    0.219647
     14          1           0       -3.120920   -2.647987   -1.200664
     15          1           0       -4.247956   -1.517271    0.604405
     16          1           0       -3.246459   -2.602036    1.584374
     17          1           0       -1.502227   -0.880696    1.828994
     18          1           0       -2.991360    0.067124    1.999555
     19          1           0       -1.675518   -2.958311   -0.206032
     20          1           0       -3.022288    0.621515   -0.363217
     21          1           0        0.461090   -0.138468    0.948772
     22          1           0        1.984509    3.570001    0.028144
     23          1           0       -0.218103    4.368675   -0.836171
     24          1           0       -2.151104    2.775735   -0.864445
     25          6           0       -2.153592   -0.673162   -2.358588
     26          1           0       -0.754378   -1.177357   -1.005529
     27          1           0        1.081043   -2.378274   -1.804496
     28          1           0        1.569747   -1.427708   -0.661041
     29          1           0        2.729446    0.189032    0.401144
     30          1           0        3.721990   -1.021461    0.230780
     31          8           0        5.411409   -1.627489    0.258495
     32          1           0        5.820785   -1.961530    1.060945
     33          1           0        6.134060   -1.335924   -0.303188
     34          1           0       -1.870999   -1.530849   -2.975240
     35          1           0       -1.588563    0.208549   -2.670667
     36          1           0       -3.230087   -0.490728   -2.417941
 ---------------------------------------------------------------------
                    Distance matrix (angstroms):
                    1          2          3          4          5
     1  N    0.000000
     2  C    1.524651   0.000000
     3  C    2.380037   1.527945   0.000000
     4  C    2.418219   2.394827   1.529253   0.000000
     5  C    1.513473   2.464008   2.407467   1.531913   0.000000
     6  C    2.503015   1.505220   2.602879   3.797959   3.748521
     7  C    3.125364   2.520386   3.146531   4.383541   4.235247
     8  N    4.338394   3.768048   4.436893   5.713830   5.522540
     9  C    4.958653   4.236718   5.136371   6.448874   6.291602
    10  C    4.679639   3.796522   4.896483   6.153234   6.069537
    11  C    3.537852   2.533069   3.743044   4.902268   4.877781
    12  O    2.684372   3.647291   4.192782   4.434468   3.338889
    13  O    4.726247   4.978172   5.328596   6.119488   5.496930
    14  H    2.142358   3.223667   3.334767   2.214994   1.093308
    15  H    2.947422   2.782530   2.170983   1.097359   2.175246
    16  H    3.328540   3.371712   2.200260   1.094060   2.181727
    17  H    2.783743   2.171368   1.097768   2.178534   2.802134
    18  H    3.343218   2.171772   1.094282   2.206316   3.384305
    19  H    2.104940   3.153076   2.925527   2.193954   1.094352
    20  H    2.105467   1.097588   2.150600   2.710520   2.913521
    21  H    3.059089   2.744451   2.943956   4.034239   3.858724
    22  H    5.997759   5.325751   6.190728   7.517347   7.334748
    23  H    5.584161   4.693013   5.830004   7.058906   6.993315
    24  H    3.781510   2.763903   4.011324   4.996707   5.044154
    25  C    1.499690   2.519246   3.689501   3.555246   2.510198
    26  H    1.057350   2.157246   2.925896   3.138968   2.101011
    27  H    3.307753   4.461089   5.030215   5.078826   3.814212
    28  H    3.402038   4.058698   4.540177   5.028532   4.128453
    29  H    4.860514   4.848786   5.292647   6.282761   5.798215
    30  H    5.636897   5.947988   6.259623   7.006464   6.345405
    31  O    7.330371   7.728320   7.978498   8.647189   7.935544
    32  H    7.931094   8.269203   8.366304   9.039219   8.428176
    33  H    7.959417   8.378691   8.745666   9.429706   8.653321
    34  H    2.110265   3.445539   4.434234   4.056251   2.716367
    35  H    2.115936   2.739429   4.152332   4.360600   3.438529
    36  H    2.122713   2.761861   3.823988   3.513151   2.759351
                    6          7          8          9         10
     6  C    0.000000
     7  C    1.395121   0.000000
     8  N    2.407112   1.332117   0.000000
     9  C    2.733216   2.284678   1.336845   0.000000
    10  C    2.400391   2.717518   2.400543   1.393609   0.000000
    11  C    1.395113   2.387792   2.789862   2.393687   1.390961
    12  O    3.636743   3.151840   3.869363   4.849250   5.257062
    13  O    4.254067   3.007793   2.866669   4.036945   5.076970
    14  H    4.546164   5.167187   6.423708   7.096212   6.754169
    15  H    4.260618   5.096384   6.410023   6.979264   6.477993
    16  H    4.663394   5.035504   6.341540   7.199988   7.033579
    17  H    2.777375   2.793364   4.022594   4.946751   5.009829
    18  H    3.012048   3.656434   4.826355   5.370597   5.014063
    19  H    4.197948   4.337642   5.560125   6.502825   6.507269
    20  H    2.136910   3.413784   4.542331   4.745498   3.993021
    21  H    2.167202   1.091653   2.051643   3.251188   3.808273
    22  H    3.823145   3.256767   2.066314   1.090445   2.162857
    23  H    3.398166   3.805000   3.373819   2.157761   1.088308
    24  H    2.166024   3.389289   3.881012   3.389969   2.158123
    25  C    3.238104   4.064341   5.074432   5.406313   4.897568
    26  H    2.585563   2.740837   3.835379   4.612435   4.608244
    27  H    4.510447   4.068026   4.676818   5.596844   6.006498
    28  H    3.723095   2.883900   3.330427   4.415368   5.071727
    29  H    3.873334   2.555742   2.061874   3.184985   4.338521
    30  H    5.210443   3.943494   3.632650   4.720757   5.857319
    31  O    6.999555   5.719173   5.275607   6.252000   7.471486
    32  H    7.576200   6.250150   5.823854   6.850425   8.108538
    33  H    7.569100   6.319174   5.748232   6.581246   7.811309
    34  H    4.141616   4.746161   5.706392   6.137224   5.768519
    35  H    2.933020   3.754590   4.547185   4.679524   4.117952
    36  H    3.711955   4.765204   5.820715   6.036583   5.323069
                   11         12         13         14         15
    11  C    0.000000
    12  O    4.722498   0.000000
    13  O    5.159516   2.632053   0.000000
    14  H    5.517105   3.979074   6.359976   0.000000
    15  H    5.139542   5.305843   7.083308   2.409772   0.000000
    16  H    5.844702   4.903027   6.451485   2.788245   1.772019
    17  H    4.072385   3.826074   4.580314   3.862941   3.073089
    18  H    3.888960   5.220924   6.100300   4.198811   2.456783
    19  H    5.452428   2.854211   4.989845   1.781791   3.057915
    20  H    2.607140   4.550826   5.997457   3.376491   2.648199
    21  H    3.390173   2.661589   2.513425   4.873249   4.918821
    22  H    3.390621   5.614311   4.408752   8.138719   8.065732
    23  H    2.164742   6.241590   6.037123   7.602154   7.277316
    24  H    1.091196   5.421594   6.168086   5.519995   4.998421
    25  C    3.789462   3.360690   5.571237   2.485246   3.725347
    26  H    3.706581   1.640147   3.767884   2.793090   3.861673
    27  H    5.510260   0.959413   3.100478   4.253687   5.911206
    28  H    4.771274   0.994405   1.641641   4.876744   5.954414
    29  H    4.608818   3.175403   0.969118   6.696361   7.185884
    30  H    6.058012   3.340600   0.973080   7.177746   7.994089
    31  O    7.794678   4.850050   2.766399   8.716146   9.666185
    32  H    8.425100   5.509262   3.371638   9.248794  10.088872
    33  H    8.246468   5.450869   3.438578   9.390507  10.423189
    34  H    4.766490   3.233934   5.698422   2.441192   4.296972
    35  H    3.178130   3.454571   5.330787   3.559330   4.558172
    36  H    4.089770   4.395970   6.572972   2.479405   3.350287
                   16         17         18         19         20
    16  H    0.000000
    17  H    2.462762   0.000000
    18  H    2.713276   1.773407   0.000000
    19  H    2.408390   2.913391   3.968540   0.000000
    20  H    3.772883   3.061538   2.427138   3.828009   0.000000
    21  H    4.496563   2.276029   3.614668   3.721583   3.799054
    22  H    8.238866   5.933725   6.396552   7.487957   5.823637
    23  H    7.976264   6.025610   5.851123   7.497057   4.704078
    24  H    6.009737   4.587499   4.030521   5.791284   2.377153
    25  C    4.523479   4.243017   4.499254   3.175525   2.532257
    26  H    3.866235   2.946491   3.947575   2.158586   2.965117
    27  H    5.501071   4.703007   6.085659   3.238851   5.283308
    28  H    5.442130   3.992057   5.487895   3.616839   5.037341
    29  H    6.700861   4.592399   5.941162   5.447765   5.818396
    30  H    7.272532   5.465029   7.027279   5.751112   6.966885
    31  O    8.812853   7.128992   8.746973   7.225746   8.750531
    32  H    9.104896   7.442083   9.091222   7.667683   9.322033
    33  H    9.651946   7.941430   9.515485   7.976910   9.363433
    34  H    4.881538   4.862032   5.343904   3.121597   3.575025
    35  H    5.362219   4.630428   4.878403   4.013850   2.747806
    36  H    4.525087   4.601525   4.458975   3.660354   2.345668
                   21         22         23         24         25
    21  H    0.000000
    22  H    4.113527   0.000000
    23  H    4.895065   2.497283   0.000000
    24  H    4.313223   4.304750   2.504945   0.000000
    25  C    4.249834   6.389429   5.611059   3.758638   0.000000
    26  H    2.525063   5.577400   5.574473   4.194959   2.010667
    27  H    3.602993   6.289419   6.938786   6.155833   3.698282
    28  H    2.341529   5.062025   6.068372   5.617387   4.161041
    29  H    2.356394   3.482099   5.261978   5.666791   5.674818
    30  H    3.453789   4.913392   6.761382   7.078944   6.430288
    31  O    5.215297   6.229816   8.297209   8.822753   8.061582
    32  H    5.662373   6.810398   8.952023   9.470999   8.771761
    33  H    5.931601   6.434023   8.554326   9.266320   8.564409
    34  H    4.772340   7.064271   6.489381   4.804225   1.093502
    35  H    4.173948   5.599087   4.748703   3.188939   1.092733
    36  H    5.008356   7.047330   5.931934   3.774564   1.093456
                   26         27         28         29         30
    26  H    0.000000
    27  H    2.334378   0.000000
    28  H    2.362817   1.565215   0.000000
    29  H    3.997847   3.764723   2.255435   0.000000
    30  H    4.646572   3.599707   2.364853   1.574630   0.000000
    31  O    6.310095   4.855067   3.955228   3.242379   1.795042
    32  H    6.936715   5.554240   4.617524   3.823170   2.444963
    33  H    6.925966   5.373397   4.579240   3.796442   2.490400
    34  H    2.291628   3.286840   4.147877   5.960038   6.466804
    35  H    2.321484   3.816897   4.085444   5.299208   6.175216
    36  H    2.931809   4.746049   5.196444   6.627620   7.458470
                   31         32         33         34         35
    31  O    0.000000
    32  H    0.960780   0.000000
    33  H    0.960584   1.533096   0.000000
    34  H    7.968679   8.697115   8.441494   0.000000
    35  H    7.807088   8.575116   8.223701   1.788307   0.000000
    36  H    9.117619   9.807354   9.637104   1.799876   1.802071
                   36
    36  H    0.000000
 Stoichiometry    C10H21N2O3(1+)
 Framework group  C1[X(C10H21N2O3)]
 Deg. of freedom   102
 Full point group                 C1      NOp   1
 Largest Abelian subgroup         C1      NOp   1
 Largest concise Abelian subgroup C1      NOp   1
                         Standard orientation:                         
 ---------------------------------------------------------------------
 Center     Atomic      Atomic             Coordinates (Angstroms)
 Number     Number       Type             X           Y           Z
 ---------------------------------------------------------------------
      1          7           0        1.722739   -0.916556    0.616377
      2          6           0        1.932330    0.276628   -0.309337
      3          6           0        2.190374   -0.393680   -1.657935
      4          6           0        3.047947   -1.603990   -1.286001
      5          6           0        2.405887   -2.120894    0.005249
      6          6           0        0.794600    1.256928   -0.208007
      7          6           0       -0.486381    0.906018   -0.634987
      8          7           0       -1.552726    1.694894   -0.512037
      9          6           0       -1.369617    2.911977    0.009819
     10          6           0       -0.126903    3.378186    0.434621
     11          6           0        0.970489    2.529087    0.336981
     12          8           0       -0.787884   -1.813657    0.929162
     13          8           0       -2.926182   -0.805225   -0.227752
     14          1           0        3.119207   -2.537844    0.721246
     15          1           0        4.085513   -1.296432   -1.104172
     16          1           0        3.056518   -2.375603   -2.061569
     17          1           0        1.244724   -0.708449   -2.118110
     18          1           0        2.687463    0.297419   -2.345494
     19          1           0        1.621349   -2.858759   -0.188819
     20          1           0        2.858386    0.757153    0.031569
     21          1           0       -0.678400   -0.071942   -1.080439
     22          1           0       -2.256688    3.540460    0.094575
     23          1           0       -0.028337    4.380985    0.845832
     24          1           0        1.953044    2.857403    0.679769
     25          6           0        2.167776   -0.646517    2.022823
     26          1           0        0.698301   -1.144991    0.744172
     27          1           0       -1.039473   -2.441069    1.609992
     28          1           0       -1.634285   -1.463156    0.542387
     29          1           0       -2.914476    0.153032   -0.371962
     30          1           0       -3.853467   -1.097602   -0.188458
     31          8           0       -5.520330   -1.761267   -0.131117
     32          1           0       -5.971402   -2.077028   -0.918472
     33          1           0       -6.212878   -1.518194    0.488573
     34          1           0        1.955151   -1.537731    2.619710
     35          1           0        1.596500    0.201451    2.408389
     36          1           0        3.239320   -0.428741    2.019206
 ---------------------------------------------------------------------
 Rotational constants (GHZ):           0.5872023           0.3474356           0.2574299
 Standard basis: Aug-CC-pVDZ (5D, 7F)
 There are   564 symmetry adapted cartesian basis functions of A   symmetry.
 There are   534 symmetry adapted basis functions of A   symmetry.
   534 basis functions,   876 primitive gaussians,   564 cartesian basis functions
    59 alpha electrons       59 beta electrons
       nuclear repulsion energy      1078.1821291087 Hartrees.
 NAtoms=   36 NActive=   36 NUniq=   36 SFac= 1.00D+00 NAtFMM=   60 NAOKFM=F Big=F
 Integral buffers will be    131072 words long.
 Raffenetti 2 integral format.
 Two-electron integral symmetry is turned on.
 Nuclear repulsion after empirical dispersion term =     1078.1547122713 Hartrees.
 One-electron integrals computed using PRISM.
 NBasis=   534 RedAO= T EigKep=  2.28D-06  NBF=   534
 NBsUse=   534 1.00D-06 EigRej= -1.00D+00 NBFU=   534
 ExpMin= 2.97D-02 ExpMax= 1.17D+04 ExpMxC= 4.01D+02 IAcc=3 IRadAn=         5 AccDes= 0.00D+00
 Harris functional with IExCor= 4639 and IRadAn=       5 diagonalized for initial guess.
 HarFok:  IExCor= 4639 AccDes= 0.00D+00 IRadAn=         5 IDoV= 1 UseB2=F ITyADJ=14
 ICtDFT=  3500011 ScaDFX=  1.000000  1.000000  1.000000  1.000000
 FoFCou: FMM=F IPFlag=           0 FMFlag=      100000 FMFlg1=           0
         NFxFlg=           0 DoJE=T BraDBF=F KetDBF=T FulRan=T
         wScrn=  0.000000 ICntrl=       500 IOpCl=  0 I1Cent=   200000004 NGrid=           0
         NMat0=    1 NMatS0=      1 NMatT0=    0 NMatD0=    1 NMtDS0=    0 NMtDT0=    0
 Petite list used in FoFCou.
 Requested convergence on RMS density matrix=1.00D-08 within 128 cycles.
 Requested convergence on MAX density matrix=1.00D-06.
 Requested convergence on             energy=1.00D-06.
 No special actions if energy rises.
 SCF Done:  E(RwB97XD) =  -728.593374855     A.U. after   15 cycles
            NFock= 15  Conv=0.33D-08     -V/T= 2.0063

 **********************************************************************

            Population analysis using the SCF density.

 **********************************************************************

 Orbital symmetries:
       Occupied  (A) (A) (A) (A) (A) (A) (A) (A) (A) (A) (A) (A)
                 (A) (A) (A) (A) (A) (A) (A) (A) (A) (A) (A) (A)
                 (A) (A) (A) (A) (A) (A) (A) (A) (A) (A) (A) (A)
                 (A) (A) (A) (A) (A) (A) (A) (A) (A) (A) (A) (A)
                 (A) (A) (A) (A) (A) (A) (A) (A) (A) (A) (A)
       Virtual   (A) (A) (A) (A) (A) (A) (A) (A) (A) (A) (A) (A)
                 (A) (A) (A) (A) (A) (A) (A) (A) (A) (A) (A) (A)
                 (A) (A) (A) (A) (A) (A) (A) (A) (A) (A) (A) (A)
                 (A) (A) (A) (A) (A) (A) (A) (A) (A) (A) (A) (A)
                 (A) (A) (A) (A) (A) (A) (A) (A) (A) (A) (A) (A)
                 (A) (A) (A) (A) (A) (A) (A) (A) (A) (A) (A) (A)
                 (A) (A) (A) (A) (A) (A) (A) (A) (A) (A) (A) (A)
                 (A) (A) (A) (A) (A) (A) (A) (A) (A) (A) (A) (A)
                 (A) (A) (A) (A) (A) (A) (A) (A) (A) (A) (A) (A)
                 (A) (A) (A) (A) (A) (A) (A) (A) (A) (A) (A) (A)
                 (A) (A) (A) (A) (A) (A) (A) (A) (A) (A) (A) (A)
                 (A) (A) (A) (A) (A) (A) (A) (A) (A) (A) (A) (A)
                 (A) (A) (A) (A) (A) (A) (A) (A) (A) (A) (A) (A)
                 (A) (A) (A) (A) (A) (A) (A) (A) (A) (A) (A) (A)
                 (A) (A) (A) (A) (A) (A) (A) (A) (A) (A) (A) (A)
                 (A) (A) (A) (A) (A) (A) (A) (A) (A) (A) (A) (A)
                 (A) (A) (A) (A) (A) (A) (A) (A) (A) (A) (A) (A)
                 (A) (A) (A) (A) (A) (A) (A) (A) (A) (A) (A) (A)
                 (A) (A) (A) (A) (A) (A) (A) (A) (A) (A) (A) (A)
                 (A) (A) (A) (A) (A) (A) (A) (A) (A) (A) (A) (A)
                 (A) (A) (A) (A) (A) (A) (A) (A) (A) (A) (A) (A)
                 (A) (A) (A) (A) (A) (A) (A) (A) (A) (A) (A) (A)
                 (A) (A) (A) (A) (A) (A) (A) (A) (A) (A) (A) (A)
                 (A) (A) (A) (A) (A) (A) (A) (A) (A) (A) (A) (A)
                 (A) (A) (A) (A) (A) (A) (A) (A) (A) (A) (A) (A)
                 (A) (A) (A) (A) (A) (A) (A) (A) (A) (A) (A) (A)
                 (A) (A) (A) (A) (A) (A) (A) (A) (A) (A) (A) (A)
                 (A) (A) (A) (A) (A) (A) (A) (A) (A) (A) (A) (A)
                 (A) (A) (A) (A) (A) (A) (A) (A) (A) (A) (A) (A)
                 (A) (A) (A) (A) (A) (A) (A) (A) (A) (A) (A) (A)
                 (A) (A) (A) (A) (A) (A) (A) (A) (A) (A) (A) (A)
                 (A) (A) (A) (A) (A) (A) (A) (A) (A) (A) (A) (A)
                 (A) (A) (A) (A) (A) (A) (A) (A) (A) (A) (A) (A)
                 (A) (A) (A) (A) (A) (A) (A) (A) (A) (A) (A) (A)
                 (A) (A) (A) (A) (A) (A) (A) (A) (A) (A) (A) (A)
                 (A) (A) (A) (A) (A) (A) (A) (A) (A) (A) (A) (A)
                 (A) (A) (A) (A) (A) (A) (A) (A) (A) (A) (A) (A)
                 (A) (A) (A) (A) (A) (A) (A) (A) (A) (A) (A) (A)
                 (A) (A) (A) (A) (A) (A) (A) (A) (A) (A) (A) (A)
                 (A) (A) (A) (A) (A) (A) (A)
 The electronic state is 1-A.
 Alpha  occ. eigenvalues --  -19.39048 -19.39042 -19.36211 -14.68201 -14.57523
 Alpha  occ. eigenvalues --  -10.49489 -10.48146 -10.47982 -10.45917 -10.45522
 Alpha  occ. eigenvalues --  -10.44649 -10.44555 -10.43774 -10.43660 -10.42884
 Alpha  occ. eigenvalues --   -1.24532  -1.23433  -1.23010  -1.20267  -1.17397
 Alpha  occ. eigenvalues --   -1.06199  -1.04197  -1.00769  -0.96486  -0.94253
 Alpha  occ. eigenvalues --   -0.87778  -0.85321  -0.83945  -0.83432  -0.77746
 Alpha  occ. eigenvalues --   -0.74954  -0.74705  -0.73791  -0.73113  -0.71992
 Alpha  occ. eigenvalues --   -0.70990  -0.70119  -0.67670  -0.66164  -0.65412
 Alpha  occ. eigenvalues --   -0.65165  -0.63337  -0.62569  -0.61805  -0.61432
 Alpha  occ. eigenvalues --   -0.60540  -0.59954  -0.58876  -0.57985  -0.57598
 Alpha  occ. eigenvalues --   -0.56247  -0.55740  -0.55532  -0.52867  -0.51899
 Alpha  occ. eigenvalues --   -0.50050  -0.49133  -0.46868  -0.46131
 Alpha virt. eigenvalues --   -0.08952  -0.08128  -0.06601  -0.05554  -0.04774
 Alpha virt. eigenvalues --   -0.04737  -0.03947  -0.03138  -0.02726  -0.02533
 Alpha virt. eigenvalues --   -0.02240  -0.01888  -0.01008  -0.00822  -0.00539
 Alpha virt. eigenvalues --   -0.00244   0.00147   0.00469   0.01139   0.01518
 Alpha virt. eigenvalues --    0.01590   0.02278   0.02469   0.02821   0.03144
 Alpha virt. eigenvalues --    0.03820   0.04010   0.04408   0.04576   0.05136
 Alpha virt. eigenvalues --    0.05286   0.05568   0.05634   0.05739   0.06255
 Alpha virt. eigenvalues --    0.06406   0.06614   0.06770   0.07308   0.07400
 Alpha virt. eigenvalues --    0.07580   0.07853   0.08153   0.08306   0.08796
 Alpha virt. eigenvalues --    0.09280   0.09819   0.09844   0.10007   0.10677
 Alpha virt. eigenvalues --    0.10851   0.11212   0.11383   0.11634   0.11806
 Alpha virt. eigenvalues --    0.12534   0.12838   0.13069   0.13183   0.13535
 Alpha virt. eigenvalues --    0.13896   0.14092   0.14380   0.15054   0.15517
 Alpha virt. eigenvalues --    0.15589   0.16215   0.16626   0.16740   0.17323
 Alpha virt. eigenvalues --    0.17645   0.17796   0.17912   0.18160   0.18876
 Alpha virt. eigenvalues --    0.19001   0.19085   0.19885   0.20106   0.20212
 Alpha virt. eigenvalues --    0.20651   0.21179   0.21216   0.21369   0.21973
 Alpha virt. eigenvalues --    0.22193   0.22345   0.22692   0.23224   0.23387
 Alpha virt. eigenvalues --    0.23883   0.24172   0.24553   0.24965   0.25671
 Alpha virt. eigenvalues --    0.26011   0.26274   0.26645   0.26862   0.27319
 Alpha virt. eigenvalues --    0.27507   0.27802   0.28423   0.28855   0.29151
 Alpha virt. eigenvalues --    0.29312   0.29550   0.30508   0.30725   0.30989
 Alpha virt. eigenvalues --    0.31325   0.32027   0.32309   0.32677   0.32951
 Alpha virt. eigenvalues --    0.33598   0.33857   0.34217   0.34862   0.35134
 Alpha virt. eigenvalues --    0.35270   0.35897   0.36669   0.37128   0.37485
 Alpha virt. eigenvalues --    0.37902   0.38431   0.38874   0.39594   0.39798
 Alpha virt. eigenvalues --    0.40111   0.40576   0.40709   0.41126   0.41742
 Alpha virt. eigenvalues --    0.42189   0.42488   0.43279   0.43370   0.43540
 Alpha virt. eigenvalues --    0.43984   0.44139   0.44996   0.45384   0.45776
 Alpha virt. eigenvalues --    0.46324   0.46439   0.46822   0.47263   0.47712
 Alpha virt. eigenvalues --    0.48278   0.48758   0.49078   0.49486   0.50013
 Alpha virt. eigenvalues --    0.50465   0.50925   0.51390   0.51715   0.51955
 Alpha virt. eigenvalues --    0.52584   0.52921   0.53029   0.53476   0.53973
 Alpha virt. eigenvalues --    0.54357   0.54590   0.54930   0.55507   0.55876
 Alpha virt. eigenvalues --    0.56242   0.56946   0.57136   0.57605   0.58014
 Alpha virt. eigenvalues --    0.58370   0.58750   0.58883   0.59841   0.60284
 Alpha virt. eigenvalues --    0.60532   0.61522   0.61807   0.62348   0.62478
 Alpha virt. eigenvalues --    0.62902   0.63392   0.63577   0.64208   0.64912
 Alpha virt. eigenvalues --    0.65270   0.65949   0.66282   0.66364   0.66403
 Alpha virt. eigenvalues --    0.67499   0.68061   0.68672   0.69085   0.69309
 Alpha virt. eigenvalues --    0.69953   0.70278   0.70751   0.71153   0.71828
 Alpha virt. eigenvalues --    0.72571   0.72727   0.73264   0.74111   0.74655
 Alpha virt. eigenvalues --    0.75410   0.75818   0.76289   0.76681   0.77266
 Alpha virt. eigenvalues --    0.77597   0.78013   0.78269   0.79042   0.79546
 Alpha virt. eigenvalues --    0.80294   0.80821   0.81529   0.82814   0.83037
 Alpha virt. eigenvalues --    0.83983   0.84464   0.85767   0.86039   0.86793
 Alpha virt. eigenvalues --    0.87357   0.88286   0.88841   0.88957   0.89597
 Alpha virt. eigenvalues --    0.90619   0.91002   0.91320   0.92724   0.93372
 Alpha virt. eigenvalues --    0.93767   0.94208   0.95315   0.96076   0.96204
 Alpha virt. eigenvalues --    0.97894   0.99116   1.00092   1.00696   1.00978
 Alpha virt. eigenvalues --    1.01928   1.02359   1.03568   1.05027   1.05221
 Alpha virt. eigenvalues --    1.05788   1.06848   1.07238   1.07777   1.08956
 Alpha virt. eigenvalues --    1.09378   1.10450   1.11772   1.12180   1.12621
 Alpha virt. eigenvalues --    1.13828   1.14580   1.15346   1.15608   1.17061
 Alpha virt. eigenvalues --    1.17755   1.17847   1.18974   1.20582   1.20772
 Alpha virt. eigenvalues --    1.21398   1.22876   1.23994   1.25352   1.27022
 Alpha virt. eigenvalues --    1.28922   1.29440   1.29792   1.30734   1.31029
 Alpha virt. eigenvalues --    1.32939   1.34474   1.34775   1.35435   1.36002
 Alpha virt. eigenvalues --    1.37606   1.38179   1.38663   1.39156   1.40353
 Alpha virt. eigenvalues --    1.41418   1.42349   1.43212   1.44448   1.45136
 Alpha virt. eigenvalues --    1.47084   1.47827   1.48123   1.48812   1.49590
 Alpha virt. eigenvalues --    1.50008   1.51105   1.51528   1.53583   1.54208
 Alpha virt. eigenvalues --    1.56016   1.56607   1.57203   1.57621   1.58349
 Alpha virt. eigenvalues --    1.59568   1.60242   1.62153   1.62842   1.63262
 Alpha virt. eigenvalues --    1.63842   1.64969   1.65929   1.66104   1.67692
 Alpha virt. eigenvalues --    1.68682   1.69715   1.69990   1.71386   1.72950
 Alpha virt. eigenvalues --    1.74072   1.74351   1.75691   1.75938   1.76838
 Alpha virt. eigenvalues --    1.77639   1.78098   1.78356   1.78858   1.79508
 Alpha virt. eigenvalues --    1.80503   1.81062   1.82138   1.82882   1.84005
 Alpha virt. eigenvalues --    1.84562   1.85291   1.86417   1.87380   1.87978
 Alpha virt. eigenvalues --    1.89064   1.89387   1.90268   1.90807   1.91755
 Alpha virt. eigenvalues --    1.92512   1.92740   1.94224   1.94779   1.96059
 Alpha virt. eigenvalues --    1.96854   1.98343   1.98918   1.99561   2.00315
 Alpha virt. eigenvalues --    2.01317   2.02459   2.03049   2.03720   2.04434
 Alpha virt. eigenvalues --    2.05342   2.06555   2.07827   2.08234   2.09909
 Alpha virt. eigenvalues --    2.11053   2.12715   2.13063   2.14072   2.15544
 Alpha virt. eigenvalues --    2.15951   2.16503   2.17425   2.18918   2.19670
 Alpha virt. eigenvalues --    2.20950   2.21333   2.22610   2.23403   2.24163
 Alpha virt. eigenvalues --    2.25482   2.26157   2.28138   2.29181   2.29791
 Alpha virt. eigenvalues --    2.31629   2.32246   2.32858   2.34324   2.35452
 Alpha virt. eigenvalues --    2.38134   2.38427   2.39209   2.40305   2.41919
 Alpha virt. eigenvalues --    2.44955   2.46243   2.46780   2.47905   2.51228
 Alpha virt. eigenvalues --    2.52102   2.52708   2.53383   2.53739   2.54703
 Alpha virt. eigenvalues --    2.55166   2.55313   2.56582   2.57560   2.59104
 Alpha virt. eigenvalues --    2.60996   2.63646   2.63925   2.67092   2.67420
 Alpha virt. eigenvalues --    2.70166   2.70642   2.71285   2.71866   2.72625
 Alpha virt. eigenvalues --    2.73773   2.74912   2.75925   2.77086   2.78177
 Alpha virt. eigenvalues --    2.79741   2.81580   2.82534   2.84770   2.86459
 Alpha virt. eigenvalues --    2.87468   2.88047   2.89822   2.91016   2.93110
 Alpha virt. eigenvalues --    2.95200   2.98261   3.02264   3.05220   3.11258
 Alpha virt. eigenvalues --    3.14362   3.23249   3.27856   3.29866   3.34644
 Alpha virt. eigenvalues --    3.37230   3.37476   3.38245   3.42117   3.46413
 Alpha virt. eigenvalues --    3.47605   3.48693   3.50575   3.56851   3.60363
 Alpha virt. eigenvalues --    3.66327   3.67938   3.73532   3.87237   3.89805
 Alpha virt. eigenvalues --    3.90904   4.03201   4.09714   4.14677   4.29637
          Condensed to atoms (all electrons):
               1          2          3          4          5          6
     1  N   10.613714  -2.352456  -0.731779  -0.113870   0.297348   0.732132
     2  C   -2.352456  22.592893  -0.768070  -0.425814  -0.375706  -6.912545
     3  C   -0.731779  -0.768070   6.242080   0.080550   0.049507   0.456105
     4  C   -0.113870  -0.425814   0.080550   5.922281   0.000796   0.333439
     5  C    0.297348  -0.375706   0.049507   0.000796   5.213922  -0.022006
     6  C    0.732132  -6.912545   0.456105   0.333439  -0.022006  20.308328
     7  C   -0.265126  -1.331805  -0.114894  -0.002371  -0.066877  -3.048620
     8  N   -0.059957   0.476999  -0.103544   0.035174  -0.012701  -0.111752
     9  C    0.051137  -0.849115  -0.038877  -0.019584  -0.006159  -1.130835
    10  C   -0.048122   0.663597  -0.052894  -0.004859   0.007611   0.369668
    11  C   -0.160947  -1.854067  -0.238218  -0.042162  -0.071135  -8.347650
    12  O   -0.217123   0.027860  -0.006658   0.009992  -0.003701   0.026168
    13  O    0.012197  -0.028875   0.003346  -0.003387   0.003761   0.003113
    14  H   -0.212056   0.207960   0.033568   0.082568  -0.137584  -0.056212
    15  H   -0.209722   0.042411  -0.001062  -0.092902   0.055694   0.004552
    16  H    0.081780   0.149253   0.130016  -0.400754   0.243844  -0.064719
    17  H   -0.290087  -0.107801   0.043542  -0.011441  -0.027464   0.067238
    18  H    0.521167  -0.445446  -0.341150  -0.011455  -0.006246   0.239248
    19  H   -0.420967   0.163483   0.031445  -0.035662  -0.202703  -0.032302
    20  H   -0.319696  -3.227200   0.453380  -0.152816   0.099645   1.350236
    21  H   -0.095162  -0.217759   0.174375   0.011903   0.070687  -0.464043
    22  H    0.003589  -0.004957   0.002825  -0.000488   0.000298  -0.147327
    23  H   -0.004362  -0.014526   0.006293  -0.000775  -0.000061  -0.000262
    24  H    0.001987   0.027375  -0.012844   0.011663   0.002495   1.220883
    25  C    0.665076  -0.474325  -0.121518  -0.053620  -0.111000   0.107824
    26  H    0.127270  -0.107694   0.134717  -0.049961   0.038600   0.012660
    27  H    0.023679   0.002472   0.005067  -0.002718   0.000510  -0.011894
    28  H   -0.009359  -0.005065  -0.013444   0.002267  -0.004430   0.029587
    29  H   -0.013028   0.013738  -0.011560   0.000194  -0.002344  -0.056964
    30  H    0.004287   0.001175   0.003976  -0.001196   0.001519   0.015667
    31  O    0.000150  -0.000505  -0.000017   0.000025  -0.000046  -0.001487
    32  H   -0.000022   0.000004  -0.000031   0.000013  -0.000022  -0.000190
    33  H    0.000018  -0.000069   0.000008   0.000009  -0.000007   0.000276
    34  H   -0.235311   0.085056  -0.041231   0.007655   0.101931  -0.010453
    35  H    0.003500   0.054261   0.065709   0.004457  -0.108053  -0.019499
    36  H   -0.309047  -0.045122   0.001307  -0.012364   0.012412   0.097749
               7          8          9         10         11         12
     1  N   -0.265126  -0.059957   0.051137  -0.048122  -0.160947  -0.217123
     2  C   -1.331805   0.476999  -0.849115   0.663597  -1.854067   0.027860
     3  C   -0.114894  -0.103544  -0.038877  -0.052894  -0.238218  -0.006658
     4  C   -0.002371   0.035174  -0.019584  -0.004859  -0.042162   0.009992
     5  C   -0.066877  -0.012701  -0.006159   0.007611  -0.071135  -0.003701
     6  C   -3.048620  -0.111752  -1.130835   0.369668  -8.347650   0.026168
     7  C   14.005674   0.100725  -1.048031  -0.320511  -1.482305  -0.059026
     8  N    0.100725   7.513550   0.179431   0.337361  -0.645357   0.028680
     9  C   -1.048031   0.179431   9.528194  -2.171925   1.321893   0.033190
    10  C   -0.320511   0.337361  -2.171925  10.551613  -3.382396  -0.012848
    11  C   -1.482305  -0.645357   1.321893  -3.382396  21.699564  -0.010799
    12  O   -0.059026   0.028680   0.033190  -0.012848  -0.010799   8.057380
    13  O   -0.087320  -0.007964   0.046757  -0.003236  -0.014505  -0.066464
    14  H   -0.005620  -0.000461  -0.001182   0.002065  -0.000337  -0.001238
    15  H    0.011093   0.001155   0.002325  -0.007589   0.002346   0.003162
    16  H   -0.014444   0.001533  -0.001333   0.001707   0.013400  -0.003106
    17  H   -0.059659   0.012789   0.000417  -0.024314  -0.019517   0.007791
    18  H    0.108962  -0.014042   0.008924  -0.011198  -0.010714  -0.001651
    19  H   -0.017887   0.001494   0.001243  -0.000846   0.013800   0.040370
    20  H   -0.019808  -0.008154   0.027059  -0.017459  -0.171078   0.005764
    21  H   -1.096979  -0.189450   0.121517  -0.015113  -0.085605   0.035795
    22  H    0.206779  -0.214041  -0.336843  -0.015059   0.269776  -0.000056
    23  H    0.002605  -0.081985   0.328732  -1.020235   0.504119   0.000071
    24  H    0.004212   0.015334  -0.219758   0.559140  -2.447813  -0.000803
    25  C    0.145812  -0.006875  -0.029673   0.056011  -0.000578   0.010279
    26  H   -0.201539  -0.011716  -0.007670   0.002250  -0.155888  -0.110984
    27  H    0.009817  -0.005428  -0.000163  -0.001662   0.008309   0.346888
    28  H    0.062343   0.002615  -0.021700   0.017984  -0.032387   0.327523
    29  H   -0.037251   0.133443   0.069198  -0.046017   0.021549   0.002299
    30  H    0.022805  -0.023419  -0.009604   0.006453  -0.004178   0.006301
    31  O   -0.000992  -0.001347  -0.000881   0.000438  -0.000310   0.000778
    32  H    0.000827   0.000038  -0.000025  -0.000047   0.000075  -0.000113
    33  H   -0.000129   0.000182   0.000063   0.000075  -0.000118   0.000105
    34  H    0.015098  -0.001810  -0.003242   0.012540  -0.018980   0.036057
    35  H   -0.012561   0.004130  -0.012831  -0.010652   0.038608  -0.010590
    36  H    0.054880  -0.001853   0.006963  -0.006985   0.046250  -0.002240
              13         14         15         16         17         18
     1  N    0.012197  -0.212056  -0.209722   0.081780  -0.290087   0.521167
     2  C   -0.028875   0.207960   0.042411   0.149253  -0.107801  -0.445446
     3  C    0.003346   0.033568  -0.001062   0.130016   0.043542  -0.341150
     4  C   -0.003387   0.082568  -0.092902  -0.400754  -0.011441  -0.011455
     5  C    0.003761  -0.137584   0.055694   0.243844  -0.027464  -0.006246
     6  C    0.003113  -0.056212   0.004552  -0.064719   0.067238   0.239248
     7  C   -0.087320  -0.005620   0.011093  -0.014444  -0.059659   0.108962
     8  N   -0.007964  -0.000461   0.001155   0.001533   0.012789  -0.014042
     9  C    0.046757  -0.001182   0.002325  -0.001333   0.000417   0.008924
    10  C   -0.003236   0.002065  -0.007589   0.001707  -0.024314  -0.011198
    11  C   -0.014505  -0.000337   0.002346   0.013400  -0.019517  -0.010714
    12  O   -0.066464  -0.001238   0.003162  -0.003106   0.007791  -0.001651
    13  O    7.944786   0.000344  -0.000301  -0.000117  -0.003272   0.000686
    14  H    0.000344   1.983782  -0.216432   0.062649  -0.011379  -0.003948
    15  H   -0.000301  -0.216432   2.007234  -0.458221   0.171328  -0.190715
    16  H   -0.000117   0.062649  -0.458221   1.905124  -0.171467   0.022499
    17  H   -0.003272  -0.011379   0.171328  -0.171467   2.202761  -0.538588
    18  H    0.000686  -0.003948  -0.190715   0.022499  -0.538588   2.251424
    19  H    0.000256  -0.484252   0.185872  -0.250534   0.080533  -0.013916
    20  H   -0.000147  -0.003215   0.066285   0.000360   0.160618  -0.229601
    21  H    0.042633   0.003605  -0.009176  -0.000247  -0.136816   0.032223
    22  H    0.000993  -0.000011   0.000011   0.000003  -0.001602   0.001071
    23  H    0.000188   0.000025  -0.000051  -0.000037   0.001440  -0.001801
    24  H   -0.000780  -0.002248  -0.000179  -0.000252   0.000660   0.012759
    25  C    0.004151   0.143546  -0.070412   0.039660  -0.071875   0.065457
    26  H   -0.023128  -0.085113   0.029924  -0.021333   0.090406  -0.034272
    27  H    0.000930  -0.001301  -0.000795   0.001265  -0.001469   0.000035
    28  H   -0.011004   0.003664   0.000840  -0.002316   0.003800   0.000828
    29  H    0.371934  -0.000310   0.000500  -0.000588   0.001081  -0.000851
    30  H    0.296636   0.000227  -0.000189   0.000317  -0.000097   0.000016
    31  O   -0.058868  -0.000013   0.000001  -0.000000  -0.000316   0.000004
    32  H    0.004619  -0.000003   0.000001  -0.000002   0.000049   0.000001
    33  H    0.007277  -0.000001   0.000001  -0.000002  -0.000018  -0.000001
    34  H    0.000078   0.021648   0.003054  -0.000359  -0.003586   0.000571
    35  H    0.001566   0.017734  -0.006921   0.003335  -0.001252  -0.001507
    36  H    0.000244   0.041061  -0.005215   0.002114  -0.007045   0.013011
              19         20         21         22         23         24
     1  N   -0.420967  -0.319696  -0.095162   0.003589  -0.004362   0.001987
     2  C    0.163483  -3.227200  -0.217759  -0.004957  -0.014526   0.027375
     3  C    0.031445   0.453380   0.174375   0.002825   0.006293  -0.012844
     4  C   -0.035662  -0.152816   0.011903  -0.000488  -0.000775   0.011663
     5  C   -0.202703   0.099645   0.070687   0.000298  -0.000061   0.002495
     6  C   -0.032302   1.350236  -0.464043  -0.147327  -0.000262   1.220883
     7  C   -0.017887  -0.019808  -1.096979   0.206779   0.002605   0.004212
     8  N    0.001494  -0.008154  -0.189450  -0.214041  -0.081985   0.015334
     9  C    0.001243   0.027059   0.121517  -0.336843   0.328732  -0.219758
    10  C   -0.000846  -0.017459  -0.015113  -0.015059  -1.020235   0.559140
    11  C    0.013800  -0.171078  -0.085605   0.269776   0.504119  -2.447813
    12  O    0.040370   0.005764   0.035795  -0.000056   0.000071  -0.000803
    13  O    0.000256  -0.000147   0.042633   0.000993   0.000188  -0.000780
    14  H   -0.484252  -0.003215   0.003605  -0.000011   0.000025  -0.002248
    15  H    0.185872   0.066285  -0.009176   0.000011  -0.000051  -0.000179
    16  H   -0.250534   0.000360  -0.000247   0.000003  -0.000037  -0.000252
    17  H    0.080533   0.160618  -0.136816  -0.001602   0.001440   0.000660
    18  H   -0.013916  -0.229601   0.032223   0.001071  -0.001801   0.012759
    19  H    2.432923   0.010682  -0.006267   0.000073   0.000020   0.000145
    20  H    0.010682   3.860394   0.014143   0.000779  -0.001256  -0.149278
    21  H   -0.006267   0.014143   4.119497   0.028038  -0.008446  -0.035280
    22  H    0.000073   0.000779   0.028038   1.919390  -0.112133  -0.005623
    23  H    0.000020  -0.001256  -0.008446  -0.112133   2.136395  -0.141133
    24  H    0.000145  -0.149278  -0.035280  -0.005623  -0.141133   3.039610
    25  C   -0.110209  -0.024763  -0.056464   0.002876  -0.010678   0.040504
    26  H    0.091145   0.141384   0.050991  -0.004844   0.007102  -0.002667
    27  H   -0.005282   0.000203   0.008412   0.000464   0.000042  -0.000500
    28  H    0.005344  -0.001506  -0.087168  -0.005102  -0.000664   0.002967
    29  H    0.001016  -0.002488  -0.085740  -0.034799   0.004196   0.000808
    30  H   -0.001038   0.000365   0.018350   0.005201  -0.000054  -0.000342
    31  O    0.000067  -0.000016   0.005113  -0.000170   0.000028  -0.000009
    32  H    0.000013  -0.000004  -0.000970  -0.000068   0.000001   0.000003
    33  H    0.000011   0.000002   0.000626   0.000017  -0.000002  -0.000003
    34  H   -0.013889   0.025337  -0.004386   0.000411  -0.001225   0.000918
    35  H   -0.015318   0.019144  -0.000455  -0.000917  -0.001733  -0.027013
    36  H    0.006516  -0.033129  -0.000490   0.000322  -0.000628   0.016936
              25         26         27         28         29         30
     1  N    0.665076   0.127270   0.023679  -0.009359  -0.013028   0.004287
     2  C   -0.474325  -0.107694   0.002472  -0.005065   0.013738   0.001175
     3  C   -0.121518   0.134717   0.005067  -0.013444  -0.011560   0.003976
     4  C   -0.053620  -0.049961  -0.002718   0.002267   0.000194  -0.001196
     5  C   -0.111000   0.038600   0.000510  -0.004430  -0.002344   0.001519
     6  C    0.107824   0.012660  -0.011894   0.029587  -0.056964   0.015667
     7  C    0.145812  -0.201539   0.009817   0.062343  -0.037251   0.022805
     8  N   -0.006875  -0.011716  -0.005428   0.002615   0.133443  -0.023419
     9  C   -0.029673  -0.007670  -0.000163  -0.021700   0.069198  -0.009604
    10  C    0.056011   0.002250  -0.001662   0.017984  -0.046017   0.006453
    11  C   -0.000578  -0.155888   0.008309  -0.032387   0.021549  -0.004178
    12  O    0.010279  -0.110984   0.346888   0.327523   0.002299   0.006301
    13  O    0.004151  -0.023128   0.000930  -0.011004   0.371934   0.296636
    14  H    0.143546  -0.085113  -0.001301   0.003664  -0.000310   0.000227
    15  H   -0.070412   0.029924  -0.000795   0.000840   0.000500  -0.000189
    16  H    0.039660  -0.021333   0.001265  -0.002316  -0.000588   0.000317
    17  H   -0.071875   0.090406  -0.001469   0.003800   0.001081  -0.000097
    18  H    0.065457  -0.034272   0.000035   0.000828  -0.000851   0.000016
    19  H   -0.110209   0.091145  -0.005282   0.005344   0.001016  -0.001038
    20  H   -0.024763   0.141384   0.000203  -0.001506  -0.002488   0.000365
    21  H   -0.056464   0.050991   0.008412  -0.087168  -0.085740   0.018350
    22  H    0.002876  -0.004844   0.000464  -0.005102  -0.034799   0.005201
    23  H   -0.010678   0.007102   0.000042  -0.000664   0.004196  -0.000054
    24  H    0.040504  -0.002667  -0.000500   0.002967   0.000808  -0.000342
    25  C    4.624547  -0.331817  -0.000937   0.016741  -0.000314  -0.001314
    26  H   -0.331817   1.406763  -0.026428  -0.016784  -0.009407   0.009364
    27  H   -0.000937  -0.026428   0.603422  -0.133833  -0.003410   0.003214
    28  H    0.016741  -0.016784  -0.133833   0.568097   0.012762  -0.019121
    29  H   -0.000314  -0.009407  -0.003410   0.012762   0.697082  -0.213122
    30  H   -0.001314   0.009364   0.003214  -0.019121  -0.213122   0.649066
    31  O    0.000036  -0.002186  -0.000366   0.009671   0.003417  -0.022746
    32  H    0.000015  -0.000158  -0.000005   0.000367  -0.002285  -0.000504
    33  H   -0.000013   0.000140   0.000086  -0.001863  -0.005493   0.008301
    34  H    0.199002   0.026659  -0.001668   0.003731   0.000749  -0.000542
    35  H    0.220994   0.031825   0.004917  -0.008946  -0.001346   0.000735
    36  H    0.248760  -0.175954  -0.000926   0.008077   0.001121  -0.000579
              31         32         33         34         35         36
     1  N    0.000150  -0.000022   0.000018  -0.235311   0.003500  -0.309047
     2  C   -0.000505   0.000004  -0.000069   0.085056   0.054261  -0.045122
     3  C   -0.000017  -0.000031   0.000008  -0.041231   0.065709   0.001307
     4  C    0.000025   0.000013   0.000009   0.007655   0.004457  -0.012364
     5  C   -0.000046  -0.000022  -0.000007   0.101931  -0.108053   0.012412
     6  C   -0.001487  -0.000190   0.000276  -0.010453  -0.019499   0.097749
     7  C   -0.000992   0.000827  -0.000129   0.015098  -0.012561   0.054880
     8  N   -0.001347   0.000038   0.000182  -0.001810   0.004130  -0.001853
     9  C   -0.000881  -0.000025   0.000063  -0.003242  -0.012831   0.006963
    10  C    0.000438  -0.000047   0.000075   0.012540  -0.010652  -0.006985
    11  C   -0.000310   0.000075  -0.000118  -0.018980   0.038608   0.046250
    12  O    0.000778  -0.000113   0.000105   0.036057  -0.010590  -0.002240
    13  O   -0.058868   0.004619   0.007277   0.000078   0.001566   0.000244
    14  H   -0.000013  -0.000003  -0.000001   0.021648   0.017734   0.041061
    15  H    0.000001   0.000001   0.000001   0.003054  -0.006921  -0.005215
    16  H   -0.000000  -0.000002  -0.000002  -0.000359   0.003335   0.002114
    17  H   -0.000316   0.000049  -0.000018  -0.003586  -0.001252  -0.007045
    18  H    0.000004   0.000001  -0.000001   0.000571  -0.001507   0.013011
    19  H    0.000067   0.000013   0.000011  -0.013889  -0.015318   0.006516
    20  H   -0.000016  -0.000004   0.000002   0.025337   0.019144  -0.033129
    21  H    0.005113  -0.000970   0.000626  -0.004386  -0.000455  -0.000490
    22  H   -0.000170  -0.000068   0.000017   0.000411  -0.000917   0.000322
    23  H    0.000028   0.000001  -0.000002  -0.001225  -0.001733  -0.000628
    24  H   -0.000009   0.000003  -0.000003   0.000918  -0.027013   0.016936
    25  C    0.000036   0.000015  -0.000013   0.199002   0.220994   0.248760
    26  H   -0.002186  -0.000158   0.000140   0.026659   0.031825  -0.175954
    27  H   -0.000366  -0.000005   0.000086  -0.001668   0.004917  -0.000926
    28  H    0.009671   0.000367  -0.001863   0.003731  -0.008946   0.008077
    29  H    0.003417  -0.002285  -0.005493   0.000749  -0.001346   0.001121
    30  H   -0.022746  -0.000504   0.008301  -0.000542   0.000735  -0.000579
    31  O    7.663586   0.353395   0.345791   0.000047  -0.000034   0.000005
    32  H    0.353395   0.581055  -0.073564   0.000004  -0.000006   0.000003
    33  H    0.345791  -0.073564   0.578019   0.000002  -0.000009  -0.000000
    34  H    0.000047   0.000004   0.000002   1.888980  -0.418527  -0.445204
    35  H   -0.000034  -0.000006  -0.000009  -0.418527   1.712497  -0.385947
    36  H    0.000005   0.000003  -0.000000  -0.445204  -0.385947   2.084077
 Mulliken charges:
               1
     1  N   -0.070830
     2  C    1.040383
     3  C    0.679976
     4  C    0.935213
     5  C    0.957665
     6  C    1.063890
     7  C    0.542123
     8  N   -0.342777
     9  C    0.182392
    10  C    0.585454
    11  C    1.257354
    12  O   -0.499051
    13  O   -0.437127
    14  H   -0.381532
    15  H   -0.317905
    16  H   -0.269025
    17  H   -0.355387
    18  H   -0.421782
    19  H   -0.455375
    20  H   -0.874163
    21  H   -1.141890
    22  H   -0.558876
    23  H   -0.589210
    24  H   -0.911877
    25  C    0.885095
    26  H    0.178345
    27  H    0.179055
    28  H    0.295482
    29  H    0.192229
    30  H    0.244069
    31  O   -0.292242
    32  H    0.137539
    33  H    0.140280
    34  H   -0.229115
    35  H   -0.139297
    36  H   -0.209083
 Sum of Mulliken charges =   1.00000
 Mulliken charges with hydrogens summed into heavy atoms:
               1
     1  N    0.107515
     2  C    0.166220
     3  C   -0.097192
     4  C    0.348283
     5  C    0.120757
     6  C    1.063890
     7  C   -0.599767
     8  N   -0.342777
     9  C   -0.376484
    10  C   -0.003756
    11  C    0.345477
    12  O   -0.024513
    13  O   -0.000829
    25  C    0.307600
    31  O   -0.014423
 Electronic spatial extent (au):  <R**2>=           4488.1973
 Charge=              1.0000 electrons
 Dipole moment (field-independent basis, Debye):
    X=              1.7145    Y=             -2.0141    Z=              2.3087  Tot=              3.5109
 Quadrupole moment (field-independent basis, Debye-Ang):
   XX=            -23.9848   YY=            -64.5355   ZZ=            -79.7804
   XY=              2.4828   XZ=              2.0367   YZ=              0.9449
 Traceless Quadrupole moment (field-independent basis, Debye-Ang):
   XX=             32.1155   YY=             -8.4353   ZZ=            -23.6802
   XY=              2.4828   XZ=              2.0367   YZ=              0.9449
 Octapole moment (field-independent basis, Debye-Ang**2):
  XXX=           -285.7532  YYY=              3.0123  ZZZ=             14.1107  XYY=            -21.6405
  XXY=            -94.0990  XXZ=             -2.3235  XZZ=             -3.0058  YZZ=            -31.4162
  YYZ=             21.0241  XYZ=             -5.6672
 Hexadecapole moment (field-independent basis, Debye-Ang**3):
 XXXX=           -900.9275 YYYY=          -1549.8826 ZZZZ=           -530.0291 XXXY=            516.3888
 XXXZ=             70.0816 YYYX=             11.7596 YYYZ=             35.5383 ZZZX=             15.7897
 ZZZY=            -23.6802 XXYY=           -624.0652 XXZZ=           -507.1162 YYZZ=           -367.6439
 XXYZ=             57.0655 YYXZ=             17.7314 ZZXY=             36.1634
 N-N= 1.078154712271D+03 E-N=-3.840027671233D+03  KE= 7.239973465006D+02
 Calling FoFJK, ICntrl=      2127 FMM=F ISym2X=0 I1Cent= 0 IOpClX= 0 NMat=1 NMatS=1 NMatT=0.
 ***** Axes restored to original set *****
 -------------------------------------------------------------------
 Center     Atomic                   Forces (Hartrees/Bohr)
 Number     Number              X              Y              Z
 -------------------------------------------------------------------
      1        7          -0.001912775    0.002748650   -0.019934268
      2        6           0.002150939   -0.005116416    0.000625169
      3        6           0.000150670    0.001085995    0.000617031
      4        6           0.000310482   -0.000803872   -0.000173391
      5        6           0.002487052    0.003160070    0.003685198
      6        6          -0.000813408   -0.000451316    0.000032752
      7        6           0.000006931   -0.000136302   -0.000001541
      8        7           0.000168203    0.000119829   -0.000107857
      9        6           0.000019095    0.000066222   -0.000013641
     10        6           0.000159607    0.000096646   -0.000101429
     11        6           0.000203052   -0.000031754    0.000016654
     12        8           0.000748072   -0.000535986   -0.001254716
     13        8           0.000173020   -0.000046821   -0.000070340
     14        1          -0.000095022    0.000457931   -0.000076039
     15        1           0.000006808    0.000050498   -0.000054378
     16        1          -0.000255926    0.000169859    0.000222678
     17        1          -0.000112890   -0.000003466    0.000092261
     18        1           0.000006223   -0.000118750    0.000272192
     19        1          -0.000037001   -0.000550050    0.000232254
     20        1          -0.000261888   -0.000188681   -0.000661614
     21        1          -0.000171081    0.000098529   -0.000079838
     22        1           0.000000895    0.000026578    0.000020492
     23        1           0.000027217    0.000027454    0.000036115
     24        1          -0.000028982   -0.000136381    0.000068968
     25        6           0.001295179   -0.001589905    0.009645867
     26        1          -0.002849119   -0.000382474    0.009779406
     27        1           0.000342373    0.000052801    0.000247505
     28        1          -0.000086102   -0.000005404   -0.000086016
     29        1          -0.000105233    0.000050476    0.000050373
     30        1          -0.000100815    0.000038694    0.000022094
     31        8           0.000056701   -0.000015698   -0.000031958
     32        1          -0.000008743    0.000004321    0.000009200
     33        1          -0.000008304   -0.000006181    0.000025747
     34        1          -0.000640428    0.000472030   -0.001157343
     35        1          -0.000145013    0.001422207   -0.000506152
     36        1          -0.000679788   -0.000029334   -0.001391439
 -------------------------------------------------------------------
 Cartesian Forces:  Max     0.019934268 RMS     0.002518245

 GradGradGradGradGradGradGradGradGradGradGradGradGradGradGradGradGradGrad
 Berny optimization.
 FormGI is forming the generalized inverse of G from B-inverse, IUseBI=4.
 Internal  Forces:  Max     0.006148546 RMS     0.000831626
 Search for a local minimum.
 Step number   1 out of a maximum of  208
 All quantities printed in internal units (Hartrees-Bohrs-Radians)
 Mixed Optimization -- En-DIIS/RFO-DIIS
 Second derivative matrix not updated -- first step.
 ITU=  0
     Eigenvalues ---    0.00230   0.00230   0.00230   0.00230   0.00230
     Eigenvalues ---    0.00230   0.00230   0.00230   0.00230   0.00294
     Eigenvalues ---    0.00373   0.00391   0.00555   0.00697   0.00852
     Eigenvalues ---    0.01061   0.01552   0.02032   0.02164   0.02165
     Eigenvalues ---    0.02178   0.02192   0.02216   0.02275   0.02303
     Eigenvalues ---    0.02473   0.03829   0.03997   0.04197   0.04392
     Eigenvalues ---    0.04452   0.04686   0.05138   0.05471   0.05714
     Eigenvalues ---    0.05936   0.06041   0.06075   0.06171   0.06339
     Eigenvalues ---    0.06841   0.06901   0.07143   0.08335   0.08360
     Eigenvalues ---    0.08936   0.09982   0.11630   0.13677   0.15336
     Eigenvalues ---    0.15831   0.15997   0.15998   0.16000   0.16000
     Eigenvalues ---    0.16000   0.16000   0.16000   0.16000   0.16000
     Eigenvalues ---    0.16000   0.16000   0.16457   0.20192   0.22000
     Eigenvalues ---    0.23192   0.23441   0.24984   0.26268   0.27353
     Eigenvalues ---    0.28385   0.29622   0.30524   0.31834   0.32410
     Eigenvalues ---    0.33930   0.33950   0.33976   0.34315   0.34322
     Eigenvalues ---    0.34348   0.34411   0.34416   0.34433   0.34499
     Eigenvalues ---    0.34622   0.34675   0.34761   0.35009   0.38864
     Eigenvalues ---    0.42603   0.44480   0.46562   0.46798   0.48683
     Eigenvalues ---    0.52751   0.53558   0.55306   0.55348   0.55600
     Eigenvalues ---    0.56035   0.57739
 RFO step:  Lambda=-2.52621233D-03 EMin= 2.30000000D-03
 Linear search not attempted -- first point.
 Maximum step size (   0.300) exceeded in Quadratic search.
    -- Step size scaled by   0.685
 Iteration  1 RMS(Cart)=  0.15386737 RMS(Int)=  0.00592489
 Iteration  2 RMS(Cart)=  0.03843882 RMS(Int)=  0.00064580
 Iteration  3 RMS(Cart)=  0.00063843 RMS(Int)=  0.00060070
 Iteration  4 RMS(Cart)=  0.00000086 RMS(Int)=  0.00060070
 Variable       Old X    -DE/DX   Delta X   Delta X   Delta X     New X
                                 (Linear)    (Quad)   (Total)
    R1        2.88117  -0.00295   0.00000  -0.00580  -0.00520   2.87597
    R2        2.86005  -0.00115   0.00000  -0.00166  -0.00109   2.85896
    R3        2.83400  -0.00615   0.00000  -0.01289  -0.01289   2.82111
    R4        1.99810  -0.00220   0.00000  -0.00386  -0.00371   1.99439
    R5        2.88740  -0.00009   0.00000  -0.00054  -0.00079   2.88661
    R6        2.84445  -0.00058   0.00000  -0.00121  -0.00116   2.84329
    R7        2.07414   0.00037   0.00000   0.00074   0.00074   2.07488
    R8        2.88987  -0.00060   0.00000  -0.00247  -0.00310   2.88677
    R9        2.07448  -0.00005   0.00000  -0.00010  -0.00010   2.07438
   R10        2.06789   0.00010   0.00000   0.00019   0.00019   2.06808
   R11        2.89490  -0.00015   0.00000  -0.00076  -0.00104   2.89385
   R12        2.07371   0.00002   0.00000   0.00004   0.00004   2.07374
   R13        2.06747   0.00003   0.00000   0.00007   0.00007   2.06754
   R14        2.06605  -0.00006   0.00000  -0.00012  -0.00012   2.06593
   R15        2.06803   0.00038   0.00000   0.00075   0.00075   2.06878
   R16        2.63640  -0.00001   0.00000  -0.00002  -0.00006   2.63634
   R17        2.63638  -0.00005   0.00000  -0.00007  -0.00006   2.63632
   R18        2.51734   0.00027   0.00000   0.00032   0.00032   2.51766
   R19        2.06292  -0.00015   0.00000  -0.00030  -0.00030   2.06263
   R20        2.52627   0.00003   0.00000   0.00004   0.00003   2.52630
   R21        2.63354  -0.00004   0.00000  -0.00006  -0.00008   2.63346
[...]
 7,-0.00000148,-0.00000331,-0.00001245,-0.00000042,-0.00000207,-0.00000
 574,0.00000116,0.00001042,-0.00002162,0.00022122,-0.00009716,-0.000016
 58,0.00008442,0.00007965,-0.00015051,0.00069095,0.00055464,-0.00004634
 ,-0.00065644,-0.00044743,-0.00063294,0.00347311,0.00080392,-0.00948317
 ,-0.06143087,-0.11354089,0.68469769,0.00001720,-0.00000903,0.00001561,
 -0.00000011,0.00000053,-0.00000894,-0.00001578,-0.00000016,-0.00001038
 ,-0.00001469,0.00000900,-0.00000331,0.00000086,0.00000213,-0.00000730,
 0.00001663,-0.00002898,0.00001171,-0.00001944,0.00005677,-0.00001785,-
 0.00002729,0.00002980,0.00009207,0.00001334,0.00001520,-0.00000070,-0.
 00000855,-0.00000987,-0.00001081,0.00000552,0.00001542,-0.00000432,-0.
 00005463,-0.00016269,0.00011637,-0.00228440,0.00105136,0.00084540,0.00
 000245,-0.00000521,0.00000466,0.00000311,-0.00000178,0.00000174,-0.000
 00426,-0.00000938,-0.00000318,-0.00000215,0.00001077,0.00000201,0.0000
 0375,-0.00000223,0.00000293,-0.00000514,0.00000128,-0.00000225,0.00000
 230,-0.00000213,0.00000631,-0.00002487,0.00000467,-0.00004104,-0.00000
 358,0.00000077,-0.00000087,0.00000268,-0.00000261,-0.00000093,0.000002
 80,0.00000001,0.00000041,-0.00000281,0.00000848,-0.00002047,-0.0000372
 3,0.00002187,-0.00001428,-0.00002239,0.00001628,-0.00008143,0.00016696
 ,0.00023363,-0.00007729,-0.00039045,-0.00000617,-0.00034847,0.00389512
 ,-0.00196350,-0.00234685,-0.11673742,0.03161601,-0.19516245,0.10525464
 ,0.00000312,-0.00004546,-0.00000423,0.00002640,0.00006262,0.00002356,0
 .00000607,-0.00000985,-0.00000644,-0.00001572,0.00001315,0.00000292,0.
 00001728,0.00001700,-0.00001159,-0.00001624,-0.00001146,0.00000939,0.0
 0003140,0.00007248,-0.00001870,-0.00009444,-0.00003801,-0.00006642,0.0
 0005185,-0.00003435,0.00003082,-0.00005045,-0.00001294,-0.00000407,-0.
 00000440,0.00001925,-0.00001127,-0.00002271,-0.00016446,0.00004455,0.0
 0086919,-0.00032400,-0.00037401,0.00000106,-0.00000213,0.00000302,-0.0
 0000341,-0.00000450,0.00000041,0.00000280,-0.00000180,0.00000018,-0.00
 000037,0.00001024,-0.00000625,0.00000086,-0.00000192,-0.00000136,-0.00
 000528,-0.00000329,-0.00000637,-0.00000609,-0.00000568,-0.00000407,0.0
 0002147,0.00000555,0.00002132,0.00001755,-0.00002189,0.00001418,-0.000
 00190,0.00000154,0.00000115,-0.00000714,0.00000160,-0.00000102,0.00000
 479,0.00000244,-0.00000012,-0.00004820,0.00004670,-0.00000051,-0.00002
 447,0.00006269,-0.00005787,0.00015581,0.00014318,-0.00001212,0.0002454
 8,-0.00000951,0.00029792,-0.00114366,-0.00000312,0.00113141,0.02185863
 ,-0.01160419,0.06909118,-0.02462752,0.01249286,0.00005720,-0.00001274,
 -0.00001684,-0.00001503,0.00000578,0.00002469,0.00000784,0.00000359,0.
 00000820,0.00000658,-0.00000110,-0.00000302,-0.00002261,-0.00001356,0.
 00001762,0.00000554,-0.00000044,0.00000165,-0.00001461,-0.00002783,-0.
 00000235,0.00007942,-0.00008146,-0.00009216,0.00000436,0.00002515,-0.0
 0000908,0.00000896,0.00000095,0.00001418,0.00000080,-0.00000481,0.0000
 0231,0.00027369,0.00009346,-0.00002242,0.00212670,-0.00053935,0.000147
 82,0.00000311,0.00000152,-0.00000383,0.00000461,-0.00000020,-0.0000003
 6,-0.00000318,0.00000147,0.00001117,-0.00000450,-0.00000297,0.00000871
 ,0.00000442,-0.00000079,0.00000006,-0.00000262,-0.00000282,-0.00000314
 ,0.00000354,-0.00000100,-0.00000504,-0.00001640,0.00000804,0.00003611,
 -0.00000686,0.00000561,0.00000863,0.00000088,0.00000064,0.00000536,0.0
 0000157,0.00000070,0.00000266,0.00000048,-0.00000307,0.00000407,-0.000
 11190,0.00005153,0.00000404,-0.00004640,-0.00001787,0.00001590,-0.0003
 1979,-0.00019310,-0.00001896,-0.00017281,0.00015052,0.00014647,-0.0029
 6364,0.00079191,-0.00035301,-0.13904539,0.07147647,-0.46429409,0.15792
 174,-0.07489332,0.48821546,0.00004923,-0.00000999,0.00000110,-0.000013
 26,-0.00000042,0.00000935,-0.00000461,0.00000344,0.00000092,-0.0000022
 5,0.00000219,-0.00000296,-0.00001714,-0.00001056,0.00000713,0.00001897
 ,-0.00001377,0.00000493,-0.00002353,-0.00000868,-0.00000690,0.00005283
 ,-0.00002459,-0.00001045,0.00000244,0.00003076,-0.00000846,0.00000340,
 0.00000060,0.00000361,0.00000043,0.00000659,-0.00000066,0.00015788,-0.
 00000116,-0.00002019,-0.00023959,0.00083357,-0.00096211,0.00000348,-0.
 00000215,-0.00000018,0.00000387,-0.00000012,-0.00000048,-0.00000256,-0
 .00000325,0.00000438,-0.00000186,0.00000163,0.00000511,0.00000332,-0.0
 0000106,0.00000033,-0.00000513,-0.00000035,-0.00000231,0.00000427,-0.0
 0000146,0.00000073,-0.00001713,0.00000156,0.00000501,-0.00000803,0.000
 01026,0.00000279,0.00000238,-0.00000120,0.00000171,0.00000376,0.000001
 34,0.00000175,-0.00000223,0.00000212,-0.00000773,-0.00009321,0.0000421
 2,-0.00000390,-0.00005971,-0.00002246,0.00001550,-0.00012761,-0.000012
 78,0.00001625,-0.00034045,0.00007373,-0.00009046,-0.00016283,-0.001903
 93,0.00275005,-0.36904910,-0.04717640,0.25878583,0.01026581,0.00276016
 ,-0.01775667,0.35960734,0.00000751,-0.00004294,-0.00000411,0.00002368,
 0.00005353,0.00002247,0.00000162,-0.00000874,-0.00000894,-0.00000947,0
 .00000600,0.00000524,0.00001151,0.00001697,-0.00000620,-0.00001290,-0.
 00002363,0.00000571,-0.00000360,0.00006584,-0.00002348,-0.00007708,-0.
 00006586,0.00001396,0.00009069,0.00001185,0.00001790,-0.00004864,-0.00
 002936,0.00000133,0.00000286,0.00002133,-0.00001241,0.00001404,-0.0001
 2793,-0.00003606,0.00087622,-0.00088397,0.00114985,0.00000134,-0.00000
 159,0.00000133,-0.00000217,-0.00000349,0.00000036,0.00000216,-0.000002
 05,0.00000182,-0.00000057,0.00000475,-0.00000542,0.00000065,-0.0000012
 4,-0.00000135,-0.00000431,-0.00000436,-0.00000394,-0.00000411,-0.00000
 494,-0.00000291,0.00000255,-0.00000332,0.00001056,0.00001887,-0.000033
 50,-0.00000093,0.00000464,-0.00000175,0.,-0.00000637,-0.00000012,-0.00
 000073,0.00000685,0.00000833,0.00000052,-0.00005581,0.00004728,-0.0000
 0080,-0.00005760,0.00004374,0.00000343,0.00008910,0.00010570,0.0000881
 6,0.00027907,0.00015829,-0.00020376,-0.00085415,0.00108485,-0.00215147
 ,-0.03945442,-0.00903389,0.04185806,-0.00626081,-0.00065531,0.00317340
 ,0.04542051,0.00929683,-0.00001489,0.00000091,-0.00002021,0.00000413,0
 .00002596,0.00001686,0.00000812,-0.00000305,0.00000119,0.00000524,-0.0
 0000292,0.00000388,-0.00000026,0.00000184,-0.00000019,-0.00000660,0.00
 001980,-0.00001274,0.00004108,-0.00001344,0.00001784,-0.00006376,0.000
 08090,-0.00001960,-0.00002689,-0.00005109,0.00002058,-0.00000834,0.000
 01239,-0.00001963,-0.00001151,-0.00000198,-0.00000473,-0.00017521,-0.0
 0010548,-0.00018267,-0.00197148,0.00106264,-0.00141773,-0.00000290,0.0
 0000186,-0.00000051,-0.00000179,0.00000005,-0.00000119,0.00000118,0.00
 000370,0.00000047,-0.00000002,-0.00000240,-0.00000439,-0.00000075,0.00
 000047,-0.00000235,0.00000300,-0.00000297,0.00000209,-0.00000530,-0.00
 000017,-0.00000284,0.00002958,0.00000199,0.00000448,0.00000699,0.00000
 597,0.00001679,-0.00000729,0.00000568,0.00000291,-0.00000467,0.0000033
 6,0.00000214,-0.00000063,-0.00000846,0.00003253,0.00003714,-0.00001575
 ,0.00001740,-0.00003145,-0.00000406,0.00009349,0.00028107,0.00021450,0
 .00018193,0.00001682,-0.00012219,-0.00001611,0.00283322,-0.00203467,0.
 00254712,0.20266836,0.04001857,-0.21432828,0.03914526,0.00480039,-0.02
 384561,-0.24273544,-0.04389508,0.23690759,-0.00078476,-0.00280280,-0.0
 0214354,-0.00025315,0.00020499,-0.00030514,0.00048661,-0.00014476,-0.0
 0000869,-0.00009971,-0.00008783,0.00010119,0.00017832,0.00041742,0.000
 28876,0.00016467,0.00004091,-0.00009126,0.00023816,-0.00001592,0.00003
 087,-0.00008184,-0.00000788,0.00003857,-0.00001052,0.00001835,-0.00000
 317,0.00006251,0.00001227,-0.00002448,-0.00014540,0.00014100,-0.000098
 80,0.00019173,0.00008522,0.00060660,0.00008774,0.00012823,0.00009993,-
 0.00013979,0.00026377,-0.00001195,-0.00000593,0.00000437,-0.00000066,-
 0.00000865,0.00000081,-0.00004648,-0.00002998,-0.00009136,0.00007439,-
 0.00001068,0.00005406,-0.00010165,0.00019398,-0.00019661,0.00025877,0.
 00039252,-0.00034019,-0.00013175,0.00001378,-0.00000225,-0.00002222,0.
 00000239,-0.00000158,-0.00000072,-0.00001055,-0.00000300,0.00000491,-0
 .00002100,-0.00004961,0.00000805,-0.06102413,0.04830239,0.03342744,0.0
 0040415,-0.00065371,-0.00048408,-0.00008027,0.00017105,-0.00022877,-0.
 00023481,-0.00021929,-0.00010465,0.00007144,-0.00007932,-0.00002278,-0
 .00003699,0.00002435,-0.00002101,0.00002871,-0.00000261,0.00002408,-0.
 00000002,-0.00000114,-0.00000867,-0.00000886,-0.00000298,-0.00000787,0
 .05824470,-0.00369049,0.01077220,0.01116867,0.00016760,-0.00133220,0.0
 0168858,-0.00032498,0.00041177,0.00069017,0.00008430,0.00021022,-0.000
 13566,0.00006227,0.00127525,0.00051120,-0.00001208,0.00006031,-0.00004
 527,0.00025598,-0.00002826,0.00005447,-0.00012979,-0.00003412,0.000025
 00,0.00001041,0.00005261,-0.00003341,0.00007856,0.00009361,-0.00003272
 ,-0.00001037,0.00001201,-0.00005410,-0.00009126,-0.00014754,0.00029919
 ,-0.00001830,0.00006122,0.00004751,0.00001120,-0.00015277,-0.00014621,
 0.00000103,-0.00000215,-0.00000221,-0.00000003,-0.00001562,-0.00001135
 ,0.00000513,0.00003408,0.00007346,0.00000469,-0.00003232,0.00020754,0.
 00015264,0.00004138,0.00001198,-0.00026610,0.00008145,0.00009160,-0.00
 001216,0.00000335,-0.00002061,-0.00001092,0.00000056,0.00000057,0.0000
 0216,0.00000116,-0.00000398,-0.00005994,0.00008842,0.00004398,0.048209
 13,-0.23309874,-0.13182371,0.00003043,0.00036807,-0.00074765,0.0000363
 9,0.00010834,-0.00004125,-0.00006536,-0.00002796,-0.00009882,0.0000555
 2,-0.00006634,-0.00001849,0.00000676,0.00000196,-0.00000307,-0.0000016
 3,0.00000491,0.00000956,0.00000155,-0.00000183,-0.00000266,-0.00000152
 ,-0.00000184,-0.00000646,-0.05077651,0.24209026,0.00701368,-0.02823856
 ,-0.02708422,-0.00099804,0.00513776,-0.00311919,0.00052893,-0.00142187
 ,-0.00089290,-0.00028310,-0.00018972,-0.00006435,-0.00037721,-0.001803
 49,0.00114234,0.00043518,0.00031267,0.00015090,-0.00014780,-0.00006165
 ,0.00005165,-0.00001348,0.00006147,0.00001359,0.00001080,-0.00009066,0
 .00000969,-0.00010194,-0.00008704,0.00005637,-0.00014606,0.00010010,0.
 00006431,0.00013797,0.00034332,0.00051260,0.00010989,0.00010269,0.0000
 5333,0.00017225,0.00020046,-0.00002787,0.00000141,0.00006585,0.0000746
 8,0.00002033,0.00005265,0.00001671,0.00004974,0.00009343,-0.00017559,0
 .00000433,0.00026358,-0.00046339,0.00011086,0.00069462,-0.00016991,0.0
 0009878,0.00008349,0.00009560,0.00004163,-0.00002825,-0.00001813,0.000
 00788,-0.00000462,-0.00000146,-0.00001595,-0.00001303,-0.00000421,0.00
 006424,-0.00003878,-0.00005883,0.03082919,-0.11952710,-0.13453551,0.00
 084163,-0.00116759,0.00007207,-0.00025610,0.00014550,-0.00017017,-0.00
 024243,-0.00017333,-0.00004443,0.00003922,-0.00004316,-0.00001436,-0.0
 0003167,0.00002214,-0.00000782,0.00002257,-0.00000131,0.00000666,-0.00
 000100,-0.00000276,-0.00000391,-0.00000330,-0.00000240,0.00000243,-0.0
 3496719,0.13450037,0.15496275,0.00297336,0.00479822,-0.00101784,-0.000
 05749,-0.00064004,0.00003015,-0.00012383,-0.00001088,0.00004812,0.0005
 6825,-0.00001664,-0.00019995,0.00011530,0.00019073,-0.00087974,0.00004
 443,0.00005869,-0.00053129,0.00050353,0.00013030,0.00004826,-0.0003406
 3,-0.00019058,0.00011781,-0.00014234,0.00009327,-0.00005302,0.00020486
 ,0.00011860,-0.00008744,0.00003516,-0.00029216,-0.00017239,0.00001346,
 -0.00023293,0.00016024,0.00004463,0.00003172,0.00011287,0.00049416,0.0
 0010976,-0.00005586,-0.00001937,-0.00000920,-0.00012437,-0.00000687,0.
 00004054,0.00012655,0.00002498,0.00002142,0.00000115,-0.00000295,0.000
 00448,-0.00000599,-0.00006981,-0.00021920,0.00003851,-0.00018749,-0.00
 005407,-0.00007136,-0.00001261,0.00000191,-0.00003459,-0.00001728,0.00
 000520,-0.00000515,0.00000889,0.00000699,0.00000617,-0.00017993,0.0001
 5947,0.00011864,-0.18164000,-0.13960367,0.03112374,0.00053087,0.000412
 45,0.00024436,0.00003074,0.00003891,0.00002050,-0.00007070,0.00001351,
 -0.00013059,0.00005222,-0.00007450,-0.00007132,-0.00003247,0.00002416,
 0.00000244,0.00002006,-0.00000403,0.00001734,0.00000128,-0.00000217,-0
 .00000558,-0.00000557,-0.00000075,-0.00000569,0.00565674,0.00695402,-0
 .00190320,0.18677469,-0.00497103,-0.00750172,0.00278277,0.00010322,-0.
 00003689,-0.00065034,-0.00003666,-0.00014823,0.00001960,-0.00063095,-0
 .00013670,-0.00011622,0.00118871,0.00098750,0.00133845,0.00009903,0.00
 016537,-0.00091074,0.00001519,0.00002911,-0.00011429,0.00015782,-0.000
 04031,0.00002964,-0.00009206,0.00003228,0.00000959,0.00000814,-0.00011
 394,0.00007457,-0.00005143,-0.00028061,-0.00042723,0.00010004,0.000227
 13,-0.00052454,-0.00007195,-0.00009867,-0.00011902,-0.00011801,-0.0000
 4122,-0.00004855,0.00004791,0.00000471,0.00021010,0.00001271,-0.000021
 96,-0.00001892,-0.00000281,0.00003184,0.00000304,0.00000363,0.00002317
 ,-0.00000292,0.00004704,0.00027400,-0.00019648,0.00004854,0.00005627,0
 .00016613,0.00001757,-0.00001935,0.00004982,0.00000799,-0.00000189,0.0
 0000295,0.00000242,-0.00001293,-0.00000201,0.00007691,-0.00003215,-0.0
 0002460,-0.13651151,-0.19342388,0.03344614,-0.00082703,-0.00026566,0.0
 0039172,-0.00003816,-0.00012233,0.00006065,0.00023049,0.00003245,0.000
 22781,-0.00007626,0.00012055,0.00005398,0.00003356,-0.00002976,0.00001
 276,-0.00002311,-0.00000004,-0.00002442,-0.00000195,0.00000282,0.00000
 885,0.00000682,0.00000388,0.00000813,-0.01671055,-0.01461360,0.0047487
 3,0.14891798,0.20510439,0.02616384,0.02945391,-0.01129931,0.00060287,0
 .00108453,0.00133304,-0.00003796,0.00031784,0.00017050,0.00144649,0.00
 143981,-0.00032557,-0.00288444,-0.00137702,-0.00535485,0.00016456,-0.0
 0003930,-0.00072301,-0.00044687,0.00017102,-0.00011454,0.00012001,0.00
 000565,0.00002383,-0.00004778,-0.00000854,-0.00003018,0.00009747,-0.00
 009334,0.00003307,-0.00011753,-0.00071982,-0.00009435,-0.00029085,-0.0
 0010683,-0.00003737,0.00010469,-0.00015945,-0.00004199,0.00006494,-0.0
 0020064,-0.00005729,-0.00013692,-0.00000546,-0.00059895,0.00001332,0.0
 0000711,-0.00009751,-0.00002414,-0.00005597,-0.00003284,-0.00001185,-0
 .00004532,0.00003401,-0.00002621,0.00030218,-0.00007804,0.00006131,-0.
 00021021,-0.00012453,0.00004629,-0.00000706,0.00002370,0.00001412,0.00
 001171,0.00000993,0.00000167,0.00002476,0.00002067,-0.00000086,-0.0000
 1178,0.00001411,0.02213663,0.02436223,-0.05449836,0.00101880,-0.000074
 26,0.00091431,-0.00003530,-0.00000101,0.00000070,0.00000306,0.00018132
 ,0.00002269,-0.00013652,0.00011475,0.00001629,-0.00006015,0.00002689,-
 0.00000300,0.00003080,-0.00002589,-0.00000468,-0.00000201,0.00000792,0
 .00000041,-0.00000102,0.00000467,0.00001049,-0.01325153,-0.01184716,0.
 00444653,-0.03137918,-0.03732935,0.06505213,-0.00078461,-0.00015629,-0
 .00027716,0.00032363,-0.00011178,0.00079244,0.00029196,-0.00012128,0.0
 0005758,0.00021499,-0.00005011,0.00011293,0.00122621,-0.00041290,0.000
 74205,-0.00011846,-0.00009704,-0.00010126,0.00001880,0.00004500,-0.000
 04838,0.00011728,-0.00002039,0.00000618,0.00000689,0.00001875,0.000013
 24,0.00001374,-0.00004563,0.00004657,-0.00018810,0.00021180,-0.0000627
 2,-0.00021770,0.00016363,-0.00024980,-0.00008152,-0.00006490,-0.000064
 81,0.00026969,0.00041099,-0.00015055,-0.00001709,0.00000101,-0.0000644
 4,-0.00001744,0.00000476,0.00009982,-0.00002622,-0.00009691,0.00008887
 ,-0.00000288,0.00001545,-0.00005743,-0.00006997,-0.00003644,0.00001007
 ,0.00026568,-0.00039262,-0.00053040,0.00000198,-0.00002040,0.00001332,
 0.00001040,-0.00000513,0.00000182,-0.00000376,-0.00000350,-0.00000556,
 0.00010272,-0.00010853,-0.00004917,-0.28830431,0.08667593,-0.04824456,
 0.00150263,-0.00061888,0.00041890,0.00000800,-0.00008186,0.00003980,0.
 00017375,0.00007689,0.00013047,-0.00003121,0.00005001,0.00003319,0.000
 03845,-0.00002132,0.00000404,-0.00002453,0.00000454,-0.00001250,0.0000
 0076,0.00000140,0.00000520,0.00000525,0.00000185,0.00000156,-0.0034311
 1,-0.00065833,-0.00105204,-0.01518828,0.00903774,-0.00319976,0.3039143
 8,0.00961724,-0.00531264,0.00392074,-0.00114715,0.00046782,-0.00103131
 ,-0.00006099,0.00003025,-0.00014885,-0.00032163,0.00006679,0.00003613,
 0.00201721,0.00018189,-0.00016299,0.00008529,-0.00015240,-0.00003048,-
 0.00006450,-0.00005086,-0.00004944,0.00012607,0.00006771,0.00002495,0.
 00001375,-0.00001180,0.00001088,0.00000549,-0.00002700,0.00006229,-0.0
 0011076,0.00019771,0.00000081,0.00034765,-0.00007710,0.00003828,0.0000
 5568,0.00003872,-0.00000412,-0.00061278,-0.00021461,0.00044611,-0.0000
 2369,0.00000743,0.00005325,-0.00006257,-0.00003699,-0.00016083,-0.0000
 0652,-0.00004392,-0.00003464,0.00001130,-0.00002356,0.00002500,-0.0000
 2752,-0.00003867,0.00002836,0.00001950,0.00032452,-0.00011016,0.000006
 80,-0.00000176,-0.00000491,0.00001371,-0.00000361,-0.00000388,-0.00001
 159,-0.00000404,-0.00000352,0.00008047,-0.00010121,-0.00007208,0.08334
 181,-0.07936620,0.01680242,-0.00114208,0.00024193,0.00151278,-0.000002
 84,0.00007126,-0.00007964,-0.00008021,-0.00013714,0.00001844,-0.000003
 70,0.00001396,0.00001728,-0.00001461,0.00000647,-0.00000581,0.00001051
 ,-0.00000482,0.00000098,-0.00000148,0.00000157,-0.00000049,-0.00000155
 ,0.00000065,0.00000102,0.02232071,-0.00621785,0.00596648,-0.02078154,0
 .00984636,-0.00519791,-0.09359548,0.08026118,-0.03608264,0.01503603,-0
 .01605774,-0.00226181,0.00226021,0.00169328,0.00037944,-0.00008715,0.0
 0023999,0.00024348,-0.00013739,0.00020217,-0.00222335,-0.00145297,0.00
 111237,0.00026182,-0.00022295,-0.00001165,-0.00007078,0.00017248,-0.00
 007069,0.00008224,-0.00002285,0.00003359,-0.00000571,-0.00004214,0.000
 00584,-0.00000839,-0.00004263,0.00001367,-0.00006552,0.00007305,0.0000
 4638,-0.00099492,0.00043458,0.00044924,-0.00002501,-0.00008033,0.00001
 738,0.00088200,0.00028204,0.00011755,0.00002835,-0.00004574,-0.0000351
 6,0.00003934,-0.00006106,0.00013158,0.00001193,-0.00007812,0.00015589,
 0.00004085,0.00002288,-0.00005023,0.00025968,0.00009645,-0.00004191,0.
 00077644,-0.00076919,-0.00042763,0.00004761,-0.00001209,0.00004828,0.0
 0000962,-0.00000357,0.00000114,0.00000201,0.00000115,0.00000463,0.0000
 1447,-0.00006915,-0.00000795,-0.03736347,0.01348513,-0.05632841,0.0031
 3455,0.00031891,-0.00581026,-0.00026714,0.00005888,-0.00013308,-0.0000
 0153,0.00021177,0.00003950,-0.00002745,0.00002352,-0.00001467,-0.00001
 280,0.00000293,-0.00000843,0.00000638,-0.00000600,0.00000748,-0.000000
 08,0.00000218,-0.00000171,-0.00000327,0.00000120,-0.00000341,0.0171234
 8,-0.00434908,0.00512401,0.00451770,-0.00313580,0.00138994,0.05155249,
 -0.02186517,0.06816902\\0.00000043,0.00000829,0.00000495,0.00000303,-0
 .00000533,-0.00001543,-0.00000626,-0.00000448,0.00000760,0.00000760,0.
 00000176,-0.00000452,-0.00000581,-0.00000185,0.00000633,0.00000192,0.0
 0000074,0.00000126,0.00000105,0.00000047,0.00000353,0.00000135,0.00000
 206,-0.00000185,0.00000078,-0.00000530,0.00000142,-0.00000279,0.000000
 32,-0.00000082,-0.00000087,0.00000120,-0.00000153,0.00000582,-0.000000
 65,0.00000049,-0.00000705,-0.00000655,0.00000072,0.00000094,0.00000054
 ,-0.00000213,-0.00000070,-0.00000024,0.00000083,-0.00000096,-0.0000007
 9,0.00000102,-0.00000083,-0.00000021,-0.00000013,0.00000105,0.00000128
 ,0.00000034,0.00000096,0.00000005,-0.00000097,0.00000020,0.00000017,0.
 00000158,0.00000058,0.00000084,-0.00000108,-0.00000008,0.00000041,-0.0
 0000046,0.00000036,0.00000008,0.00000006,-0.00000008,-0.00000024,0.000
 00007,-0.00000203,-0.00000082,-0.00000084,0.00000032,0.00000138,0.0000
 0102,-0.00000327,0.00000005,0.00000060,-0.00000034,-0.00000052,-0.0000
 0185,0.00000419,0.00000175,-0.00000075,-0.00000318,0.00000812,-0.00000
 385,0.00000097,-0.00000181,0.00000651,0.00000303,-0.00000103,-0.000000
 91,-0.00000078,0.00000129,-0.00000203,0.00000023,-0.00000049,0.0000002
 0,-0.00000018,-0.00000032,-0.00000002,0.00000041,-0.00000019,0.0000006
 2\\\@


 NOTHING WILL BE ATTEMPTED IF ALL POSSIBLE OBJECTIONS
 MUST FIRST BE OVERCOME.

                               -- THE GOLDEN PRINCIPLE,
                    PAUL DICKSON'S "THE OFFICIAL RULES"
 Job cpu time:       0 days 23 hours 19 minutes 15.8 seconds.
 Elapsed time:       0 days  0 hours 50 minutes  4.3 seconds.
 File lengths (MBytes):  RWF=   1060 Int=      0 D2E=      0 Chk=     28 Scr=      8
 Normal termination of Gaussian 16 at Mon Jul 12 18:22:23 2021.
