 Entering Gaussian System, Link 0=g16
 Input=NicPyWa3h6wB97XDaVDZ130K.gjf
 Output=NicPyWa3h6wB97XDaVDZ130K.log
 Initial command:
 /sw/contrib/gaussian/g16/A03/g16/l1.exe "/gscratch/scrubbed/gds001/Gau-16304.inp" -scrdir="/gscratch/scrubbed/gds001/"
 Entering Link 1 = /sw/contrib/gaussian/g16/A03/g16/l1.exe PID=     16305.
  
 Copyright (c) 1988,1990,1992,1993,1995,1998,2003,2009,2016,
            Gaussian, Inc.  All Rights Reserved.
  
 This is part of the Gaussian(R) 16 program.  It is based on
 the Gaussian(R) 09 system (copyright 2009, Gaussian, Inc.),
 the Gaussian(R) 03 system (copyright 2003, Gaussian, Inc.),
 the Gaussian(R) 98 system (copyright 1998, Gaussian, Inc.),
 the Gaussian(R) 94 system (copyright 1995, Gaussian, Inc.),
 the Gaussian 92(TM) system (copyright 1992, Gaussian, Inc.),
 the Gaussian 90(TM) system (copyright 1990, Gaussian, Inc.),
 the Gaussian 88(TM) system (copyright 1988, Gaussian, Inc.),
 the Gaussian 86(TM) system (copyright 1986, Carnegie Mellon
 University), and the Gaussian 82(TM) system (copyright 1983,
 Carnegie Mellon University). Gaussian is a federally registered
 trademark of Gaussian, Inc.
  
 This software contains proprietary and confidential information,
 including trade secrets, belonging to Gaussian, Inc.
  
 This software is provided under written license and may be
 used, copied, transmitted, or stored only in accord with that
 written license.
  
 The following legend is applicable only to US Government
 contracts under FAR:
  
                    RESTRICTED RIGHTS LEGEND
  
 Use, reproduction and disclosure by the US Government is
 subject to restrictions as set forth in subparagraphs (a)
 and (c) of the Commercial Computer Software - Restricted
 Rights clause in FAR 52.227-19.
  
 Gaussian, Inc.
 340 Quinnipiac St., Bldg. 40, Wallingford CT 06492
  
  
 ---------------------------------------------------------------
 Warning -- This program may not be used in any manner that
 competes with the business of Gaussian, Inc. or will provide
 assistance to any competitor of Gaussian, Inc.  The licensee
 of this program is prohibited from giving any competitor of
 Gaussian, Inc. access to this program.  By using this program,
 the user acknowledges that Gaussian, Inc. is engaged in the
 business of creating and licensing software in the field of
 computational chemistry and represents and warrants to the
 licensee that it is not a competitor of Gaussian, Inc. and that
 it will not use this program in any manner prohibited above.
 ---------------------------------------------------------------
  

 Cite this work as:
 Gaussian 16, Revision A.03,
 M. J. Frisch, G. W. Trucks, H. B. Schlegel, G. E. Scuseria, 
 M. A. Robb, J. R. Cheeseman, G. Scalmani, V. Barone, 
 G. A. Petersson, H. Nakatsuji, X. Li, M. Caricato, A. V. Marenich, 
 J. Bloino, B. G. Janesko, R. Gomperts, B. Mennucci, H. P. Hratchian, 
 J. V. Ortiz, A. F. Izmaylov, J. L. Sonnenberg, D. Williams-Young, 
 F. Ding, F. Lipparini, F. Egidi, J. Goings, B. Peng, A. Petrone, 
 T. Henderson, D. Ranasinghe, V. G. Zakrzewski, J. Gao, N. Rega, 
 G. Zheng, W. Liang, M. Hada, M. Ehara, K. Toyota, R. Fukuda, 
 J. Hasegawa, M. Ishida, T. Nakajima, Y. Honda, O. Kitao, H. Nakai, 
 T. Vreven, K. Throssell, J. A. Montgomery, Jr., J. E. Peralta, 
 F. Ogliaro, M. J. Bearpark, J. J. Heyd, E. N. Brothers, K. N. Kudin, 
 V. N. Staroverov, T. A. Keith, R. Kobayashi, J. Normand, 
 K. Raghavachari, A. P. Rendell, J. C. Burant, S. S. Iyengar, 
 J. Tomasi, M. Cossi, J. M. Millam, M. Klene, C. Adamo, R. Cammi, 
 J. W. Ochterski, R. L. Martin, K. Morokuma, O. Farkas, 
 J. B. Foresman, and D. J. Fox, Gaussian, Inc., Wallingford CT, 2016.
 
 ******************************************
 Gaussian 16:  ES64L-G16RevA.03 25-Dec-2016
                27-Aug-2020 
 ******************************************
 %nprocshared=28
 Will use up to   28 processors via shared memory.
 %mem=41GB
 %chk=NicPyWa3h6.chk
 -----------------------------------------
 # wB97XD/aug-cc-pVDZ Temperature=130 Freq
 -----------------------------------------
 1/10=4,30=1,38=1,112=130000/1,3;
 2/12=2,17=6,18=5,40=1/2;
 3/5=16,7=10,11=2,25=1,30=1,71=2,74=-58,140=1/1,2,3;
 4//1;
 5/5=2,38=5,98=1/2;
 8/6=4,10=90,11=11/1;
 11/6=1,8=1,9=11,15=111,16=1/1,2,10;
 10/6=1/2;
 6/7=2,8=2,9=2,10=2,28=1/1;
 7/8=1,10=1,25=1/1,2,3,16;
 1/10=4,30=1/3;
 99//99;
 ---------------------------
 p-Py Nicotine, W anti, 3H2O
 ---------------------------
 Symbolic Z-matrix:
 Charge =  1 Multiplicity = 1
 N                    -1.84945   0.31406   0.62018 
 C                    -1.52055  -0.94738  -0.05678 
 C                    -2.08519  -0.74608  -1.47544 
 C                    -3.27347   0.22479  -1.27449 
 C                    -3.2439    0.56268   0.22208 
 C                    -0.04989  -1.2879   -0.01094 
 C                     0.91295  -0.36374  -0.40093 
 N                     2.21444  -0.67776  -0.36307 
 C                     2.66596  -1.87763   0.03335 
 C                     1.76239  -2.84771   0.42256 
 C                     0.40066  -2.54274   0.40543 
 O                     3.70597   1.45936  -0.74959 
 O                    -0.45024   2.49686  -0.37089 
 H                    -3.52291   1.59878   0.44931 
 H                    -4.2292   -0.22551  -1.55995 
 H                    -3.14064   1.12533  -1.88404 
 H                    -2.37921  -1.70209  -1.92106 
 H                    -1.32159  -0.30102  -2.12496 
 H                    -3.92345  -0.09997   0.78823 
 H                    -2.06699  -1.77599   0.43487 
 H                     0.67476   0.64316  -0.74044 
 H                     3.74393  -2.01848   0.0314 
 H                     2.11982  -3.82257   0.74516 
 H                    -0.32205  -3.29397   0.72519 
 C                    -1.66192   0.27437   2.06623 
 H                     2.89376   0.08856  -0.62308 
 H                    -1.01897   1.77152  -0.00468 
 H                    -1.02977   3.18173  -0.71096 
 H                     3.19262   2.11272  -0.22219 
 H                     4.07444   1.91235  -1.51091 
 O                     1.98131   2.73759   0.81077 
 H                     2.11563   3.45845   1.42945 
 H                     1.07629   2.8275    0.45073 
 H                    -1.97273   1.23207   2.499 
 H                    -0.60215   0.12247   2.30555 
 H                    -2.25508  -0.53156   2.53476 
 

 GradGradGradGradGradGradGradGradGradGradGradGradGradGradGradGradGradGrad
 Berny optimization.
 Initialization pass.
 Trust Radius=3.00D-01 FncErr=1.00D-07 GrdErr=1.00D-07 EigMax=2.50D+02 EigMin=1.00D-04
 Number of steps in this run=      2 maximum allowed number of steps=      2.
 GradGradGradGradGradGradGradGradGradGradGradGradGradGradGradGradGradGrad

                          Input orientation:                          
 ---------------------------------------------------------------------
 Center     Atomic      Atomic             Coordinates (Angstroms)
 Number     Number       Type             X           Y           Z
 ---------------------------------------------------------------------
      1          7           0       -1.849449    0.314064    0.620184
      2          6           0       -1.520545   -0.947381   -0.056776
      3          6           0       -2.085190   -0.746077   -1.475440
      4          6           0       -3.273471    0.224794   -1.274489
      5          6           0       -3.243904    0.562681    0.222076
      6          6           0       -0.049892   -1.287898   -0.010935
      7          6           0        0.912948   -0.363743   -0.400925
      8          7           0        2.214443   -0.677764   -0.363069
      9          6           0        2.665964   -1.877626    0.033348
     10          6           0        1.762393   -2.847709    0.422559
     11          6           0        0.400660   -2.542741    0.405428
     12          8           0        3.705968    1.459355   -0.749585
     13          8           0       -0.450239    2.496856   -0.370890
     14          1           0       -3.522911    1.598775    0.449311
     15          1           0       -4.229200   -0.225513   -1.559951
     16          1           0       -3.140644    1.125329   -1.884040
     17          1           0       -2.379214   -1.702094   -1.921055
     18          1           0       -1.321590   -0.301020   -2.124963
     19          1           0       -3.923452   -0.099969    0.788232
     20          1           0       -2.066995   -1.775991    0.434872
     21          1           0        0.674759    0.643158   -0.740444
     22          1           0        3.743934   -2.018475    0.031399
     23          1           0        2.119815   -3.822569    0.745159
     24          1           0       -0.322049   -3.293966    0.725189
     25          6           0       -1.661920    0.274369    2.066233
     26          1           0        2.893757    0.088564   -0.623077
     27          1           0       -1.018966    1.771520   -0.004678
     28          1           0       -1.029768    3.181732   -0.710959
     29          1           0        3.192621    2.112716   -0.222192
     30          1           0        4.074444    1.912352   -1.510908
     31          8           0        1.981307    2.737590    0.810768
     32          1           0        2.115626    3.458452    1.429450
     33          1           0        1.076286    2.827497    0.450726
     34          1           0       -1.972725    1.232071    2.498997
     35          1           0       -0.602146    0.122467    2.305550
     36          1           0       -2.255082   -0.531561    2.534763
 ---------------------------------------------------------------------
                    Distance matrix (angstroms):
                    1          2          3          4          5
     1  N    0.000000
     2  C    1.468910   0.000000
     3  C    2.360320   1.540115   0.000000
     4  C    2.371833   2.435071   1.547573   0.000000
     5  C    1.471328   2.308249   2.436601   1.534519   0.000000
     6  C    2.490582   1.510256   2.565304   3.778395   3.698736
     7  C    3.022073   2.526056   3.207740   4.316896   4.304162
     8  N    4.297177   3.757212   4.441720   5.635823   5.628024
     9  C    5.053398   4.289561   5.111781   6.434866   6.396660
    10  C    4.804297   3.823440   4.777358   6.138418   6.060855
    11  C    3.642862   2.539652   3.597932   4.897000   4.791671
    12  O    5.835291   5.795585   6.239255   7.107196   7.074523
    13  O    2.775716   3.620358   3.796012   3.734889   3.449233
    14  H    2.116638   3.278491   3.357088   2.218452   1.096801
    15  H    3.272208   3.180792   2.207919   1.094387   2.183501
    16  H    2.931974   3.203083   2.187029   1.095518   2.182421
    17  H    3.286859   2.186879   1.094985   2.220505   3.235723
    18  H    2.862306   2.175951   1.096832   2.193086   3.154340
    19  H    2.121592   2.684419   2.986783   2.186953   1.105180
    20  H    2.109502   1.107664   2.170333   2.894934   2.626744
    21  H    2.886388   2.795814   3.176084   4.006089   4.035944
    22  H    6.088788   5.373058   6.153718   7.482083   7.451752
    23  H    5.734318   4.707656   5.663738   7.039010   6.947914
    24  H    3.919421   2.748513   3.800417   5.009119   4.864575
    25  C    1.458698   2.453534   3.709975   3.709444   2.446776
    26  H    4.908620   4.569457   5.119869   6.203031   6.213691
    27  H    1.790065   2.765270   3.104556   3.014560   2.542255
    28  H    3.266089   4.209322   4.138361   3.754364   3.554206
    29  H    5.419153   5.621876   6.131771   6.817765   6.635423
    30  H    6.495274   6.449533   6.708919   7.542917   7.640881
    31  O    4.537014   5.156996   5.822292   6.186690   5.690309
    32  H    5.124832   5.902709   6.615384   6.841798   6.210298
    33  H    3.860827   4.609858   5.145433   5.354514   4.883207
    34  H    2.094725   3.389167   4.440931   4.116521   2.692276
    35  H    2.105453   2.751112   4.153273   4.468012   3.393160
    36  H    2.131955   2.725532   4.019528   4.014921   2.742928
                    6          7          8          9         10
     6  C    0.000000
     7  C    1.390401   0.000000
     8  N    2.371387   1.339377   0.000000
     9  C    2.779499   2.356586   1.341897   0.000000
    10  C    2.430083   2.751321   2.351642   1.381661   0.000000
    11  C    1.396777   2.379218   2.712662   2.390068   1.395570
    12  O    4.711633   3.353537   2.634638   3.581904   4.868491
    13  O    3.822853   3.168944   4.144732   5.386114   5.838637
    14  H    4.539446   4.924553   6.225739   7.110595   6.906980
    15  H    4.582000   5.272963   6.569444   7.267143   6.834138
    16  H    4.345680   4.566024   5.851620   6.812548   6.719018
    17  H    3.040700   3.865270   4.957646   5.413347   4.894678
    18  H    2.657115   2.823013   3.968594   4.800477   4.741987
    19  H    4.129686   4.987428   6.271610   6.866609   6.325553
    20  H    2.122659   3.401920   4.491495   4.751047   3.976549
    21  H    2.187757   1.088971   2.063462   3.304240   3.836884
    22  H    3.863761   3.307495   2.071824   1.087135   2.183378
    23  H    3.421091   3.838426   3.335704   2.141905   1.087278
    24  H    2.154126   3.373360   3.802974   3.378296   2.153051
    25  C    3.058421   3.622706   4.672714   5.243499   4.916803
    26  H    3.306726   2.043902   1.056565   2.085350   3.315877
    27  H    3.209234   2.906656   4.072146   5.186176   5.408860
    28  H    4.629015   4.054708   5.053874   6.309479   6.740563
    29  H    4.703477   3.370713   2.960314   4.033051   5.202602
    30  H    5.431544   4.050645   3.389076   4.328103   5.634009
    31  O    4.583178   3.496835   3.618962   4.730048   5.603052
    32  H    5.412210   4.405211   4.509010   5.543077   6.395801
    33  H    4.291606   3.306963   3.774191   4.983920   5.716599
    34  H    4.043178   4.391273   5.419526   6.104677   5.908241
    35  H    2.767710   3.139573   3.961700   4.454640   4.237764
    36  H    3.451882   4.322365   5.328739   5.682047   5.095690
                   11         12         13         14         15
    11  C    0.000000
    12  O    5.317508   0.000000
    13  O    5.169549   4.300451   0.000000
    14  H    5.705128   7.328948   3.304632   0.000000
    15  H    5.537857   8.152445   4.806839   2.804283   0.000000
    16  H    5.589028   6.947997   3.377719   2.411391   1.764869
    17  H    3.721144   6.956762   4.873924   4.221660   2.394397
    18  H    3.793987   5.501538   3.415280   3.883545   2.962961
    19  H    4.981126   7.937532   4.488905   1.777929   2.371330
    20  H    2.584201   6.722909   4.639006   3.675452   3.325422
    21  H    3.396779   3.139186   2.199633   4.466448   5.047276
    22  H    3.404737   3.564643   6.175851   8.128111   8.325742
    23  H    2.169993   5.713918   6.912733   7.830636   7.652603
    24  H    1.090364   6.402651   5.895035   5.853250   5.468372
    25  C    3.866344   6.176346   3.513857   2.798531   4.471020
    26  H    3.767907   1.598361   4.128653   6.678651   7.191168
    27  H    4.560304   4.793468   0.991803   2.550625   4.088107
    28  H    6.005167   5.039372   0.959456   3.172970   4.750418
    29  H    5.464635   0.984149   3.666075   6.768561   7.895590
    30  H    6.084150   0.959476   4.702557   7.852426   8.574577
    31  O    5.526721   2.653873   2.714164   5.632403   7.278096
    32  H    6.324875   3.357644   3.278651   6.017655   7.922432
    33  H    5.412761   3.198091   1.764838   4.760501   6.442971
    34  H    4.925971   6.546182   3.486244   2.595912   4.867370
    35  H    3.423363   5.448024   3.581079   3.762443   5.312128
    36  H    3.953717   7.091178   4.568543   3.239573   4.556039
                   16         17         18         19         20
    16  H    0.000000
    17  H    2.928390   0.000000
    18  H    2.324107   1.767245   0.000000
    19  H    3.042233   3.505954   3.911114   0.000000
    20  H    3.866230   2.377674   3.046953   2.525935   0.000000
    21  H    4.012182   4.027505   2.606487   4.902309   3.840685
    22  H    7.807037   6.434681   5.767069   7.939916   5.829964
    23  H    7.685494   5.643259   5.699314   7.097935   4.670561
    24  H    5.855145   3.710605   4.252079   4.814114   2.330959
    25  C    4.302954   4.507703   4.244175   2.624489   2.651302
    26  H    6.251312   5.717991   4.491836   6.964314   5.404154
    27  H    2.907074   4.193897   2.980371   3.545027   3.725104
    28  H    3.171862   5.209328   3.770163   4.624991   5.193052
    29  H    6.621700   6.963064   5.461205   7.520334   6.573989
    30  H    7.267471   7.408248   5.864577   8.561648   7.423423
    31  O    6.007975   6.796160   5.362909   6.551216   6.074740
    32  H    6.637097   7.619758   6.211436   7.038749   6.773692
    33  H    5.111850   6.171144   4.708673   5.803563   5.574277
    34  H    4.537228   5.320847   4.914809   2.916570   3.649375
    35  H    5.000237   4.934692   4.508479   3.658252   3.041276
    36  H    4.801596   4.608673   4.757899   2.453589   2.448168
                   21         22         23         24         25
    21  H    0.000000
    22  H    4.135199   0.000000
    23  H    4.923202   2.530212   0.000000
    24  H    4.317714   4.317458   2.498503   0.000000
    25  C    3.670628   6.214575   5.729892   4.040627   0.000000
    26  H    2.290262   2.364477   4.215213   4.858059   5.293496
    27  H    2.164083   6.086919   6.458176   5.165031   2.635057
    28  H    3.057882   7.097991   7.816674   6.670686   4.070033
    29  H    2.961050   4.175523   6.108542   6.517871   5.673004
    30  H    3.709761   4.235487   6.465271   7.171822   6.955918
    31  O    2.915471   5.131708   6.561949   6.456968   4.573484
    32  H    3.835416   5.882403   7.313107   7.213417   4.981338
    33  H    2.520208   5.547578   6.737880   6.285140   4.077511
    34  H    4.224922   7.023908   6.736039   5.133823   1.095937
    35  H    3.343604   5.351991   5.040556   3.774654   1.097027
    36  H    4.548727   6.668278   5.759613   3.826494   1.104937
                   26         27         28         29         30
    26  H    0.000000
    27  H    4.303970   0.000000
    28  H    4.996945   1.577228   0.000000
    29  H    2.084999   4.230980   4.382951   0.000000
    30  H    2.347013   5.313322   5.320171   1.574340   0.000000
    31  O    3.147351   3.255746   3.402865   1.710192   3.233020
    32  H    4.021753   3.837725   3.814633   2.387225   3.856566
    33  H    3.458035   2.390096   2.431143   2.332939   3.697898
    34  H    5.893861   2.732956   3.872230   5.904338   7.287686
    35  H    4.560630   2.868844   4.317556   4.975020   6.295993
    36  H    6.071824   3.644300   5.081796   6.653606   7.899561
                   31         32         33         34         35
    31  O    0.000000
    32  H    0.959401   0.000000
    33  H    0.978150   1.560844   0.000000
    34  H    4.555335   4.776538   4.004656   0.000000
    35  H    3.968308   4.391199   3.684385   1.774015   0.000000
    36  H    5.621966   6.020383   5.169574   1.786450   1.792342
                   36
    36  H    0.000000
 Stoichiometry    C10H21N2O3(1+)
 Framework group  C1[X(C10H21N2O3)]
 Deg. of freedom   102
 Full point group                 C1      NOp   1
 Largest Abelian subgroup         C1      NOp   1
 Largest concise Abelian subgroup C1      NOp   1
                         Standard orientation:                         
 ---------------------------------------------------------------------
 Center     Atomic      Atomic             Coordinates (Angstroms)
 Number     Number       Type             X           Y           Z
 ---------------------------------------------------------------------
      1          7           0       -1.849449    0.314064    0.620184
      2          6           0       -1.520545   -0.947381   -0.056776
      3          6           0       -2.085190   -0.746077   -1.475440
      4          6           0       -3.273471    0.224794   -1.274489
      5          6           0       -3.243904    0.562681    0.222076
      6          6           0       -0.049892   -1.287898   -0.010935
      7          6           0        0.912948   -0.363743   -0.400925
      8          7           0        2.214443   -0.677764   -0.363069
      9          6           0        2.665964   -1.877626    0.033348
     10          6           0        1.762393   -2.847709    0.422559
     11          6           0        0.400660   -2.542741    0.405428
     12          8           0        3.705968    1.459355   -0.749585
     13          8           0       -0.450239    2.496856   -0.370890
     14          1           0       -3.522911    1.598775    0.449311
     15          1           0       -4.229200   -0.225513   -1.559951
     16          1           0       -3.140644    1.125329   -1.884040
     17          1           0       -2.379214   -1.702094   -1.921055
     18          1           0       -1.321590   -0.301020   -2.124963
     19          1           0       -3.923452   -0.099969    0.788232
     20          1           0       -2.066995   -1.775991    0.434872
     21          1           0        0.674759    0.643158   -0.740444
     22          1           0        3.743934   -2.018475    0.031399
     23          1           0        2.119815   -3.822569    0.745159
     24          1           0       -0.322049   -3.293966    0.725189
     25          6           0       -1.661920    0.274369    2.066233
     26          1           0        2.893757    0.088564   -0.623077
     27          1           0       -1.018966    1.771520   -0.004678
     28          1           0       -1.029768    3.181732   -0.710959
     29          1           0        3.192621    2.112716   -0.222192
     30          1           0        4.074444    1.912352   -1.510908
     31          8           0        1.981307    2.737590    0.810768
     32          1           0        2.115626    3.458452    1.429450
     33          1           0        1.076286    2.827497    0.450726
     34          1           0       -1.972725    1.232071    2.498997
     35          1           0       -0.602146    0.122467    2.305550
     36          1           0       -2.255082   -0.531561    2.534763
 ---------------------------------------------------------------------
 Rotational constants (GHZ):           0.6482990           0.4152039           0.3061789
 Standard basis: Aug-CC-pVDZ (5D, 7F)
 There are   564 symmetry adapted cartesian basis functions of A   symmetry.
 There are   534 symmetry adapted basis functions of A   symmetry.
   534 basis functions,   876 primitive gaussians,   564 cartesian basis functions
    59 alpha electrons       59 beta electrons
       nuclear repulsion energy      1106.3151428384 Hartrees.
 NAtoms=   36 NActive=   36 NUniq=   36 SFac= 1.00D+00 NAtFMM=   60 NAOKFM=F Big=F
 Integral buffers will be    131072 words long.
 Raffenetti 2 integral format.
 Two-electron integral symmetry is turned on.
 Nuclear repulsion after empirical dispersion term =     1106.2865412556 Hartrees.
 One-electron integrals computed using PRISM.
 NBasis=   534 RedAO= T EigKep=  1.95D-06  NBF=   534
 NBsUse=   534 1.00D-06 EigRej= -1.00D+00 NBFU=   534
 ExpMin= 2.97D-02 ExpMax= 1.17D+04 ExpMxC= 4.01D+02 IAcc=3 IRadAn=         5 AccDes= 0.00D+00
 Harris functional with IExCor= 4639 and IRadAn=       5 diagonalized for initial guess.
 HarFok:  IExCor= 4639 AccDes= 0.00D+00 IRadAn=         5 IDoV= 1 UseB2=F ITyADJ=14
 ICtDFT=  3500011 ScaDFX=  1.000000  1.000000  1.000000  1.000000
 FoFCou: FMM=F IPFlag=           0 FMFlag=      100000 FMFlg1=           0
         NFxFlg=           0 DoJE=T BraDBF=F KetDBF=T FulRan=T
         wScrn=  0.000000 ICntrl=       500 IOpCl=  0 I1Cent=   200000004 NGrid=           0
         NMat0=    1 NMatS0=      1 NMatT0=    0 NMatD0=    1 NMtDS0=    0 NMtDT0=    0
 Petite list used in FoFCou.
 Requested convergence on RMS density matrix=1.00D-08 within 128 cycles.
 Requested convergence on MAX density matrix=1.00D-06.
 Requested convergence on             energy=1.00D-06.
 No special actions if energy rises.
 SCF Done:  E(RwB97XD) =  -728.598495378     A.U. after   16 cycles
            NFock= 16  Conv=0.16D-08     -V/T= 2.0063
 DoSCS=F DFT=T ScalE2(SS,OS)=  1.000000  1.000000
 Range of M.O.s used for correlation:     1   534
 NBasis=   534 NAE=    59 NBE=    59 NFC=     0 NFV=     0
 NROrb=    534 NOA=    59 NOB=    59 NVA=   475 NVB=   475

 **** Warning!!: The largest alpha MO coefficient is  0.94999388D+02

 Symmetrizing basis deriv contribution to polar:
 IMax=3 JMax=2 DiffMx= 0.00D+00
 G2DrvN: will do    37 centers at a time, making    1 passes.
 Calling FoFCou, ICntrl=  3107 FMM=F I1Cent=   0 AccDes= 0.00D+00.
 End of G2Drv F.D. properties file   721 does not exist.
 End of G2Drv F.D. properties file   722 does not exist.
 End of G2Drv F.D. properties file   788 does not exist.
          IDoAtm=111111111111111111111111111111111111
          Differentiating once with respect to electric field.
                with respect to dipole field.
          Differentiating once with respect to nuclear coordinates.
 CalDSu exits because no D1Ps are significant.
          There are   111 degrees of freedom in the 1st order CPHF.  IDoFFX=6 NUNeed=     3.
    108 vectors produced by pass  0 Test12= 2.80D-14 1.00D-09 XBig12= 7.42D+01 3.36D+00.
 AX will form   108 AO Fock derivatives at one time.
    108 vectors produced by pass  1 Test12= 2.80D-14 1.00D-09 XBig12= 8.84D+00 6.19D-01.
    108 vectors produced by pass  2 Test12= 2.80D-14 1.00D-09 XBig12= 2.10D-01 5.99D-02.
    108 vectors produced by pass  3 Test12= 2.80D-14 1.00D-09 XBig12= 2.07D-03 3.52D-03.
    108 vectors produced by pass  4 Test12= 2.80D-14 1.00D-09 XBig12= 1.85D-05 3.48D-04.
    108 vectors produced by pass  5 Test12= 2.80D-14 1.00D-09 XBig12= 1.17D-07 2.17D-05.
    108 vectors produced by pass  6 Test12= 2.80D-14 1.00D-09 XBig12= 6.76D-10 1.48D-06.
     41 vectors produced by pass  7 Test12= 2.80D-14 1.00D-09 XBig12= 3.57D-12 1.21D-07.
      3 vectors produced by pass  8 Test12= 2.80D-14 1.00D-09 XBig12= 2.10D-14 9.60D-09.
      3 vectors produced by pass  9 Test12= 2.80D-14 1.00D-09 XBig12= 2.28D-15 4.02D-09.
 InvSVY:  IOpt=1 It=  1 EMax= 3.98D-15
 Solved reduced A of dimension   803 with   111 vectors.
 Isotropic polarizability for W=    0.000000      152.71 Bohr**3.
 End of Minotr F.D. properties file   721 does not exist.
 End of Minotr F.D. properties file   722 does not exist.
 End of Minotr F.D. properties file   788 does not exist.

 **********************************************************************

            Population analysis using the SCF density.

 **********************************************************************

 Orbital symmetries:
       Occupied  (A) (A) (A) (A) (A) (A) (A) (A) (A) (A) (A) (A)
                 (A) (A) (A) (A) (A) (A) (A) (A) (A) (A) (A) (A)
                 (A) (A) (A) (A) (A) (A) (A) (A) (A) (A) (A) (A)
                 (A) (A) (A) (A) (A) (A) (A) (A) (A) (A) (A) (A)
                 (A) (A) (A) (A) (A) (A) (A) (A) (A) (A) (A)
       Virtual   (A) (A) (A) (A) (A) (A) (A) (A) (A) (A) (A) (A)
                 (A) (A) (A) (A) (A) (A) (A) (A) (A) (A) (A) (A)
                 (A) (A) (A) (A) (A) (A) (A) (A) (A) (A) (A) (A)
                 (A) (A) (A) (A) (A) (A) (A) (A) (A) (A) (A) (A)
                 (A) (A) (A) (A) (A) (A) (A) (A) (A) (A) (A) (A)
                 (A) (A) (A) (A) (A) (A) (A) (A) (A) (A) (A) (A)
                 (A) (A) (A) (A) (A) (A) (A) (A) (A) (A) (A) (A)
                 (A) (A) (A) (A) (A) (A) (A) (A) (A) (A) (A) (A)
                 (A) (A) (A) (A) (A) (A) (A) (A) (A) (A) (A) (A)
                 (A) (A) (A) (A) (A) (A) (A) (A) (A) (A) (A) (A)
                 (A) (A) (A) (A) (A) (A) (A) (A) (A) (A) (A) (A)
                 (A) (A) (A) (A) (A) (A) (A) (A) (A) (A) (A) (A)
                 (A) (A) (A) (A) (A) (A) (A) (A) (A) (A) (A) (A)
                 (A) (A) (A) (A) (A) (A) (A) (A) (A) (A) (A) (A)
                 (A) (A) (A) (A) (A) (A) (A) (A) (A) (A) (A) (A)
                 (A) (A) (A) (A) (A) (A) (A) (A) (A) (A) (A) (A)
                 (A) (A) (A) (A) (A) (A) (A) (A) (A) (A) (A) (A)
                 (A) (A) (A) (A) (A) (A) (A) (A) (A) (A) (A) (A)
                 (A) (A) (A) (A) (A) (A) (A) (A) (A) (A) (A) (A)
                 (A) (A) (A) (A) (A) (A) (A) (A) (A) (A) (A) (A)
                 (A) (A) (A) (A) (A) (A) (A) (A) (A) (A) (A) (A)
                 (A) (A) (A) (A) (A) (A) (A) (A) (A) (A) (A) (A)
                 (A) (A) (A) (A) (A) (A) (A) (A) (A) (A) (A) (A)
                 (A) (A) (A) (A) (A) (A) (A) (A) (A) (A) (A) (A)
                 (A) (A) (A) (A) (A) (A) (A) (A) (A) (A) (A) (A)
                 (A) (A) (A) (A) (A) (A) (A) (A) (A) (A) (A) (A)
                 (A) (A) (A) (A) (A) (A) (A) (A) (A) (A) (A) (A)
                 (A) (A) (A) (A) (A) (A) (A) (A) (A) (A) (A) (A)
                 (A) (A) (A) (A) (A) (A) (A) (A) (A) (A) (A) (A)
                 (A) (A) (A) (A) (A) (A) (A) (A) (A) (A) (A) (A)
                 (A) (A) (A) (A) (A) (A) (A) (A) (A) (A) (A) (A)
                 (A) (A) (A) (A) (A) (A) (A) (A) (A) (A) (A) (A)
                 (A) (A) (A) (A) (A) (A) (A) (A) (A) (A) (A) (A)
                 (A) (A) (A) (A) (A) (A) (A) (A) (A) (A) (A) (A)
                 (A) (A) (A) (A) (A) (A) (A) (A) (A) (A) (A) (A)
                 (A) (A) (A) (A) (A) (A) (A) (A) (A) (A) (A) (A)
                 (A) (A) (A) (A) (A) (A) (A) (A) (A) (A) (A) (A)
                 (A) (A) (A) (A) (A) (A) (A) (A) (A) (A) (A) (A)
                 (A) (A) (A) (A) (A) (A) (A) (A) (A) (A) (A) (A)
                 (A) (A) (A) (A) (A) (A) (A)
 The electronic state is 1-A.
 Alpha  occ. eigenvalues --  -19.39547 -19.39036 -19.38597 -14.67855 -14.58657
 Alpha  occ. eigenvalues --  -10.51370 -10.50934 -10.48208 -10.47706 -10.47225
 Alpha  occ. eigenvalues --  -10.46935 -10.43941 -10.43590 -10.42032 -10.41103
 Alpha  occ. eigenvalues --   -1.26262  -1.24202  -1.23442  -1.22141  -1.18036
 Alpha  occ. eigenvalues --   -1.08704  -1.05074  -1.01065  -0.96425  -0.90997
 Alpha  occ. eigenvalues --   -0.90161  -0.89243  -0.83013  -0.80299  -0.80109
 Alpha  occ. eigenvalues --   -0.75679  -0.75178  -0.75064  -0.74240  -0.73602
 Alpha  occ. eigenvalues --   -0.71529  -0.70136  -0.69104  -0.68295  -0.66138
 Alpha  occ. eigenvalues --   -0.64960  -0.64298  -0.63215  -0.62163  -0.61601
 Alpha  occ. eigenvalues --   -0.59396  -0.58935  -0.57942  -0.57794  -0.56934
 Alpha  occ. eigenvalues --   -0.56186  -0.54500  -0.53730  -0.53277  -0.52757
 Alpha  occ. eigenvalues --   -0.52502  -0.51936  -0.49745  -0.45071
 Alpha virt. eigenvalues --   -0.14247  -0.11380  -0.06575  -0.05636  -0.05069
 Alpha virt. eigenvalues --   -0.04471  -0.03798  -0.03248  -0.03141  -0.02741
 Alpha virt. eigenvalues --   -0.02142  -0.01610  -0.01076  -0.00732  -0.00423
 Alpha virt. eigenvalues --    0.00017   0.00249   0.00973   0.01210   0.01534
 Alpha virt. eigenvalues --    0.01640   0.02159   0.02403   0.02702   0.02968
 Alpha virt. eigenvalues --    0.03277   0.03550   0.04020   0.04408   0.04939
 Alpha virt. eigenvalues --    0.05123   0.05141   0.05237   0.05866   0.06219
 Alpha virt. eigenvalues --    0.06494   0.06638   0.06740   0.07052   0.07298
 Alpha virt. eigenvalues --    0.07496   0.08175   0.08256   0.08595   0.08709
 Alpha virt. eigenvalues --    0.09247   0.09993   0.10105   0.10405   0.10504
 Alpha virt. eigenvalues --    0.10844   0.11178   0.11456   0.11845   0.12087
 Alpha virt. eigenvalues --    0.12871   0.12995   0.13255   0.13532   0.13676
 Alpha virt. eigenvalues --    0.14359   0.14864   0.14923   0.15392   0.15423
 Alpha virt. eigenvalues --    0.15774   0.16256   0.16458   0.16612   0.16972
 Alpha virt. eigenvalues --    0.17275   0.17371   0.17723   0.18016   0.18353
 Alpha virt. eigenvalues --    0.18581   0.18808   0.19035   0.19544   0.19591
 Alpha virt. eigenvalues --    0.20119   0.20322   0.20923   0.21457   0.21645
 Alpha virt. eigenvalues --    0.22052   0.22264   0.22619   0.23251   0.23773
 Alpha virt. eigenvalues --    0.23988   0.24292   0.24663   0.25027   0.25248
 Alpha virt. eigenvalues --    0.25702   0.25873   0.26160   0.26550   0.26762
 Alpha virt. eigenvalues --    0.27227   0.27827   0.28066   0.28796   0.29324
 Alpha virt. eigenvalues --    0.29783   0.30418   0.30737   0.30812   0.31199
 Alpha virt. eigenvalues --    0.31562   0.32389   0.32600   0.32814   0.33247
 Alpha virt. eigenvalues --    0.33770   0.34170   0.34854   0.35165   0.35529
 Alpha virt. eigenvalues --    0.36201   0.36257   0.36390   0.37027   0.37628
 Alpha virt. eigenvalues --    0.37847   0.38503   0.38739   0.39080   0.39858
 Alpha virt. eigenvalues --    0.40087   0.40535   0.40974   0.41741   0.41941
 Alpha virt. eigenvalues --    0.42505   0.42981   0.43761   0.43796   0.44293
 Alpha virt. eigenvalues --    0.44875   0.45158   0.45585   0.45812   0.46118
 Alpha virt. eigenvalues --    0.46692   0.46976   0.47425   0.48134   0.48453
 Alpha virt. eigenvalues --    0.49060   0.49135   0.49602   0.50139   0.50632
 Alpha virt. eigenvalues --    0.50657   0.51112   0.51632   0.51704   0.52096
 Alpha virt. eigenvalues --    0.52736   0.53052   0.53732   0.53803   0.54122
 Alpha virt. eigenvalues --    0.54557   0.55128   0.55592   0.56007   0.56788
 Alpha virt. eigenvalues --    0.57064   0.57289   0.57538   0.58323   0.58511
 Alpha virt. eigenvalues --    0.58827   0.59409   0.59768   0.60128   0.60796
 Alpha virt. eigenvalues --    0.61115   0.61238   0.62110   0.62681   0.63133
 Alpha virt. eigenvalues --    0.63317   0.63925   0.64471   0.64987   0.65658
 Alpha virt. eigenvalues --    0.66142   0.66430   0.66614   0.67446   0.67659
 Alpha virt. eigenvalues --    0.68099   0.68834   0.69077   0.69304   0.69840
 Alpha virt. eigenvalues --    0.70746   0.70933   0.71078   0.71856   0.72255
 Alpha virt. eigenvalues --    0.72938   0.73131   0.73867   0.74015   0.74416
 Alpha virt. eigenvalues --    0.74802   0.75497   0.75697   0.76197   0.77273
 Alpha virt. eigenvalues --    0.77328   0.77936   0.79035   0.79469   0.80210
 Alpha virt. eigenvalues --    0.80492   0.81159   0.81872   0.82723   0.83318
 Alpha virt. eigenvalues --    0.83523   0.84002   0.84996   0.85702   0.86520
 Alpha virt. eigenvalues --    0.87307   0.87758   0.88784   0.89323   0.89765
 Alpha virt. eigenvalues --    0.90153   0.91185   0.91779   0.92709   0.93963
 Alpha virt. eigenvalues --    0.94271   0.95078   0.95585   0.96278   0.97477
 Alpha virt. eigenvalues --    0.98908   1.00013   1.00381   1.00885   1.01969
 Alpha virt. eigenvalues --    1.02530   1.03306   1.04291   1.05294   1.06134
 Alpha virt. eigenvalues --    1.07658   1.08707   1.09353   1.09744   1.10507
 Alpha virt. eigenvalues --    1.10904   1.11466   1.11581   1.12964   1.13543
 Alpha virt. eigenvalues --    1.14854   1.15946   1.16397   1.17473   1.18331
 Alpha virt. eigenvalues --    1.18853   1.20502   1.20702   1.21325   1.22249
 Alpha virt. eigenvalues --    1.24184   1.24786   1.26053   1.27436   1.28493
 Alpha virt. eigenvalues --    1.28879   1.29342   1.29738   1.31805   1.32241
 Alpha virt. eigenvalues --    1.33033   1.33941   1.35211   1.36160   1.36529
 Alpha virt. eigenvalues --    1.37368   1.39203   1.39648   1.40671   1.41930
 Alpha virt. eigenvalues --    1.43004   1.43724   1.44572   1.45356   1.46426
 Alpha virt. eigenvalues --    1.46754   1.47955   1.49506   1.49851   1.50833
 Alpha virt. eigenvalues --    1.52303   1.53538   1.53738   1.54275   1.55385
 Alpha virt. eigenvalues --    1.56986   1.58004   1.59028   1.59931   1.60380
 Alpha virt. eigenvalues --    1.61606   1.61753   1.62789   1.63059   1.63985
 Alpha virt. eigenvalues --    1.64683   1.65127   1.66387   1.66543   1.67950
 Alpha virt. eigenvalues --    1.69183   1.69563   1.70542   1.71568   1.71765
 Alpha virt. eigenvalues --    1.72185   1.73736   1.75521   1.75902   1.77644
 Alpha virt. eigenvalues --    1.78242   1.79192   1.79590   1.80321   1.81262
 Alpha virt. eigenvalues --    1.82362   1.82868   1.83104   1.83924   1.85218
 Alpha virt. eigenvalues --    1.86042   1.86363   1.87948   1.88457   1.89587
 Alpha virt. eigenvalues --    1.90450   1.90480   1.91794   1.92718   1.93755
 Alpha virt. eigenvalues --    1.94328   1.94925   1.95725   1.96644   1.98431
 Alpha virt. eigenvalues --    1.98850   1.99474   1.99618   2.01602   2.01850
 Alpha virt. eigenvalues --    2.03443   2.03570   2.04430   2.04776   2.06386
 Alpha virt. eigenvalues --    2.07875   2.08357   2.10076   2.10377   2.10777
 Alpha virt. eigenvalues --    2.11618   2.12770   2.13423   2.13884   2.15737
 Alpha virt. eigenvalues --    2.16116   2.17740   2.18505   2.20240   2.21723
 Alpha virt. eigenvalues --    2.22826   2.23602   2.24865   2.25270   2.25758
 Alpha virt. eigenvalues --    2.26772   2.28121   2.28320   2.29244   2.30136
 Alpha virt. eigenvalues --    2.31988   2.33339   2.34149   2.35583   2.36694
 Alpha virt. eigenvalues --    2.38111   2.39064   2.40656   2.41901   2.42404
 Alpha virt. eigenvalues --    2.43591   2.44765   2.45210   2.47314   2.48371
 Alpha virt. eigenvalues --    2.50121   2.51792   2.52673   2.54368   2.55134
 Alpha virt. eigenvalues --    2.55945   2.57565   2.59391   2.60436   2.60725
 Alpha virt. eigenvalues --    2.61923   2.63314   2.63697   2.67311   2.68130
 Alpha virt. eigenvalues --    2.68338   2.68547   2.71129   2.71944   2.72868
 Alpha virt. eigenvalues --    2.75413   2.75746   2.76440   2.78801   2.79286
 Alpha virt. eigenvalues --    2.82251   2.83180   2.83756   2.84327   2.86909
 Alpha virt. eigenvalues --    2.87679   2.90030   2.91644   2.93470   2.94726
 Alpha virt. eigenvalues --    2.98539   3.02370   3.04604   3.05716   3.10909
 Alpha virt. eigenvalues --    3.15407   3.19346   3.23461   3.27758   3.36063
 Alpha virt. eigenvalues --    3.38616   3.40210   3.41197   3.42428   3.44853
 Alpha virt. eigenvalues --    3.47333   3.51260   3.52847   3.56008   3.62381
 Alpha virt. eigenvalues --    3.68354   3.71918   3.79519   3.83223   3.92158
 Alpha virt. eigenvalues --    3.99795   4.03616   4.10171   4.34082   4.97846
          Condensed to atoms (all electrons):
               1          2          3          4          5          6
     1  N   15.379739  -6.584776  -0.877083  -0.371034  -0.092432   2.010784
     2  C   -6.584776  27.268494  -1.157180  -0.017254  -0.301132  -9.601932
     3  C   -0.877083  -1.157180   8.203726  -0.968031   0.682341   0.101918
     4  C   -0.371034  -0.017254  -0.968031   6.228757   0.032027   0.370976
     5  C   -0.092432  -0.301132   0.682341   0.032027   5.808494  -0.396438
     6  C    2.010784  -9.601932   0.101918   0.370976  -0.396438  23.933645
     7  C    0.681831  -1.880864  -0.720196  -0.034703  -0.186841  -3.168518
     8  N   -0.156718   1.004652   0.025442   0.019729   0.047652  -0.318807
     9  C    0.115872  -0.728384  -0.095105   0.016806  -0.011399  -0.430421
    10  C   -0.229149   0.323900   0.075227  -0.022343  -0.048589   0.273478
    11  C   -0.294281  -0.773030  -0.310375   0.000163   0.013552  -9.249301
    12  O    0.000435   0.011357  -0.001675  -0.000954   0.000304  -0.066702
    13  O   -0.046098   0.061564   0.029836  -0.019619   0.036715  -0.028756
    14  H   -1.104514   0.654850   0.056761   0.135317  -0.168760  -0.171449
    15  H   -0.121766  -0.114538   0.220648  -0.224629   0.152971   0.042192
    16  H    0.121198   0.232678   0.263908  -0.394337  -0.034682  -0.116607
    17  H    0.454989  -0.073804  -1.020107   0.181320  -0.200942   0.421600
    18  H   -0.107988  -0.175159  -0.203399   0.323578   0.019520   0.009782
    19  H   -0.261081   0.111190   0.015236   0.008101  -0.302491   0.112930
    20  H   -0.407620  -2.705028   0.710526  -0.054824  -0.005011   1.089257
    21  H   -0.181632   0.252579   0.106350  -0.015811   0.041259  -0.992932
    22  H    0.006802  -0.025022   0.004021   0.000696  -0.000647  -0.101320
    23  H   -0.001753   0.084521  -0.004695   0.000133   0.000516  -0.035095
    24  H    0.037108  -0.295985  -0.004073  -0.007784  -0.012994   1.192031
    25  C    1.235251  -1.357321  -0.159416  -0.019869  -0.259983   0.769411
    26  H    0.001773  -0.030142  -0.027588  -0.001831  -0.004609  -0.404898
    27  H   -0.263855   0.552774  -0.026102   0.012840  -0.111233  -0.184025
    28  H   -0.027535  -0.029838   0.018604  -0.006013   0.019548   0.011317
    29  H   -0.001355   0.011446  -0.000585  -0.000374  -0.000318   0.010194
    30  H    0.000453  -0.001565   0.000821   0.000009   0.000173  -0.002619
    31  O    0.004171   0.007263  -0.003739   0.000507   0.002397   0.018176
    32  H    0.002603  -0.001051  -0.000009  -0.000413  -0.000618   0.003615
    33  H   -0.025466   0.018939  -0.000772   0.008471   0.003697  -0.012402
    34  H   -0.237066   0.170982  -0.067820   0.072490  -0.003959   0.011622
    35  H    0.087073  -0.014109   0.072647  -0.045111  -0.088847  -0.038152
    36  H   -0.498497  -0.290261   0.053576  -0.003759   0.115699   0.180929
               7          8          9         10         11         12
     1  N    0.681831  -0.156718   0.115872  -0.229149  -0.294281   0.000435
     2  C   -1.880864   1.004652  -0.728384   0.323900  -0.773030   0.011357
     3  C   -0.720196   0.025442  -0.095105   0.075227  -0.310375  -0.001675
     4  C   -0.034703   0.019729   0.016806  -0.022343   0.000163  -0.000954
     5  C   -0.186841   0.047652  -0.011399  -0.048589   0.013552   0.000304
     6  C   -3.168518  -0.318807  -0.430421   0.273478  -9.249301  -0.066702
     7  C   16.010039  -1.083499  -1.713574   0.475966  -2.820307  -0.016074
     8  N   -1.083499   7.765123   0.249582   0.056545  -0.332477  -0.117951
     9  C   -1.713574   0.249582   9.741560  -2.292764   1.511550   0.041242
    10  C    0.475966   0.056545  -2.292764  11.519265  -4.376544  -0.019565
    11  C   -2.820307  -0.332477   1.511550  -4.376544  23.516509   0.029428
    12  O   -0.016074  -0.117951   0.041242  -0.019565   0.029428   7.927724
    13  O   -0.080571   0.004056  -0.012932   0.009704  -0.012162   0.003533
    14  H   -0.016464   0.002383   0.000420  -0.001565   0.021145  -0.000021
    15  H    0.029314  -0.002875   0.002686  -0.003330   0.004704  -0.000051
    16  H   -0.028247   0.005147  -0.001380  -0.000180   0.002108  -0.000237
    17  H    0.223024  -0.011605   0.000272  -0.001483  -0.084474   0.000074
    18  H   -0.086739   0.006266   0.011482  -0.014753   0.081811   0.001445
    19  H    0.020307   0.000005  -0.001626   0.001838   0.017901   0.000033
    20  H   -0.256547   0.001439   0.036244  -0.010000   0.021723   0.000277
    21  H   -0.982645   0.101087  -0.158967   0.077966  -0.185123   0.001361
    22  H    0.196493  -0.096274  -0.487558   0.054186   0.240679   0.012770
    23  H   -0.163369  -0.007363   0.345417  -1.072720   0.611456  -0.000361
    24  H    0.311353  -0.087111  -0.204507   0.751827  -2.541377   0.000210
    25  C    0.047529  -0.060538  -0.003366   0.032650  -0.249027   0.000025
    26  H    0.644585  -0.025180  -0.595147  -0.011202  -0.027157  -0.003730
    27  H   -0.073266   0.018432  -0.008254   0.006085   0.033762   0.001295
    28  H    0.007712   0.000046   0.001261  -0.000177  -0.001454   0.000748
    29  H   -0.032406   0.015331  -0.004537   0.003267  -0.004191   0.317942
    30  H    0.010409  -0.009713  -0.008707   0.003235   0.000973   0.371320
    31  O   -0.037665  -0.001126   0.013776  -0.005024  -0.008118  -0.051298
    32  H   -0.007647   0.004421   0.000449   0.000336   0.000223   0.001261
    33  H    0.039155  -0.003486   0.001993  -0.000946  -0.005132  -0.004064
    34  H   -0.071337   0.000625  -0.002165   0.006091  -0.013217  -0.000093
    35  H    0.132343  -0.003491  -0.043325   0.067243  -0.030452   0.000921
    36  H    0.013826  -0.005813   0.017264  -0.018772   0.004165  -0.000064
              13         14         15         16         17         18
     1  N   -0.046098  -1.104514  -0.121766   0.121198   0.454989  -0.107988
     2  C    0.061564   0.654850  -0.114538   0.232678  -0.073804  -0.175159
     3  C    0.029836   0.056761   0.220648   0.263908  -1.020107  -0.203399
     4  C   -0.019619   0.135317  -0.224629  -0.394337   0.181320   0.323578
     5  C    0.036715  -0.168760   0.152971  -0.034682  -0.200942   0.019520
     6  C   -0.028756  -0.171449   0.042192  -0.116607   0.421600   0.009782
     7  C   -0.080571  -0.016464   0.029314  -0.028247   0.223024  -0.086739
     8  N    0.004056   0.002383  -0.002875   0.005147  -0.011605   0.006266
     9  C   -0.012932   0.000420   0.002686  -0.001380   0.000272   0.011482
    10  C    0.009704  -0.001565  -0.003330  -0.000180  -0.001483  -0.014753
    11  C   -0.012162   0.021145   0.004704   0.002108  -0.084474   0.081811
    12  O    0.003533  -0.000021  -0.000051  -0.000237   0.000074   0.001445
    13  O    7.979795   0.022239  -0.004113   0.010596   0.002630  -0.022230
    14  H    0.022239   2.882717   0.127063  -0.316742  -0.040660   0.050198
    15  H   -0.004113   0.127063   2.090928  -0.608817  -0.312153   0.199609
    16  H    0.010596  -0.316742  -0.608817   2.224070   0.179767  -0.432628
    17  H    0.002630  -0.040660  -0.312153   0.179767   2.591030  -0.650006
    18  H   -0.022230   0.050198   0.199609  -0.432628  -0.650006   2.286944
    19  H    0.003312  -0.565844  -0.250020   0.192952   0.060946  -0.058239
    20  H   -0.003160   0.093416   0.065014  -0.060243  -0.347903   0.221050
    21  H    0.049600  -0.016959  -0.006061   0.022992   0.057587  -0.151805
    22  H   -0.000447   0.000014   0.000103  -0.000066   0.000720  -0.000288
    23  H    0.000261   0.000077  -0.000110   0.000058  -0.001884  -0.000023
    24  H   -0.001048  -0.002533   0.003048  -0.001477   0.011329   0.003281
    25  C   -0.006567  -0.173985  -0.019980   0.014180   0.079454  -0.030118
    26  H   -0.002690  -0.000364  -0.000144   0.000493   0.001065  -0.003769
    27  H    0.101299   0.064416  -0.000987   0.010704  -0.017285   0.012893
    28  H    0.369381   0.001644   0.000725  -0.000160   0.000720   0.007446
    29  H   -0.002043   0.000108  -0.000009   0.000027  -0.000164   0.000148
    30  H    0.000062   0.000017   0.000009  -0.000088  -0.000049   0.000841
    31  O   -0.036261  -0.000280  -0.000039   0.000374  -0.000045  -0.001215
    32  H   -0.001580  -0.000284  -0.000021   0.000009   0.000059  -0.000120
    33  H    0.042861   0.002400   0.000216  -0.000556  -0.000529   0.000877
    34  H    0.000787  -0.007648  -0.004769   0.012469   0.002260  -0.006713
    35  H    0.012728   0.006887   0.000458  -0.006762  -0.001587   0.007572
    36  H   -0.005438   0.030423   0.005712  -0.005564   0.007553   0.005107
              19         20         21         22         23         24
     1  N   -0.261081  -0.407620  -0.181632   0.006802  -0.001753   0.037108
     2  C    0.111190  -2.705028   0.252579  -0.025022   0.084521  -0.295985
     3  C    0.015236   0.710526   0.106350   0.004021  -0.004695  -0.004073
     4  C    0.008101  -0.054824  -0.015811   0.000696   0.000133  -0.007784
     5  C   -0.302491  -0.005011   0.041259  -0.000647   0.000516  -0.012994
     6  C    0.112930   1.089257  -0.992932  -0.101320  -0.035095   1.192031
     7  C    0.020307  -0.256547  -0.982645   0.196493  -0.163369   0.311353
     8  N    0.000005   0.001439   0.101087  -0.096274  -0.007363  -0.087111
     9  C   -0.001626   0.036244  -0.158967  -0.487558   0.345417  -0.204507
    10  C    0.001838  -0.010000   0.077966   0.054186  -1.072720   0.751827
    11  C    0.017901   0.021723  -0.185123   0.240679   0.611456  -2.541377
    12  O    0.000033   0.000277   0.001361   0.012770  -0.000361   0.000210
    13  O    0.003312  -0.003160   0.049600  -0.000447   0.000261  -0.001048
    14  H   -0.565844   0.093416  -0.016959   0.000014   0.000077  -0.002533
    15  H   -0.250020   0.065014  -0.006061   0.000103  -0.000110   0.003048
    16  H    0.192952  -0.060243   0.022992  -0.000066   0.000058  -0.001477
    17  H    0.060946  -0.347903   0.057587   0.000720  -0.001884   0.011329
    18  H   -0.058239   0.221050  -0.151805  -0.000288  -0.000023   0.003281
    19  H    2.486122  -0.095326   0.011535  -0.000040  -0.000118   0.000209
    20  H   -0.095326   3.663941  -0.034321   0.002041   0.000188  -0.171964
    21  H    0.011535  -0.034321   4.314562   0.012507  -0.006899  -0.016045
    22  H   -0.000040   0.002041   0.012507   2.078976  -0.104476  -0.009958
    23  H   -0.000118   0.000188  -0.006899  -0.104476   2.036277  -0.127093
    24  H    0.000209  -0.171964  -0.016045  -0.009958  -0.127093   3.018796
    25  C   -0.021934  -0.039062   0.031699   0.002742  -0.005617   0.034082
    26  H    0.000422  -0.004155  -0.091961  -0.178131   0.009899   0.010135
    27  H    0.017859   0.007136  -0.049452   0.000848   0.000001  -0.004418
    28  H    0.000100   0.000913  -0.000150  -0.000110  -0.000014   0.000185
    29  H   -0.000102   0.000419   0.000654  -0.000052   0.000016  -0.000455
    30  H    0.000001   0.000012  -0.001211   0.003249  -0.000193   0.000062
    31  O   -0.000105   0.000208   0.020413   0.000386   0.000039  -0.000308
    32  H   -0.000002  -0.000187   0.003428  -0.000029  -0.000004   0.000017
    33  H    0.000205   0.001411  -0.035492  -0.000910   0.000408  -0.000209
    34  H    0.011590   0.013579   0.005054   0.000285  -0.000675   0.000800
    35  H    0.003711   0.021565   0.002901  -0.001978   0.000228   0.005160
    36  H    0.036177   0.097927  -0.001260   0.000490  -0.000293   0.005288
              25         26         27         28         29         30
     1  N    1.235251   0.001773  -0.263855  -0.027535  -0.001355   0.000453
     2  C   -1.357321  -0.030142   0.552774  -0.029838   0.011446  -0.001565
     3  C   -0.159416  -0.027588  -0.026102   0.018604  -0.000585   0.000821
     4  C   -0.019869  -0.001831   0.012840  -0.006013  -0.000374   0.000009
     5  C   -0.259983  -0.004609  -0.111233   0.019548  -0.000318   0.000173
     6  C    0.769411  -0.404898  -0.184025   0.011317   0.010194  -0.002619
     7  C    0.047529   0.644585  -0.073266   0.007712  -0.032406   0.010409
     8  N   -0.060538  -0.025180   0.018432   0.000046   0.015331  -0.009713
     9  C   -0.003366  -0.595147  -0.008254   0.001261  -0.004537  -0.008707
    10  C    0.032650  -0.011202   0.006085  -0.000177   0.003267   0.003235
    11  C   -0.249027  -0.027157   0.033762  -0.001454  -0.004191   0.000973
    12  O    0.000025  -0.003730   0.001295   0.000748   0.317942   0.371320
    13  O   -0.006567  -0.002690   0.101299   0.369381  -0.002043   0.000062
    14  H   -0.173985  -0.000364   0.064416   0.001644   0.000108   0.000017
    15  H   -0.019980  -0.000144  -0.000987   0.000725  -0.000009   0.000009
    16  H    0.014180   0.000493   0.010704  -0.000160   0.000027  -0.000088
    17  H    0.079454   0.001065  -0.017285   0.000720  -0.000164  -0.000049
    18  H   -0.030118  -0.003769   0.012893   0.007446   0.000148   0.000841
    19  H   -0.021934   0.000422   0.017859   0.000100  -0.000102   0.000001
    20  H   -0.039062  -0.004155   0.007136   0.000913   0.000419   0.000012
    21  H    0.031699  -0.091961  -0.049452  -0.000150   0.000654  -0.001211
    22  H    0.002742  -0.178131   0.000848  -0.000110  -0.000052   0.003249
    23  H   -0.005617   0.009899   0.000001  -0.000014   0.000016  -0.000193
    24  H    0.034082   0.010135  -0.004418   0.000185  -0.000455   0.000062
    25  C    4.843163  -0.000501  -0.119951   0.012605  -0.000729  -0.000008
    26  H   -0.000501   1.673812  -0.001560   0.000561  -0.010730   0.004265
    27  H   -0.119951  -0.001560   0.651501  -0.174147   0.004858  -0.000466
    28  H    0.012605   0.000561  -0.174147   0.609884  -0.000886   0.000047
    29  H   -0.000729  -0.010730   0.004858  -0.000886   0.535247  -0.103254
    30  H   -0.000008   0.004265  -0.000466   0.000047  -0.103254   0.572016
    31  O    0.003057  -0.008111   0.000872   0.006583   0.038550  -0.004456
    32  H    0.000043  -0.000521   0.000823   0.000367  -0.004257  -0.000470
    33  H   -0.014603   0.003997  -0.007350  -0.001475  -0.006617   0.002139
    34  H    0.200363  -0.001524   0.043040   0.000604   0.000498   0.000018
    35  H    0.069692   0.000199   0.000794  -0.001538  -0.000746  -0.000032
    36  H    0.224793   0.001008  -0.033838   0.005117  -0.000246  -0.000016
              31         32         33         34         35         36
     1  N    0.004171   0.002603  -0.025466  -0.237066   0.087073  -0.498497
     2  C    0.007263  -0.001051   0.018939   0.170982  -0.014109  -0.290261
     3  C   -0.003739  -0.000009  -0.000772  -0.067820   0.072647   0.053576
     4  C    0.000507  -0.000413   0.008471   0.072490  -0.045111  -0.003759
     5  C    0.002397  -0.000618   0.003697  -0.003959  -0.088847   0.115699
     6  C    0.018176   0.003615  -0.012402   0.011622  -0.038152   0.180929
     7  C   -0.037665  -0.007647   0.039155  -0.071337   0.132343   0.013826
     8  N   -0.001126   0.004421  -0.003486   0.000625  -0.003491  -0.005813
     9  C    0.013776   0.000449   0.001993  -0.002165  -0.043325   0.017264
    10  C   -0.005024   0.000336  -0.000946   0.006091   0.067243  -0.018772
    11  C   -0.008118   0.000223  -0.005132  -0.013217  -0.030452   0.004165
    12  O   -0.051298   0.001261  -0.004064  -0.000093   0.000921  -0.000064
    13  O   -0.036261  -0.001580   0.042861   0.000787   0.012728  -0.005438
    14  H   -0.000280  -0.000284   0.002400  -0.007648   0.006887   0.030423
    15  H   -0.000039  -0.000021   0.000216  -0.004769   0.000458   0.005712
    16  H    0.000374   0.000009  -0.000556   0.012469  -0.006762  -0.005564
    17  H   -0.000045   0.000059  -0.000529   0.002260  -0.001587   0.007553
    18  H   -0.001215  -0.000120   0.000877  -0.006713   0.007572   0.005107
    19  H   -0.000105  -0.000002   0.000205   0.011590   0.003711   0.036177
    20  H    0.000208  -0.000187   0.001411   0.013579   0.021565   0.097927
    21  H    0.020413   0.003428  -0.035492   0.005054   0.002901  -0.001260
    22  H    0.000386  -0.000029  -0.000910   0.000285  -0.001978   0.000490
    23  H    0.000039  -0.000004   0.000408  -0.000675   0.000228  -0.000293
    24  H   -0.000308   0.000017  -0.000209   0.000800   0.005160   0.005288
    25  C    0.003057   0.000043  -0.014603   0.200363   0.069692   0.224793
    26  H   -0.008111  -0.000521   0.003997  -0.001524   0.000199   0.001008
    27  H    0.000872   0.000823  -0.007350   0.043040   0.000794  -0.033838
    28  H    0.006583   0.000367  -0.001475   0.000604  -0.001538   0.005117
    29  H    0.038550  -0.004257  -0.006617   0.000498  -0.000746  -0.000246
    30  H   -0.004456  -0.000470   0.002139   0.000018  -0.000032  -0.000016
    31  O    7.797109   0.356380   0.294367   0.003052  -0.009113   0.000001
    32  H    0.356380   0.594161  -0.120945   0.000387  -0.000478   0.000184
    33  H    0.294367  -0.120945   0.554892  -0.001212   0.003558  -0.000796
    34  H    0.003052   0.000387  -0.001212   2.045869  -0.637486  -0.336459
    35  H   -0.009113  -0.000478   0.003558  -0.637486   1.960578  -0.391318
    36  H    0.000001   0.000184  -0.000796  -0.336459  -0.391318   1.966901
 Mulliken charges:
               1
     1  N   -1.248383
     2  C    1.391187
     3  C    1.006360
     4  C    0.796774
     5  C    1.255060
     6  C    0.756516
     7  C    0.617592
     8  N   -0.003934
     9  C    0.696240
    10  C    0.390298
    11  C    1.206346
    12  O   -0.440863
    13  O   -0.455245
    14  H   -0.564424
    15  H   -0.270989
    16  H   -0.284958
    17  H   -0.511719
    18  H   -0.304658
    19  H   -0.555756
    20  H   -0.852935
    21  H   -1.184806
    22  H   -0.610703
    23  H   -0.556742
    24  H   -0.895582
    25  C    0.941835
    26  H    0.083428
    27  H    0.533955
    28  H    0.167379
    29  H    0.235351
    30  H    0.162714
    31  O   -0.400778
    32  H    0.169867
    33  H    0.263373
    34  H   -0.210321
    35  H   -0.141731
    36  H   -0.179750
 Sum of Mulliken charges =   1.00000
 Mulliken charges with hydrogens summed into heavy atoms:
               1
     1  N   -1.248383
     2  C    0.538252
     3  C    0.189983
     4  C    0.240827
     5  C    0.134881
     6  C    0.756516
     7  C   -0.567214
     8  N    0.079495
     9  C    0.085537
    10  C   -0.166443
    11  C    0.310763
    12  O   -0.042798
    13  O    0.246089
    25  C    0.410034
    31  O    0.032462
 APT charges:
               1
     1  N   -0.689756
     2  C    0.316866
     3  C    0.044809
     4  C    0.070373
     5  C    0.312447
     6  C   -0.028623
     7  C    0.087309
     8  N   -0.328195
     9  C    0.130236
    10  C   -0.113526
    11  C    0.146109
    12  O   -0.780576
    13  O   -0.769649
    14  H   -0.014308
    15  H   -0.006090
    16  H   -0.016308
    17  H   -0.003098
    18  H   -0.008230
    19  H   -0.052473
    20  H   -0.069372
    21  H    0.163609
    22  H    0.111095
    23  H    0.091702
    24  H    0.081884
    25  C    0.272676
    26  H    0.598433
    27  H    0.471239
    28  H    0.263027
    29  H    0.450034
    30  H    0.284989
    31  O   -0.690828
    32  H    0.275472
    33  H    0.428821
    34  H    0.009653
    35  H   -0.004115
    36  H   -0.035635
 Sum of APT charges =   1.00000
 APT charges with hydrogens summed into heavy atoms:
               1
     1  N   -0.689756
     2  C    0.247494
     3  C    0.033481
     4  C    0.047976
     5  C    0.245666
     6  C   -0.028623
     7  C    0.250917
     8  N    0.270238
     9  C    0.241331
    10  C   -0.021824
    11  C    0.227993
    12  O   -0.045554
    13  O   -0.035383
    25  C    0.242579
    31  O    0.013465
 Electronic spatial extent (au):  <R**2>=           3866.0310
 Charge=              1.0000 electrons
 Dipole moment (field-independent basis, Debye):
    X=              1.4839    Y=             -1.2451    Z=             -0.1379  Tot=              1.9420
 Quadrupole moment (field-independent basis, Debye-Ang):
   XX=            -55.7656   YY=            -55.5353   ZZ=            -83.2173
   XY=             -4.2568   XZ=             -3.2408   YZ=             -2.6878
 Traceless Quadrupole moment (field-independent basis, Debye-Ang):
   XX=              9.0738   YY=              9.3041   ZZ=            -18.3779
   XY=             -4.2568   XZ=             -3.2408   YZ=             -2.6878
 Octapole moment (field-independent basis, Debye-Ang**2):
  XXX=             51.9139  YYY=             47.5608  ZZZ=              0.0412  XYY=             47.0309
  XXY=             13.3776  XXZ=            -24.3989  XZZ=             11.4412  YZZ=             26.4253
  YYZ=             17.2481  XYZ=             -7.0289
 Hexadecapole moment (field-independent basis, Debye-Ang**3):
 XXXX=          -2349.8699 YYYY=          -1130.8094 ZZZZ=           -554.9487 XXXY=             28.8571
 XXXZ=            -86.7774 YYYX=             30.9571 YYYZ=            -13.4428 ZZZX=            -29.6643
 ZZZY=              8.8418 XXYY=           -509.8691 XXZZ=           -473.8026 YYZZ=           -308.5251
 XXYZ=            -41.0376 YYXZ=             33.4958 ZZXY=             54.4254
 N-N= 1.106286541256D+03 E-N=-3.895675600939D+03  KE= 7.240603614588D+02
  Exact polarizability: 178.314  -8.901 156.588   0.426  -7.399 123.238
 Approx polarizability: 181.821  -3.539 174.890  -1.647 -12.555 140.264
 Calling FoFJK, ICntrl=    100127 FMM=F ISym2X=0 I1Cent= 0 IOpClX= 0 NMat=1 NMatS=1 NMatT=0.
 Full mass-weighted force constant matrix:
 Low frequencies ---   -5.6376   -1.3102   -0.0005   -0.0003    0.0007    8.0996
 Low frequencies ---   28.1903   33.7899   55.1237
 Diagonal vibrational polarizability:
       89.1759170      94.2786572     129.9195284
 Harmonic frequencies (cm**-1), IR intensities (KM/Mole), Raman scattering
 activities (A**4/AMU), depolarization ratios for plane and unpolarized
 incident light, reduced masses (AMU), force constants (mDyne/A),
 and normal coordinates:
                      1                      2                      3
                      A                      A                      A
 Frequencies --     28.1673                33.7147                55.1182
 Red. masses --      3.8895                 4.8180                 4.4391
 Frc consts  --      0.0018                 0.0032                 0.0079
 IR Inten    --      0.3432                 1.7831                 1.0826
  Atom  AN      X      Y      Z        X      Y      Z        X      Y      Z
     1   7     0.05   0.07  -0.03     0.01  -0.04   0.04    -0.03   0.01  -0.06
     2   6     0.01   0.01   0.05    -0.00  -0.01  -0.01    -0.02  -0.04   0.06
     3   6    -0.05  -0.09   0.06     0.02   0.06  -0.01    -0.03  -0.20   0.04
     4   6    -0.06  -0.11   0.05     0.02   0.06   0.02     0.02  -0.12  -0.09
     5   6     0.03   0.03   0.02     0.01  -0.01   0.04    -0.02  -0.00  -0.11
     6   6     0.01  -0.01   0.01    -0.01  -0.04  -0.01    -0.02  -0.02   0.05
     7   6     0.01   0.00   0.05     0.01  -0.02   0.08    -0.03   0.00   0.07
     8   7     0.01  -0.02   0.00     0.01  -0.04   0.08    -0.03   0.00   0.01
     9   6    -0.00  -0.06  -0.09    -0.02  -0.08   0.00    -0.01  -0.01  -0.07
    10   6    -0.01  -0.07  -0.14    -0.04  -0.09  -0.09     0.00  -0.03  -0.08
    11   6    -0.00  -0.04  -0.09    -0.03  -0.07  -0.09     0.00  -0.04  -0.02
    12   8    -0.00   0.02   0.18     0.02  -0.04   0.13    -0.05   0.01  -0.07
    13   8     0.01   0.03  -0.16    -0.04  -0.02  -0.01     0.07   0.09   0.23
    14   1     0.04   0.06  -0.06     0.02  -0.02   0.08    -0.02   0.02  -0.20
    15   1    -0.07  -0.16   0.16     0.02   0.07  -0.00     0.00  -0.08  -0.09
    16   1    -0.13  -0.16  -0.04     0.03   0.08   0.06     0.10  -0.17  -0.14
    17   1    -0.04  -0.12   0.13     0.03   0.09  -0.06    -0.08  -0.24   0.17
    18   1    -0.08  -0.11   0.01     0.03   0.10   0.03    -0.02  -0.33  -0.03
    19   1     0.06   0.09   0.12     0.00  -0.03   0.00    -0.04   0.04  -0.08
    20   1     0.02   0.05   0.14    -0.02  -0.03  -0.06    -0.00  -0.00   0.14
    21   1     0.03   0.02   0.11     0.03   0.00   0.13    -0.05   0.02   0.12
    22   1    -0.00  -0.07  -0.11    -0.02  -0.09   0.02    -0.01  -0.01  -0.12
    23   1    -0.02  -0.10  -0.22    -0.06  -0.12  -0.15     0.02  -0.05  -0.14
    24   1    -0.01  -0.05  -0.12    -0.05  -0.09  -0.16     0.01  -0.06  -0.04
    25   6     0.13   0.19  -0.04    -0.01  -0.10   0.04    -0.08   0.12  -0.05
    26   1     0.02  -0.01   0.06     0.02  -0.03   0.13    -0.04   0.02  -0.00
    27   1    -0.00   0.04  -0.15    -0.00  -0.03   0.04     0.03   0.04   0.08
    28   1     0.02  -0.00  -0.25    -0.07  -0.10  -0.10     0.11   0.09   0.18
    29   1    -0.05   0.00   0.16     0.01   0.05   0.02     0.03   0.03  -0.03
    30   1     0.04   0.05   0.22     0.11  -0.14   0.12    -0.11  -0.02  -0.11
    31   8    -0.11   0.00   0.09     0.02   0.36  -0.20     0.18   0.14   0.05
    32   1    -0.14   0.01   0.09     0.01   0.48  -0.34     0.22   0.17   0.01
    33   1    -0.07   0.04  -0.01    -0.01   0.21  -0.16     0.14   0.10   0.15
    34   1     0.15   0.23  -0.11    -0.00  -0.12   0.08    -0.08   0.16  -0.13
    35   1     0.14   0.22  -0.08    -0.02  -0.13   0.05    -0.09   0.12  -0.00
    36   1     0.16   0.23   0.06    -0.03  -0.12   0.00    -0.11   0.17  -0.00
                      4                      5                      6
                      A                      A                      A
 Frequencies --     62.0339                76.1557                81.8573
 Red. masses --      4.3833                 3.4038                 2.8665
 Frc consts  --      0.0099                 0.0116                 0.0113
 IR Inten    --      0.1900                 0.4588                 1.0067
  Atom  AN      X      Y      Z        X      Y      Z        X      Y      Z
     1   7    -0.06  -0.00  -0.02     0.02  -0.01  -0.05     0.01  -0.03   0.00
     2   6    -0.02   0.01  -0.02    -0.01   0.00  -0.08    -0.04  -0.06   0.01
     3   6    -0.04   0.00  -0.01    -0.02   0.08  -0.06    -0.13  -0.12   0.03
     4   6    -0.17  -0.16   0.04    -0.15  -0.10   0.05     0.05   0.11  -0.00
     5   6    -0.09  -0.08   0.03    -0.01  -0.02   0.04     0.02   0.01   0.01
     6   6    -0.01   0.05  -0.03    -0.02  -0.02  -0.07    -0.03  -0.03  -0.04
     7   6    -0.02   0.06  -0.03    -0.00  -0.04  -0.10    -0.07  -0.03  -0.13
     8   7    -0.02   0.08  -0.02    -0.00  -0.03  -0.02    -0.06   0.03  -0.12
     9   6    -0.01   0.08  -0.01    -0.02  -0.01   0.08    -0.01   0.08  -0.02
    10   6     0.00   0.07  -0.01    -0.03   0.02   0.10     0.03   0.07   0.05
    11   6     0.00   0.06  -0.02    -0.03   0.01   0.02     0.02   0.02   0.05
    12   8     0.29  -0.10   0.13    -0.12   0.03  -0.02     0.05  -0.01   0.12
    13   8    -0.02   0.02   0.07     0.14  -0.06  -0.00     0.05  -0.07  -0.04
    14   1    -0.12  -0.08  -0.01     0.02   0.00   0.00     0.03   0.00   0.07
    15   1    -0.12  -0.33   0.16    -0.11  -0.29   0.22    -0.03   0.34  -0.11
    16   1    -0.37  -0.18  -0.02    -0.40  -0.12  -0.03     0.30   0.13   0.08
    17   1     0.09  -0.01  -0.07     0.12   0.10  -0.19    -0.35  -0.13   0.19
    18   1    -0.09   0.15   0.02    -0.07   0.27   0.01    -0.12  -0.35  -0.11
    19   1    -0.04  -0.07   0.10     0.03   0.03   0.13    -0.00  -0.01  -0.04
    20   1     0.00  -0.01  -0.03    -0.03  -0.00  -0.11    -0.00  -0.04   0.08
    21   1    -0.04   0.06  -0.03     0.01  -0.05  -0.15    -0.11  -0.06  -0.19
    22   1    -0.01   0.10   0.01    -0.01  -0.00   0.14    -0.00   0.12  -0.01
    23   1     0.01   0.08  -0.00    -0.04   0.04   0.18     0.07   0.11   0.13
    24   1     0.01   0.05  -0.02    -0.04   0.03   0.05     0.05   0.02   0.13
    25   6    -0.02   0.02  -0.03     0.10  -0.02  -0.06     0.03  -0.04  -0.00
    26   1     0.01   0.06   0.00    -0.01  -0.03  -0.02    -0.07   0.04  -0.11
    27   1    -0.05   0.02   0.02     0.08  -0.03  -0.03     0.04  -0.05  -0.01
    28   1     0.01   0.06   0.09     0.19  -0.07  -0.10     0.06  -0.07  -0.06
    29   1     0.24  -0.06   0.03    -0.04   0.03   0.06     0.05  -0.01   0.12
    30   1     0.38  -0.14   0.14    -0.11   0.06   0.00     0.15   0.03   0.19
    31   8     0.10  -0.05  -0.12     0.09   0.13   0.13     0.03   0.07   0.04
    32   1     0.08  -0.12  -0.03     0.08   0.23   0.01    -0.02   0.11  -0.00
    33   1     0.08  -0.06  -0.07     0.09   0.05   0.11     0.04   0.00   0.01
    34   1    -0.07  -0.00  -0.02     0.10  -0.04  -0.03     0.08  -0.02  -0.00
    35   1    -0.00   0.08  -0.05     0.12   0.01  -0.12     0.03  -0.08  -0.02
    36   1     0.04  -0.02  -0.01     0.15  -0.04  -0.03     0.00  -0.01   0.01
                      7                      8                      9
                      A                      A                      A
 Frequencies --    101.9350               117.9765               155.8206
 Red. masses --      4.4796                 3.9173                 2.0648
 Frc consts  --      0.0274                 0.0321                 0.0295
 IR Inten    --      3.7309                 1.9892                 1.2913
  Atom  AN      X      Y      Z        X      Y      Z        X      Y      Z
     1   7     0.10  -0.02  -0.08     0.00  -0.03  -0.02     0.05  -0.02   0.01
     2   6     0.00  -0.04  -0.07    -0.04  -0.04  -0.03    -0.03  -0.05   0.02
     3   6    -0.07  -0.04  -0.05    -0.11  -0.06  -0.00     0.03   0.00   0.01
     4   6    -0.00   0.03   0.01    -0.03   0.05   0.02    -0.02  -0.06   0.00
     5   6     0.08   0.03   0.01    -0.01  -0.01   0.03     0.10   0.19  -0.04
     6   6    -0.01  -0.07  -0.08    -0.03  -0.02  -0.05    -0.03  -0.06   0.01
     7   6    -0.01  -0.06  -0.06    -0.04   0.05   0.13    -0.07  -0.02   0.01
     8   7    -0.00  -0.03   0.04    -0.03   0.12   0.23    -0.06   0.04  -0.00
     9   6    -0.00  -0.00   0.13    -0.01   0.10   0.17    -0.00   0.06  -0.01
    10   6    -0.00  -0.01   0.10    -0.01   0.01  -0.05     0.04   0.02  -0.01
    11   6    -0.01  -0.05  -0.02    -0.02  -0.06  -0.17     0.02  -0.04  -0.00
    12   8    -0.03  -0.04   0.03     0.05   0.05  -0.10     0.01   0.00   0.01
    13   8    -0.15   0.24   0.16     0.07  -0.06  -0.08     0.00   0.02  -0.03
    14   1     0.13   0.04   0.02    -0.00  -0.02   0.08     0.32   0.28  -0.21
    15   1    -0.04   0.09   0.05    -0.07   0.17  -0.02    -0.01  -0.20   0.21
    16   1     0.03   0.02   0.01     0.08   0.07   0.07    -0.18  -0.16  -0.18
    17   1    -0.15  -0.03  -0.01    -0.23  -0.05   0.07     0.09   0.02  -0.07
    18   1    -0.08  -0.10  -0.10    -0.12  -0.16  -0.08     0.04   0.08   0.08
    19   1     0.09   0.05   0.05     0.01  -0.04   0.02    -0.03   0.43   0.08
    20   1    -0.01  -0.01  -0.03    -0.02  -0.03   0.01    -0.06  -0.03   0.01
    21   1    -0.01  -0.07  -0.09    -0.05   0.06   0.17    -0.11  -0.03   0.01
    22   1     0.00   0.03   0.22    -0.00   0.16   0.27     0.00   0.10  -0.01
    23   1     0.00   0.01   0.17     0.01  -0.01  -0.13     0.08   0.03  -0.02
    24   1    -0.01  -0.05  -0.03    -0.02  -0.14  -0.34     0.06  -0.08  -0.00
    25   6     0.22   0.01  -0.09     0.07  -0.03  -0.03    -0.05  -0.09   0.03
    26   1     0.00  -0.02   0.05    -0.04   0.13   0.24    -0.07   0.06  -0.01
    27   1    -0.03   0.08   0.02     0.02  -0.01  -0.07     0.07  -0.00   0.02
    28   1    -0.26   0.25   0.37     0.12  -0.06  -0.17    -0.05   0.01   0.05
    29   1    -0.07  -0.03  -0.03     0.09   0.09  -0.11     0.01   0.01   0.00
    30   1    -0.01  -0.07   0.02    -0.16  -0.05  -0.26    -0.01  -0.01  -0.01
    31   8    -0.08  -0.02  -0.08     0.07  -0.06   0.01    -0.00  -0.01  -0.01
    32   1    -0.03  -0.08  -0.02     0.06  -0.09   0.05    -0.01  -0.04   0.02
    33   1    -0.09   0.05  -0.03     0.08  -0.04   0.00     0.01   0.01  -0.03
    34   1     0.28   0.03  -0.09     0.10  -0.03  -0.01     0.12  -0.03   0.03
    35   1     0.24  -0.00  -0.18     0.08  -0.05  -0.07    -0.10  -0.32   0.10
    36   1     0.24   0.04  -0.01     0.08  -0.03  -0.00    -0.26   0.03  -0.04
                     10                     11                     12
                      A                      A                      A
 Frequencies --    173.4252               203.3909               227.3779
 Red. masses --      4.5071                 3.0518                 1.3300
 Frc consts  --      0.0799                 0.0744                 0.0405
 IR Inten    --     11.7556                 3.2267                17.9517
  Atom  AN      X      Y      Z        X      Y      Z        X      Y      Z
     1   7    -0.01  -0.02   0.02     0.01   0.05   0.01    -0.00   0.00   0.00
     2   6     0.00  -0.02   0.01     0.04   0.07  -0.01     0.00   0.00   0.00
     3   6    -0.00  -0.03   0.01    -0.14  -0.10   0.04    -0.00  -0.00   0.00
     4   6    -0.00  -0.03   0.02    -0.08  -0.03   0.03    -0.00  -0.00  -0.00
     5   6    -0.03  -0.11   0.04     0.01   0.08  -0.00     0.00   0.01  -0.00
     6   6    -0.01  -0.02   0.02     0.06   0.09  -0.08     0.00   0.01  -0.01
     7   6    -0.02  -0.01   0.01     0.14   0.02  -0.07     0.01   0.00  -0.01
     8   7    -0.02  -0.02  -0.01     0.13  -0.06   0.01     0.01  -0.00  -0.00
     9   6    -0.01  -0.02  -0.02     0.05  -0.08   0.07     0.01   0.00   0.01
    10   6    -0.00  -0.01   0.02    -0.04  -0.02   0.02     0.00   0.00  -0.01
    11   6    -0.00  -0.01   0.04    -0.01   0.07  -0.07     0.00   0.01  -0.01
    12   8     0.01  -0.03  -0.02    -0.00   0.05  -0.01     0.05  -0.03  -0.00
    13   8     0.02   0.35  -0.23     0.03   0.01   0.02    -0.07  -0.04  -0.06
    14   1    -0.12  -0.14   0.10     0.06   0.11  -0.07     0.01   0.01  -0.01
    15   1     0.00  -0.00  -0.03    -0.12  -0.00   0.12    -0.00  -0.00   0.00
    16   1     0.03   0.00   0.08    -0.06  -0.09  -0.05     0.00  -0.00  -0.01
    17   1    -0.01  -0.03   0.02    -0.24  -0.17   0.24    -0.00  -0.00   0.01
    18   1    -0.01  -0.03  -0.00    -0.21  -0.25  -0.15    -0.01   0.00  -0.00
    19   1     0.03  -0.20  -0.00    -0.01   0.16   0.07    -0.01   0.02   0.00
    20   1    -0.00  -0.02   0.00     0.14   0.06   0.09     0.01   0.00   0.00
    21   1    -0.02  -0.01   0.02     0.23   0.03  -0.09     0.02  -0.01  -0.03
    22   1    -0.01  -0.02  -0.05     0.04  -0.14   0.15     0.01   0.00   0.02
    23   1     0.00  -0.01   0.02    -0.12  -0.04   0.05    -0.00  -0.00  -0.00
    24   1    -0.00  -0.00   0.06    -0.07   0.11  -0.09    -0.00   0.01  -0.02
    25   6    -0.07  -0.15   0.03    -0.13  -0.10   0.03    -0.00   0.02   0.00
    26   1    -0.02  -0.02  -0.03     0.16  -0.09   0.03     0.01   0.00   0.01
    27   1     0.04   0.40  -0.16     0.05   0.01   0.05    -0.02  -0.05   0.01
    28   1    -0.01   0.38  -0.12     0.01   0.04   0.11    -0.14   0.24   0.63
    29   1     0.07  -0.02   0.02    -0.04   0.03  -0.02     0.02  -0.07   0.03
    30   1     0.02  -0.02  -0.02     0.06   0.08   0.04    -0.35  -0.04  -0.21
    31   8     0.09   0.03   0.10    -0.04  -0.01  -0.03     0.02   0.00   0.08
    32   1     0.15  -0.02   0.14    -0.04  -0.02  -0.02     0.10   0.39  -0.39
    33   1     0.15   0.21   0.02    -0.04  -0.01  -0.03     0.02  -0.10   0.03
    34   1    -0.16  -0.23   0.12    -0.15  -0.14   0.10    -0.02   0.02  -0.01
    35   1    -0.07  -0.11   0.07    -0.16  -0.16   0.12    -0.00   0.04   0.01
    36   1    -0.03  -0.25  -0.09    -0.20  -0.14  -0.14     0.01   0.02   0.01
                     13                     14                     15
                      A                      A                      A
 Frequencies --    238.0264               246.2516               250.3065
 Red. masses --      2.6363                 1.3203                 1.2070
 Frc consts  --      0.0880                 0.0472                 0.0446
 IR Inten    --     29.9499                 7.5519               136.2875
  Atom  AN      X      Y      Z        X      Y      Z        X      Y      Z
     1   7     0.01   0.02   0.00     0.02   0.00  -0.01    -0.00  -0.00   0.01
     2   6     0.01   0.01   0.01    -0.01   0.00  -0.01    -0.01  -0.01   0.01
     3   6     0.02  -0.00   0.01    -0.01  -0.02  -0.01     0.01   0.01   0.00
     4   6     0.01  -0.01   0.00     0.01  -0.01  -0.01     0.01  -0.00  -0.00
     5   6     0.00  -0.02   0.00     0.03   0.06  -0.02    -0.00  -0.01   0.00
     6   6    -0.00   0.00   0.00    -0.01   0.00   0.02    -0.01  -0.02   0.00
     7   6    -0.02   0.02  -0.00    -0.01   0.01   0.03    -0.01  -0.02  -0.01
     8   7    -0.02   0.05   0.01    -0.01  -0.00   0.00    -0.01  -0.01   0.01
     9   6     0.01   0.07   0.00    -0.03  -0.02  -0.03    -0.01  -0.01   0.02
    10   6     0.03   0.03  -0.03    -0.03  -0.01   0.00    -0.01  -0.02  -0.00
    11   6     0.03   0.00  -0.03    -0.02   0.01   0.05    -0.01  -0.02  -0.01
    12   8    -0.16  -0.08   0.11     0.06   0.04  -0.02    -0.02   0.05  -0.03
    13   8     0.17   0.02   0.00    -0.03  -0.02   0.01     0.01  -0.03  -0.05
    14   1    -0.03  -0.03   0.01     0.10   0.09  -0.07    -0.01  -0.01   0.00
    15   1     0.01  -0.02  -0.00    -0.00  -0.01   0.03     0.01  -0.01  -0.01
    16   1     0.01  -0.01   0.01    -0.00  -0.03  -0.05     0.01   0.00   0.01
    17   1     0.03  -0.01   0.02    -0.02  -0.03   0.02     0.03   0.01  -0.01
    18   1     0.01  -0.00   0.01    -0.01  -0.05  -0.02     0.02   0.02   0.02
    19   1     0.02  -0.04   0.00    -0.02   0.13   0.01    -0.00  -0.01  -0.00
    20   1    -0.00   0.03   0.02    -0.02   0.01   0.01    -0.01  -0.01   0.00
    21   1    -0.04   0.00  -0.02    -0.02   0.01   0.05    -0.01  -0.03  -0.04
    22   1     0.01   0.11   0.02    -0.03  -0.04  -0.08    -0.01  -0.00   0.04
    23   1     0.06   0.04  -0.05    -0.02  -0.01  -0.01    -0.01  -0.02  -0.01
    24   1     0.04  -0.03  -0.05    -0.02   0.02   0.07    -0.01  -0.03  -0.03
    25   6    -0.02  -0.02   0.01     0.04  -0.05  -0.02    -0.00   0.03   0.01
    26   1    -0.03   0.09   0.02    -0.01  -0.01   0.00    -0.01  -0.02  -0.01
    27   1     0.12   0.07   0.03    -0.01  -0.03   0.01     0.03  -0.02   0.01
    28   1     0.21   0.24   0.37    -0.04  -0.06  -0.04    -0.02   0.27   0.61
    29   1    -0.21  -0.08   0.08     0.06   0.03  -0.02     0.07   0.12  -0.04
    30   1    -0.24  -0.12   0.05     0.01   0.04  -0.04     0.49   0.08   0.24
    31   8    -0.03  -0.08  -0.12    -0.01   0.02   0.02     0.03   0.03  -0.02
    32   1     0.02   0.04  -0.26    -0.03  -0.02   0.07    -0.16  -0.24   0.33
    33   1    -0.05  -0.13  -0.12    -0.01   0.02   0.02     0.01  -0.06   0.01
    34   1    -0.34  -0.15   0.07    -0.45  -0.26   0.09    -0.03   0.03  -0.01
    35   1     0.02   0.30   0.04     0.12   0.46  -0.03     0.00   0.06   0.01
    36   1     0.22  -0.24  -0.07     0.45  -0.40  -0.10     0.02   0.02   0.03
                     16                     17                     18
                      A                      A                      A
 Frequencies --    259.6912               266.4638               272.2297
 Red. masses --      1.9907                 2.0069                 1.9089
 Frc consts  --      0.0791                 0.0840                 0.0834
 IR Inten    --     86.8527                54.0982                25.0115
  Atom  AN      X      Y      Z        X      Y      Z        X      Y      Z
     1   7    -0.00   0.00   0.02     0.01  -0.00  -0.03     0.00   0.01  -0.01
     2   6     0.01   0.00   0.02     0.00   0.01  -0.02     0.02   0.02  -0.01
     3   6     0.01   0.01   0.02    -0.01  -0.04  -0.02    -0.01  -0.01  -0.01
     4   6     0.01   0.01   0.01     0.00  -0.02  -0.02    -0.00  -0.00  -0.00
     5   6     0.01   0.03   0.00     0.01   0.00  -0.02     0.01   0.02  -0.01
     6   6     0.02  -0.01  -0.04     0.00   0.08   0.05     0.02   0.05  -0.00
     7   6     0.01  -0.01  -0.05     0.01   0.09   0.10     0.03   0.05   0.02
     8   7     0.01   0.01  -0.01    -0.00   0.04   0.04     0.02   0.02   0.01
     9   6     0.04   0.05   0.07    -0.03  -0.01  -0.07     0.02   0.02  -0.02
    10   6     0.05   0.01  -0.01    -0.04   0.03  -0.01     0.02   0.03  -0.01
    11   6     0.04  -0.03  -0.10    -0.02   0.08   0.07     0.02   0.05   0.00
    12   8    -0.08  -0.11  -0.04    -0.08  -0.04  -0.01    -0.08  -0.15   0.03
    13   8    -0.10  -0.00  -0.01    -0.02  -0.03  -0.01    -0.08  -0.05  -0.03
    14   1     0.04   0.04  -0.02     0.01   0.01  -0.03     0.02   0.03  -0.03
    15   1     0.01  -0.00   0.02    -0.01  -0.01  -0.01    -0.01   0.00   0.01
    16   1    -0.00  -0.00  -0.01     0.01  -0.03  -0.03    -0.00  -0.01  -0.02
    17   1     0.02   0.01   0.01    -0.04  -0.06   0.03    -0.03  -0.03   0.03
    18   1     0.01   0.02   0.03    -0.02  -0.08  -0.06    -0.03  -0.04  -0.04
    19   1    -0.02   0.06   0.01     0.01   0.01  -0.00    -0.00   0.04   0.01
    20   1     0.02  -0.00   0.02     0.02   0.01  -0.01     0.04   0.01  -0.00
    21   1    -0.00  -0.02  -0.07     0.03   0.11   0.14     0.05   0.06   0.04
    22   1     0.04   0.10   0.16    -0.04  -0.06  -0.18     0.02   0.01  -0.04
    23   1     0.05   0.02   0.01    -0.06   0.01  -0.05     0.00   0.02  -0.01
    24   1     0.04  -0.06  -0.17    -0.04   0.11   0.09     0.02   0.06   0.01
    25   6    -0.05   0.06   0.03     0.10  -0.10  -0.04     0.02  -0.02  -0.01
    26   1     0.01  -0.01  -0.04     0.01   0.00   0.00     0.02   0.04   0.02
    27   1    -0.06  -0.03   0.00    -0.02  -0.02  -0.00    -0.05  -0.07  -0.01
    28   1    -0.14  -0.17  -0.28    -0.01   0.02   0.09    -0.12  -0.03   0.07
    29   1    -0.00  -0.03  -0.06    -0.05   0.03  -0.07     0.03  -0.11   0.08
[...]
 .00001818,-0.00005321,-0.00009106,-0.00000038,0.00018044,0.00049887,-0
 .00011989,0.00002999,0.00002218,-0.00009098,-0.00002702,-0.00003459,-0
 .00001555,-0.00000253,-0.00004470,-0.00001256,-0.00043301,0.00003881,-
 0.00075293,0.00164676,0.00294801,-0.00090134,-0.00041988,0.00211409,-0
 .00227833,-0.00077994,-0.00097946,-0.00030942,-0.00452397,0.00025863,-
 0.00876894,0.00001835,-0.00109623,0.00038819,0.19764328,0.27527846,0.3
 2842908,0.00004891,0.00009171,0.00004573,0.00003431,-0.00008078,-0.000
 03215,-0.00000826,0.00000541,0.00000840,-0.00000107,0.00000487,-0.0000
 0584,-0.00004868,-0.00001825,-0.00000136,0.00002393,0.00006286,0.00000
 849,-0.00009151,-0.00006203,-0.00008460,0.00005412,0.00006485,0.000006
 82,0.00008881,-0.00002575,0.00002936,-0.00002916,0.00000745,-0.0000171
 4,0.00001692,-0.00003240,0.00001536,-0.00375105,0.00138244,0.00217756,
 -0.00214283,0.00122643,-0.00034092,-0.00001769,0.00001323,-0.00000511,
 0.00000471,0.00000670,0.00000589,-0.00000543,-0.00000321,-0.00000064,0
 .00000414,0.00000926,0.00000584,-0.00000105,-0.00000434,-0.00000080,0.
 00000545,0.00001302,-0.00000212,0.00000193,0.00001961,-0.00000426,-0.0
 0007887,-0.00003746,0.00002972,0.00000654,0.00000516,0.00001656,0.0000
 0632,0.00000350,-0.00000066,0.00000432,-0.00000629,-0.00000122,0.00000
 158,-0.00005220,-0.00009242,0.00002244,-0.00033552,-0.00004956,-0.0002
 1586,-0.00011892,-0.00009939,-0.00060993,-0.00033749,-0.00041497,0.006
 26936,0.00045786,-0.00147609,-0.00018550,0.00050228,0.00028690,-0.0531
 1317,-0.02332465,-0.03800135,0.05363765,0.00014215,0.00013575,0.000027
 18,0.00002869,-0.00010134,-0.00004717,-0.00000772,0.00000116,0.0000027
 2,0.00000830,-0.00000184,0.00000496,-0.00011961,0.00003873,0.00000291,
 0.00001814,0.00002704,-0.00000714,0.00004596,0.00006750,-0.00009446,-0
 .00000517,0.00003406,0.00000180,-0.00001759,0.00000185,-0.00002997,0.0
 0000100,-0.00002780,0.00002462,-0.00000319,-0.00003388,0.00002272,-0.0
 0054662,0.00116360,0.00021629,0.00143588,0.00034504,0.00064069,-0.0000
 1027,-0.00000431,-0.00000106,0.00000796,0.00001207,0.00000589,-0.00001
 293,-0.00000331,-0.00000628,0.00000705,0.00000792,0.00000497,0.0000043
 5,-0.00000706,-0.00000176,0.00001603,0.00000929,-0.00000530,-0.0000004
 2,0.00002534,-0.00000263,0.00003309,-0.00018038,0.00001360,0.00001127,
 -0.00001809,-0.00001767,-0.00000338,-0.00000841,-0.00000651,0.00000188
 ,-0.00000947,-0.00000050,-0.00009871,0.00003781,-0.00006290,-0.0000980
 5,0.00007022,0.00004563,0.00000569,-0.00026849,0.00000290,0.00015705,0
 .00021342,0.00006004,0.00038889,-0.00189375,-0.00048672,0.00026522,-0.
 00004275,-0.00002233,-0.05965547,-0.31476398,-0.27195612,0.05418132,0.
 31363089,0.00009941,0.00017044,-0.00016677,-0.00004338,-0.00001559,-0.
 00000057,-0.00000738,-0.00002813,-0.00000160,-0.00001086,-0.00001343,0
 .00001294,-0.00003923,-0.00002012,-0.00002708,-0.00002911,0.00012565,-
 0.00006813,-0.00012499,-0.00010295,0.00010388,0.00011903,0.00012282,-0
 .00000687,0.00006848,-0.00001481,0.00001430,-0.00005848,0.00001694,-0.
 00002343,0.00006256,-0.00005508,0.00000239,0.00085242,0.00033550,-0.00
 008974,0.00027896,0.00069905,0.00009892,-0.00000947,-0.00001271,0.0000
 1608,0.00000733,0.00000820,-0.00000723,-0.00001032,0.00000533,-0.00001
 943,0.00000452,0.00000676,-0.00000993,0.00001113,-0.00000603,-0.000019
 18,0.00002639,0.00002188,-0.00000601,0.00001432,0.00002795,-0.00000283
 ,0.00005256,-0.00000100,-0.00004451,-0.00000039,0.00000611,0.00001803,
 0.00000500,0.00000702,0.00000874,0.00000255,0.00000889,0.00000489,0.00
 004023,0.00000930,0.00017015,-0.00007417,-0.00027921,-0.00002848,-0.00
 033662,-0.00034607,0.00027149,-0.00028767,-0.00018139,-0.00000106,-0.0
 0113661,-0.00168970,-0.00132502,0.00014477,-0.00032168,-0.00012216,-0.
 06575756,-0.25190891,-0.22804965,0.06344671,0.26718668,0.23912727,0.00
 116758,0.00318397,-0.00123771,0.00066370,-0.00102924,-0.00076011,-0.00
 010666,-0.00000632,0.00021503,-0.00003542,-0.00020066,0.00003034,-0.00
 089329,-0.00019282,-0.00008898,0.00047784,0.00019107,-0.00008824,0.000
 12766,-0.00028640,0.00027778,-0.00085323,-0.00070605,0.00013508,-0.000
 33831,0.00082454,-0.00027268,-0.00049043,-0.00021318,0.00010821,0.0001
 5116,-0.00020352,0.00009512,0.00145401,-0.00311992,-0.00166778,0.00330
 095,0.00383424,0.00203353,-0.00026618,-0.00001252,0.00016274,0.0000360
 6,0.00019961,-0.00003456,-0.00022876,0.00007717,-0.00025298,0.00007161
 ,0.00012995,-0.00002212,0.00007515,-0.00018161,-0.00011647,0.00022116,
 0.00022166,-0.00006067,-0.00004425,0.00050401,0.00003843,0.00172313,-0
 .00137311,-0.00002648,0.00001752,0.00010762,0.00000630,-0.00004504,-0.
 00000449,0.00001792,0.00003246,-0.00005122,0.00001538,0.00038938,-0.00
 008421,0.00106960,0.00137711,0.00254908,-0.00014401,-0.00254066,-0.007
 49721,0.00413833,0.00109211,0.00356691,-0.00002299,-0.00530979,0.00330
 045,0.00252894,-0.00026359,0.00001056,0.00040522,-0.39483922,0.0337972
 8,-0.15585508,0.00011741,0.00380909,0.00265229,0.39386161,0.00036365,0
 .00000669,0.00012105,-0.00014098,-0.00015324,0.00002617,0.00001056,-0.
 00002473,-0.00005635,0.00001419,0.00000276,0.00001604,-0.00016568,0.00
 009449,-0.00007158,-0.00032121,0.00065322,-0.00022453,0.00020550,-0.00
 097885,0.00065775,0.00005450,-0.00043730,0.00011025,0.00007213,0.00043
 382,-0.00024909,-0.00044455,-0.00007922,0.00004972,0.00037201,-0.00030
 439,0.00000688,0.00034871,-0.00120953,-0.00146011,-0.00046316,-0.01094
 657,0.00243291,-0.00001439,-0.00001676,0.00001578,0.00002460,0.0000193
 8,0.00000599,-0.00001729,-0.00001856,-0.00001626,0.00001600,0.00001839
 ,-0.00000369,-0.00001014,-0.00001705,-0.00004312,0.00007651,0.00003272
 ,0.00000215,0.00004131,0.00004088,-0.00000857,-0.00031308,-0.00116723,
 -0.00117431,0.00001460,0.00006177,-0.00001103,-0.00000451,-0.00000316,
 0.00001702,-0.00000916,0.00003553,-0.00001171,-0.00023449,0.00001564,0
 .00011199,0.00087888,0.00079338,-0.00018038,-0.00185058,-0.00018769,-0
 .00218252,0.00383163,0.00241095,0.00171203,-0.00070134,0.00097738,0.00
 318394,-0.00002756,-0.00014873,-0.00018599,0.07321496,-0.04383454,0.00
 563488,-0.03358995,0.00162447,-0.01380870,-0.04139653,0.05241857,0.000
 53562,0.00183758,-0.00093765,0.00017926,-0.00031488,-0.00030249,-0.000
 07649,-0.00006419,0.00010734,-0.00003446,-0.00011125,0.00003924,-0.000
 41621,-0.00016548,-0.00005826,-0.00000546,0.00038246,-0.00015520,0.000
 38745,-0.00047420,0.00034880,-0.00042870,-0.00025938,-0.00002612,-0.00
 012847,0.00036432,-0.00007942,-0.00024765,-0.00005402,0.00003940,0.000
 18450,-0.00006997,0.00001386,0.00103145,-0.00325624,-0.00405371,0.0025
 2426,0.00423914,-0.00684331,-0.00011485,-0.00003445,0.00010179,0.00001
 905,0.00008407,-0.00004259,-0.00011485,0.00004194,-0.00014329,0.000038
 75,0.00006132,-0.00003916,0.00005339,-0.00008184,-0.00008963,0.0000886
 1,0.00010810,-0.00003603,0.00000443,0.00023597,0.00001621,0.00023732,-
 0.00181459,-0.00000663,0.00000092,0.00006776,0.00000762,-0.00001633,0.
 00000283,0.00001133,0.00000391,0.00001628,0.00000924,0.00039341,0.0000
 3043,0.00085958,0.00078727,0.00090287,0.00005310,0.00133268,-0.0043259
 3,0.00424588,0.00089951,0.00116059,-0.00044143,-0.00130697,0.00405902,
 0.00732595,0.00041377,-0.00034631,0.00007231,-0.12751691,-0.01234924,-
 0.08435202,-0.02552769,0.00445018,-0.00986691,0.14684788,0.00538692,0.
 09464493,0.00035284,-0.00509270,-0.00294078,-0.00021848,-0.00010115,-0
 .00120447,0.00029909,-0.00001508,-0.00040357,0.00001311,-0.00008586,0.
 00009027,0.00079540,-0.00126003,-0.00051518,0.00011453,0.00001098,-0.0
 0000414,0.00020493,0.00013721,-0.00006398,-0.00004948,-0.00009832,0.00
 002682,0.00001127,0.00004696,-0.00003770,-0.00001712,-0.00003616,0.000
 03868,0.00008166,-0.00023544,0.00009966,0.00001723,-0.00016466,-0.0000
 6342,-0.00008582,-0.00023980,-0.00042641,0.00020038,0.00027824,-0.0000
 5023,0.00001222,-0.00001119,0.00001401,-0.00001342,0.00000883,0.000043
 65,0.00001599,-0.00002349,-0.00003987,-0.00005156,0.00000375,-0.000111
 53,-0.00004834,-0.00012351,0.00013673,-0.00000173,0.00034360,0.0001077
 8,-0.00003797,0.00010159,-0.00000638,0.00000801,-0.00000045,-0.0000001
 2,-0.00000501,-0.00000357,-0.00000342,-0.00002712,-0.00000618,-0.00000
 523,-0.07035485,0.07145921,0.03155772,0.00011382,0.00018772,-0.0000358
 6,0.00020707,0.00046188,0.00042858,0.00006084,-0.00000585,0.00004926,-
 0.00013074,0.00011701,0.00012996,-0.00000510,-0.00000332,0.00000491,0.
 00024065,-0.00002262,-0.00026120,-0.00010629,-0.00007634,0.00006614,-0
 .00011609,-0.00000746,0.00020515,0.07034678,-0.00134070,0.00374559,0.0
 0098759,-0.00017895,0.00106779,0.00046021,0.00031159,0.00023489,0.0002
 3879,-0.00017137,0.00009757,-0.00014281,0.00021854,0.00074302,0.000518
 24,-0.00011663,0.00010114,0.00008202,-0.00006265,-0.00006443,-0.000002
 73,0.00010233,0.00005628,-0.00000905,-0.00000703,-0.00001326,0.0000075
 9,0.00000049,0.00003634,-0.00001538,-0.00004255,-0.00002730,0.00001368
 ,0.00003474,0.00006785,0.00000562,0.00019517,0.00023728,-0.00006211,-0
 .00031962,0.00005371,-0.00038214,-0.00001217,0.00000625,0.00000595,-0.
 00001042,-0.00000285,0.00000862,-0.00003462,0.00002793,0.00008118,-0.0
 0008808,0.00003590,-0.00008685,-0.00001574,-0.00043959,0.00009109,0.00
 014219,0.00051077,0.00026246,0.00000660,-0.00002565,0.00000167,-0.0000
 0314,0.00000408,-0.00000325,-0.00000190,0.00000090,0.00000076,-0.00001
 815,0.00006339,0.00002230,0.07056667,-0.26353753,-0.09328351,-0.000066
 25,-0.00010378,0.00002411,-0.00012848,-0.00017246,-0.00000727,0.000003
 03,-0.00001314,0.00001962,0.00001314,-0.00002898,-0.00002893,-0.000006
 25,0.00000069,0.00000519,0.00001286,0.00001522,0.00007137,0.00001314,0
 .00001306,-0.00002559,-0.00003772,0.00000252,-0.00006464,-0.07610834,0
 .27763954,0.01202256,-0.03274615,-0.01958076,-0.00222157,0.00232637,-0
 .00540395,0.00025259,-0.00180127,-0.00075396,0.00045473,0.00008046,0.0
 0008083,0.00111432,-0.00138121,0.00119534,-0.00081697,0.00019403,0.000
 03582,0.00010494,0.00005872,0.00005981,0.00006353,0.00004904,-0.000021
 48,0.00004616,-0.00000717,-0.00001874,0.00001546,-0.00004310,0.0000457
 0,0.00019740,0.00001783,0.00006835,-0.00001816,0.00006492,0.00002927,-
 0.00003736,0.00057199,0.00029255,-0.00046566,0.00050018,-0.00016192,-0
 .00002482,0.00006311,0.00009132,-0.00005732,0.00003863,-0.00000026,-0.
 00017816,0.00015426,-0.00059611,-0.00000764,0.00001499,-0.00010224,-0.
 00029278,0.00018241,-0.00008142,-0.00016947,-0.00015057,0.00001679,-0.
 00000634,-0.00008625,-0.00001904,-0.00000271,-0.00000139,-0.00000228,0
 .00001874,-0.00000448,-0.00000886,-0.00001152,-0.00004478,-0.00005403,
 0.02717407,-0.08409011,-0.08425277,-0.00002825,-0.00007352,0.00000451,
 -0.00012315,-0.00113020,-0.00032576,0.00004462,0.00007996,-0.00015903,
 0.00006092,-0.00004617,-0.00005428,0.00000583,-0.00000033,-0.00000267,
 -0.00015742,-0.00000541,0.00002674,0.00002948,0.00001867,0.00001907,0.
 00017915,0.00001951,-0.00002267,-0.03171925,0.09979191,0.10130294,-0.0
 0115315,0.00059071,-0.00213376,-0.00016482,0.00081071,0.00032019,-0.00
 010684,-0.00004601,-0.00013352,-0.00012386,0.00024494,0.00015399,0.001
 55305,-0.00057825,-0.00087496,-0.00017058,0.00004272,0.00040819,0.0002
 1323,0.00025418,0.00034114,-0.00003396,-0.00001641,-0.00003071,-0.0000
 4495,-0.00005208,-0.00004526,0.00013649,-0.00003819,0.00006147,0.00009
 014,-0.00010471,0.00023992,-0.00002651,-0.00003195,0.00002767,0.000280
 28,0.00030347,-0.00005683,0.00003334,-0.00001138,0.00012348,0.00002017
 ,-0.00003345,-0.00009286,0.00002150,-0.00004404,-0.00013946,0.00000912
 ,-0.00004117,-0.00002452,0.00003254,-0.00000215,-0.00001967,0.00044786
 ,0.00012266,0.00015984,-0.00018020,-0.00008981,0.00008793,-0.00003690,
 0.00002253,-0.00007642,0.00000713,-0.00000768,0.00000275,0.00000556,-0
 .00000765,-0.00001136,-0.00003768,-0.00006155,-0.00007754,-0.30417232,
 0.03628977,-0.05296155,0.00004537,0.00006520,-0.00003067,-0.00034816,-
 0.00038442,-0.00002930,-0.00001335,0.00001749,-0.00000134,0.00001659,-
 0.00000109,-0.00001977,0.00000077,-0.00000011,-0.00001346,-0.00000621,
 -0.00003023,0.00011734,0.00002143,0.00002806,-0.00003282,-0.00007375,0
 .00006025,-0.00014802,-0.00699402,-0.00042622,-0.00123948,0.32486993,0
 .00119071,-0.00163355,0.00020805,-0.00078582,0.00032005,-0.00015924,-0
 .00000278,0.00003046,0.00006283,0.00027916,0.00047628,-0.00022839,-0.0
 0026896,0.00041391,0.00035480,0.00014042,-0.00020478,-0.00032913,0.000
 33355,0.00020443,-0.00028029,-0.00034788,-0.00005021,0.00002335,0.0000
 0251,-0.00004791,0.00005153,0.00014952,-0.00006801,0.00001886,-0.00006
 744,0.00000307,-0.00008955,0.00003513,-0.00021775,-0.00010129,-0.00033
 432,-0.00010396,-0.00026784,-0.00031001,0.00030576,-0.00016835,-0.0000
 0808,0.00003499,0.00013693,-0.00000836,-0.00006800,-0.00010811,-0.0000
 1612,0.00001411,0.00001292,0.00000499,-0.00000630,0.00001145,0.0004502
 1,0.00005720,-0.00000534,-0.00013052,-0.00004810,0.00017124,-0.0000276
 6,0.00002614,0.00010482,0.00000589,-0.00000351,-0.00000230,-0.00000230
 ,0.00000256,-0.00000397,-0.00003411,-0.00005181,-0.00002234,0.03571272
 ,-0.05282572,0.00801871,0.00014088,0.00025948,-0.00003682,0.00049344,0
 .00023654,0.00018981,0.00007096,-0.00000685,-0.00006721,-0.00019339,0.
 00014791,0.00019687,-0.00000770,-0.00000661,0.00000861,0.00028612,0.00
 015595,-0.00042102,-0.00009122,-0.00012144,0.00005962,0.00003240,-0.00
 015041,0.00032316,0.02682137,-0.00224581,0.00644382,-0.04057640,0.0513
 1023,-0.03765018,0.00795552,-0.01180728,-0.00112872,0.00055264,0.00141
 415,-0.00010485,0.00043946,0.00012335,-0.00201168,0.00020314,-0.000403
 52,0.00205208,-0.00168459,-0.00592241,0.00020772,-0.00026845,-0.000596
 35,0.00011702,-0.00007815,-0.00029924,0.00019194,-0.00020931,0.0001075
 8,0.00003438,0.00026081,-0.00013725,-0.00026676,-0.00013222,0.00005571
 ,0.00039924,-0.00038035,0.00006148,-0.00008589,-0.00009750,0.00002708,
 0.00044824,0.00027950,-0.00002279,0.00004807,0.00024718,0.00004649,0.0
 0004678,-0.00005033,-0.00060219,-0.00003341,-0.00002737,-0.00015146,0.
 00005362,-0.00002389,0.00006298,0.00006148,-0.00003314,-0.00003357,-0.
 00018327,-0.00026389,0.00000249,0.00013840,-0.00026650,-0.00022602,-0.
 00007659,0.00010139,-0.00006796,0.00001093,0.00000211,-0.00000006,-0.0
 0000542,0.00000489,0.00000375,0.00000616,0.00003232,0.00001887,-0.0440
 1685,0.00615035,-0.05737405,0.00013857,0.00016216,-0.00005608,-0.00074
 794,-0.00061544,0.00012775,-0.00001066,0.00000659,-0.00000083,0.000026
 88,0.00002571,0.00000090,0.00000909,-0.00000108,-0.00001567,-0.0000768
 3,-0.00015937,-0.00001764,-0.00000046,-0.00001756,0.00006287,-0.000022
 30,0.00014111,-0.00009174,0.01193772,-0.00039144,0.00281004,0.05892036
 ,-0.00908082,0.06972500,0.00324172,0.00412807,-0.00012366,0.00025662,-
 0.00013290,-0.00026968,0.00014865,0.00017359,0.00001952,-0.00006076,-0
 .00006919,-0.00006738,0.00327361,0.00227616,-0.00158373,-0.00008542,0.
 00015779,-0.00007596,-0.00023412,-0.00012746,0.00003284,0.00032239,-0.
 00001690,-0.00000986,0.00000964,0.00009104,-0.00005648,-0.00013717,0.0
 0000685,-0.00004406,-0.00001523,-0.00031162,0.00010339,-0.00006109,0.0
 0007656,0.00005612,-0.00015740,-0.00029334,0.00020151,-0.00015465,-0.0
 0012946,0.00005059,-0.00001002,-0.00003955,0.00003287,-0.00006390,-0.0
 0002260,0.00001039,-0.00000975,0.00000645,0.00006018,-0.00009222,0.000
 06520,-0.00009027,0.00038652,-0.00079072,0.00100404,-0.00027244,0.0004
 6888,0.00077315,0.00007239,-0.00003201,-0.00009622,0.00000828,0.000011
 12,0.00000323,-0.00001505,0.00000395,0.00001450,0.00000638,0.00012402,
 0.00008069,-0.12534838,-0.10102016,0.05234981,-0.00001845,-0.00007408,
 -0.00000600,0.00023027,0.00062830,-0.00049815,-0.00002741,0.00004272,0
 .00000033,0.00011211,-0.00006125,-0.00009679,0.00001585,0.00000293,-0.
 00000888,-0.00020395,-0.00012743,0.00013812,0.00003604,0.00005841,0.00
 000425,0.00008706,0.00011211,-0.00008553,0.00516728,0.00757649,-0.0042
 0650,-0.01411724,-0.02293693,0.01157311,0.12770985,0.00058323,0.000214
 65,0.00536490,0.00181733,0.00303823,-0.00181330,0.00005695,0.00004903,
 -0.00020049,0.00021502,0.00022161,-0.00011807,-0.00060872,0.00033959,-
 0.00055636,0.00001905,-0.00015277,0.00010873,0.00001749,-0.00006083,0.
 00002140,-0.00005346,0.00002422,0.00000176,-0.00000906,0.00000141,0.00
 000540,-0.00002784,0.00000557,-0.00002219,-0.00006273,-0.00007266,0.00
 009414,-0.00007959,0.00002958,0.00003421,-0.00038570,-0.00054491,0.000
 36633,-0.00012306,-0.00017778,-0.00009254,0.00002490,0.00003246,0.0001
 0354,0.00005635,-0.00004293,-0.00015469,-0.00001253,-0.00001940,0.0000
 6901,-0.00004456,-0.00004415,-0.00008722,0.00096342,-0.00023320,0.0006
 9086,-0.00066915,0.00069463,0.00140315,0.00007878,-0.00004605,-0.00002
 003,0.00000221,0.00000229,-0.00000186,-0.00001018,-0.00000013,0.000004
 37,0.00000715,0.00001982,0.00003201,-0.10009046,-0.18490851,0.06970435
 ,0.00001964,0.00001285,0.00000330,0.00055246,0.00108862,-0.00063074,-0
 .00007895,0.00002228,-0.00010329,0.00009050,-0.00004700,-0.00005502,0.
 00002115,0.00000072,-0.00001010,-0.00022657,0.00000163,0.00000091,0.00
 004939,0.00002707,0.00001295,0.00025713,0.00003543,0.00003164,-0.01625
 683,-0.01808694,0.01094130,0.00373230,0.00386166,-0.00278350,0.1101749
 4,0.19471391,0.01652816,0.02630122,-0.03248409,0.00034540,0.00542896,0
 .00174745,-0.00040431,-0.00033607,0.00040369,-0.00016193,-0.00039085,0
 .00048881,0.00480196,0.00031518,0.00100246,-0.00019934,-0.00044335,-0.
 00002180,-0.00004045,0.00018293,-0.00004797,-0.00001742,-0.00009861,0.
 00004180,0.00004712,-0.00003019,-0.00003133,0.00002287,-0.00003086,0.0
 0004407,0.00016673,0.00006281,-0.00004011,0.00000987,0.00000304,0.0000
 3382,0.00129817,0.00182513,-0.00010211,-0.00040824,-0.00009441,-0.0000
 0827,-0.00003257,-0.00009989,-0.00007918,0.00001262,-0.00001119,0.0002
 2335,-0.00011497,-0.00008851,-0.00008011,0.00001613,-0.00005522,0.0002
 6430,-0.00149587,-0.00079213,0.00059769,-0.00060038,-0.00181973,0.0003
 9221,-0.00015160,0.00002198,0.00000267,0.00000019,-0.00000964,0.000006
 15,0.00000965,-0.00000530,-0.00000543,0.00001431,-0.00004656,-0.000014
 86,0.05108816,0.06856567,-0.08419043,-0.00000808,0.00000720,-0.0000177
 1,-0.00166422,-0.00276893,-0.00022404,0.00009374,-0.00001569,-0.000020
 11,0.00000831,-0.00000944,-0.00003717,-0.00000993,-0.00000022,-0.00000
 590,0.00008892,-0.00007224,0.00024911,0.00004593,0.00003363,-0.0000444
 1,-0.00028413,0.00003582,-0.00030833,-0.00704431,-0.00819428,0.0055431
 8,-0.00277101,-0.00502539,0.00317561,-0.05918948,-0.08234486,0.1035470
 1\\-0.00000151,0.00000065,-0.00000063,0.00000115,0.,0.00000065,0.00000
 007,-0.00000067,-0.00000001,0.00000047,-0.00000113,0.00000040,0.000000
 01,-0.00000067,-0.00000098,0.00000040,-0.00000084,-0.00000029,0.000000
 68,-0.00000019,0.00000021,-0.00000002,0.00000107,-0.00000028,0.0000007
 9,0.00000117,0.00000066,-0.00000051,-0.00000011,0.00000102,0.00000106,
 0.00000033,0.00000109,0.00000021,0.00000042,-0.00000042,-0.00000082,-0
 .00000049,-0.00000008,-0.00000039,-0.00000057,-0.00000062,0.,-0.000001
 18,0.00000004,-0.00000007,-0.00000096,-0.00000089,0.00000021,-0.000000
 81,0.00000016,0.00000044,-0.00000068,0.00000009,-0.00000003,-0.0000005
 3,-0.00000023,0.00000022,-0.00000055,0.00000030,0.00000002,0.00000007,
 0.00000003,0.00000040,0.00000077,0.00000073,0.00000072,0.00000063,0.00
 000108,0.00000065,0.00000016,0.00000066,-0.00000019,0.00000110,0.00000
 039,-0.00000015,0.00000020,0.00000046,0.00000004,-0.00000005,-0.000000
 03,-0.00000069,-0.00000009,-0.00000091,-0.00000064,0.00000074,0.000000
 05,-0.00000037,0.00000059,-0.00000007,-0.00000006,0.00000006,0.0000001
 3,-0.00000108,0.00000085,-0.00000094,-0.00000073,0.00000067,-0.0000009
 5,-0.00000024,-0.00000075,-0.00000073,-0.00000018,0.00000054,-0.000000
 19,0.00000015,0.00000025,0.00000010\\\@


 If your ship doesn't come in, swim out to it!
                          -- Jonathan Winters
 Job cpu time:       1 days  2 hours 53 minutes 22.1 seconds.
 Elapsed time:       0 days  0 hours 57 minutes 42.5 seconds.
 File lengths (MBytes):  RWF=   1056 Int=      0 D2E=      0 Chk=     24 Scr=      8
 Normal termination of Gaussian 16 at Thu Aug 27 11:18:17 2020.
