 Entering Gaussian System, Link 0=g16
 Input=NicPySa3h4wB97XDaVDZ180K.gjf
 Output=NicPySa3h4wB97XDaVDZ180K.log
 Initial command:
 /sw/contrib/gaussian/g16/A03/g16/l1.exe "/gscratch/scrubbed/gds001/Gau-12197.inp" -scrdir="/gscratch/scrubbed/gds001/"
 Entering Link 1 = /sw/contrib/gaussian/g16/A03/g16/l1.exe PID=     12198.
  
 Copyright (c) 1988,1990,1992,1993,1995,1998,2003,2009,2016,
            Gaussian, Inc.  All Rights Reserved.
  
 This is part of the Gaussian(R) 16 program.  It is based on
 the Gaussian(R) 09 system (copyright 2009, Gaussian, Inc.),
 the Gaussian(R) 03 system (copyright 2003, Gaussian, Inc.),
 the Gaussian(R) 98 system (copyright 1998, Gaussian, Inc.),
 the Gaussian(R) 94 system (copyright 1995, Gaussian, Inc.),
 the Gaussian 92(TM) system (copyright 1992, Gaussian, Inc.),
 the Gaussian 90(TM) system (copyright 1990, Gaussian, Inc.),
 the Gaussian 88(TM) system (copyright 1988, Gaussian, Inc.),
 the Gaussian 86(TM) system (copyright 1986, Carnegie Mellon
 University), and the Gaussian 82(TM) system (copyright 1983,
 Carnegie Mellon University). Gaussian is a federally registered
 trademark of Gaussian, Inc.
  
 This software contains proprietary and confidential information,
 including trade secrets, belonging to Gaussian, Inc.
  
 This software is provided under written license and may be
 used, copied, transmitted, or stored only in accord with that
 written license.
  
 The following legend is applicable only to US Government
 contracts under FAR:
  
                    RESTRICTED RIGHTS LEGEND
  
 Use, reproduction and disclosure by the US Government is
 subject to restrictions as set forth in subparagraphs (a)
 and (c) of the Commercial Computer Software - Restricted
 Rights clause in FAR 52.227-19.
  
 Gaussian, Inc.
 340 Quinnipiac St., Bldg. 40, Wallingford CT 06492
  
  
 ---------------------------------------------------------------
 Warning -- This program may not be used in any manner that
 competes with the business of Gaussian, Inc. or will provide
 assistance to any competitor of Gaussian, Inc.  The licensee
 of this program is prohibited from giving any competitor of
 Gaussian, Inc. access to this program.  By using this program,
 the user acknowledges that Gaussian, Inc. is engaged in the
 business of creating and licensing software in the field of
 computational chemistry and represents and warrants to the
 licensee that it is not a competitor of Gaussian, Inc. and that
 it will not use this program in any manner prohibited above.
 ---------------------------------------------------------------
  

 Cite this work as:
 Gaussian 16, Revision A.03,
 M. J. Frisch, G. W. Trucks, H. B. Schlegel, G. E. Scuseria, 
 M. A. Robb, J. R. Cheeseman, G. Scalmani, V. Barone, 
 G. A. Petersson, H. Nakatsuji, X. Li, M. Caricato, A. V. Marenich, 
 J. Bloino, B. G. Janesko, R. Gomperts, B. Mennucci, H. P. Hratchian, 
 J. V. Ortiz, A. F. Izmaylov, J. L. Sonnenberg, D. Williams-Young, 
 F. Ding, F. Lipparini, F. Egidi, J. Goings, B. Peng, A. Petrone, 
 T. Henderson, D. Ranasinghe, V. G. Zakrzewski, J. Gao, N. Rega, 
 G. Zheng, W. Liang, M. Hada, M. Ehara, K. Toyota, R. Fukuda, 
 J. Hasegawa, M. Ishida, T. Nakajima, Y. Honda, O. Kitao, H. Nakai, 
 T. Vreven, K. Throssell, J. A. Montgomery, Jr., J. E. Peralta, 
 F. Ogliaro, M. J. Bearpark, J. J. Heyd, E. N. Brothers, K. N. Kudin, 
 V. N. Staroverov, T. A. Keith, R. Kobayashi, J. Normand, 
 K. Raghavachari, A. P. Rendell, J. C. Burant, S. S. Iyengar, 
 J. Tomasi, M. Cossi, J. M. Millam, M. Klene, C. Adamo, R. Cammi, 
 J. W. Ochterski, R. L. Martin, K. Morokuma, O. Farkas, 
 J. B. Foresman, and D. J. Fox, Gaussian, Inc., Wallingford CT, 2016.
 
 ******************************************
 Gaussian 16:  ES64L-G16RevA.03 25-Dec-2016
                15-Nov-2021 
 ******************************************
 %nprocshared=28
 Will use up to   28 processors via shared memory.
 %mem=41GB
 ---------------------------------------------
 # wB97XD/aug-cc-pVDZ opt freq temperature=180
 ---------------------------------------------
 1/18=20,19=15,26=3,38=1,112=180000/1,3;
 2/9=110,12=2,17=6,18=5,40=1/2;
 3/5=16,7=10,11=2,25=1,30=1,71=1,74=-58/1,2,3;
 4//1;
 5/5=2,38=5/2;
 6/7=2,8=2,9=2,10=2,28=1/1;
 7//1,2,3,16;
 1/18=20,19=15,26=3/3(2);
 2/9=110/2;
 99//99;
 2/9=110/2;
 3/5=16,7=10,11=2,25=1,30=1,71=1,74=-58/1,2,3;
 4/5=5,16=3,69=1/1;
 5/5=2,38=5/2;
 7//1,2,3,16;
 1/18=20,19=15,26=3/3(-5);
 2/9=110/2;
 6/7=2,8=2,9=2,10=2,19=2,28=1/1;
 99/9=1/99;
 --------
 Nicotine
 --------
 Symbolic Z-matrix:
 Charge =  1 Multiplicity = 1
 C                     1.77631   2.22769  -0.58652 
 C                     1.53524   0.93086  -0.12123 
 C                     0.25253   0.64014   0.32065 
 N                    -0.71034   1.57444   0.28981 
 C                    -0.49994   2.81998  -0.16078 
 C                     0.75774   3.17839  -0.61234 
 C                     2.61208  -0.13447  -0.13037 
 N                     2.28423  -1.23205   0.77108 
 C                     2.80109  -2.46063   0.17376 
 C                     2.47973  -2.27714  -1.30272 
 C                     2.79437  -0.78982  -1.53216 
 O                    -3.17024   1.03305   1.11844 
 O                    -4.99185  -0.01431  -0.49399 
 H                     2.31552  -3.33404   0.62581 
 H                     3.06779  -2.93316  -1.9528 
 H                     1.4164   -2.4825   -1.48018 
 H                     3.83223  -0.66047  -1.85977 
 H                     2.15097  -0.33366  -2.29307 
 H                     3.89463  -2.5597    0.32605 
 H                     3.55891   0.35804   0.16497 
 H                    -0.00868  -0.34194   0.70772 
 H                    -1.3527    3.49395  -0.1399 
 H                     0.93451   4.18879  -0.97337 
 H                     2.77508   2.49722  -0.93226 
 C                     2.69228  -1.01046   2.14564 
 H                    -1.67393   1.32559   0.63645 
 H                    -3.51354   1.06947   2.01316 
 H                    -3.8725    0.634     0.54992 
 H                    -5.70133   0.51099  -0.87019 
 H                    -5.33199  -0.92674  -0.42877 
 O                    -5.91053  -2.60275  -0.30964 
 H                    -5.92916  -3.20907  -1.05482 
 H                    -6.58706  -2.91239   0.29837 
 H                     2.21597  -0.10355   2.54287 
 H                     3.78917  -0.89551   2.24571 
 H                     2.37487  -1.85723   2.76571 
 
 Add virtual bond connecting atoms H26        and O12        Dist= 3.02D+00.
 Add virtual bond connecting atoms H28        and O13        Dist= 3.14D+00.
 Add virtual bond connecting atoms O31        and H30        Dist= 3.36D+00.

 GradGradGradGradGradGradGradGradGradGradGradGradGradGradGradGradGradGrad
 Berny optimization.
 Initialization pass.
                           ----------------------------
                           !    Initial Parameters    !
                           ! (Angstroms and Degrees)  !
 --------------------------                            --------------------------
 ! Name  Definition              Value          Derivative Info.                !
 --------------------------------------------------------------------------------
 ! R1    R(1,2)                  1.3987         estimate D2E/DX2                !
 ! R2    R(1,6)                  1.3935         estimate D2E/DX2                !
 ! R3    R(1,24)                 1.0907         estimate D2E/DX2                !
 ! R4    R(2,3)                  1.3875         estimate D2E/DX2                !
 ! R5    R(2,7)                  1.5148         estimate D2E/DX2                !
 ! R6    R(3,4)                  1.342          estimate D2E/DX2                !
 ! R7    R(3,21)                 1.0874         estimate D2E/DX2                !
 ! R8    R(4,5)                  1.3411         estimate D2E/DX2                !
 ! R9    R(4,26)                 1.0539         estimate D2E/DX2                !
 ! R10   R(5,6)                  1.3835         estimate D2E/DX2                !
 ! R11   R(5,22)                 1.0871         estimate D2E/DX2                !
 ! R12   R(6,23)                 1.0874         estimate D2E/DX2                !
 ! R13   R(7,8)                  1.4577         estimate D2E/DX2                !
 ! R14   R(7,11)                 1.5581         estimate D2E/DX2                !
 ! R15   R(7,20)                 1.1074         estimate D2E/DX2                !
 ! R16   R(8,9)                  1.4606         estimate D2E/DX2                !
 ! R17   R(8,25)                 1.4509         estimate D2E/DX2                !
 ! R18   R(9,10)                 1.5222         estimate D2E/DX2                !
 ! R19   R(9,14)                 1.0968         estimate D2E/DX2                !
 ! R20   R(9,19)                 1.1085         estimate D2E/DX2                !
 ! R21   R(10,11)                1.5375         estimate D2E/DX2                !
 ! R22   R(10,15)                1.0949         estimate D2E/DX2                !
 ! R23   R(10,16)                1.0974         estimate D2E/DX2                !
 ! R24   R(11,17)                1.096          estimate D2E/DX2                !
 ! R25   R(11,18)                1.0959         estimate D2E/DX2                !
 ! R26   R(12,26)                1.599          estimate D2E/DX2                !
 ! R27   R(12,27)                0.959          estimate D2E/DX2                !
 ! R28   R(12,28)                0.9877         estimate D2E/DX2                !
 ! R29   R(13,28)                1.6622         estimate D2E/DX2                !
 ! R30   R(13,29)                0.9596         estimate D2E/DX2                !
 ! R31   R(13,30)                0.9759         estimate D2E/DX2                !
 ! R32   R(25,34)                1.0987         estimate D2E/DX2                !
 ! R33   R(25,35)                1.1074         estimate D2E/DX2                !
 ! R34   R(25,36)                1.0965         estimate D2E/DX2                !
 ! R35   R(30,31)                1.7771         estimate D2E/DX2                !
 ! R36   R(31,32)                0.9609         estimate D2E/DX2                !
 ! R37   R(31,33)                0.9609         estimate D2E/DX2                !
 ! A1    A(2,1,6)              120.8442         estimate D2E/DX2                !
 ! A2    A(2,1,24)             119.4965         estimate D2E/DX2                !
 ! A3    A(6,1,24)             119.6592         estimate D2E/DX2                !
 ! A4    A(1,2,3)              117.3581         estimate D2E/DX2                !
 ! A5    A(1,2,7)              121.8387         estimate D2E/DX2                !
 ! A6    A(3,2,7)              120.7813         estimate D2E/DX2                !
 ! A7    A(2,3,4)              120.6712         estimate D2E/DX2                !
 ! A8    A(2,3,21)             121.6456         estimate D2E/DX2                !
 ! A9    A(4,3,21)             117.6821         estimate D2E/DX2                !
 ! A10   A(3,4,5)              122.8013         estimate D2E/DX2                !
 ! A11   A(3,4,26)             118.9524         estimate D2E/DX2                !
 ! A12   A(5,4,26)             118.2459         estimate D2E/DX2                !
 ! A13   A(4,5,6)              119.5288         estimate D2E/DX2                !
 ! A14   A(4,5,22)             116.503          estimate D2E/DX2                !
 ! A15   A(6,5,22)             123.9677         estimate D2E/DX2                !
 ! A16   A(1,6,5)              118.7941         estimate D2E/DX2                !
 ! A17   A(1,6,23)             121.4137         estimate D2E/DX2                !
 ! A18   A(5,6,23)             119.7916         estimate D2E/DX2                !
 ! A19   A(2,7,8)              111.4652         estimate D2E/DX2                !
 ! A20   A(2,7,11)             112.6065         estimate D2E/DX2                !
 ! A21   A(2,7,20)             107.0636         estimate D2E/DX2                !
 ! A22   A(8,7,11)             105.4255         estimate D2E/DX2                !
 ! A23   A(8,7,20)             111.2388         estimate D2E/DX2                !
 ! A24   A(11,7,20)            109.085          estimate D2E/DX2                !
 ! A25   A(7,8,9)              107.5095         estimate D2E/DX2                !
 ! A26   A(7,8,25)             114.0567         estimate D2E/DX2                !
 ! A27   A(9,8,25)             114.6067         estimate D2E/DX2                !
 ! A28   A(8,9,10)             102.7428         estimate D2E/DX2                !
 ! A29   A(8,9,14)             110.158          estimate D2E/DX2                !
 ! A30   A(8,9,19)             111.5975         estimate D2E/DX2                !
 ! A31   A(10,9,14)            113.7225         estimate D2E/DX2                !
 ! A32   A(10,9,19)            110.6279         estimate D2E/DX2                !
 ! A33   A(14,9,19)            107.9957         estimate D2E/DX2                !
 ! A34   A(9,10,11)            102.6012         estimate D2E/DX2                !
 ! A35   A(9,10,15)            112.9735         estimate D2E/DX2                !
 ! A36   A(9,10,16)            109.8079         estimate D2E/DX2                !
 ! A37   A(11,10,15)           112.402          estimate D2E/DX2                !
 ! A38   A(11,10,16)           110.805          estimate D2E/DX2                !
 ! A39   A(15,10,16)           108.1966         estimate D2E/DX2                !
 ! A40   A(7,11,10)            104.3996         estimate D2E/DX2                !
 ! A41   A(7,11,17)            109.2737         estimate D2E/DX2                !
 ! A42   A(7,11,18)            112.3894         estimate D2E/DX2                !
 ! A43   A(10,11,17)           110.6447         estimate D2E/DX2                !
 ! A44   A(10,11,18)           112.7134         estimate D2E/DX2                !
 ! A45   A(17,11,18)           107.4146         estimate D2E/DX2                !
 ! A46   A(26,12,27)           127.5355         estimate D2E/DX2                !
 ! A47   A(26,12,28)           124.4529         estimate D2E/DX2                !
 ! A48   A(27,12,28)           107.3272         estimate D2E/DX2                !
 ! A49   A(28,13,29)           122.0446         estimate D2E/DX2                !
 ! A50   A(28,13,30)           123.8742         estimate D2E/DX2                !
 ! A51   A(29,13,30)           106.2782         estimate D2E/DX2                !
 ! A52   A(8,25,34)            110.2837         estimate D2E/DX2                !
 ! A53   A(8,25,35)            112.3355         estimate D2E/DX2                !
 ! A54   A(8,25,36)            109.6584         estimate D2E/DX2                !
 ! A55   A(34,25,35)           108.1223         estimate D2E/DX2                !
 ! A56   A(34,25,36)           107.9091         estimate D2E/DX2                !
 ! A57   A(35,25,36)           108.408          estimate D2E/DX2                !
 ! A58   A(30,31,32)           123.3302         estimate D2E/DX2                !
 ! A59   A(30,31,33)           125.1398         estimate D2E/DX2                !
 ! A60   A(32,31,33)           105.8869         estimate D2E/DX2                !
 ! A61   L(4,26,12,22,-1)      176.46           estimate D2E/DX2                !
 ! A62   L(12,28,13,10,-1)     177.5521         estimate D2E/DX2                !
 ! A63   L(13,30,31,8,-1)      178.6236         estimate D2E/DX2                !
 ! A64   L(4,26,12,22,-2)      179.0438         estimate D2E/DX2                !
 ! A65   L(12,28,13,10,-2)     183.0178         estimate D2E/DX2                !
 ! A66   L(13,30,31,8,-2)      180.254          estimate D2E/DX2                !
 ! D1    D(6,1,2,3)             -0.581          estimate D2E/DX2                !
 ! D2    D(6,1,2,7)            177.7277         estimate D2E/DX2                !
 ! D3    D(24,1,2,3)           179.3521         estimate D2E/DX2                !
 ! D4    D(24,1,2,7)            -2.3392         estimate D2E/DX2                !
 ! D5    D(2,1,6,5)              0.3853         estimate D2E/DX2                !
 ! D6    D(2,1,6,23)          -179.9182         estimate D2E/DX2                !
 ! D7    D(24,1,6,5)          -179.5477         estimate D2E/DX2                !
 ! D8    D(24,1,6,23)            0.1487         estimate D2E/DX2                !
 ! D9    D(1,2,3,4)              0.3621         estimate D2E/DX2                !
 ! D10   D(1,2,3,21)          -179.25           estimate D2E/DX2                !
 ! D11   D(7,2,3,4)           -177.9654         estimate D2E/DX2                !
 ! D12   D(7,2,3,21)             2.4225         estimate D2E/DX2                !
 ! D13   D(1,2,7,8)            161.4583         estimate D2E/DX2                !
 ! D14   D(1,2,7,11)           -80.2913         estimate D2E/DX2                !
 ! D15   D(1,2,7,20)            39.5965         estimate D2E/DX2                !
 ! D16   D(3,2,7,8)            -20.2902         estimate D2E/DX2                !
 ! D17   D(3,2,7,11)            97.9602         estimate D2E/DX2                !
 ! D18   D(3,2,7,20)          -142.152          estimate D2E/DX2                !
 ! D19   D(2,3,4,5)              0.0613         estimate D2E/DX2                !
 ! D20   D(2,3,4,26)          -179.7069         estimate D2E/DX2                !
 ! D21   D(21,3,4,5)           179.6883         estimate D2E/DX2                !
 ! D22   D(21,3,4,26)           -0.0799         estimate D2E/DX2                !
 ! D23   D(3,4,5,6)             -0.2722         estimate D2E/DX2                !
 ! D24   D(3,4,5,22)           179.9876         estimate D2E/DX2                !
 ! D25   D(26,4,5,6)           179.4975         estimate D2E/DX2                !
 ! D26   D(26,4,5,22)           -0.2426         estimate D2E/DX2                !
 ! D27   D(3,4,12,27)           85.2266         estimate D2E/DX2                !
 ! D28   D(3,4,12,28)          -86.0992         estimate D2E/DX2                !
 ! D29   D(5,4,12,27)          -95.1295         estimate D2E/DX2                !
 ! D30   D(5,4,12,28)           93.5446         estimate D2E/DX2                !
 ! D31   D(4,5,6,1)              0.045          estimate D2E/DX2                !
 ! D32   D(4,5,6,23)          -179.6565         estimate D2E/DX2                !
 ! D33   D(22,5,6,1)           179.7646         estimate D2E/DX2                !
 ! D34   D(22,5,6,23)            0.0631         estimate D2E/DX2                !
 ! D35   D(2,7,8,9)            145.9663         estimate D2E/DX2                !
 ! D36   D(2,7,8,25)           -85.7918         estimate D2E/DX2                !
 ! D37   D(11,7,8,9)            23.488          estimate D2E/DX2                !
 ! D38   D(11,7,8,25)          151.7299         estimate D2E/DX2                !
 ! D39   D(20,7,8,9)           -94.6207         estimate D2E/DX2                !
 ! D40   D(20,7,8,25)           33.6212         estimate D2E/DX2                !
 ! D41   D(2,7,11,10)         -119.3574         estimate D2E/DX2                !
 ! D42   D(2,7,11,17)          122.2572         estimate D2E/DX2                !
 ! D43   D(2,7,11,18)            3.1165         estimate D2E/DX2                !
 ! D44   D(8,7,11,10)            2.3847         estimate D2E/DX2                !
 ! D45   D(8,7,11,17)         -116.0007         estimate D2E/DX2                !
 ! D46   D(8,7,11,18)          124.8586         estimate D2E/DX2                !
 ! D47   D(20,7,11,10)         121.9304         estimate D2E/DX2                !
 ! D48   D(20,7,11,17)           3.545          estimate D2E/DX2                !
 ! D49   D(20,7,11,18)        -115.5957         estimate D2E/DX2                !
 ! D50   D(7,8,9,10)           -40.2909         estimate D2E/DX2                !
 ! D51   D(7,8,9,14)          -161.7841         estimate D2E/DX2                !
 ! D52   D(7,8,9,19)            78.2635         estimate D2E/DX2                !
 ! D53   D(25,8,9,10)         -168.2154         estimate D2E/DX2                !
 ! D54   D(25,8,9,14)           70.2914         estimate D2E/DX2                !
 ! D55   D(25,8,9,19)          -49.661          estimate D2E/DX2                !
 ! D56   D(7,8,25,34)           58.9516         estimate D2E/DX2                !
 ! D57   D(7,8,25,35)          -61.7359         estimate D2E/DX2                !
 ! D58   D(7,8,25,36)          177.6472         estimate D2E/DX2                !
 ! D59   D(9,8,25,34)         -176.5183         estimate D2E/DX2                !
 ! D60   D(9,8,25,35)           62.7943         estimate D2E/DX2                !
 ! D61   D(9,8,25,36)          -57.8227         estimate D2E/DX2                !
 ! D62   D(8,9,10,11)           40.0738         estimate D2E/DX2                !
 ! D63   D(8,9,10,15)          161.3336         estimate D2E/DX2                !
 ! D64   D(8,9,10,16)          -77.7893         estimate D2E/DX2                !
 ! D65   D(14,9,10,11)         159.1057         estimate D2E/DX2                !
 ! D66   D(14,9,10,15)         -79.6345         estimate D2E/DX2                !
 ! D67   D(14,9,10,16)          41.2426         estimate D2E/DX2                !
 ! D68   D(19,9,10,11)         -79.159          estimate D2E/DX2                !
 ! D69   D(19,9,10,15)          42.1008         estimate D2E/DX2                !
 ! D70   D(19,9,10,16)         162.9779         estimate D2E/DX2                !
 ! D71   D(9,10,11,7)          -25.7308         estimate D2E/DX2                !
 ! D72   D(9,10,11,17)          91.7148         estimate D2E/DX2                !
 ! D73   D(9,10,11,18)        -147.9925         estimate D2E/DX2                !
 ! D74   D(15,10,11,7)        -147.3811         estimate D2E/DX2                !
 ! D75   D(15,10,11,17)        -29.9355         estimate D2E/DX2                !
 ! D76   D(15,10,11,18)         90.3572         estimate D2E/DX2                !
 ! D77   D(16,10,11,7)          91.4238         estimate D2E/DX2                !
 ! D78   D(16,10,11,17)       -151.1306         estimate D2E/DX2                !
 ! D79   D(16,10,11,18)        -30.8379         estimate D2E/DX2                !
 ! D80   D(26,12,13,29)       -105.4389         estimate D2E/DX2                !
 ! D81   D(26,12,13,30)        107.9457         estimate D2E/DX2                !
 ! D82   D(27,12,13,29)         82.9149         estimate D2E/DX2                !
 ! D83   D(27,12,13,30)        -63.7004         estimate D2E/DX2                !
 ! D84   D(28,13,31,32)       -129.563          estimate D2E/DX2                !
 ! D85   D(28,13,31,33)         80.1474         estimate D2E/DX2                !
 ! D86   D(29,13,31,32)         80.3413         estimate D2E/DX2                !
 ! D87   D(29,13,31,33)        -69.9484         estimate D2E/DX2                !
 --------------------------------------------------------------------------------
 Trust Radius=3.00D-01 FncErr=1.00D-07 GrdErr=1.00D-06 EigMax=2.50D+02 EigMin=1.00D-04
 Number of steps in this run=    200 maximum allowed number of steps=    216.
 GradGradGradGradGradGradGradGradGradGradGradGradGradGradGradGradGradGrad

                          Input orientation:                          
 ---------------------------------------------------------------------
 Center     Atomic      Atomic             Coordinates (Angstroms)
 Number     Number       Type             X           Y           Z
 ---------------------------------------------------------------------
      1          6           0        1.776312    2.227694   -0.586523
      2          6           0        1.535239    0.930855   -0.121233
      3          6           0        0.252534    0.640135    0.320648
      4          7           0       -0.710338    1.574435    0.289808
      5          6           0       -0.499937    2.819975   -0.160777
      6          6           0        0.757736    3.178386   -0.612335
      7          6           0        2.612076   -0.134465   -0.130366
      8          7           0        2.284227   -1.232045    0.771084
      9          6           0        2.801094   -2.460629    0.173764
     10          6           0        2.479727   -2.277139   -1.302717
     11          6           0        2.794373   -0.789816   -1.532157
     12          8           0       -3.170239    1.033049    1.118440
     13          8           0       -4.991847   -0.014312   -0.493988
     14          1           0        2.315517   -3.334039    0.625811
     15          1           0        3.067788   -2.933160   -1.952799
     16          1           0        1.416397   -2.482496   -1.480179
     17          1           0        3.832231   -0.660473   -1.859769
     18          1           0        2.150968   -0.333663   -2.293073
     19          1           0        3.894634   -2.559702    0.326046
     20          1           0        3.558910    0.358038    0.164974
     21          1           0       -0.008684   -0.341936    0.707723
     22          1           0       -1.352704    3.493952   -0.139900
     23          1           0        0.934511    4.188786   -0.973369
     24          1           0        2.775078    2.497222   -0.932259
     25          6           0        2.692275   -1.010458    2.145641
     26          1           0       -1.673934    1.325585    0.636448
     27          1           0       -3.513535    1.069470    2.013164
     28          1           0       -3.872498    0.634001    0.549921
     29          1           0       -5.701334    0.510993   -0.870186
     30          1           0       -5.331990   -0.926735   -0.428768
     31          8           0       -5.910530   -2.602746   -0.309644
     32          1           0       -5.929158   -3.209067   -1.054818
     33          1           0       -6.587059   -2.912387    0.298369
     34          1           0        2.215966   -0.103545    2.542868
     35          1           0        3.789171   -0.895510    2.245710
     36          1           0        2.374871   -1.857225    2.765712
 ---------------------------------------------------------------------
                    Distance matrix (angstroms):
                    1          2          3          4          5
     1  C    0.000000
     2  C    1.398715   0.000000
     3  C    2.380169   1.387483   0.000000
     4  N    2.716272   2.371870   1.342010   0.000000
     5  C    2.390265   2.777099   2.355777   1.341143   0.000000
     6  C    1.393549   2.428392   2.751073   2.354095   1.383512
     7  C    2.546836   1.514783   2.524056   3.759697   4.291185
     8  N    3.751116   2.456695   2.799237   4.132236   5.003879
     9  C    4.858867   3.632021   4.016400   5.350268   6.236466
    10  C    4.615327   3.546715   4.013252   5.248550   6.013568
    11  C    3.322053   2.556723   3.455227   4.603503   5.075801
    12  O    5.366791   4.867110   3.536415   2.651574   3.458325
    13  O    7.130437   6.605690   5.347473   4.633549   5.321792
    14  H    5.717812   4.399571   4.488105   5.775969   6.813031
    15  H    5.492635   4.542461   5.085534   6.294596   7.002754
    16  H    4.807707   3.675843   3.787925   4.910656   5.790454
    17  H    3.766891   3.291049   4.388625   5.500039   5.811004
    18  H    3.100521   2.587473   3.373999   4.301068   4.638902
    19  H    5.314060   4.236837   4.848080   6.188551   6.963489
    20  H    2.690356   2.122564   3.322038   4.440910   4.758307
    21  H    3.385895   2.165840   1.087440   2.083134   3.315615
    22  H    3.404941   3.861351   3.306534   2.069258   1.087149
    23  H    2.168908   3.420691   3.838293   3.337061   2.142800
    24  H    1.090739   2.156031   3.373689   3.806982   3.380100
    25  C    4.334667   3.200960   3.465169   4.658708   5.493815
    26  H    3.770100   3.320946   2.069022   1.053851   2.060834
    27  H    6.006857   5.483155   4.151170   3.329093   4.107561
    28  H    5.978329   5.457306   4.131403   3.309279   4.081390
    29  H    7.677416   7.287332   6.073163   5.233215   5.734910
    30  H    7.778385   7.120678   5.848386   5.303949   6.120326
    31  O    9.082805   8.243865   6.992632   6.697028   7.661761
    32  H    9.442030   8.586487   7.410909   7.205969   8.162420
    33  H    9.856442   8.995460   7.707201   7.393747   8.373998
    34  H    3.926966   2.937823   3.057186   4.056495   4.820041
    35  H    4.671996   3.744094   4.309509   5.492883   6.163802
    36  H    5.318112   4.100344   4.088944   5.236879   6.221339
                    6          7          8          9         10
     6  C    0.000000
     7  C    3.826990   0.000000
     8  N    4.867846   1.457662   0.000000
     9  C    6.049112   2.353564   1.460603   0.000000
    10  C    5.762346   2.446012   2.330470   1.522150   0.000000
    11  C    4.554184   1.558119   2.400153   2.387850   1.537457
    12  O    4.798650   6.029741   5.916292   6.982479   6.981509
    13  O    6.577616   7.613560   7.484954   8.195138   7.848493
    14  H    6.809652   3.301064   2.107240   1.096803   2.205272
    15  H    6.669646   3.370702   3.305646   2.194694   1.094891
    16  H    5.764770   2.960556   2.717525   2.157172   1.097422
    17  H    5.073997   2.180894   3.105543   2.905006   2.180180
    18  H    4.135271   2.220271   3.195920   3.321435   2.205898
    19  H    6.606538   2.781194   2.134044   1.108528   2.175930
    20  H    4.050327   1.107375   2.126159   2.918775   3.203578
    21  H    3.837007   2.759315   2.460437   3.559329   3.738859
    22  H    2.185574   5.374475   6.032595   7.267012   7.024611
    23  H    1.087430   4.713319   5.852372   7.001055   6.656151
    24  H    2.153138   2.755971   4.129134   5.079788   4.797811
    25  C    5.375434   2.440083   1.450866   2.450130   3.679787
    26  H    3.302325   4.592345   4.714513   5.880082   5.830341
    27  H    5.439166   6.600552   6.360328   7.464552   7.623257
    28  H    5.409603   6.565290   6.437104   7.365803   7.228953
    29  H    6.992929   8.371185   8.336734   9.067064   8.653931
    30  H    7.346460   7.989050   7.716192   8.298369   7.975607
    31  O    8.830565   8.874647   8.378594   8.726183   8.455095
    32  H    9.257964   9.124717   8.643045   8.847987   8.464000
    33  H    9.585036   9.618979   9.041389   9.399842   9.228956
    34  H    4.780461   2.702599   2.101759   3.392768   4.425224
    35  H    5.827062   2.758710   2.133690   2.778283   4.026770
    36  H    6.275644   3.378082   2.092273   2.695173   4.091386
                   11         12         13         14         15
    11  C    0.000000
    12  O    6.776806   0.000000
    13  O    7.893315   2.648612   0.000000
    14  H    3.370341   7.029058   8.103833   0.000000
    15  H    2.201277   8.004768   8.695143   2.715851   0.000000
    16  H    2.183274   6.336332   6.937586   2.443100   1.775827
    17  H    1.095997   7.795661   8.952499   3.953035   2.399611
    18  H    1.095919   6.466960   7.372822   4.189178   2.777360
    19  H    2.792130   7.965436   9.280141   1.784115   2.452811
    20  H    2.186856   6.829801   8.584190   3.922987   3.944382
    21  H    3.615908   3.471988   5.136474   3.789631   4.822603
    22  H    6.122687   3.308005   5.067214   7.788685   8.008441
    23  H    5.343951   5.584202   7.281316   7.813927   7.498818
    24  H    3.341387   6.457241   8.174656   6.053295   5.533193
    25  C    3.685825   6.292864   8.185700   2.801938   4.542577
    26  H    5.398475   1.599007   3.752567   6.134161   6.879319
    27  H    7.471007   0.959015   3.105769   7.435959   8.663932
    28  H    7.128076   0.987735   1.662227   7.351369   8.194865
    29  H    8.620171   3.260923   0.959605   9.016218   9.483235
    30  H    8.202072   3.302692   0.975944   8.086508   8.769531
    31  O    8.975332   4.771543   2.752808   8.311300   9.133418
    32  H    9.065353   5.507289   3.376321   8.415153   9.045857
    33  H    9.791190   5.283336   3.401672   8.918569   9.913842
    34  H    4.172691   5.686127   7.821958   3.757806   5.379902
    35  H    3.908078   7.309136   9.240602   3.277522   4.722276
    36  H    4.448261   6.466485   8.263807   2.600707   4.888979
                   16         17         18         19         20
    16  H    0.000000
    17  H    3.049608   0.000000
    18  H    2.412027   1.766693   0.000000
    19  H    3.067583   2.896334   3.854271   0.000000
    20  H    3.919888   2.282905   2.915947   2.941405   0.000000
    21  H    3.376354   4.630994   3.697153   4.505558   3.675904
    22  H    6.721771   6.862998   5.618052   8.024861   5.835311
    23  H    6.707837   5.718199   4.865586   7.482840   4.780996
    24  H    5.190744   3.456716   3.202380   5.330030   2.528719
    25  C    4.115985   4.179150   4.522527   2.675210   2.558687
    26  H    5.341511   6.363441   5.095593   6.797114   5.342386
    27  H    7.008861   8.482487   7.252520   8.420108   7.344482
    28  H    6.465777   8.175886   6.730611   8.401083   7.446487
    29  H    7.745654   9.656110   8.024755  10.146070   9.319178
    30  H    7.004754   9.279095   7.734470   9.400368   9.002848
    31  O    7.420813  10.054686   8.606421   9.825843   9.932865
    32  H    7.393647  10.120672   8.665429   9.941597  10.209582
    33  H    8.209954  10.876134   9.471985  10.487661  10.660871
    34  H    4.741690   4.722890   4.841849   3.710112   2.769646
    35  H    4.693701   4.112427   4.857976   2.542787   2.440054
    36  H    4.397411   4.995116   5.287975   2.958906   3.615685
                   21         22         23         24         25
    21  H    0.000000
    22  H    4.151974   0.000000
    23  H    4.923731   2.531564   0.000000
    24  H    4.301127   4.319709   2.500153   0.000000
    25  C    3.132046   6.471110   6.312693   4.667349   0.000000
    26  H    2.357703   2.325451   4.194451   4.860790   5.176731
    27  H    3.997527   3.896535   6.199567   7.089474   6.546429
    28  H    3.988284   3.873569   6.169623   7.061071   6.953187
    29  H    5.968547   5.323715   7.587572   8.706234   9.047801
    30  H    5.474595   5.954883   8.107662   8.814847   8.427539
    31  O    6.401413   7.613955   9.665403  10.091437   9.086917
    32  H    6.810213   8.167709  10.091819  10.408673   9.455471
    33  H    7.074589   8.284427  10.421996  10.882459   9.650688
    34  H    2.893727   5.733641   5.694748   4.376426   1.098704
    35  H    4.134677   7.169197   6.660452   4.757993   1.107433
    36  H    3.494675   7.139502   7.253248   5.726811   1.096471
                   26         27         28         29         30
    26  H    0.000000
    27  H    2.311942   0.000000
    28  H    2.306395   1.568301   0.000000
    29  H    4.376466   3.662249   2.318723   0.000000
    30  H    4.425947   3.640693   2.350286   1.548653   0.000000
    31  O    5.854538   4.962478   3.920326   3.170700   1.777051
    32  H    6.444407   5.792549   4.644805   3.731600   2.440817
    33  H    6.497192   5.314344   4.473141   3.724186   2.459012
    34  H    4.561598   5.872285   6.448659   8.643508   8.153521
    35  H    6.112978   7.566025   7.994766  10.087455   9.505229
    36  H    5.572869   6.618549   7.081353   9.168059   8.394416
                   31         32         33         34         35
    31  O    0.000000
    32  H    0.960862   0.000000
    33  H    0.960858   1.533613   0.000000
    34  H    8.967874   9.430305   9.508976   0.000000
    35  H   10.174905  10.521024  10.748306   1.786193   0.000000
    36  H    8.869131   9.240174   9.355070   1.774910   1.787608
                   36
    36  H    0.000000
 Stoichiometry    C10H21N2O3(1+)
 Framework group  C1[X(C10H21N2O3)]
 Deg. of freedom   102
 Full point group                 C1      NOp   1
 Largest Abelian subgroup         C1      NOp   1
 Largest concise Abelian subgroup C1      NOp   1
                         Standard orientation:                         
 ---------------------------------------------------------------------
 Center     Atomic      Atomic             Coordinates (Angstroms)
 Number     Number       Type             X           Y           Z
 ---------------------------------------------------------------------
      1          6           0        1.776312    2.227694   -0.586523
      2          6           0        1.535239    0.930855   -0.121233
      3          6           0        0.252534    0.640135    0.320648
      4          7           0       -0.710338    1.574435    0.289808
      5          6           0       -0.499937    2.819975   -0.160777
      6          6           0        0.757736    3.178386   -0.612335
      7          6           0        2.612076   -0.134465   -0.130366
      8          7           0        2.284227   -1.232045    0.771084
      9          6           0        2.801094   -2.460629    0.173764
     10          6           0        2.479727   -2.277139   -1.302717
     11          6           0        2.794373   -0.789816   -1.532157
     12          8           0       -3.170239    1.033049    1.118440
     13          8           0       -4.991847   -0.014312   -0.493988
     14          1           0        2.315517   -3.334039    0.625811
     15          1           0        3.067788   -2.933160   -1.952799
     16          1           0        1.416397   -2.482496   -1.480179
     17          1           0        3.832231   -0.660473   -1.859769
     18          1           0        2.150968   -0.333663   -2.293073
     19          1           0        3.894634   -2.559702    0.326046
     20          1           0        3.558910    0.358038    0.164974
     21          1           0       -0.008684   -0.341936    0.707723
     22          1           0       -1.352704    3.493952   -0.139900
     23          1           0        0.934511    4.188786   -0.973369
     24          1           0        2.775078    2.497222   -0.932259
     25          6           0        2.692275   -1.010458    2.145641
     26          1           0       -1.673934    1.325585    0.636448
     27          1           0       -3.513535    1.069470    2.013164
     28          1           0       -3.872498    0.634001    0.549921
     29          1           0       -5.701334    0.510993   -0.870186
     30          1           0       -5.331990   -0.926735   -0.428768
     31          8           0       -5.910530   -2.602746   -0.309644
     32          1           0       -5.929158   -3.209067   -1.054818
     33          1           0       -6.587059   -2.912387    0.298369
     34          1           0        2.215966   -0.103545    2.542868
     35          1           0        3.789171   -0.895510    2.245710
     36          1           0        2.374871   -1.857225    2.765712
 ---------------------------------------------------------------------
 Rotational constants (GHZ):           0.5502341           0.2328820           0.1870844
 Standard basis: Aug-CC-pVDZ (5D, 7F)
 There are   564 symmetry adapted cartesian basis functions of A   symmetry.
 There are   534 symmetry adapted basis functions of A   symmetry.
   534 basis functions,   876 primitive gaussians,   564 cartesian basis functions
    59 alpha electrons       59 beta electrons
       nuclear repulsion energy      1011.7288281888 Hartrees.
 NAtoms=   36 NActive=   36 NUniq=   36 SFac= 1.00D+00 NAtFMM=   60 NAOKFM=F Big=F
 Integral buffers will be    131072 words long.
 Raffenetti 2 integral format.
 Two-electron integral symmetry is turned on.
 Nuclear repulsion after empirical dispersion term =     1011.7061309420 Hartrees.
 One-electron integrals computed using PRISM.
 NBasis=   534 RedAO= T EigKep=  2.53D-06  NBF=   534
 NBsUse=   534 1.00D-06 EigRej= -1.00D+00 NBFU=   534
 ExpMin= 2.97D-02 ExpMax= 1.17D+04 ExpMxC= 4.01D+02 IAcc=3 IRadAn=         5 AccDes= 0.00D+00
 Harris functional with IExCor= 4639 and IRadAn=       5 diagonalized for initial guess.
 HarFok:  IExCor= 4639 AccDes= 0.00D+00 IRadAn=         5 IDoV= 1 UseB2=F ITyADJ=14
 ICtDFT=  3500011 ScaDFX=  1.000000  1.000000  1.000000  1.000000
 FoFCou: FMM=F IPFlag=           0 FMFlag=      100000 FMFlg1=           0
         NFxFlg=           0 DoJE=T BraDBF=F KetDBF=T FulRan=T
         wScrn=  0.000000 ICntrl=       500 IOpCl=  0 I1Cent=   200000004 NGrid=           0
         NMat0=    1 NMatS0=      1 NMatT0=    0 NMatD0=    1 NMtDS0=    0 NMtDT0=    0
 Petite list used in FoFCou.
 Requested convergence on RMS density matrix=1.00D-08 within 128 cycles.
 Requested convergence on MAX density matrix=1.00D-06.
 Requested convergence on             energy=1.00D-06.
 No special actions if energy rises.
 SCF Done:  E(RwB97XD) =  -728.588108166     A.U. after   14 cycles
            NFock= 14  Conv=0.66D-08     -V/T= 2.0063

 **********************************************************************

            Population analysis using the SCF density.

 **********************************************************************

 Orbital symmetries:
       Occupied  (A) (A) (A) (A) (A) (A) (A) (A) (A) (A) (A) (A)
                 (A) (A) (A) (A) (A) (A) (A) (A) (A) (A) (A) (A)
                 (A) (A) (A) (A) (A) (A) (A) (A) (A) (A) (A) (A)
                 (A) (A) (A) (A) (A) (A) (A) (A) (A) (A) (A) (A)
                 (A) (A) (A) (A) (A) (A) (A) (A) (A) (A) (A)
       Virtual   (A) (A) (A) (A) (A) (A) (A) (A) (A) (A) (A) (A)
                 (A) (A) (A) (A) (A) (A) (A) (A) (A) (A) (A) (A)
                 (A) (A) (A) (A) (A) (A) (A) (A) (A) (A) (A) (A)
                 (A) (A) (A) (A) (A) (A) (A) (A) (A) (A) (A) (A)
                 (A) (A) (A) (A) (A) (A) (A) (A) (A) (A) (A) (A)
                 (A) (A) (A) (A) (A) (A) (A) (A) (A) (A) (A) (A)
                 (A) (A) (A) (A) (A) (A) (A) (A) (A) (A) (A) (A)
                 (A) (A) (A) (A) (A) (A) (A) (A) (A) (A) (A) (A)
                 (A) (A) (A) (A) (A) (A) (A) (A) (A) (A) (A) (A)
                 (A) (A) (A) (A) (A) (A) (A) (A) (A) (A) (A) (A)
                 (A) (A) (A) (A) (A) (A) (A) (A) (A) (A) (A) (A)
                 (A) (A) (A) (A) (A) (A) (A) (A) (A) (A) (A) (A)
                 (A) (A) (A) (A) (A) (A) (A) (A) (A) (A) (A) (A)
                 (A) (A) (A) (A) (A) (A) (A) (A) (A) (A) (A) (A)
                 (A) (A) (A) (A) (A) (A) (A) (A) (A) (A) (A) (A)
                 (A) (A) (A) (A) (A) (A) (A) (A) (A) (A) (A) (A)
                 (A) (A) (A) (A) (A) (A) (A) (A) (A) (A) (A) (A)
                 (A) (A) (A) (A) (A) (A) (A) (A) (A) (A) (A) (A)
                 (A) (A) (A) (A) (A) (A) (A) (A) (A) (A) (A) (A)
                 (A) (A) (A) (A) (A) (A) (A) (A) (A) (A) (A) (A)
                 (A) (A) (A) (A) (A) (A) (A) (A) (A) (A) (A) (A)
                 (A) (A) (A) (A) (A) (A) (A) (A) (A) (A) (A) (A)
                 (A) (A) (A) (A) (A) (A) (A) (A) (A) (A) (A) (A)
                 (A) (A) (A) (A) (A) (A) (A) (A) (A) (A) (A) (A)
                 (A) (A) (A) (A) (A) (A) (A) (A) (A) (A) (A) (A)
                 (A) (A) (A) (A) (A) (A) (A) (A) (A) (A) (A) (A)
                 (A) (A) (A) (A) (A) (A) (A) (A) (A) (A) (A) (A)
                 (A) (A) (A) (A) (A) (A) (A) (A) (A) (A) (A) (A)
                 (A) (A) (A) (A) (A) (A) (A) (A) (A) (A) (A) (A)
                 (A) (A) (A) (A) (A) (A) (A) (A) (A) (A) (A) (A)
                 (A) (A) (A) (A) (A) (A) (A) (A) (A) (A) (A) (A)
                 (A) (A) (A) (A) (A) (A) (A) (A) (A) (A) (A) (A)
                 (A) (A) (A) (A) (A) (A) (A) (A) (A) (A) (A) (A)
                 (A) (A) (A) (A) (A) (A) (A) (A) (A) (A) (A) (A)
                 (A) (A) (A) (A) (A) (A) (A) (A) (A) (A) (A) (A)
                 (A) (A) (A) (A) (A) (A) (A) (A) (A) (A) (A) (A)
                 (A) (A) (A) (A) (A) (A) (A) (A) (A) (A) (A) (A)
                 (A) (A) (A) (A) (A) (A) (A) (A) (A) (A) (A) (A)
                 (A) (A) (A) (A) (A) (A) (A) (A) (A) (A) (A) (A)
                 (A) (A) (A) (A) (A) (A) (A)
 The electronic state is 1-A.
 Alpha  occ. eigenvalues --  -19.39907 -19.38984 -19.37998 -14.66869 -14.54839
 Alpha  occ. eigenvalues --  -10.50317 -10.49558 -10.46972 -10.46221 -10.46144
 Alpha  occ. eigenvalues --  -10.44863 -10.41295 -10.41281 -10.40317 -10.39094
 Alpha  occ. eigenvalues --   -1.25177  -1.24355  -1.23462  -1.21767  -1.15263
 Alpha  occ. eigenvalues --   -1.07383  -1.03679  -0.99014  -0.94667  -0.89825
 Alpha  occ. eigenvalues --   -0.88383  -0.87112  -0.81686  -0.78341  -0.77415
 Alpha  occ. eigenvalues --   -0.74812  -0.74635  -0.73586  -0.73536  -0.72925
 Alpha  occ. eigenvalues --   -0.69918  -0.68657  -0.68197  -0.66865  -0.63740
 Alpha  occ. eigenvalues --   -0.63340  -0.63299  -0.61868  -0.61439  -0.60303
 Alpha  occ. eigenvalues --   -0.58931  -0.57270  -0.56497  -0.55974  -0.54938
 Alpha  occ. eigenvalues --   -0.54115  -0.52865  -0.52751  -0.52196  -0.52118
 Alpha  occ. eigenvalues --   -0.51457  -0.50941  -0.48181  -0.40790
 Alpha virt. eigenvalues --   -0.13354  -0.09781  -0.06371  -0.05222  -0.04330
 Alpha virt. eigenvalues --   -0.04065  -0.03580  -0.02975  -0.02588  -0.02320
 Alpha virt. eigenvalues --   -0.01880  -0.01483  -0.00920  -0.00648  -0.00334
 Alpha virt. eigenvalues --   -0.00102   0.00220   0.01053   0.01643   0.01949
 Alpha virt. eigenvalues --    0.02152   0.02469   0.02755   0.02942   0.03512
 Alpha virt. eigenvalues --    0.03646   0.04315   0.04497   0.04700   0.05023
 Alpha virt. eigenvalues --    0.05466   0.05756   0.06013   0.06291   0.06693
 Alpha virt. eigenvalues --    0.06888   0.07008   0.07168   0.07791   0.08087
 Alpha virt. eigenvalues --    0.08322   0.08862   0.09034   0.09343   0.09602
 Alpha virt. eigenvalues --    0.10100   0.10272   0.10363   0.10638   0.10877
 Alpha virt. eigenvalues --    0.11053   0.11583   0.11810   0.12168   0.12471
 Alpha virt. eigenvalues --    0.12765   0.13043   0.13292   0.13507   0.13890
 Alpha virt. eigenvalues --    0.13923   0.14281   0.15154   0.15416   0.15634
 Alpha virt. eigenvalues --    0.16099   0.16278   0.16554   0.16776   0.16859
 Alpha virt. eigenvalues --    0.17105   0.17553   0.17609   0.18083   0.18380
 Alpha virt. eigenvalues --    0.18436   0.19082   0.19367   0.19711   0.20249
 Alpha virt. eigenvalues --    0.20500   0.20772   0.20988   0.21304   0.21753
 Alpha virt. eigenvalues --    0.22095   0.22228   0.22718   0.23196   0.23489
 Alpha virt. eigenvalues --    0.23575   0.24229   0.24494   0.24598   0.25092
 Alpha virt. eigenvalues --    0.25365   0.25879   0.26272   0.26770   0.27038
 Alpha virt. eigenvalues --    0.27459   0.27740   0.28592   0.28870   0.29052
 Alpha virt. eigenvalues --    0.29327   0.29646   0.29888   0.30138   0.30452
 Alpha virt. eigenvalues --    0.30997   0.31272   0.31835   0.32837   0.33586
 Alpha virt. eigenvalues --    0.33688   0.33884   0.34421   0.34614   0.34975
 Alpha virt. eigenvalues --    0.35412   0.35941   0.36263   0.36536   0.36842
 Alpha virt. eigenvalues --    0.37592   0.37669   0.38308   0.38755   0.39038
 Alpha virt. eigenvalues --    0.39334   0.39782   0.39957   0.40677   0.41555
 Alpha virt. eigenvalues --    0.42120   0.42439   0.42641   0.43459   0.43802
 Alpha virt. eigenvalues --    0.44277   0.44373   0.44394   0.44912   0.45249
 Alpha virt. eigenvalues --    0.45510   0.46002   0.46510   0.46946   0.47282
 Alpha virt. eigenvalues --    0.47439   0.47891   0.48195   0.49205   0.49777
 Alpha virt. eigenvalues --    0.49907   0.50281   0.50396   0.50891   0.51096
 Alpha virt. eigenvalues --    0.51224   0.51472   0.51670   0.52462   0.52654
 Alpha virt. eigenvalues --    0.53134   0.53388   0.53717   0.54248   0.54624
 Alpha virt. eigenvalues --    0.55052   0.55276   0.56165   0.56421   0.57067
 Alpha virt. eigenvalues --    0.57269   0.57534   0.58363   0.58537   0.58840
 Alpha virt. eigenvalues --    0.59128   0.59532   0.60171   0.60687   0.60803
 Alpha virt. eigenvalues --    0.62223   0.62417   0.62948   0.63297   0.63523
 Alpha virt. eigenvalues --    0.64282   0.65000   0.65222   0.65835   0.66042
 Alpha virt. eigenvalues --    0.66229   0.66653   0.67025   0.67648   0.68547
 Alpha virt. eigenvalues --    0.68864   0.69129   0.70026   0.70371   0.70815
 Alpha virt. eigenvalues --    0.71417   0.71616   0.72000   0.72668   0.72916
 Alpha virt. eigenvalues --    0.74035   0.74248   0.74690   0.75506   0.75953
 Alpha virt. eigenvalues --    0.76030   0.76712   0.77276   0.77912   0.78376
 Alpha virt. eigenvalues --    0.78627   0.79192   0.79462   0.80024   0.80437
 Alpha virt. eigenvalues --    0.81127   0.81523   0.82196   0.82457   0.82865
 Alpha virt. eigenvalues --    0.84901   0.85590   0.86039   0.86192   0.87552
 Alpha virt. eigenvalues --    0.87945   0.88601   0.89304   0.89844   0.91122
 Alpha virt. eigenvalues --    0.92395   0.93025   0.93394   0.94896   0.95323
 Alpha virt. eigenvalues --    0.96391   0.96592   0.97498   0.98418   0.98855
 Alpha virt. eigenvalues --    0.99254   1.00636   1.01440   1.01602   1.02149
 Alpha virt. eigenvalues --    1.02832   1.03450   1.04163   1.04346   1.06060
 Alpha virt. eigenvalues --    1.07404   1.08362   1.08656   1.10100   1.10575
 Alpha virt. eigenvalues --    1.11217   1.11668   1.13038   1.13382   1.14741
 Alpha virt. eigenvalues --    1.15397   1.17211   1.18503   1.18851   1.19678
 Alpha virt. eigenvalues --    1.20864   1.21902   1.22830   1.23284   1.23990
 Alpha virt. eigenvalues --    1.25560   1.26723   1.27608   1.27653   1.30036
 Alpha virt. eigenvalues --    1.30987   1.31641   1.32920   1.33820   1.34886
 Alpha virt. eigenvalues --    1.35127   1.35378   1.35593   1.37270   1.38135
 Alpha virt. eigenvalues --    1.39039   1.39956   1.40988   1.41665   1.42544
 Alpha virt. eigenvalues --    1.43287   1.44070   1.45821   1.46311   1.47771
 Alpha virt. eigenvalues --    1.48895   1.49656   1.51163   1.51343   1.52949
 Alpha virt. eigenvalues --    1.53548   1.54621   1.56514   1.57546   1.58294
 Alpha virt. eigenvalues --    1.59016   1.60757   1.61639   1.62342   1.63184
 Alpha virt. eigenvalues --    1.63791   1.64223   1.64943   1.65820   1.67062
 Alpha virt. eigenvalues --    1.68390   1.69201   1.69862   1.70776   1.71097
 Alpha virt. eigenvalues --    1.71989   1.72637   1.73448   1.73789   1.74716
 Alpha virt. eigenvalues --    1.75208   1.76060   1.77106   1.78851   1.79130
 Alpha virt. eigenvalues --    1.79486   1.80602   1.81745   1.83140   1.83556
 Alpha virt. eigenvalues --    1.83848   1.85349   1.85834   1.86083   1.86887
 Alpha virt. eigenvalues --    1.87959   1.88409   1.89181   1.90352   1.90797
 Alpha virt. eigenvalues --    1.91678   1.93019   1.93690   1.94843   1.95068
 Alpha virt. eigenvalues --    1.95821   1.96875   1.97151   1.97549   1.97860
 Alpha virt. eigenvalues --    2.00616   2.02437   2.03127   2.03771   2.05527
 Alpha virt. eigenvalues --    2.06152   2.07503   2.08273   2.09051   2.09415
 Alpha virt. eigenvalues --    2.09873   2.11388   2.11943   2.12292   2.14197
 Alpha virt. eigenvalues --    2.14780   2.15697   2.16075   2.17282   2.19269
 Alpha virt. eigenvalues --    2.19614   2.20291   2.21498   2.22457   2.23762
 Alpha virt. eigenvalues --    2.24211   2.25114   2.27091   2.28240   2.28924
 Alpha virt. eigenvalues --    2.29879   2.30467   2.32021   2.32201   2.34011
 Alpha virt. eigenvalues --    2.35672   2.36572   2.36763   2.38734   2.41168
 Alpha virt. eigenvalues --    2.42278   2.43558   2.43970   2.44635   2.47594
 Alpha virt. eigenvalues --    2.48454   2.48635   2.50237   2.51055   2.53315
 Alpha virt. eigenvalues --    2.54282   2.55502   2.56418   2.57075   2.57378
 Alpha virt. eigenvalues --    2.58567   2.60736   2.62864   2.63877   2.64657
 Alpha virt. eigenvalues --    2.65184   2.66232   2.66948   2.68275   2.69428
 Alpha virt. eigenvalues --    2.70803   2.72934   2.74035   2.74607   2.76789
 Alpha virt. eigenvalues --    2.77505   2.78702   2.81016   2.82116   2.83537
 Alpha virt. eigenvalues --    2.84476   2.84836   2.85051   2.87525   2.89836
 Alpha virt. eigenvalues --    2.90654   2.97157   3.02593   3.04064   3.10896
 Alpha virt. eigenvalues --    3.14912   3.16175   3.21141   3.25572   3.28897
 Alpha virt. eigenvalues --    3.32174   3.34179   3.35641   3.40554   3.43026
 Alpha virt. eigenvalues --    3.45102   3.46097   3.48480   3.50260   3.56261
 Alpha virt. eigenvalues --    3.61899   3.66265   3.77726   3.79299   3.81362
 Alpha virt. eigenvalues --    3.89778   4.03253   4.05541   4.19056   4.53899
          Condensed to atoms (all electrons):
               1          2          3          4          5          6
     1  C   21.935998 -10.009722  -1.913870   0.181274   1.813387  -4.242594
     2  C  -10.009722  20.288659  -2.636835  -0.039874  -2.095892   1.998790
     3  C   -1.913870  -2.636835  15.663573  -1.562319  -0.568764  -1.025109
     4  N    0.181274  -0.039874  -1.562319   7.759923   0.419897   0.027996
     5  C    1.813387  -2.095892  -0.568764   0.419897   9.992548  -2.843827
     6  C   -4.242594   1.998790  -1.025109   0.027996  -2.843827  11.956663
     7  C   -0.234032  -4.480427  -3.055091   0.720961  -0.172439  -0.457422
     8  N   -0.359058   0.912083   0.887023  -0.155624  -0.049433   0.049190
     9  C    0.085438  -0.188503  -0.318665   0.053903  -0.005953  -0.006704
    10  C   -0.269783   0.465022   0.153306  -0.076705  -0.028466   0.061995
    11  C   -0.450696   0.416634  -0.457943   0.059681  -0.228452   0.366273
    12  O    0.057663  -0.109331   0.046680  -0.174893   0.073544  -0.063686
    13  O   -0.000542   0.002435  -0.009287   0.002097   0.008499   0.002037
    14  H    0.012864  -0.198101  -0.057146   0.010859  -0.000819  -0.000717
    15  H    0.000235  -0.069589  -0.006244  -0.003262  -0.005275   0.008014
    16  H   -0.017446   0.165857   0.080639  -0.009746   0.011352  -0.006658
    17  H   -0.064653   0.271424   0.108781  -0.010741   0.013004  -0.016422
    18  H    0.147047  -0.522986  -0.106621   0.029305  -0.023575   0.037497
    19  H   -0.008344   0.211574   0.015218  -0.001488   0.001953   0.002432
    20  H   -0.052864   0.497861  -0.063849   0.007743  -0.038067   0.061726
    21  H   -0.114773  -0.247212  -0.984461   0.023509  -0.090346   0.069753
    22  H    0.005839   0.121361   0.230984  -0.053613  -0.907589   0.325893
    23  H    0.716456  -0.276596   0.018293  -0.033278   0.488077  -1.160335
    24  H   -2.305010   1.170598   0.238644  -0.094622  -0.216967   0.804726
    25  C   -0.088984  -0.059817   0.180195  -0.013195  -0.017411  -0.026702
    26  H    0.098887  -0.481204   0.446956  -0.074563  -0.242958  -0.227807
    27  H   -0.005666   0.010226  -0.000150   0.002299  -0.012262   0.012562
    28  H    0.008676  -0.010815   0.006165  -0.000314  -0.003299  -0.004775
    29  H   -0.000490   0.001147   0.000891   0.000073  -0.001732   0.000268
    30  H   -0.000327  -0.000120  -0.001773   0.001068   0.001161   0.000297
    31  O   -0.000041   0.000204   0.000953  -0.000003   0.000052   0.000096
    32  H   -0.000000   0.000019  -0.000005  -0.000049  -0.000042   0.000016
    33  H   -0.000001   0.000013  -0.000002   0.000012  -0.000039   0.000004
    34  H   -0.171319   0.181217  -0.078877  -0.001737  -0.041700   0.044516
    35  H    0.045245   0.041616   0.065937  -0.007227   0.004440  -0.002601
    36  H    0.032584  -0.038644  -0.018439   0.010422   0.007795  -0.010393
               7          8          9         10         11         12
     1  C   -0.234032  -0.359058   0.085438  -0.269783  -0.450696   0.057663
     2  C   -4.480427   0.912083  -0.188503   0.465022   0.416634  -0.109331
     3  C   -3.055091   0.887023  -0.318665   0.153306  -0.457943   0.046680
     4  N    0.720961  -0.155624   0.053903  -0.076705   0.059681  -0.174893
     5  C   -0.172439  -0.049433  -0.005953  -0.028466  -0.228452   0.073544
     6  C   -0.457422   0.049190  -0.006704   0.061995   0.366273  -0.063686
     7  C   18.070865  -2.655914   0.051720  -1.012991  -0.194428   0.001807
     8  N   -2.655914   9.388817   0.025244   0.105420  -0.409918   0.002396
     9  C    0.051720   0.025244   5.494341   0.211198   0.003637   0.000355
    10  C   -1.012991   0.105420   0.211198   5.647446   0.036359  -0.000493
    11  C   -0.194428  -0.409918   0.003637   0.036359   6.067409  -0.001273
    12  O    0.001807   0.002396   0.000355  -0.000493  -0.001273   7.984036
    13  O    0.000596  -0.000106  -0.000055   0.000024  -0.000005  -0.045914
    14  H    0.506118  -0.646626   0.018952  -0.060773   0.067002   0.000055
    15  H    0.068575  -0.007615   0.090617  -0.213207   0.251179  -0.000000
    16  H   -0.142448   0.076705  -0.080412  -0.095721  -0.047225  -0.000161
    17  H    0.265074   0.139707  -0.205399   0.108716  -0.687694  -0.000050
    18  H   -0.090286   0.016466   0.157232   0.163230  -0.104796   0.000238
    19  H   -0.401913   0.379596  -0.311179   0.019817  -0.046896  -0.000038
    20  H   -1.472187  -0.196932  -0.038309   0.102793   0.364966   0.000177
    21  H    0.676897  -0.382588   0.029873   0.042419   0.028053  -0.008737
    22  H    0.007687   0.002655  -0.000696  -0.000085   0.005124   0.001518
    23  H   -0.010323  -0.002405  -0.000852   0.000465  -0.014674  -0.001408
    24  H   -0.481003   0.058369  -0.019303   0.027795   0.059443   0.001051
    25  C   -0.323259   0.462440  -0.226067  -0.007000  -0.011976  -0.000561
    26  H   -0.104657   0.022959   0.002366   0.005992  -0.036765   0.018797
    27  H    0.001802  -0.000140  -0.000023  -0.000059   0.000785   0.361764
    28  H   -0.000586   0.000114  -0.000108   0.000230  -0.000652   0.321895
    29  H    0.000017   0.000007  -0.000017   0.000026   0.000009   0.001806
    30  H    0.000301  -0.000150   0.000064  -0.000138   0.000109   0.001319
    31  O   -0.000004   0.000010   0.000009   0.000013   0.000007   0.000755
    32  H    0.000002  -0.000005   0.000006  -0.000001   0.000011  -0.000114
    33  H   -0.000018   0.000008  -0.000002   0.000007  -0.000006   0.000203
    34  H    0.109775  -0.068997  -0.127861  -0.025437   0.059094   0.000336
    35  H   -0.112335   0.141190   0.053317   0.046449  -0.050872   0.000039
    36  H   -0.017874  -0.336798   0.081162   0.002055  -0.000882  -0.000202
              13         14         15         16         17         18
     1  C   -0.000542   0.012864   0.000235  -0.017446  -0.064653   0.147047
     2  C    0.002435  -0.198101  -0.069589   0.165857   0.271424  -0.522986
     3  C   -0.009287  -0.057146  -0.006244   0.080639   0.108781  -0.106621
     4  N    0.002097   0.010859  -0.003262  -0.009746  -0.010741   0.029305
     5  C    0.008499  -0.000819  -0.005275   0.011352   0.013004  -0.023575
     6  C    0.002037  -0.000717   0.008014  -0.006658  -0.016422   0.037497
     7  C    0.000596   0.506118   0.068575  -0.142448   0.265074  -0.090286
     8  N   -0.000106  -0.646626  -0.007615   0.076705   0.139707   0.016466
     9  C   -0.000055   0.018952   0.090617  -0.080412  -0.205399   0.157232
    10  C    0.000024  -0.060773  -0.213207  -0.095721   0.108716   0.163230
    11  C   -0.000005   0.067002   0.251179  -0.047225  -0.687694  -0.104796
    12  O   -0.045914   0.000055  -0.000000  -0.000161  -0.000050   0.000238
    13  O    7.777765   0.000010   0.000001  -0.000079  -0.000002   0.000107
    14  H    0.000010   2.392844   0.014431  -0.205378  -0.020115   0.013440
    15  H    0.000001   0.014431   1.808080  -0.396836  -0.221697   0.050236
    16  H   -0.000079  -0.205378  -0.396836   2.041393   0.160909  -0.247062
    17  H   -0.000002  -0.020115  -0.221697   0.160909   2.172243  -0.455019
    18  H    0.000107   0.013440   0.050236  -0.247062  -0.455019   2.285599
    19  H   -0.000003  -0.383834  -0.148289   0.149603   0.066484  -0.018450
    20  H    0.000035   0.036591   0.027743  -0.037115  -0.251932   0.101441
    21  H    0.003657   0.015703   0.008550  -0.021682  -0.009009   0.021931
    22  H    0.002367  -0.000097  -0.000091   0.000168   0.000989  -0.000239
    23  H    0.000022  -0.000055   0.000083   0.000179  -0.001503  -0.002557
    24  H   -0.000038  -0.002257   0.001548   0.003230   0.001434  -0.012346
    25  C   -0.000046  -0.028564   0.006379  -0.007901  -0.000861   0.003647
    26  H   -0.018177  -0.002289   0.000053   0.004633   0.000881  -0.000059
    27  H    0.004261   0.000089  -0.000001  -0.000094   0.000007   0.000026
    28  H   -0.005145  -0.000051   0.000061  -0.000162  -0.000034   0.000079
    29  H    0.363540   0.000002   0.000002   0.000009  -0.000001  -0.000001
    30  H    0.325498   0.000011  -0.000012  -0.000048   0.000008  -0.000015
    31  O   -0.034354   0.000007   0.000003  -0.000021  -0.000001   0.000012
    32  H    0.001158   0.000005   0.000001  -0.000023  -0.000000   0.000005
    33  H    0.001467  -0.000003   0.000001   0.000010  -0.000000  -0.000001
    34  H    0.000003  -0.008413  -0.001233  -0.001335  -0.000519  -0.000469
    35  H   -0.000006   0.017667   0.006764  -0.004303   0.000977   0.000361
    36  H   -0.000005   0.020183  -0.004429   0.006896   0.000684   0.000846
              19         20         21         22         23         24
     1  C   -0.008344  -0.052864  -0.114773   0.005839   0.716456  -2.305010
     2  C    0.211574   0.497861  -0.247212   0.121361  -0.276596   1.170598
     3  C    0.015218  -0.063849  -0.984461   0.230984   0.018293   0.238644
     4  N   -0.001488   0.007743   0.023509  -0.053613  -0.033278  -0.094622
     5  C    0.001953  -0.038067  -0.090346  -0.907589   0.488077  -0.216967
     6  C    0.002432   0.061726   0.069753   0.325893  -1.160335   0.804726
     7  C   -0.401913  -1.472187   0.676897   0.007687  -0.010323  -0.481003
     8  N    0.379596  -0.196932  -0.382588   0.002655  -0.002405   0.058369
     9  C   -0.311179  -0.038309   0.029873  -0.000696  -0.000852  -0.019303
    10  C    0.019817   0.102793   0.042419  -0.000085   0.000465   0.027795
    11  C   -0.046896   0.364966   0.028053   0.005124  -0.014674   0.059443
    12  O   -0.000038   0.000177  -0.008737   0.001518  -0.001408   0.001051
    13  O   -0.000003   0.000035   0.003657   0.002367   0.000022  -0.000038
    14  H   -0.383834   0.036591   0.015703  -0.000097  -0.000055  -0.002257
    15  H   -0.148289   0.027743   0.008550  -0.000091   0.000083   0.001548
    16  H    0.149603  -0.037115  -0.021682   0.000168   0.000179   0.003230
    17  H    0.066484  -0.251932  -0.009009   0.000989  -0.001503   0.001434
    18  H   -0.018450   0.101441   0.021931  -0.000239  -0.002557  -0.012346
    19  H    1.969349  -0.052380   0.003610   0.000076  -0.000002   0.000628
    20  H   -0.052380   2.435296   0.044212  -0.000402  -0.000064  -0.043003
    21  H    0.003610   0.044212   3.035771   0.012272  -0.000483  -0.024108
    22  H    0.000076  -0.000402   0.012272   2.184992  -0.120855  -0.013367
    23  H   -0.000002  -0.000064  -0.000483  -0.120855   2.077509  -0.131885
    24  H    0.000628  -0.043003  -0.024108  -0.013367  -0.131885   2.829119
    25  C    0.006182   0.083751  -0.078642  -0.000207   0.002240   0.008737
    26  H    0.000215  -0.008093  -0.080175  -0.150561   0.013030   0.013504
    27  H   -0.000009   0.000031   0.002372   0.007362  -0.000304  -0.000092
    28  H   -0.000011   0.000081   0.003244  -0.001015   0.000067  -0.000077
    29  H   -0.000000   0.000002   0.000101  -0.000069   0.000011  -0.000012
    30  H   -0.000003   0.000011  -0.001041   0.000296  -0.000003  -0.000008
    31  O    0.000000  -0.000000  -0.000322  -0.000066   0.000004  -0.000001
    32  H   -0.000000   0.000000   0.000000  -0.000011   0.000000   0.000000
    33  H    0.000000  -0.000001   0.000021  -0.000009   0.000000   0.000000
    34  H   -0.000924   0.019798   0.003590   0.000579   0.000342  -0.004483
    35  H    0.010533  -0.004030   0.001753   0.000042  -0.000038   0.002951
    36  H   -0.004430   0.014088  -0.002893  -0.000043   0.000030   0.001807
              25         26         27         28         29         30
     1  C   -0.088984   0.098887  -0.005666   0.008676  -0.000490  -0.000327
     2  C   -0.059817  -0.481204   0.010226  -0.010815   0.001147  -0.000120
     3  C    0.180195   0.446956  -0.000150   0.006165   0.000891  -0.001773
     4  N   -0.013195  -0.074563   0.002299  -0.000314   0.000073   0.001068
     5  C   -0.017411  -0.242958  -0.012262  -0.003299  -0.001732   0.001161
     6  C   -0.026702  -0.227807   0.012562  -0.004775   0.000268   0.000297
     7  C   -0.323259  -0.104657   0.001802  -0.000586   0.000017   0.000301
     8  N    0.462440   0.022959  -0.000140   0.000114   0.000007  -0.000150
     9  C   -0.226067   0.002366  -0.000023  -0.000108  -0.000017   0.000064
    10  C   -0.007000   0.005992  -0.000059   0.000230   0.000026  -0.000138
    11  C   -0.011976  -0.036765   0.000785  -0.000652   0.000009   0.000109
    12  O   -0.000561   0.018797   0.361764   0.321895   0.001806   0.001319
    13  O   -0.000046  -0.018177   0.004261  -0.005145   0.363540   0.325498
    14  H   -0.028564  -0.002289   0.000089  -0.000051   0.000002   0.000011
    15  H    0.006379   0.000053  -0.000001   0.000061   0.000002  -0.000012
    16  H   -0.007901   0.004633  -0.000094  -0.000162   0.000009  -0.000048
    17  H   -0.000861   0.000881   0.000007  -0.000034  -0.000001   0.000008
    18  H    0.003647  -0.000059   0.000026   0.000079  -0.000001  -0.000015
    19  H    0.006182   0.000215  -0.000009  -0.000011  -0.000000  -0.000003
    20  H    0.083751  -0.008093   0.000031   0.000081   0.000002   0.000011
    21  H   -0.078642  -0.080175   0.002372   0.003244   0.000101  -0.001041
    22  H   -0.000207  -0.150561   0.007362  -0.001015  -0.000069   0.000296
    23  H    0.002240   0.013030  -0.000304   0.000067   0.000011  -0.000003
    24  H    0.008737   0.013504  -0.000092  -0.000077  -0.000012  -0.000008
    25  C    4.573468  -0.004655   0.000208   0.000202   0.000006  -0.000020
    26  H   -0.004655   1.730694  -0.020035   0.002573   0.001338   0.001096
    27  H    0.000208  -0.020035   0.611595  -0.111170  -0.000357  -0.000340
    28  H    0.000202   0.002573  -0.111170   0.512716  -0.005213  -0.003692
    29  H    0.000006   0.001338  -0.000357  -0.005213   0.612481  -0.106658
    30  H   -0.000020   0.001096  -0.000340  -0.003692  -0.106658   0.542183
    31  O    0.000011  -0.001244   0.000814  -0.002718   0.000596   0.008949
    32  H   -0.000001   0.000029  -0.000075   0.000850  -0.001047  -0.003802
    33  H    0.000001   0.000201  -0.000099   0.000207  -0.000248  -0.002467
    34  H    0.340432  -0.016614   0.000712  -0.000193   0.000001  -0.000002
    35  H    0.050441   0.004266  -0.000091   0.000056  -0.000001  -0.000004
    36  H    0.377862   0.001155  -0.000118   0.000031  -0.000000   0.000011
              31         32         33         34         35         36
     1  C   -0.000041  -0.000000  -0.000001  -0.171319   0.045245   0.032584
     2  C    0.000204   0.000019   0.000013   0.181217   0.041616  -0.038644
     3  C    0.000953  -0.000005  -0.000002  -0.078877   0.065937  -0.018439
     4  N   -0.000003  -0.000049   0.000012  -0.001737  -0.007227   0.010422
     5  C    0.000052  -0.000042  -0.000039  -0.041700   0.004440   0.007795
     6  C    0.000096   0.000016   0.000004   0.044516  -0.002601  -0.010393
     7  C   -0.000004   0.000002  -0.000018   0.109775  -0.112335  -0.017874
     8  N    0.000010  -0.000005   0.000008  -0.068997   0.141190  -0.336798
     9  C    0.000009   0.000006  -0.000002  -0.127861   0.053317   0.081162
    10  C    0.000013  -0.000001   0.000007  -0.025437   0.046449   0.002055
    11  C    0.000007   0.000011  -0.000006   0.059094  -0.050872  -0.000882
    12  O    0.000755  -0.000114   0.000203   0.000336   0.000039  -0.000202
    13  O   -0.034354   0.001158   0.001467   0.000003  -0.000006  -0.000005
    14  H    0.000007   0.000005  -0.000003  -0.008413   0.017667   0.020183
    15  H    0.000003   0.000001   0.000001  -0.001233   0.006764  -0.004429
    16  H   -0.000021  -0.000023   0.000010  -0.001335  -0.004303   0.006896
    17  H   -0.000001  -0.000000  -0.000000  -0.000519   0.000977   0.000684
    18  H    0.000012   0.000005  -0.000001  -0.000469   0.000361   0.000846
    19  H    0.000000  -0.000000   0.000000  -0.000924   0.010533  -0.004430
    20  H   -0.000000   0.000000  -0.000001   0.019798  -0.004030   0.014088
    21  H   -0.000322   0.000000   0.000021   0.003590   0.001753  -0.002893
    22  H   -0.000066  -0.000011  -0.000009   0.000579   0.000042  -0.000043
    23  H    0.000004   0.000000   0.000000   0.000342  -0.000038   0.000030
    24  H   -0.000001   0.000000   0.000000  -0.004483   0.002951   0.001807
    25  C    0.000011  -0.000001   0.000001   0.340432   0.050441   0.377862
    26  H   -0.001244   0.000029   0.000201  -0.016614   0.004266   0.001155
    27  H    0.000814  -0.000075  -0.000099   0.000712  -0.000091  -0.000118
    28  H   -0.002718   0.000850   0.000207  -0.000193   0.000056   0.000031
    29  H    0.000596  -0.001047  -0.000248   0.000001  -0.000001  -0.000000
    30  H    0.008949  -0.003802  -0.002467  -0.000002  -0.000004   0.000011
    31  O    7.630221   0.358167   0.355591   0.000007   0.000000   0.000003
    32  H    0.358167   0.574121  -0.075870   0.000000   0.000000  -0.000002
    33  H    0.355591  -0.075870   0.571098  -0.000001   0.000000  -0.000000
    34  H    0.000007   0.000000  -0.000001   1.989287  -0.417432  -0.497943
    35  H    0.000000   0.000000   0.000000  -0.417432   1.582991  -0.307631
    36  H    0.000003  -0.000002  -0.000000  -0.497943  -0.307631   1.899204
 Mulliken charges:
               1
     1  C    1.168623
     2  C    0.708926
     3  C    0.721211
     4  N    0.002231
     5  C    0.759601
     6  C    0.265009
     7  C    0.937441
     8  N   -0.398094
     9  C    1.170672
    10  C    0.590081
    11  C    0.959380
    12  O   -0.469574
    13  O   -0.381814
    14  H   -0.511597
    15  H   -0.264775
    16  H   -0.379727
    17  H   -0.365665
    18  H   -0.444265
    19  H   -0.459079
    20  H   -0.539117
    21  H   -0.980821
    22  H   -0.661186
    23  H   -0.559189
    24  H   -0.875002
    25  C    0.799669
    26  H    0.100231
    27  H    0.134169
    28  H    0.292785
    29  H    0.133515
    30  H    0.238246
    31  O   -0.317708
    32  H    0.146656
    33  H    0.149922
    34  H   -0.284199
    35  H   -0.170465
    36  H   -0.216092
 Sum of Mulliken charges =   1.00000
 Mulliken charges with hydrogens summed into heavy atoms:
               1
     1  C    0.293621
     2  C    0.708926
     3  C   -0.259610
     4  N    0.102463
     5  C    0.098416
     6  C   -0.294179
     7  C    0.398324
     8  N   -0.398094
     9  C    0.199997
    10  C   -0.054421
    11  C    0.149450
    12  O   -0.042621
    13  O   -0.010054
    25  C    0.128913
    31  O   -0.021131
 Electronic spatial extent (au):  <R**2>=           6001.8653
 Charge=              1.0000 electrons
 Dipole moment (field-independent basis, Debye):
    X=             -5.6310    Y=              1.7156    Z=             -0.2633  Tot=              5.8925
 Quadrupole moment (field-independent basis, Debye-Ang):
   XX=             -8.0430   YY=            -53.7760   ZZ=            -81.6082
   XY=             16.5968   XZ=             -2.1220   YZ=             -0.4690
 Traceless Quadrupole moment (field-independent basis, Debye-Ang):
   XX=             39.7661   YY=             -5.9670   ZZ=            -33.7991
   XY=             16.5968   XZ=             -2.1220   YZ=             -0.4690
 Octapole moment (field-independent basis, Debye-Ang**2):
  XXX=           -461.9738  YYY=              5.3594  ZZZ=             16.9489  XYY=            -93.1442
  XXY=           -140.2754  XXZ=            -17.7966  XZZ=            -40.6636  YZZ=            -10.0183
  YYZ=            -23.8977  XYZ=            -19.0581
 Hexadecapole moment (field-independent basis, Debye-Ang**3):
 XXXX=          -1735.4436 YYYY=          -1499.7620 ZZZZ=           -595.0522 XXXY=            993.0997
 XXXZ=             75.2044 YYYX=            341.5356 YYYZ=            -16.8631 ZZZX=            -18.1466
 ZZZY=             24.0483 XXYY=           -462.1548 XXZZ=           -737.2804 YYZZ=           -391.6689
 XXYZ=             49.6142 YYXZ=             29.5562 ZZXY=             24.8479
 N-N= 1.011706130942D+03 E-N=-3.708130001579D+03  KE= 7.240211819464D+02
 Calling FoFJK, ICntrl=      2127 FMM=F ISym2X=0 I1Cent= 0 IOpClX= 0 NMat=1 NMatS=1 NMatT=0.
 ***** Axes restored to original set *****
 -------------------------------------------------------------------
 Center     Atomic                   Forces (Hartrees/Bohr)
 Number     Number              X              Y              Z
 -------------------------------------------------------------------
      1        6           0.000003448   -0.000004432    0.000005537
      2        6           0.000002924    0.000007551    0.000007454
      3        6          -0.000007852   -0.000000190   -0.000000816
      4        7          -0.000001058   -0.000004076   -0.000004866
      5        6           0.000003958    0.000004458   -0.000003098
      6        6          -0.000006739    0.000000566    0.000002767
      7        6           0.000010842    0.000007485   -0.000023700
      8        7          -0.000003797   -0.000018459    0.000014450
      9        6          -0.000007089    0.000014112   -0.000018973
     10        6           0.000001336   -0.000006242    0.000013291
     11        6           0.000002431    0.000009603    0.000012293
     12        8          -0.000002689   -0.000002009   -0.000002067
     13        8          -0.000004167   -0.000001948    0.000003084
     14        1           0.000005333   -0.000002815    0.000002413
     15        1          -0.000003608   -0.000000196   -0.000004109
     16        1          -0.000000465    0.000002133   -0.000004761
     17        1          -0.000003575   -0.000001303   -0.000003886
     18        1           0.000003073   -0.000000585   -0.000004210
     19        1           0.000006612   -0.000005018   -0.000000300
     20        1          -0.000003921    0.000001477    0.000000240
     21        1           0.000001825   -0.000000029    0.000002637
     22        1           0.000000670    0.000000404    0.000003339
     23        1           0.000000557    0.000000963    0.000002055
     24        1          -0.000000720    0.000000661   -0.000000341
     25        6          -0.000018736    0.000000157   -0.000002015
     26        1           0.000005195   -0.000002019    0.000009676
     27        1           0.000001303   -0.000001546    0.000000087
     28        1           0.000000017    0.000002238    0.000001385
     29        1           0.000001052    0.000003190    0.000003033
     30        1           0.000004628   -0.000003058   -0.000011941
     31        8          -0.000002483    0.000000049    0.000005583
     32        1           0.000001090    0.000002434   -0.000002086
     33        1          -0.000000480   -0.000001153   -0.000000808
     34        1           0.000002978    0.000001244   -0.000002065
     35        1           0.000004967   -0.000002053    0.000000002
     36        1           0.000003142   -0.000001593    0.000000714
 -------------------------------------------------------------------
 Cartesian Forces:  Max     0.000023700 RMS     0.000005987

 GradGradGradGradGradGradGradGradGradGradGradGradGradGradGradGradGradGrad
 Berny optimization.
 FormGI is forming the generalized inverse of G from B-inverse, IUseBI=4.
 Internal  Forces:  Max     0.000015327 RMS     0.000002693
 Search for a local minimum.
 Step number   1 out of a maximum of  200
 All quantities printed in internal units (Hartrees-Bohrs-Radians)
 Mixed Optimization -- En-DIIS/RFO-DIIS
 Second derivative matrix not updated -- first step.
 ITU=  0
     Eigenvalues ---    0.00230   0.00230   0.00230   0.00230   0.00230
     Eigenvalues ---    0.00230   0.00230   0.00230   0.00230   0.00299
     Eigenvalues ---    0.00392   0.00570   0.00886   0.00982   0.01019
     Eigenvalues ---    0.01115   0.01518   0.01923   0.02101   0.02138
     Eigenvalues ---    0.02173   0.02240   0.02288   0.02348   0.02381
     Eigenvalues ---    0.02444   0.02616   0.03421   0.04643   0.04890
     Eigenvalues ---    0.05058   0.05307   0.05713   0.06149   0.06283
     Eigenvalues ---    0.06383   0.06679   0.06795   0.06978   0.07272
     Eigenvalues ---    0.07577   0.07991   0.08256   0.09113   0.09325
     Eigenvalues ---    0.10405   0.13404   0.15088   0.15926   0.16000
     Eigenvalues ---    0.16000   0.16000   0.16000   0.16000   0.16000
     Eigenvalues ---    0.16000   0.16000   0.16000   0.16000   0.16000
     Eigenvalues ---    0.16000   0.16335   0.18325   0.20676   0.22000
     Eigenvalues ---    0.22000   0.23454   0.24987   0.25866   0.27251
     Eigenvalues ---    0.28935   0.30875   0.32756   0.32873   0.32880
     Eigenvalues ---    0.33826   0.33969   0.34038   0.34075   0.34129
     Eigenvalues ---    0.34137   0.34254   0.34727   0.34740   0.35110
     Eigenvalues ---    0.35111   0.35144   0.35593   0.38132   0.39347
     Eigenvalues ---    0.43275   0.43601   0.46780   0.48156   0.49910
     Eigenvalues ---    0.52181   0.54304   0.55288   0.55289   0.55558
     Eigenvalues ---    0.55686   0.56207
 RFO step:  Lambda=-1.16430819D-07 EMin= 2.30000000D-03
 Linear search not attempted -- first point.
 Iteration  1 RMS(Cart)=  0.00209309 RMS(Int)=  0.00000279
 Iteration  2 RMS(Cart)=  0.00000539 RMS(Int)=  0.00000019
 Iteration  3 RMS(Cart)=  0.00000000 RMS(Int)=  0.00000019
 Variable       Old X    -DE/DX   Delta X   Delta X   Delta X     New X
                                 (Linear)    (Quad)   (Total)
    R1        2.64319  -0.00000   0.00000  -0.00001  -0.00001   2.64318
    R2        2.63343   0.00000   0.00000   0.00001   0.00001   2.63343
    R3        2.06120  -0.00000   0.00000  -0.00000  -0.00000   2.06120
    R4        2.62196   0.00000   0.00000   0.00000   0.00000   2.62197
    R5        2.86253   0.00000   0.00000   0.00000   0.00000   2.86253
    R6        2.53603  -0.00000   0.00000  -0.00001  -0.00001   2.53602
    R7        2.05496   0.00000   0.00000   0.00000   0.00000   2.05496
    R8        2.53439   0.00000   0.00000   0.00001   0.00001   2.53440
    R9        1.99149  -0.00000   0.00000  -0.00000  -0.00000   1.99149
   R10        2.61446  -0.00000   0.00000  -0.00001  -0.00001   2.61445
   R11        2.05441  -0.00000   0.00000  -0.00000  -0.00000   2.05441
   R12        2.05494   0.00000   0.00000   0.00000   0.00000   2.05495
   R13        2.75458   0.00002   0.00000   0.00005   0.00005   2.75463
   R14        2.94442  -0.00001   0.00000  -0.00001  -0.00001   2.94441
   R15        2.09264  -0.00000   0.00000  -0.00001  -0.00001   2.09263
   R16        2.76014  -0.00000   0.00000  -0.00001  -0.00001   2.76013
   R17        2.74174  -0.00000   0.00000  -0.00001  -0.00001   2.74173
   R18        2.87645  -0.00001   0.00000  -0.00003  -0.00003   2.87642
   R19        2.07266   0.00000   0.00000   0.00000   0.00000   2.07266
   R20        2.09481   0.00001   0.00000   0.00002   0.00002   2.09484
   R21        2.90537   0.00001   0.00000   0.00002   0.00002   2.90539
   R22        2.06904   0.00000   0.00000   0.00000   0.00000   2.06904
   R23        2.07383   0.00000   0.00000   0.00000   0.00000   2.07383
   R24        2.07113  -0.00000   0.00000  -0.00001  -0.00001   2.07113
   R25        2.07099   0.00000   0.00000   0.00000   0.00000   2.07099
   R26        3.02168   0.00000   0.00000   0.00001   0.00001   3.02169
   R27        1.81228  -0.00000   0.00000  -0.00000  -0.00000   1.81227
   R28        1.86655  -0.00000   0.00000  -0.00000  -0.00000   1.86655
   R29        3.14115   0.00000   0.00000   0.00002   0.00002   3.14117
   R30        1.81339  -0.00000   0.00000  -0.00000  -0.00000   1.81339
   R31        1.84427   0.00000   0.00000   0.00000   0.00000   1.84427
   R32        2.07625   0.00000   0.00000   0.00000   0.00000   2.07625
   R33        2.09274   0.00000   0.00000   0.00001   0.00001   2.09276
[...]
 0001580,0.00000877,-0.00003842,0.00000079,-0.00000397,-0.00002041,-0.0
 0000409,-0.00000390,-0.00000671,-0.00000257,-0.00000208,-0.00000449,0.
 00000664,0.00000599,-0.00004058,0.00015277,0.00004111,-0.00010839,0.00
 010298,0.00024521,-0.00005192,-0.00055290,-0.00001655,-0.00078205,-0.0
 0007289,-0.00047675,-0.00027137,0.00277283,-0.00117788,-0.00976084,-0.
 24097646,0.16375804,0.56875066,0.00000182,-0.00002894,0.00000637,0.000
 03284,0.00003089,-0.00001797,-0.00003514,-0.00003764,0.00002430,-0.000
 03530,-0.00002259,0.00002955,0.00002564,0.00001361,-0.00001404,-0.0000
 3534,0.00000729,0.00000746,-0.00001312,-0.00002562,0.00001360,0.000037
 37,0.00003544,0.00002472,-0.00001804,-0.00002464,-0.00001073,-0.000057
 96,-0.00000676,-0.00000105,0.00000073,-0.00000443,-0.00000853,-0.00023
 793,-0.00001140,-0.00004283,-0.00047690,-0.00116219,0.00052230,-0.0000
 1100,0.00000942,-0.00001231,0.00000269,0.00000296,0.00000279,0.0000209
 8,-0.00000212,0.00000490,0.00001012,0.00001032,0.00000464,-0.00000783,
 -0.00000743,0.00000185,0.00001458,0.00001096,0.00000993,0.00000834,0.0
 0001091,0.00000328,-0.00001277,-0.00002346,-0.00002335,0.00000703,-0.0
 0000069,-0.00000453,-0.00000040,-0.00000112,-0.00000115,-0.00000036,-0
 .00000345,-0.00000106,-0.00001698,-0.00000932,-0.00003203,0.00012757,-
 0.00001002,-0.00006179,0.00003104,0.00000219,0.00000911,0.00027113,0.0
 0007293,0.00012869,-0.00003727,-0.00004078,0.00012558,0.00077922,0.002
 16802,-0.00175894,-0.02573388,-0.04093661,-0.01177205,0.02576875,-0.00
 000311,0.00000135,0.00000006,-0.00002037,0.00001121,0.00000547,-0.0000
 0600,0.00002029,-0.00000585,0.00005704,0.00001731,-0.00001380,-0.00001
 319,-0.00002777,0.00001176,0.00001889,-0.00000560,-0.00000205,-0.00000
 876,0.00002010,-0.00002093,0.00001369,-0.00002999,0.00000745,-0.000000
 19,0.00002859,0.00000563,0.00000475,0.00000024,-0.00000313,-0.00000408
 ,0.00000181,0.00000311,0.00015860,0.00006252,0.00008496,-0.00054714,-0
 .00126111,0.00148217,-0.00000067,-0.00000580,0.00000759,0.00000532,-0.
 00000178,-0.00000234,-0.00000379,0.00000956,-0.00000182,0.00000145,-0.
 00000420,-0.00000086,0.00000017,-0.00000324,0.00000626,0.00000399,-0.0
 0000469,-0.00000007,0.00000166,-0.00000738,0.00000131,-0.00001303,0.00
 001315,-0.00000632,-0.00000539,-0.00000615,-0.00000422,-0.00000106,-0.
 00000187,-0.00000152,0.00000006,0.00000156,-0.00000132,-0.00000340,0.0
 0000368,-0.00000615,-0.00011238,-0.00002818,0.00001707,-0.00001115,0.0
 0000154,-0.00002289,-0.00016479,-0.00010589,-0.00012605,-0.00016291,-0
 .00041562,-0.00025193,0.00124872,0.00136939,-0.00356679,-0.01430025,-0
 .23507744,-0.27158554,0.01832607,0.22776129,0.00000407,-0.00001007,0.0
 0000241,0.00000966,0.00002419,-0.00000983,-0.00002365,0.00000034,0.000
 00901,0.00007575,0.00001456,-0.00003284,0.00000139,-0.00001983,0.00000
 954,0.00000192,0.00000284,-0.00000507,-0.00000535,-0.00000590,0.000007
 54,0.00002117,0.00000082,-0.00002955,-0.00001553,-0.00000068,0.0000172
 9,0.00000742,0.00000387,-0.00000321,0.00000304,-0.00000394,0.00001035,
 0.00018053,0.00014104,0.00002765,0.00122739,0.00224474,-0.00090239,-0.
 00000129,0.00000501,-0.00000160,0.00000628,-0.00000392,-0.00000016,-0.
 00000557,-0.00000162,0.00001200,0.00000183,-0.00000096,-0.00000218,-0.
 00000173,0.00000882,-0.00000108,0.00000415,0.00000001,-0.00000459,0.00
 000414,0.00000081,-0.00000213,-0.00001619,-0.00000399,0.00001169,-0.00
 000475,-0.00000320,0.00000933,0.00000246,0.00000185,0.00000331,0.00000
 220,0.00000126,0.00000237,-0.00000735,-0.00000418,0.00001292,-0.000165
 84,-0.00004785,0.00007259,-0.00000776,-0.00005093,-0.00000816,-0.00014
 919,-0.00011069,-0.00012424,-0.00002025,0.00004742,0.00027073,-0.00190
 173,-0.00316846,0.00152691,0.02158014,-0.23456736,-0.33241413,-0.01528
 671,0.25830933,0.35282493,0.00000281,-0.00001968,0.00000584,0.00002149
 ,0.00003094,-0.00001497,-0.00003401,-0.00001015,0.00001274,0.00005435,
 0.00000541,-0.00001453,0.00001311,-0.00001606,0.00000179,-0.00001204,0
 .00000485,0.00000091,-0.00001127,-0.00001429,0.00000763,0.00003469,0.0
 0001454,-0.00000494,-0.00002017,-0.00000867,0.00000600,-0.00001664,0.0
 0000001,-0.00000065,-0.00000039,-0.00000278,0.00000157,0.00004835,0.00
 018572,-0.00004171,0.00048147,0.00086353,0.00016176,-0.00000541,0.0000
 0695,-0.00000490,0.00000234,-0.00000106,0.00000010,0.00000702,-0.00000
 140,0.00000638,0.00000522,0.00000271,0.00000057,-0.00000367,0.00000053
 ,0.00000032,0.00001053,0.00000456,0.00000152,0.00000749,0.00000511,0.0
 0000091,-0.00001821,-0.00001040,0.00000312,-0.00000017,-0.00000592,0.0
 0000196,0.00000137,-0.00000057,-0.00000010,0.00000090,-0.00000120,-0.0
 0000007,-0.00001613,-0.00000827,-0.00000716,-0.00009918,-0.00004532,0.
 00003840,0.00001212,-0.00011508,-0.00001066,-0.00000692,-0.00010864,0.
 00004823,0.00009982,-0.00014582,-0.00012464,-0.00107217,-0.00063212,-0
 .00007384,-0.27174642,-0.12040843,0.25052675,-0.00041711,-0.00446127,-
 0.00551774,0.27267538,-0.00000224,0.00000470,-0.00000010,-0.00001476,0
 .00000270,0.00000527,0.00000097,0.00002107,-0.00000629,0.00006150,0.00
 001775,-0.00002276,-0.00001333,-0.00002102,0.00001125,0.00001872,-0.00
 000471,-0.00000443,-0.00000505,0.00001686,-0.00001499,0.00000703,-0.00
 002392,0.00000350,0.00000091,0.00002207,0.00000363,0.00000541,0.000000
 22,-0.00000287,-0.00000034,-0.00000025,0.00000559,0.00009809,0.0000146
 4,-0.00012446,0.00019043,-0.00283779,-0.00100406,-0.00000026,-0.000004
 72,0.00000441,0.00000181,-0.00000175,-0.00000172,-0.00000281,0.0000036
 6,-0.00000140,0.00000027,-0.00000281,-0.00000154,0.00000066,-0.0000008
 7,0.00000358,0.00000227,-0.00000363,-0.00000050,0.00000050,-0.00000582
 ,0.00000071,-0.00000748,0.00001112,0.00000070,-0.00000601,-0.00000305,
 0.00000220,-0.00000032,-0.00000037,0.00000024,0.00000037,0.00000127,-0
 .00000032,-0.00000187,0.00000579,-0.00000226,-0.00013496,-0.00002205,0
 .00004539,-0.00010007,-0.00004344,-0.00001361,0.00000947,-0.00003923,0
 .00017531,-0.00043035,-0.00040128,0.00025642,-0.00106432,0.00458803,0.
 00251527,-0.14515394,-0.08945773,0.10799456,0.02165006,0.00766926,-0.0
 2280436,0.12488805,0.08050118,0.00000254,-0.00000274,0.00000088,0.0000
 0692,0.00000409,-0.00000531,0.00000114,-0.00000737,0.00000661,-0.00000
 071,-0.00000420,-0.00000892,0.00000724,0.00000706,0.00000144,-0.000006
 54,0.00000296,-0.00000351,0.00000434,-0.00001255,0.00001130,-0.0000005
 7,0.00000347,-0.00003115,-0.00000465,-0.00000016,0.00000807,0.00001302
 ,0.00000303,0.00000158,0.00000033,0.00000006,0.00000267,-0.00015442,-0
 .00003126,-0.00032927,-0.00050915,-0.00190545,-0.00035241,0.00000219,0
 .00000366,0.00000153,0.00000142,-0.00000150,-0.00000122,-0.00000594,-0
 .00000170,0.00000301,-0.00000135,-0.00000119,-0.00000111,0.00000038,0.
 00000559,-0.00000400,-0.00000212,-0.00000103,-0.00000343,-0.00000093,0
 .00000217,-0.00000176,0.00000242,-0.00000254,0.00001944,0.00000276,0.0
 0000419,0.00000929,0.00000149,0.00000170,0.00000345,0.00000084,0.00000
 071,0.00000254,0.00000006,-0.00000174,0.00002546,-0.00000327,0.0000031
 7,0.00003192,-0.00005957,-0.00010066,0.00006598,0.00032461,0.00015686,
 0.00046358,0.00004378,0.00006789,0.00001360,0.00053983,0.00331316,0.00
 025552,0.21667435,0.06983416,-0.23121273,0.02812869,0.01568123,-0.0212
 7963,-0.24500280,-0.08702260,0.25231322,-0.00001378,0.00003697,0.00005
 765,0.00005794,-0.00012863,-0.00019989,0.00019438,0.00022088,-0.000119
 81,-0.00014414,0.00002282,0.00003471,-0.00003689,-0.00006067,0.0000348
 5,0.00007247,-0.00008239,-0.00004394,0.00067219,0.00067673,0.00018907,
 0.00521349,-0.01202470,-0.00380138,-0.00008549,-0.00005738,-0.00175517
 ,0.00067178,-0.00035592,-0.00039970,-0.00017972,-0.00011384,0.00005170
 ,0.00002092,-0.00003029,0.00002899,0.00000776,-0.00000372,0.00000828,-
 0.00001688,0.00020993,0.00004854,-0.00005996,0.00002713,-0.00020299,-0
 .00000019,-0.00004196,0.00013927,0.00000212,0.00001151,-0.00001114,0.0
 0001793,-0.00002811,-0.00001473,0.00039676,-0.00039797,-0.00038635,-0.
 00057907,0.00014353,-0.00010973,-0.00008511,-0.00018286,-0.00012416,-0
 .00000127,-0.00001420,0.00000217,0.00000121,-0.00000251,-0.00000372,-0
 .00001610,-0.00000961,0.00005170,-0.10127832,0.10099268,0.04086243,0.0
 0002423,0.00004548,-0.00001967,-0.00001986,0.00001776,-0.00000315,-0.0
 0001589,-0.00000087,-0.00001311,-0.00000041,0.00000360,-0.00000116,-0.
 00000280,0.00000234,-0.00000179,0.00000669,-0.00000253,0.00000347,-0.0
 0000280,0.00000085,-0.00000198,-0.00000364,0.00000083,-0.00000114,0.10
 406264,-0.00023292,0.00052917,-0.00014488,0.00025351,-0.00019944,-0.00
 003066,0.00026388,0.00005767,-0.00004567,-0.00024486,0.00037185,0.0000
 2106,-0.00020122,-0.00022321,0.00006511,0.00032081,-0.00004733,0.00001
 644,-0.00098668,-0.00023729,0.00087441,0.00017567,-0.00385300,-0.00237
 630,-0.00060920,0.00174323,-0.00107397,0.00040613,-0.00017654,0.000100
 98,-0.00005336,-0.00008588,-0.00028455,0.00007093,-0.00000665,0.000090
 41,0.00002596,0.00002900,0.00004042,0.00008260,0.00035744,0.00013387,-
 0.00000190,0.00008043,-0.00017330,-0.00004491,0.00003726,-0.00001856,0
 .00001426,0.00002509,-0.00000637,-0.00001253,0.00006948,-0.00005089,0.
 00002198,-0.00000031,0.00014612,0.00017232,0.00019312,0.00012430,-0.00
 009045,-0.00004800,-0.00026116,-0.00000829,0.00000019,0.00000013,-0.00
 000252,0.00001607,-0.00000029,-0.00000299,-0.00003761,-0.00000354,0.09
 799686,-0.22995966,-0.07548658,-0.00001275,0.00002994,-0.00007838,-0.0
 0005084,0.00001658,-0.00002560,-0.00005570,-0.00003402,-0.00006062,0.0
 0000045,-0.00000003,-0.00000757,-0.00000381,-0.00002350,-0.00000718,-0
 .00000020,0.00001824,0.00001325,0.00000693,-0.00000441,-0.00000581,-0.
 00000179,-0.00000433,-0.00000686,-0.10640769,0.24600723,-0.00009275,0.
 00043168,-0.00015443,-0.00032111,0.00016804,-0.00029679,-0.00027405,0.
 00019402,-0.00024663,0.00000549,0.00030220,-0.00004884,-0.00018886,-0.
 00026062,0.00007508,0.00029311,-0.00002824,-0.00003001,0.00078414,-0.0
 0143323,0.00114828,0.01262249,-0.03221829,-0.01632756,-0.00168188,0.00
 279850,-0.00523429,0.00072093,-0.00175255,-0.00070454,-0.00005550,-0.0
 0034026,0.00018306,0.00013272,0.00004496,-0.00002710,0.00003222,0.0000
 3572,0.00001767,-0.00021417,-0.00018840,0.00015656,-0.00021500,0.00012
 497,-0.00061144,-0.00006069,-0.00000845,-0.00008316,0.00000030,0.00006
 347,0.00005390,-0.00002362,0.00011793,-0.00000270,0.00017978,0.0000548
 1,-0.00003229,0.00023821,0.00031620,-0.00023828,-0.00000403,-0.0002296
 7,-0.00012002,-0.00001457,-0.00000070,-0.00000869,0.00000302,-0.000001
 93,-0.00000618,-0.00000224,-0.00003294,-0.00000423,0.03730247,-0.06875
 834,-0.07680395,-0.00022467,-0.00004422,0.00007086,0.00000439,-0.00000
 231,0.00001897,-0.00004274,-0.00003137,-0.00004455,-0.00000488,-0.0000
 0293,-0.00000006,-0.00000665,-0.00002990,0.00000269,0.00000152,0.00001
 928,-0.00000088,0.00000366,-0.00000386,-0.00000109,0.00000041,-0.00000
 254,0.00000133,-0.04026920,0.08543414,0.09110657,-0.00016525,-0.000240
 43,0.00010009,-0.00003077,0.00062204,0.00000924,-0.00008202,-0.0001287
 9,0.00019624,0.00006494,-0.00006312,-0.00001474,0.00006598,0.00012462,
 -0.00010619,-0.00014870,0.00011637,0.00004168,0.00168199,-0.00144924,0
 .00193236,-0.00999220,-0.00242922,-0.01431863,0.00171936,0.00123335,0.
 00098206,0.00035652,-0.00007069,0.00024737,0.00012736,0.00006849,0.000
 23806,-0.00013974,0.00000667,0.00000047,-0.00005460,-0.00001575,-0.000
 02381,-0.00020694,-0.00018876,0.00008661,0.00002183,0.00002127,-0.0001
 5895,0.00004929,-0.00000698,0.00027228,0.00005807,-0.00001149,-0.00008
 265,0.00005442,0.00008156,0.00001769,0.00020598,-0.00162716,-0.0011551
 1,-0.00001164,0.00160747,-0.00154060,0.00039741,-0.00027121,0.00005679
 ,0.00000914,0.00001021,-0.00000909,-0.00002589,0.00000749,-0.00001540,
 0.00002430,-0.00000343,-0.00003321,-0.28513458,-0.02279647,-0.00768431
 ,0.00017885,0.00002107,-0.00002274,0.00001924,-0.00002192,-0.00001340,
 0.00006629,0.00001825,0.00005446,0.00000991,-0.00000612,0.00000145,0.0
 0002210,0.00002187,-0.00000176,-0.00002954,-0.00001234,-0.00000152,0.0
 0001338,0.00000241,0.00000382,0.00001108,0.00000113,-0.00000151,-0.012
 97433,-0.00238176,0.00019166,0.31214722,-0.00003552,0.00029500,-0.0000
 6136,-0.00013976,-0.00039169,-0.00018262,0.00005258,-0.00000899,-0.000
 02636,-0.00018780,0.00026999,-0.00001844,-0.00012803,-0.00014325,0.000
 05610,0.00018105,-0.00003988,-0.00001036,0.00250194,0.00089768,0.00042
 192,-0.00629378,-0.00060631,-0.00399229,-0.00316285,0.00172498,0.00067
 429,0.00020777,-0.00001613,-0.00020325,-0.00003774,-0.00004483,0.00008
 535,0.00000350,0.00000952,0.00002273,0.00000093,0.00000646,0.00000425,
 0.00004701,-0.00008806,0.00009740,0.00003389,0.00000770,-0.00008312,0.
 00012296,-0.00011995,0.00009052,-0.00002651,0.00000806,-0.00001272,0.0
 0000539,-0.00004529,-0.00004218,0.00079554,0.00003887,0.00033782,-0.00
 040799,0.00012462,-0.00043365,-0.00003659,-0.00005161,-0.00010571,-0.0
 0000398,0.00000517,0.00001019,0.00000179,0.00000692,0.00000608,-0.0000
 0091,-0.00002728,0.00001138,-0.02215835,-0.05230963,-0.00005669,-0.000
 00070,0.00001100,-0.00003802,-0.00001163,-0.00000245,-0.00000592,-0.00
 000522,-0.00000937,-0.00000749,0.00000067,-0.00000097,-0.00000057,0.00
 000269,-0.00000390,0.00000013,-0.00000462,0.00000278,-0.00000122,0.000
 00283,-0.00000020,0.00000084,0.00000206,-0.00000062,0.00000015,0.02618
 605,0.00313168,0.00132574,0.02715642,0.04865660,-0.00012040,0.00008528
 ,0.00002906,0.00051833,0.00051145,0.00006198,-0.00003403,0.00005187,0.
 00002243,-0.00002194,0.00017561,0.00000958,-0.00003092,0.00002954,-0.0
 0004012,-0.00000152,0.00004691,-0.00002668,-0.00417107,-0.00523276,0.0
 0300397,-0.03785262,-0.00539900,-0.01888640,-0.00348127,0.00375487,0.0
 0201334,0.00033095,-0.00004982,0.00009055,0.00016730,-0.00015549,0.000
 51460,0.00000826,-0.00001391,0.00005959,0.00000575,0.00000408,0.000021
 11,0.00038821,-0.00028480,-0.00019395,0.00018869,0.00003657,-0.0001130
 3,0.00019010,-0.00000429,0.00015726,0.00005479,0.00001910,-0.00006901,
 0.00001018,0.00003350,0.00006553,0.00189605,-0.00013153,0.00050051,0.0
 0190401,0.00101515,0.00074708,0.00020945,-0.00017425,-0.00022757,-0.00
 000388,0.00000762,-0.00001727,-0.00001517,0.00000635,-0.00000847,0.000
 01533,0.00000116,0.00000184,-0.00784782,-0.00023466,-0.04870437,0.0000
 5867,0.00001342,-0.00004423,-0.00002976,0.00001529,-0.00001771,-0.0000
 1946,-0.00001093,-0.00002524,0.00000079,0.00000134,-0.00000436,0.00000
 078,-0.00000074,-0.00000701,0.00000222,-0.00000020,0.00001171,0.000001
 90,0.00000032,-0.00000519,-0.00000400,0.,-0.00000588,0.01008626,0.0020
 3216,0.00100614,0.02081086,0.00350415,0.05842235,-0.00006693,-0.000063
 50,0.00005022,0.00022869,-0.00007391,0.00005294,0.00011561,0.00002389,
 0.00001466,-0.00003759,-0.00006853,0.00000586,0.00002176,0.00002718,-0
 .00001817,-0.00002463,0.00002227,0.00000936,0.00013995,-0.00095187,-0.
 00184681,0.00267258,0.01042072,-0.00745230,0.00042227,-0.00009578,0.00
 022798,-0.00011378,0.00024151,0.00020242,0.00026266,0.00048216,-0.0003
 6087,0.00001294,-0.00003173,0.00003607,0.00001240,-0.00000190,0.000015
 80,0.00013811,-0.00005689,0.00017243,-0.00000951,-0.00001537,0.0000356
 4,-0.00002889,0.00000608,-0.00004388,0.00002500,-0.00003196,-0.0001538
 8,0.00006190,-0.00000476,-0.00008493,-0.00031725,-0.00031254,-0.000040
 96,0.00030402,0.00041363,-0.00024580,0.00000810,0.00007595,-0.00005159
 ,0.00000328,0.00000035,0.00000625,-0.00000837,0.00000300,-0.00000563,-
 0.00000505,-0.00000014,-0.00000690,-0.07262221,-0.06640635,0.04662056,
 0.00003686,0.00002860,-0.00003229,-0.00001978,0.00001815,-0.00000769,-
 0.00002160,-0.00000181,-0.00001902,-0.00000043,0.00000302,-0.00000343,
 -0.00000626,-0.00000066,-0.00000565,0.00001070,0.00000081,0.00000937,-
 0.00000309,-0.00000074,-0.00000476,-0.00000598,-0.00000036,-0.00000367
 ,0.00409411,0.01159407,-0.00881991,-0.00830846,-0.02466310,0.01678496,
 0.07302888,0.00000243,0.00012257,-0.00006073,-0.00020380,0.00018507,-0
 .00008243,-0.00011706,-0.00009648,-0.00002085,0.00012035,0.00006811,-0
 .00003257,-0.00004280,-0.00007837,0.00001641,0.00006857,0.00001585,-0.
 00000432,-0.00019564,0.00083019,-0.00123393,0.00271186,0.00582694,-0.0
 0467711,0.00064629,0.00116884,-0.00089535,0.00002218,0.00027025,0.0001
 5419,0.00008575,0.00006485,-0.00046329,0.00006536,0.00005557,-0.000070
 64,0.00001110,0.00001724,-0.00001406,-0.00027378,0.00016888,0.00041798
 ,-0.00000941,0.00000959,0.00000546,0.00001017,-0.00001456,0.00001678,0
 .00000681,0.00002328,-0.00001617,0.00003130,0.00008543,-0.00008245,-0.
 00017291,-0.00015796,0.00004201,0.00029027,0.00006275,-0.00032546,-0.0
 0000689,-0.00009686,0.00013685,-0.00000672,0.00000130,-0.00000385,0.00
 000553,-0.00000155,-0.00000199,0.00000425,0.00001305,-0.00002723,-0.06
 426948,-0.21662265,0.12006013,-0.00017366,-0.00006405,0.00008936,0.000
 02699,-0.00002266,0.00002706,-0.00000238,-0.00000962,0.00000193,-0.000
 00448,-0.00000370,0.00000545,-0.00000345,-0.00001545,0.00001056,-0.000
 00052,0.00000930,-0.00001523,-0.00000166,-0.00000152,0.00000597,0.0000
 0396,-0.00000091,0.00000824,-0.00865323,-0.01777244,0.01393909,0.00060
 417,-0.00128661,0.00034665,0.06942052,0.22724635,-0.00017089,0.0002135
 7,0.00000422,0.00044310,-0.00038563,-0.00009419,-0.00003389,0.00008269
 ,0.00000904,-0.00013889,0.00005583,0.00003371,-0.00006398,-0.00000385,
 0.00000368,0.00006211,0.00001940,0.00000162,-0.00087933,-0.00339563,-0
 .00496745,0.00645472,0.02781330,-0.02375118,0.00057332,0.00185641,0.00
 098596,-0.00021499,0.00024892,0.00015577,0.00001074,0.00133163,-0.0008
 8168,-0.00004565,-0.00003463,0.00002545,-0.00000948,-0.00001972,0.0000
 0106,-0.00015537,-0.00074403,-0.00017688,-0.00001312,-0.00007426,0.000
 07417,-0.00000822,-0.00002949,0.00003001,0.00001990,-0.00006860,-0.000
 25411,0.00012650,-0.00022974,-0.00044096,0.00017565,-0.00025816,-0.000
 11572,0.00005487,-0.00012549,0.00007783,0.00006321,0.00001453,-0.00006
 931,-0.00000113,-0.00000295,-0.00000551,-0.00001647,0.00000951,-0.0000
 0762,0.00000216,-0.00003268,-0.00000136,0.04288062,0.11124364,-0.12668
 601,0.00009592,0.00004588,-0.00004954,-0.00001066,0.00000819,-0.000006
 06,0.00000933,0.00001496,0.00000901,0.00000205,0.00000310,-0.00000195,
 0.00000117,0.00001832,-0.00000456,0.00000627,-0.00001393,0.00000613,-0
 .00000427,0.00000373,-0.00000348,-0.00000420,0.00000280,-0.00000207,-0
 .00411517,-0.00894408,0.00718663,-0.00005954,-0.00136705,0.00165789,-0
 .04503640,-0.12725646,0.14725747\\-0.00000013,0.00000007,-0.00000183,-
 0.00000106,0.00000021,0.00000030,0.00000027,0.00000006,-0.00000013,-0.
 00000005,0.00000134,-0.00000123,-0.00000028,-0.00000069,-0.00000126,0.
 00000069,-0.00000044,-0.00000149,0.00000067,-0.00000037,-0.00000160,-0
 .00000003,-0.00000092,0.00000058,-0.00000044,0.00000033,-0.00000033,-0
 .00000047,-0.00000063,0.00000337,0.00000123,0.00000004,0.00000143,0.00
 000065,0.00000085,-0.00000074,0.00000195,0.00000185,0.00000257,0.00000
 017,-0.00000011,0.00000213,0.00000002,-0.00000141,0.00000122,0.0000004
 6,-0.00000083,0.00000097,-0.00000047,-0.00000085,0.00000023,0.00000015
 ,-0.00000118,-0.00000007,0.00000005,-0.00000022,0.00000143,-0.00000002
 ,0.00000008,0.00000020,0.00000012,0.00000030,-0.00000019,0.00000008,0.
 00000004,-0.00000202,0.00000007,-0.00000045,-0.00000216,0.00000007,-0.
 00000057,-0.00000126,-0.00000141,0.00000111,0.00000086,-0.00000058,0.0
 0000007,-0.00000063,-0.00000034,0.00000124,-0.00000112,-0.00000011,-0.
 00000067,-0.00000086,-0.00000038,-0.00000246,-0.00000173,-0.00000187,0
 .00000083,-0.00000103,0.00000051,0.00000035,-0.00000003,-0.00000035,-0
 .00000095,0.00000173,0.00000016,0.00000003,0.00000116,0.,0.00000145,0.
 ,0.00000030,0.00000130,0.00000084,0.00000038,0.00000120,0.00000069\\\@


      SCIENCE SANS CONSCIENCE N'EST QUE RUINE DE L'AME.

                                                  -- RABELAIS
 Job cpu time:       0 days 19 hours  0 minutes 24.5 seconds.
 Elapsed time:       0 days  0 hours 40 minutes 49.5 seconds.
 File lengths (MBytes):  RWF=   1060 Int=      0 D2E=      0 Chk=     28 Scr=      8
 Normal termination of Gaussian 16 at Mon Nov 15 12:22:07 2021.
