 Entering Gaussian System, Link 0=g16
 Input=NicPyrNs3h5wB97XD130K.gjf
 Output=NicPyrNs3h5wB97XD130K.log
 Initial command:
 /sw/contrib/gaussian/g16/A03/g16/l1.exe "/gscratch/scrubbed/gds001/Gau-18959.inp" -scrdir="/gscratch/scrubbed/gds001/"
 Entering Link 1 = /sw/contrib/gaussian/g16/A03/g16/l1.exe PID=     18960.
  
 Copyright (c) 1988,1990,1992,1993,1995,1998,2003,2009,2016,
            Gaussian, Inc.  All Rights Reserved.
  
 This is part of the Gaussian(R) 16 program.  It is based on
 the Gaussian(R) 09 system (copyright 2009, Gaussian, Inc.),
 the Gaussian(R) 03 system (copyright 2003, Gaussian, Inc.),
 the Gaussian(R) 98 system (copyright 1998, Gaussian, Inc.),
 the Gaussian(R) 94 system (copyright 1995, Gaussian, Inc.),
 the Gaussian 92(TM) system (copyright 1992, Gaussian, Inc.),
 the Gaussian 90(TM) system (copyright 1990, Gaussian, Inc.),
 the Gaussian 88(TM) system (copyright 1988, Gaussian, Inc.),
 the Gaussian 86(TM) system (copyright 1986, Carnegie Mellon
 University), and the Gaussian 82(TM) system (copyright 1983,
 Carnegie Mellon University). Gaussian is a federally registered
 trademark of Gaussian, Inc.
  
 This software contains proprietary and confidential information,
 including trade secrets, belonging to Gaussian, Inc.
  
 This software is provided under written license and may be
 used, copied, transmitted, or stored only in accord with that
 written license.
  
 The following legend is applicable only to US Government
 contracts under FAR:
  
                    RESTRICTED RIGHTS LEGEND
  
 Use, reproduction and disclosure by the US Government is
 subject to restrictions as set forth in subparagraphs (a)
 and (c) of the Commercial Computer Software - Restricted
 Rights clause in FAR 52.227-19.
  
 Gaussian, Inc.
 340 Quinnipiac St., Bldg. 40, Wallingford CT 06492
  
  
 ---------------------------------------------------------------
 Warning -- This program may not be used in any manner that
 competes with the business of Gaussian, Inc. or will provide
 assistance to any competitor of Gaussian, Inc.  The licensee
 of this program is prohibited from giving any competitor of
 Gaussian, Inc. access to this program.  By using this program,
 the user acknowledges that Gaussian, Inc. is engaged in the
 business of creating and licensing software in the field of
 computational chemistry and represents and warrants to the
 licensee that it is not a competitor of Gaussian, Inc. and that
 it will not use this program in any manner prohibited above.
 ---------------------------------------------------------------
  

 Cite this work as:
 Gaussian 16, Revision A.03,
 M. J. Frisch, G. W. Trucks, H. B. Schlegel, G. E. Scuseria, 
 M. A. Robb, J. R. Cheeseman, G. Scalmani, V. Barone, 
 G. A. Petersson, H. Nakatsuji, X. Li, M. Caricato, A. V. Marenich, 
 J. Bloino, B. G. Janesko, R. Gomperts, B. Mennucci, H. P. Hratchian, 
 J. V. Ortiz, A. F. Izmaylov, J. L. Sonnenberg, D. Williams-Young, 
 F. Ding, F. Lipparini, F. Egidi, J. Goings, B. Peng, A. Petrone, 
 T. Henderson, D. Ranasinghe, V. G. Zakrzewski, J. Gao, N. Rega, 
 G. Zheng, W. Liang, M. Hada, M. Ehara, K. Toyota, R. Fukuda, 
 J. Hasegawa, M. Ishida, T. Nakajima, Y. Honda, O. Kitao, H. Nakai, 
 T. Vreven, K. Throssell, J. A. Montgomery, Jr., J. E. Peralta, 
 F. Ogliaro, M. J. Bearpark, J. J. Heyd, E. N. Brothers, K. N. Kudin, 
 V. N. Staroverov, T. A. Keith, R. Kobayashi, J. Normand, 
 K. Raghavachari, A. P. Rendell, J. C. Burant, S. S. Iyengar, 
 J. Tomasi, M. Cossi, J. M. Millam, M. Klene, C. Adamo, R. Cammi, 
 J. W. Ochterski, R. L. Martin, K. Morokuma, O. Farkas, 
 J. B. Foresman, and D. J. Fox, Gaussian, Inc., Wallingford CT, 2016.
 
 ******************************************
 Gaussian 16:  ES64L-G16RevA.03 25-Dec-2016
                12-Jul-2021 
 ******************************************
 %nprocshared=28
 Will use up to   28 processors via shared memory.
 %mem=41GB
 %chk=NicPyrNs3h5.chk
 ---------------------------------------------
 # wB97XD/aug-cc-pVDZ opt freq Temperature=130
 ---------------------------------------------
 1/18=20,19=15,26=3,38=1,112=130000/1,3;
 2/9=110,12=2,17=6,18=5,40=1/2;
 3/5=16,7=10,11=2,25=1,30=1,71=1,74=-58/1,2,3;
 4//1;
 5/5=2,38=5/2;
 6/7=2,8=2,9=2,10=2,28=1/1;
 7//1,2,3,16;
 1/18=20,19=15,26=3/3(2);
 2/9=110/2;
 99//99;
 2/9=110/2;
 3/5=16,7=10,11=2,25=1,30=1,71=1,74=-58/1,2,3;
 4/5=5,16=3,69=1/1;
 5/5=2,38=5/2;
 7//1,2,3,16;
 1/18=20,19=15,26=3/3(-5);
 2/9=110/2;
 6/7=2,8=2,9=2,10=2,19=2,28=1/1;
 99/9=1/99;
 --------
 Nicotine
 --------
 Symbolic Z-matrix:
 Charge =  1 Multiplicity = 1
 N                    -1.3791   -1.41735  -0.466 
 C                    -1.93328  -0.00872  -0.65807 
 C                    -3.19654  -0.01178   0.20175 
 C                    -3.73066  -1.43515   0.04375 
 C                    -2.46625  -2.2865    0.12234 
 C                    -0.88888   1.03915  -0.35381 
 C                     0.42158   0.87548  -0.80409 
 N                     1.41535   1.72142  -0.53841 
 C                     1.12276   2.82404   0.15744 
 C                    -0.16096   3.11084   0.61616 
 C                    -1.17976   2.19645   0.36907 
 O                     0.79846  -1.7221    1.0378 
 O                     2.91609  -0.71324  -0.15038 
 H                    -2.51504  -3.23086  -0.42602 
 H                    -4.22253  -1.55907  -0.92983 
 H                    -4.44794  -1.71134   0.82245 
 H                    -2.93947   0.1886    1.25129 
 H                    -3.90577   0.75251  -0.1308 
 H                    -2.1789   -2.49502   1.1581 
 H                    -2.22327   0.05235  -1.71574 
 H                     0.70976  -0.00209  -1.3889 
 H                     1.95078   3.50452   0.35842 
 H                    -0.35325   4.02692   1.17136 
 H                    -2.18515   2.39356   0.73963 
 C                    -0.9941   -2.03064  -1.7721 
 H                    -0.53207  -1.43508   0.17318 
 H                     1.65181  -1.37263   0.66692 
 H                     0.91379  -1.79201   1.98739 
 H                     2.8721    0.24006  -0.31527 
 H                     3.85415  -0.96759  -0.09451 
 O                     5.55644  -1.51596  -0.01251 
 H                     6.2056   -1.31366   0.6658 
 H                     6.05608  -1.82362  -0.77308 
 H                    -1.88857  -2.17888  -2.41935 
 H                    -0.51531  -3.02104  -1.60544 
 H                    -0.29909  -1.43321  -2.3789 
 
 Add virtual bond connecting atoms H26        and O12        Dist= 3.05D+00.
 Add virtual bond connecting atoms H27        and O13        Dist= 3.11D+00.
 Add virtual bond connecting atoms O31        and H30        Dist= 3.38D+00.

 GradGradGradGradGradGradGradGradGradGradGradGradGradGradGradGradGradGrad
 Berny optimization.
 Initialization pass.
                           ----------------------------
                           !    Initial Parameters    !
                           ! (Angstroms and Degrees)  !
 --------------------------                            --------------------------
 ! Name  Definition              Value          Derivative Info.                !
 --------------------------------------------------------------------------------
 ! R1    R(1,2)                  1.5259         estimate D2E/DX2                !
 ! R2    R(1,5)                  1.5111         estimate D2E/DX2                !
 ! R3    R(1,25)                 1.4934         estimate D2E/DX2                !
 ! R4    R(1,26)                 1.0613         estimate D2E/DX2                !
 ! R5    R(2,3)                  1.5281         estimate D2E/DX2                !
 ! R6    R(2,6)                  1.5104         estimate D2E/DX2                !
 ! R7    R(2,20)                 1.0984         estimate D2E/DX2                !
 ! R8    R(3,4)                  1.5285         estimate D2E/DX2                !
 ! R9    R(3,17)                 1.099          estimate D2E/DX2                !
 ! R10   R(3,18)                 1.0944         estimate D2E/DX2                !
 ! R11   R(4,5)                  1.5263         estimate D2E/DX2                !
 ! R12   R(4,15)                 1.0978         estimate D2E/DX2                !
 ! R13   R(4,16)                 1.0941         estimate D2E/DX2                !
 ! R14   R(5,14)                 1.0931         estimate D2E/DX2                !
 ! R15   R(5,19)                 1.0949         estimate D2E/DX2                !
 ! R16   R(6,7)                  1.3953         estimate D2E/DX2                !
 ! R17   R(6,11)                 1.3952         estimate D2E/DX2                !
 ! R18   R(7,8)                  1.3318         estimate D2E/DX2                !
 ! R19   R(7,21)                 1.0932         estimate D2E/DX2                !
 ! R20   R(8,9)                  1.3363         estimate D2E/DX2                !
 ! R21   R(9,10)                 1.3931         estimate D2E/DX2                !
 ! R22   R(9,22)                 1.0904         estimate D2E/DX2                !
 ! R23   R(10,11)                1.3911         estimate D2E/DX2                !
 ! R24   R(10,23)                1.0883         estimate D2E/DX2                !
 ! R25   R(11,24)                1.0895         estimate D2E/DX2                !
 ! R26   R(12,26)                1.6125         estimate D2E/DX2                !
 ! R27   R(12,27)                0.9939         estimate D2E/DX2                !
 ! R28   R(12,28)                0.9591         estimate D2E/DX2                !
 ! R29   R(13,27)                1.6435         estimate D2E/DX2                !
 ! R30   R(13,29)                0.9684         estimate D2E/DX2                !
 ! R31   R(13,30)                0.9735         estimate D2E/DX2                !
 ! R32   R(25,34)                1.114          estimate D2E/DX2                !
 ! R33   R(25,35)                1.1126         estimate D2E/DX2                !
 ! R34   R(25,36)                1.0992         estimate D2E/DX2                !
 ! R35   R(30,31)                1.7903         estimate D2E/DX2                !
 ! R36   R(31,32)                0.9604         estimate D2E/DX2                !
 ! R37   R(31,33)                0.9606         estimate D2E/DX2                !
 ! A1    A(2,1,5)              108.5839         estimate D2E/DX2                !
 ! A2    A(2,1,25)             111.2636         estimate D2E/DX2                !
 ! A3    A(2,1,26)             112.4026         estimate D2E/DX2                !
 ! A4    A(5,1,25)             106.8444         estimate D2E/DX2                !
 ! A5    A(5,1,26)             109.2746         estimate D2E/DX2                !
 ! A6    A(25,1,26)            108.3076         estimate D2E/DX2                !
 ! A7    A(1,2,3)              103.1537         estimate D2E/DX2                !
 ! A8    A(1,2,6)              111.3438         estimate D2E/DX2                !
 ! A9    A(1,2,20)             105.57           estimate D2E/DX2                !
 ! A10   A(3,2,6)              117.366          estimate D2E/DX2                !
 ! A11   A(3,2,20)             108.8847         estimate D2E/DX2                !
 ! A12   A(6,2,20)             109.7522         estimate D2E/DX2                !
 ! A13   A(2,3,4)              103.4494         estimate D2E/DX2                !
 ! A14   A(2,3,17)             110.0969         estimate D2E/DX2                !
 ! A15   A(2,3,18)             111.306          estimate D2E/DX2                !
 ! A16   A(4,3,17)             110.503          estimate D2E/DX2                !
 ! A17   A(4,3,18)             113.1085         estimate D2E/DX2                !
 ! A18   A(17,3,18)            108.3272         estimate D2E/DX2                !
 ! A19   A(3,4,5)              102.9805         estimate D2E/DX2                !
 ! A20   A(3,4,15)             110.6934         estimate D2E/DX2                !
 ! A21   A(3,4,16)             112.9911         estimate D2E/DX2                !
 ! A22   A(5,4,15)             110.7241         estimate D2E/DX2                !
 ! A23   A(5,4,16)             111.4457         estimate D2E/DX2                !
 ! A24   A(15,4,16)            107.9956         estimate D2E/DX2                !
 ! A25   A(1,5,4)              104.7805         estimate D2E/DX2                !
 ! A26   A(1,5,14)             109.4934         estimate D2E/DX2                !
 ! A27   A(1,5,19)             106.7998         estimate D2E/DX2                !
 ! A28   A(4,5,14)             114.7758         estimate D2E/DX2                !
 ! A29   A(4,5,19)             111.8598         estimate D2E/DX2                !
 ! A30   A(14,5,19)            108.7678         estimate D2E/DX2                !
 ! A31   A(2,6,7)              120.2011         estimate D2E/DX2                !
 ! A32   A(2,6,11)             122.39           estimate D2E/DX2                !
 ! A33   A(7,6,11)             117.408          estimate D2E/DX2                !
 ! A34   A(6,7,8)              124.1881         estimate D2E/DX2                !
 ! A35   A(6,7,21)             120.9551         estimate D2E/DX2                !
 ! A36   A(8,7,21)             114.8276         estimate D2E/DX2                !
 ! A37   A(7,8,9)              117.6858         estimate D2E/DX2                !
 ! A38   A(8,9,10)             122.8967         estimate D2E/DX2                !
 ! A39   A(8,9,22)             116.4005         estimate D2E/DX2                !
 ! A40   A(10,9,22)            120.7026         estimate D2E/DX2                !
 ! A41   A(9,10,11)            118.7557         estimate D2E/DX2                !
 ! A42   A(9,10,23)            120.2716         estimate D2E/DX2                !
 ! A43   A(11,10,23)           120.9648         estimate D2E/DX2                !
 ! A44   A(6,11,10)            118.9857         estimate D2E/DX2                !
 ! A45   A(6,11,24)            121.2451         estimate D2E/DX2                !
 ! A46   A(10,11,24)           119.7692         estimate D2E/DX2                !
 ! A47   A(26,12,27)           116.4721         estimate D2E/DX2                !
 ! A48   A(26,12,28)           130.0198         estimate D2E/DX2                !
 ! A49   A(27,12,28)           106.9672         estimate D2E/DX2                !
 ! A50   A(27,13,29)           116.4012         estimate D2E/DX2                !
 ! A51   A(27,13,30)           127.4346         estimate D2E/DX2                !
 ! A52   A(29,13,30)           108.1021         estimate D2E/DX2                !
 ! A53   A(1,25,34)            110.842          estimate D2E/DX2                !
 ! A54   A(1,25,35)            110.2117         estimate D2E/DX2                !
 ! A55   A(1,25,36)            114.9993         estimate D2E/DX2                !
 ! A56   A(34,25,35)           108.3076         estimate D2E/DX2                !
 ! A57   A(34,25,36)           105.0271         estimate D2E/DX2                !
 ! A58   A(35,25,36)           107.1231         estimate D2E/DX2                !
 ! A59   A(30,31,32)           127.6252         estimate D2E/DX2                !
 ! A60   A(30,31,33)           123.8065         estimate D2E/DX2                !
 ! A61   A(32,31,33)           105.9679         estimate D2E/DX2                !
 ! A62   L(1,26,12,7,-1)       186.0296         estimate D2E/DX2                !
 ! A63   L(12,27,13,6,-1)      172.4151         estimate D2E/DX2                !
 ! A64   L(13,30,31,22,-1)     182.7537         estimate D2E/DX2                !
 ! A65   L(1,26,12,7,-2)       188.1296         estimate D2E/DX2                !
 ! A66   L(12,27,13,6,-2)      185.3537         estimate D2E/DX2                !
 ! A67   L(13,30,31,22,-2)     180.2885         estimate D2E/DX2                !
 ! D1    D(5,1,2,3)             15.9412         estimate D2E/DX2                !
 ! D2    D(5,1,2,6)            142.6779         estimate D2E/DX2                !
 ! D3    D(5,1,2,20)           -98.274          estimate D2E/DX2                !
 ! D4    D(25,1,2,3)           133.2567         estimate D2E/DX2                !
 ! D5    D(25,1,2,6)          -100.0066         estimate D2E/DX2                !
 ! D6    D(25,1,2,20)           19.0415         estimate D2E/DX2                !
 ! D7    D(26,1,2,3)          -105.0752         estimate D2E/DX2                !
 ! D8    D(26,1,2,6)            21.6615         estimate D2E/DX2                !
 ! D9    D(26,1,2,20)          140.7096         estimate D2E/DX2                !
 ! D10   D(2,1,5,4)              9.6315         estimate D2E/DX2                !
 ! D11   D(2,1,5,14)           133.2158         estimate D2E/DX2                !
 ! D12   D(2,1,5,19)          -109.1784         estimate D2E/DX2                !
 ! D13   D(25,1,5,4)          -110.4716         estimate D2E/DX2                !
 ! D14   D(25,1,5,14)           13.1126         estimate D2E/DX2                !
 ! D15   D(25,1,5,19)          130.7184         estimate D2E/DX2                !
 ! D16   D(26,1,5,4)           132.5558         estimate D2E/DX2                !
 ! D17   D(26,1,5,14)         -103.86           estimate D2E/DX2                !
 ! D18   D(26,1,5,19)           13.7458         estimate D2E/DX2                !
 ! D19   D(2,1,12,27)          -69.6558         estimate D2E/DX2                !
 ! D20   D(2,1,12,28)           83.0455         estimate D2E/DX2                !
 ! D21   D(5,1,12,27)          166.9579         estimate D2E/DX2                !
 ! D22   D(5,1,12,28)          -40.3407         estimate D2E/DX2                !
 ! D23   D(25,1,12,27)          54.0074         estimate D2E/DX2                !
 ! D24   D(25,1,12,28)        -153.2913         estimate D2E/DX2                !
 ! D25   D(2,1,25,34)          -64.7911         estimate D2E/DX2                !
 ! D26   D(2,1,25,35)          175.3195         estimate D2E/DX2                !
 ! D27   D(2,1,25,36)           54.1315         estimate D2E/DX2                !
 ! D28   D(5,1,25,34)           53.5764         estimate D2E/DX2                !
 ! D29   D(5,1,25,35)          -66.3129         estimate D2E/DX2                !
 ! D30   D(5,1,25,36)          172.4991         estimate D2E/DX2                !
 ! D31   D(26,1,25,34)         171.1867         estimate D2E/DX2                !
 ! D32   D(26,1,25,35)          51.2974         estimate D2E/DX2                !
 ! D33   D(26,1,25,36)         -69.8906         estimate D2E/DX2                !
 ! D34   D(1,2,3,4)            -35.325          estimate D2E/DX2                !
 ! D35   D(1,2,3,17)            82.7731         estimate D2E/DX2                !
 ! D36   D(1,2,3,18)          -157.0884         estimate D2E/DX2                !
 ! D37   D(6,2,3,4)           -158.1333         estimate D2E/DX2                !
 ! D38   D(6,2,3,17)           -40.0352         estimate D2E/DX2                !
 ! D39   D(6,2,3,18)            80.1033         estimate D2E/DX2                !
 ! D40   D(20,2,3,4)            76.4691         estimate D2E/DX2                !
 ! D41   D(20,2,3,17)         -165.4328         estimate D2E/DX2                !
 ! D42   D(20,2,3,18)          -45.2943         estimate D2E/DX2                !
 ! D43   D(1,2,6,7)             42.6715         estimate D2E/DX2                !
 ! D44   D(1,2,6,11)          -137.6549         estimate D2E/DX2                !
 ! D45   D(3,2,6,7)            161.1852         estimate D2E/DX2                !
 ! D46   D(3,2,6,11)           -19.1412         estimate D2E/DX2                !
 ! D47   D(20,2,6,7)           -73.8486         estimate D2E/DX2                !
 ! D48   D(20,2,6,11)          105.825          estimate D2E/DX2                !
 ! D49   D(2,3,4,5)             41.7579         estimate D2E/DX2                !
 ! D50   D(2,3,4,15)           -76.6187         estimate D2E/DX2                !
 ! D51   D(2,3,4,16)           162.115          estimate D2E/DX2                !
 ! D52   D(17,3,4,5)           -76.0572         estimate D2E/DX2                !
 ! D53   D(17,3,4,15)          165.5663         estimate D2E/DX2                !
 ! D54   D(17,3,4,16)           44.2999         estimate D2E/DX2                !
 ! D55   D(18,3,4,5)           162.3039         estimate D2E/DX2                !
 ! D56   D(18,3,4,15)           43.9274         estimate D2E/DX2                !
 ! D57   D(18,3,4,16)          -77.3389         estimate D2E/DX2                !
 ! D58   D(3,4,5,1)            -31.4158         estimate D2E/DX2                !
 ! D59   D(3,4,5,14)          -151.5405         estimate D2E/DX2                !
 ! D60   D(3,4,5,19)            83.9204         estimate D2E/DX2                !
 ! D61   D(15,4,5,1)            86.9392         estimate D2E/DX2                !
 ! D62   D(15,4,5,14)          -33.1855         estimate D2E/DX2                !
 ! D63   D(15,4,5,19)         -157.7246         estimate D2E/DX2                !
 ! D64   D(16,4,5,1)          -152.8283         estimate D2E/DX2                !
 ! D65   D(16,4,5,14)           87.047          estimate D2E/DX2                !
 ! D66   D(16,4,5,19)          -37.4921         estimate D2E/DX2                !
 ! D67   D(2,6,7,8)           -177.2997         estimate D2E/DX2                !
 ! D68   D(2,6,7,21)             0.6308         estimate D2E/DX2                !
 ! D69   D(11,6,7,8)             3.0108         estimate D2E/DX2                !
 ! D70   D(11,6,7,21)         -179.0587         estimate D2E/DX2                !
 ! D71   D(2,6,11,10)          179.5849         estimate D2E/DX2                !
 ! D72   D(2,6,11,24)           -0.4484         estimate D2E/DX2                !
 ! D73   D(7,6,11,10)           -0.7328         estimate D2E/DX2                !
 ! D74   D(7,6,11,24)          179.2339         estimate D2E/DX2                !
 ! D75   D(6,7,8,9)             -2.8812         estimate D2E/DX2                !
 ! D76   D(21,7,8,9)           179.0742         estimate D2E/DX2                !
 ! D77   D(7,8,9,10)             0.4958         estimate D2E/DX2                !
 ! D78   D(7,8,9,22)          -179.6782         estimate D2E/DX2                !
 ! D79   D(8,9,10,11)            1.5962         estimate D2E/DX2                !
 ! D80   D(8,9,10,23)         -179.4159         estimate D2E/DX2                !
 ! D81   D(22,9,10,11)        -178.2226         estimate D2E/DX2                !
 ! D82   D(22,9,10,23)           0.7653         estimate D2E/DX2                !
 ! D83   D(9,10,11,6)           -1.3933         estimate D2E/DX2                !
 ! D84   D(9,10,11,24)         178.6394         estimate D2E/DX2                !
 ! D85   D(23,10,11,6)         179.626          estimate D2E/DX2                !
 ! D86   D(23,10,11,24)         -0.3412         estimate D2E/DX2                !
 ! D87   D(26,12,13,29)         57.8652         estimate D2E/DX2                !
 ! D88   D(26,12,13,30)       -154.632          estimate D2E/DX2                !
 ! D89   D(28,12,13,29)        -95.9764         estimate D2E/DX2                !
 ! D90   D(28,12,13,30)         51.5263         estimate D2E/DX2                !
 ! D91   D(27,13,31,32)        -79.5234         estimate D2E/DX2                !
 ! D92   D(27,13,31,33)        120.2568         estimate D2E/DX2                !
 ! D93   D(29,13,31,32)         68.902          estimate D2E/DX2                !
 ! D94   D(29,13,31,33)        -91.3178         estimate D2E/DX2                !
 --------------------------------------------------------------------------------
 Trust Radius=3.00D-01 FncErr=1.00D-07 GrdErr=1.00D-06 EigMax=2.50D+02 EigMin=1.00D-04
 Number of steps in this run=    208 maximum allowed number of steps=    216.
 GradGradGradGradGradGradGradGradGradGradGradGradGradGradGradGradGradGrad

                          Input orientation:                          
 ---------------------------------------------------------------------
 Center     Atomic      Atomic             Coordinates (Angstroms)
 Number     Number       Type             X           Y           Z
 ---------------------------------------------------------------------
      1          7           0       -1.379097   -1.417348   -0.465998
      2          6           0       -1.933282   -0.008715   -0.658070
      3          6           0       -3.196545   -0.011784    0.201749
      4          6           0       -3.730659   -1.435148    0.043750
      5          6           0       -2.466254   -2.286498    0.122341
      6          6           0       -0.888878    1.039151   -0.353814
      7          6           0        0.421582    0.875478   -0.804093
      8          7           0        1.415345    1.721421   -0.538409
      9          6           0        1.122763    2.824043    0.157443
     10          6           0       -0.160959    3.110843    0.616158
     11          6           0       -1.179758    2.196450    0.369065
     12          8           0        0.798459   -1.722100    1.037797
     13          8           0        2.916091   -0.713238   -0.150384
     14          1           0       -2.515042   -3.230856   -0.426018
     15          1           0       -4.222531   -1.559070   -0.929825
     16          1           0       -4.447937   -1.711343    0.822446
     17          1           0       -2.939473    0.188599    1.251290
     18          1           0       -3.905769    0.752509   -0.130801
     19          1           0       -2.178901   -2.495015    1.158096
     20          1           0       -2.223268    0.052347   -1.715743
     21          1           0        0.709761   -0.002087   -1.388900
     22          1           0        1.950780    3.504516    0.358417
     23          1           0       -0.353249    4.026921    1.171356
     24          1           0       -2.185154    2.393562    0.739627
     25          6           0       -0.994101   -2.030645   -1.772101
     26          1           0       -0.532070   -1.435084    0.173182
     27          1           0        1.651806   -1.372630    0.666921
     28          1           0        0.913792   -1.792010    1.987392
     29          1           0        2.872104    0.240057   -0.315271
     30          1           0        3.854151   -0.967587   -0.094508
     31          8           0        5.556444   -1.515961   -0.012511
     32          1           0        6.205603   -1.313656    0.665804
     33          1           0        6.056076   -1.823616   -0.773080
     34          1           0       -1.888571   -2.178878   -2.419346
     35          1           0       -0.515308   -3.021038   -1.605436
     36          1           0       -0.299090   -1.433205   -2.378904
 ---------------------------------------------------------------------
                    Distance matrix (angstroms):
                    1          2          3          4          5
     1  N    0.000000
     2  C    1.525864   0.000000
     3  C    2.392616   1.528114   0.000000
     4  C    2.406243   2.399547   1.528465   0.000000
     5  C    1.511117   2.466049   2.390388   1.526333   0.000000
     6  C    2.507446   1.510422   2.595851   3.788922   3.711439
     7  C    2.934928   2.519624   3.858730   4.826897   4.381320
     8  N    4.203097   3.771073   4.982104   6.064997   5.618435
     9  C    4.963606   4.246056   5.167233   6.458277   6.244990
    10  C    4.812425   3.807417   4.374622   5.808308   5.889782
    11  C    3.714378   2.546676   2.995283   4.449880   4.670414
    12  O    2.663836   3.643359   4.425406   4.645792   3.437289
    13  O    4.363946   4.926512   6.162820   6.688657   5.614193
    14  H    2.140276   3.282451   3.349770   2.218778   1.093110
    15  H    2.884500   2.778149   2.174213   1.097790   2.172720
    16  H    3.341302   3.378514   2.199943   1.094138   2.178995
    17  H    2.821864   2.167258   1.098988   2.172713   2.761262
    18  H    3.347343   2.179032   1.094409   2.201585   3.372217
    19  H    2.106830   3.088766   2.848971   2.184728   1.094915
    20  H    2.105823   1.098405   2.151315   2.753304   2.984592
    21  H    2.686641   2.742231   4.217758   4.880930   4.193978
    22  H    5.999374   5.334977   6.235693   7.535121   7.287096
    23  H    5.776968   4.704217   5.033449   6.520168   6.739769
    24  H    4.077535   2.790687   2.664191   4.187105   4.728956
    25  C    1.493405   2.492253   3.580872   3.337766   2.412800
    26  H    1.061282   2.165388   3.020931   3.201207   2.113896
    27  H    3.236028   4.058167   5.057153   5.418780   4.253251
    28  H    3.378881   4.276031   4.822095   5.047378   3.891998
    29  H    4.565350   4.824016   6.095837   6.821414   5.922250
    30  H    5.265660   5.893337   7.121351   7.600465   6.460191
    31  O    6.951051   7.667107   8.883877   9.287625   8.060744
    32  H    7.669381   8.348471   9.503189   9.956456   8.743162
    33  H    7.452594   8.193713   9.478609   9.828443   8.581733
    34  H    2.157558   2.795299   3.643793   3.164374   2.608730
    35  H    2.148551   3.461538   4.417076   3.946307   2.707573
    36  H    2.196787   2.767855   4.132245   4.200586   3.417738
                    6          7          8          9         10
     6  C    0.000000
     7  C    1.395294   0.000000
     8  N    2.410189   1.331830   0.000000
     9  C    2.737503   2.283224   1.336260   0.000000
    10  C    2.400546   2.711701   2.397551   1.393060   0.000000
    11  C    1.395172   2.384441   2.789932   2.395884   1.391086
    12  O    3.522527   3.206557   3.837031   4.641941   4.945260
    13  O    4.194048   3.028849   2.886237   3.977831   4.967838
    14  H    4.569746   5.062478   6.323418   7.087726   6.844340
    15  H    4.265652   5.245057   6.534560   6.997571   6.379225
    16  H    4.649269   5.748868   6.929204   7.214198   6.455557
    17  H    2.739478   3.999137   4.951465   4.964255   4.082039
    18  H    3.038672   4.381143   5.423946   5.446143   4.488128
    19  H    4.054671   4.687528   5.794400   6.339927   5.982594
    20  H    2.146912   2.916142   4.172700   4.731495   4.364090
    21  H    2.170536   1.093237   2.047355   3.247885   3.803780
    22  H    3.827395   3.256028   2.066498   1.090434   2.163527
    23  H    3.397030   3.799257   3.371432   2.157208   1.088310
    24  H    2.170340   3.388617   3.879271   3.386232   2.151070
    25  C    3.383231   3.374425   4.626599   5.636687   5.729991
    26  H    2.554775   2.683881   3.776547   4.569342   4.582511
    27  H    3.648789   2.954881   3.328947   4.260460   4.836344
    28  H    4.092229   3.892320   4.356079   4.969942   5.203205
    29  H    3.845130   2.578326   2.089588   3.156048   4.278837
    30  H    5.156604   3.960168   3.657265   4.679788   5.767126
    31  O    6.941704   5.719475   5.282605   6.206613   7.381818
    32  H    7.543672   6.356713   5.797275   6.573754   7.753178
    33  H    7.523537   6.247687   5.844548   6.841358   8.057940
    34  H    3.952406   4.156313   5.446661   6.382569   6.338775
    35  H    4.265120   4.086900   5.230381   6.321075   6.531540
    36  H    3.249828   2.886073   4.034647   5.155471   5.444065
                   11         12         13         14         15
    11  C    0.000000
    12  O    4.440223   0.000000
    13  O    5.050949   2.629438   0.000000
    14  H    5.645422   3.924078   5.992627   0.000000
    15  H    5.004949   5.395225   7.230690   2.442173   0.000000
    16  H    5.114430   5.250825   7.494766   2.757474   1.773259
    17  H    2.811829   4.203390   6.088155   3.832255   3.075361
    18  H    3.125055   5.442341   6.977576   4.229476   2.466207
    19  H    4.861142   3.078399   5.553899   1.778727   3.067871
    20  H    3.167415   4.456622   5.426738   3.539484   2.685402
    21  H    3.390323   2.975764   2.628222   4.663844   5.192538
    22  H    3.392848   5.395083   4.356622   8.119368   8.087598
    23  H    2.162733   5.864769   5.908019   7.739527   7.112637
    24  H    1.089491   5.092104   6.038793   5.753402   4.749871
    25  C    4.742087   3.347237   4.433410   2.359175   3.369655
    26  H    3.694037   1.612527   3.537735   2.741535   3.853764
    27  H    4.565611   0.993921   1.643533   4.691497   6.090336
    28  H    4.786413   0.959124   3.121384   4.433027   5.911534
    29  H    4.551195   3.159249   0.968449   6.409434   7.344956
    30  H    5.963746   3.344945   0.973536   6.767489   8.141277
    31  O    7.700910   4.876891   2.763121   8.262006   9.822000
    32  H    8.182448   5.435293   3.442028   8.995409  10.552357
    33  H    8.355999   5.561665   3.388244   8.692804  10.283206
    34  H    5.236520   4.402342   5.511902   2.339333   2.837288
    35  H    5.618036   3.224888   4.383790   2.331091   4.041943
    36  H    4.636950   3.600266   3.977693   3.457709   4.184383
                   16         17         18         19         20
    16  H    0.000000
    17  H    2.463565   0.000000
    18  H    2.696886   1.778173   0.000000
    19  H    2.423907   2.790867   3.897402   0.000000
    20  H    3.808170   3.055290   2.415177   3.840569   0.000000
    21  H    5.866298   4.508201   4.843072   4.587619   2.951686
    22  H    8.268258   5.975542   6.489379   7.327218   5.800197
    23  H    7.058037   4.629002   5.003777   6.772653   5.256382
    24  H    4.687994   2.385929   2.532038   4.906459   3.392872
    25  C    4.331583   4.224974   4.349439   3.194596   2.419273
    26  H    3.978929   3.097459   4.032346   2.192159   2.939496
    27  H    6.111119   4.884544   6.003267   4.021855   4.766954
    28  H    5.487417   4.394577   5.847178   3.278216   5.191917
    29  H    7.660637   6.019235   6.799720   5.929931   5.287662
    30  H    8.385621   7.021486   7.948359   6.348210   6.372102
    31  O   10.041064   8.756901   9.731055   7.884442   8.116927
    32  H   10.662111   9.286118  10.351013   8.481619   8.864739
    33  H   10.625093   9.437531  10.309573   8.484990   8.541393
    34  H    4.156700   4.492539   4.230786   3.603099   2.363354
    35  H    4.803694   4.933480   5.282938   3.268233   3.517811
    36  H    5.247755   4.772858   4.779063   4.143850   2.519744
                   21         22         23         24         25
    21  H    0.000000
    22  H    4.109685   0.000000
    23  H    4.890583   2.498465   0.000000
    24  H    4.318599   4.299476   2.492013   0.000000
    25  C    2.676758   6.621890   6.765259   5.225035   0.000000
    26  H    2.456771   5.531591   5.555342   4.208572   2.086214
    27  H    2.644284   4.896030   5.781855   5.376965   3.658228
    28  H    3.826853   5.637561   6.010929   5.355315   4.222652
    29  H    2.426322   3.458235   5.191657   5.596986   4.714443
    30  H    3.534803   4.881359   6.652048   6.961775   5.239270
    31  O    5.260855   6.192220   8.188379   8.705310   6.802256
    32  H    6.012179   6.435277   8.473245   9.173534   7.634997
    33  H    5.681574   6.820757   8.893203   9.380338   7.123615
    34  H    3.542819   7.399834   7.332277   5.565454   1.113991
    35  H    3.265233   7.247149   7.576976   6.132340   1.112609
    36  H    2.011464   6.077494   6.513083   5.284564   1.099174
                   26         27         28         29         30
    26  H    0.000000
    27  H    2.239865   0.000000
    28  H    2.347184   1.569773   0.000000
    29  H    3.825321   2.248241   3.642326   0.000000
    30  H    4.419179   2.365197   3.695902   1.572119   0.000000
    31  O    6.091882   3.965901   5.062611   3.221947   1.790318
    32  H    6.756749   4.554179   5.475279   3.806409   2.495429
    33  H    6.667086   4.655597   5.836462   3.821781   2.457991
    34  H    3.019027   4.765433   5.236625   5.739547   6.312761
    35  H    2.383068   3.546440   4.057246   4.875841   5.058828
    36  H    2.562699   3.617556   4.545807   4.137011   4.762843
                   31         32         33         34         35
    31  O    0.000000
    32  H    0.960441   0.000000
    33  H    0.960598   1.533885   0.000000
    34  H    7.852424   8.705309   8.121196   0.000000
    35  H    6.455141   7.296871   6.731250   1.804864   0.000000
    36  H    6.316165   7.183006   6.566523   1.756164   1.779387
                   36
    36  H    0.000000
 Stoichiometry    C10H21N2O3(1+)
 Framework group  C1[X(C10H21N2O3)]
 Deg. of freedom   102
 Full point group                 C1      NOp   1
 Largest Abelian subgroup         C1      NOp   1
 Largest concise Abelian subgroup C1      NOp   1
                         Standard orientation:                         
 ---------------------------------------------------------------------
 Center     Atomic      Atomic             Coordinates (Angstroms)
 Number     Number       Type             X           Y           Z
 ---------------------------------------------------------------------
      1          7           0        1.372581   -1.243688    0.185848
      2          6           0        1.873557    0.162270    0.502971
      3          6           0        3.116657    0.294937   -0.375797
      4          6           0        3.711138   -1.113145   -0.365613
      5          6           0        2.480701   -2.005778   -0.503181
      6          6           0        0.781258    1.189330    0.320202
      7          6           0       -0.511285    0.928035    0.776165
      8          7           0       -1.543996    1.752731    0.611374
      9          6           0       -1.311565    2.928273    0.020047
     10          6           0       -0.050887    3.311695   -0.431942
     11          6           0        1.009187    2.421763   -0.292712
     12          8           0       -0.823514   -1.494943   -1.300779
     13          8           0       -2.953439   -0.694900    0.017287
     14          1           0        2.579640   -2.995370   -0.049520
     15          1           0        4.228949   -1.308761    0.582411
     16          1           0        4.421643   -1.282961   -1.180159
     17          1           0        2.828638    0.583795   -1.396278
     18          1           0        3.801612    1.053204    0.016123
     19          1           0        2.179241   -2.126175   -1.548870
     20          1           0        2.184083    0.134035    1.556190
     21          1           0       -0.750850   -0.012871    1.278630
     22          1           0       -2.170600    3.589224   -0.099313
     23          1           0        0.091989    4.284013   -0.899492
     24          1           0        1.997397    2.695781   -0.660607
     25          6           0        1.041532   -1.994904    1.433382
     26          1           0        0.513078   -1.235977   -0.436660
     27          1           0       -1.681890   -1.218978   -0.882551
     28          1           0       -0.956833   -1.478465   -2.250450
     29          1           0       -2.944341    0.239242    0.272611
     30          1           0       -3.881472   -0.982180   -0.045936
     31          8           0       -5.561637   -1.591694   -0.149739
     32          1           0       -6.233225   -1.353036   -0.793523
     33          1           0       -6.031560   -1.991583    0.586474
     34          1           0        1.955304   -2.166437    2.047038
     35          1           0        0.599547   -2.984160    1.180558
     36          1           0        0.336516   -1.488214    2.107476
 ---------------------------------------------------------------------
 Rotational constants (GHZ):           0.6432918           0.3459989           0.2488031
 Standard basis: Aug-CC-pVDZ (5D, 7F)
 There are   564 symmetry adapted cartesian basis functions of A   symmetry.
 There are   534 symmetry adapted basis functions of A   symmetry.
   534 basis functions,   876 primitive gaussians,   564 cartesian basis functions
    59 alpha electrons       59 beta electrons
       nuclear repulsion energy      1081.3882018497 Hartrees.
 NAtoms=   36 NActive=   36 NUniq=   36 SFac= 1.00D+00 NAtFMM=   60 NAOKFM=F Big=F
 Integral buffers will be    131072 words long.
 Raffenetti 2 integral format.
 Two-electron integral symmetry is turned on.
 Nuclear repulsion after empirical dispersion term =     1081.3604303781 Hartrees.
 One-electron integrals computed using PRISM.
 NBasis=   534 RedAO= T EigKep=  2.83D-06  NBF=   534
 NBsUse=   534 1.00D-06 EigRej= -1.00D+00 NBFU=   534
 ExpMin= 2.97D-02 ExpMax= 1.17D+04 ExpMxC= 4.01D+02 IAcc=3 IRadAn=         5 AccDes= 0.00D+00
 Harris functional with IExCor= 4639 and IRadAn=       5 diagonalized for initial guess.
 HarFok:  IExCor= 4639 AccDes= 0.00D+00 IRadAn=         5 IDoV= 1 UseB2=F ITyADJ=14
 ICtDFT=  3500011 ScaDFX=  1.000000  1.000000  1.000000  1.000000
 FoFCou: FMM=F IPFlag=           0 FMFlag=      100000 FMFlg1=           0
         NFxFlg=           0 DoJE=T BraDBF=F KetDBF=T FulRan=T
         wScrn=  0.000000 ICntrl=       500 IOpCl=  0 I1Cent=   200000004 NGrid=           0
         NMat0=    1 NMatS0=      1 NMatT0=    0 NMatD0=    1 NMtDS0=    0 NMtDT0=    0
 Petite list used in FoFCou.
 Requested convergence on RMS density matrix=1.00D-08 within 128 cycles.
 Requested convergence on MAX density matrix=1.00D-06.
 Requested convergence on             energy=1.00D-06.
 No special actions if energy rises.
 SCF Done:  E(RwB97XD) =  -728.585473835     A.U. after   14 cycles
            NFock= 14  Conv=0.86D-08     -V/T= 2.0064

 **********************************************************************

            Population analysis using the SCF density.

 **********************************************************************

 Orbital symmetries:
       Occupied  (A) (A) (A) (A) (A) (A) (A) (A) (A) (A) (A) (A)
                 (A) (A) (A) (A) (A) (A) (A) (A) (A) (A) (A) (A)
                 (A) (A) (A) (A) (A) (A) (A) (A) (A) (A) (A) (A)
                 (A) (A) (A) (A) (A) (A) (A) (A) (A) (A) (A) (A)
                 (A) (A) (A) (A) (A) (A) (A) (A) (A) (A) (A)
       Virtual   (A) (A) (A) (A) (A) (A) (A) (A) (A) (A) (A) (A)
                 (A) (A) (A) (A) (A) (A) (A) (A) (A) (A) (A) (A)
                 (A) (A) (A) (A) (A) (A) (A) (A) (A) (A) (A) (A)
                 (A) (A) (A) (A) (A) (A) (A) (A) (A) (A) (A) (A)
                 (A) (A) (A) (A) (A) (A) (A) (A) (A) (A) (A) (A)
                 (A) (A) (A) (A) (A) (A) (A) (A) (A) (A) (A) (A)
                 (A) (A) (A) (A) (A) (A) (A) (A) (A) (A) (A) (A)
                 (A) (A) (A) (A) (A) (A) (A) (A) (A) (A) (A) (A)
                 (A) (A) (A) (A) (A) (A) (A) (A) (A) (A) (A) (A)
                 (A) (A) (A) (A) (A) (A) (A) (A) (A) (A) (A) (A)
                 (A) (A) (A) (A) (A) (A) (A) (A) (A) (A) (A) (A)
                 (A) (A) (A) (A) (A) (A) (A) (A) (A) (A) (A) (A)
                 (A) (A) (A) (A) (A) (A) (A) (A) (A) (A) (A) (A)
                 (A) (A) (A) (A) (A) (A) (A) (A) (A) (A) (A) (A)
                 (A) (A) (A) (A) (A) (A) (A) (A) (A) (A) (A) (A)
                 (A) (A) (A) (A) (A) (A) (A) (A) (A) (A) (A) (A)
                 (A) (A) (A) (A) (A) (A) (A) (A) (A) (A) (A) (A)
                 (A) (A) (A) (A) (A) (A) (A) (A) (A) (A) (A) (A)
                 (A) (A) (A) (A) (A) (A) (A) (A) (A) (A) (A) (A)
                 (A) (A) (A) (A) (A) (A) (A) (A) (A) (A) (A) (A)
                 (A) (A) (A) (A) (A) (A) (A) (A) (A) (A) (A) (A)
                 (A) (A) (A) (A) (A) (A) (A) (A) (A) (A) (A) (A)
                 (A) (A) (A) (A) (A) (A) (A) (A) (A) (A) (A) (A)
                 (A) (A) (A) (A) (A) (A) (A) (A) (A) (A) (A) (A)
                 (A) (A) (A) (A) (A) (A) (A) (A) (A) (A) (A) (A)
                 (A) (A) (A) (A) (A) (A) (A) (A) (A) (A) (A) (A)
                 (A) (A) (A) (A) (A) (A) (A) (A) (A) (A) (A) (A)
                 (A) (A) (A) (A) (A) (A) (A) (A) (A) (A) (A) (A)
                 (A) (A) (A) (A) (A) (A) (A) (A) (A) (A) (A) (A)
                 (A) (A) (A) (A) (A) (A) (A) (A) (A) (A) (A) (A)
                 (A) (A) (A) (A) (A) (A) (A) (A) (A) (A) (A) (A)
                 (A) (A) (A) (A) (A) (A) (A) (A) (A) (A) (A) (A)
                 (A) (A) (A) (A) (A) (A) (A) (A) (A) (A) (A) (A)
                 (A) (A) (A) (A) (A) (A) (A) (A) (A) (A) (A) (A)
                 (A) (A) (A) (A) (A) (A) (A) (A) (A) (A) (A) (A)
                 (A) (A) (A) (A) (A) (A) (A) (A) (A) (A) (A) (A)
                 (A) (A) (A) (A) (A) (A) (A) (A) (A) (A) (A) (A)
                 (A) (A) (A) (A) (A) (A) (A) (A) (A) (A) (A) (A)
                 (A) (A) (A) (A) (A) (A) (A) (A) (A) (A) (A) (A)
                 (A) (A) (A) (A) (A) (A) (A)
 The electronic state is 1-A.
 Alpha  occ. eigenvalues --  -19.39150 -19.39025 -19.36593 -14.68560 -14.57354
 Alpha  occ. eigenvalues --  -10.49670 -10.48311 -10.48276 -10.45871 -10.45269
 Alpha  occ. eigenvalues --  -10.44726 -10.44314 -10.44171 -10.44049 -10.42705
 Alpha  occ. eigenvalues --   -1.24811  -1.23571  -1.23114  -1.20569  -1.17276
 Alpha  occ. eigenvalues --   -1.06314  -1.04079  -1.00774  -0.96594  -0.94391
 Alpha  occ. eigenvalues --   -0.87482  -0.86182  -0.83981  -0.82884  -0.78037
 Alpha  occ. eigenvalues --   -0.75248  -0.74746  -0.73944  -0.73394  -0.72189
 Alpha  occ. eigenvalues --   -0.71045  -0.69948  -0.68498  -0.67075  -0.65296
 Alpha  occ. eigenvalues --   -0.63985  -0.63807  -0.62572  -0.61730  -0.61024
 Alpha  occ. eigenvalues --   -0.60841  -0.59160  -0.58662  -0.58179  -0.57802
 Alpha  occ. eigenvalues --   -0.56947  -0.55972  -0.55515  -0.52810  -0.52051
 Alpha  occ. eigenvalues --   -0.50397  -0.48979  -0.46739  -0.45869
 Alpha virt. eigenvalues --   -0.08752  -0.07962  -0.06421  -0.05525  -0.05044
 Alpha virt. eigenvalues --   -0.04630  -0.03816  -0.03257  -0.02934  -0.02517
 Alpha virt. eigenvalues --   -0.02216  -0.01645  -0.01087  -0.00891  -0.00600
 Alpha virt. eigenvalues --   -0.00082   0.00429   0.00886   0.01241   0.01405
 Alpha virt. eigenvalues --    0.01695   0.02016   0.02374   0.02677   0.03411
 Alpha virt. eigenvalues --    0.03532   0.03924   0.04063   0.04610   0.04764
 Alpha virt. eigenvalues --    0.05123   0.05435   0.05657   0.05695   0.05895
 Alpha virt. eigenvalues --    0.06076   0.06577   0.06717   0.07312   0.07430
 Alpha virt. eigenvalues --    0.07616   0.07788   0.08181   0.08716   0.08836
 Alpha virt. eigenvalues --    0.09138   0.09313   0.09781   0.09997   0.10284
 Alpha virt. eigenvalues --    0.10781   0.11393   0.11585   0.11719   0.11923
 Alpha virt. eigenvalues --    0.12314   0.12760   0.12866   0.13013   0.13178
 Alpha virt. eigenvalues --    0.13735   0.14182   0.14342   0.14943   0.15500
 Alpha virt. eigenvalues --    0.15798   0.15933   0.16929   0.17003   0.17218
 Alpha virt. eigenvalues --    0.17407   0.17465   0.17710   0.18071   0.18440
 Alpha virt. eigenvalues --    0.19157   0.19545   0.19766   0.20115   0.20275
 Alpha virt. eigenvalues --    0.20446   0.20932   0.21585   0.21708   0.21906
 Alpha virt. eigenvalues --    0.22367   0.22416   0.22679   0.22752   0.23005
 Alpha virt. eigenvalues --    0.23520   0.23906   0.24596   0.25003   0.25339
 Alpha virt. eigenvalues --    0.25581   0.26025   0.26325   0.26679   0.26928
 Alpha virt. eigenvalues --    0.27768   0.27952   0.28121   0.28587   0.28798
 Alpha virt. eigenvalues --    0.29344   0.29807   0.30264   0.30841   0.31047
 Alpha virt. eigenvalues --    0.31211   0.31569   0.32100   0.32444   0.32768
 Alpha virt. eigenvalues --    0.33382   0.34071   0.34322   0.34787   0.35349
 Alpha virt. eigenvalues --    0.35747   0.36429   0.36633   0.37217   0.37439
 Alpha virt. eigenvalues --    0.37807   0.38087   0.38878   0.39266   0.39573
 Alpha virt. eigenvalues --    0.39787   0.40754   0.41219   0.41632   0.41779
 Alpha virt. eigenvalues --    0.41938   0.42508   0.43163   0.43502   0.43944
 Alpha virt. eigenvalues --    0.44175   0.44651   0.44830   0.45394   0.45794
 Alpha virt. eigenvalues --    0.46112   0.46778   0.47008   0.47473   0.47781
 Alpha virt. eigenvalues --    0.48189   0.48296   0.49241   0.49342   0.50110
 Alpha virt. eigenvalues --    0.50445   0.50578   0.51231   0.51590   0.52446
 Alpha virt. eigenvalues --    0.52647   0.52985   0.53138   0.53341   0.53489
 Alpha virt. eigenvalues --    0.53660   0.54622   0.54741   0.55733   0.55910
 Alpha virt. eigenvalues --    0.56056   0.56570   0.56992   0.57899   0.58202
 Alpha virt. eigenvalues --    0.58500   0.58743   0.59428   0.59632   0.60181
 Alpha virt. eigenvalues --    0.60609   0.60936   0.61739   0.61936   0.62264
 Alpha virt. eigenvalues --    0.63120   0.63820   0.64421   0.65190   0.65745
 Alpha virt. eigenvalues --    0.65886   0.66243   0.66652   0.66889   0.67337
 Alpha virt. eigenvalues --    0.67869   0.68177   0.68280   0.68761   0.70066
 Alpha virt. eigenvalues --    0.70617   0.70880   0.71455   0.71675   0.72192
 Alpha virt. eigenvalues --    0.72846   0.73266   0.73448   0.74071   0.74455
 Alpha virt. eigenvalues --    0.74796   0.75088   0.76158   0.76959   0.77618
 Alpha virt. eigenvalues --    0.77787   0.78245   0.79165   0.79625   0.80144
 Alpha virt. eigenvalues --    0.80599   0.81335   0.81919   0.82501   0.82679
 Alpha virt. eigenvalues --    0.83999   0.84333   0.84484   0.85861   0.87220
 Alpha virt. eigenvalues --    0.87431   0.88538   0.88981   0.89277   0.90032
 Alpha virt. eigenvalues --    0.90843   0.91822   0.92460   0.93141   0.93585
 Alpha virt. eigenvalues --    0.94054   0.95014   0.96177   0.96635   0.97331
 Alpha virt. eigenvalues --    0.98821   0.99814   1.00033   1.00489   1.01373
 Alpha virt. eigenvalues --    1.02029   1.04386   1.05038   1.05554   1.06204
 Alpha virt. eigenvalues --    1.06584   1.06673   1.08318   1.08674   1.09297
 Alpha virt. eigenvalues --    1.09746   1.11008   1.11529   1.11842   1.12946
 Alpha virt. eigenvalues --    1.13892   1.14735   1.14965   1.16239   1.16320
 Alpha virt. eigenvalues --    1.16692   1.18263   1.19498   1.20351   1.21638
 Alpha virt. eigenvalues --    1.22299   1.22650   1.24654   1.25880   1.27736
 Alpha virt. eigenvalues --    1.28368   1.29339   1.30000   1.31935   1.32723
 Alpha virt. eigenvalues --    1.33626   1.34404   1.34873   1.36827   1.37333
 Alpha virt. eigenvalues --    1.38469   1.38808   1.39172   1.40265   1.41725
 Alpha virt. eigenvalues --    1.42172   1.43214   1.43531   1.44086   1.45524
 Alpha virt. eigenvalues --    1.46010   1.47186   1.47642   1.48771   1.49642
 Alpha virt. eigenvalues --    1.50669   1.51320   1.52144   1.52778   1.53643
 Alpha virt. eigenvalues --    1.55215   1.55786   1.56342   1.57871   1.58781
 Alpha virt. eigenvalues --    1.59723   1.61025   1.62700   1.62930   1.63226
 Alpha virt. eigenvalues --    1.64486   1.65820   1.66129   1.67533   1.68331
 Alpha virt. eigenvalues --    1.69247   1.70653   1.70825   1.72211   1.72797
 Alpha virt. eigenvalues --    1.73800   1.74158   1.74869   1.75589   1.76186
 Alpha virt. eigenvalues --    1.76920   1.77706   1.78036   1.79265   1.79512
 Alpha virt. eigenvalues --    1.80601   1.81696   1.82013   1.83575   1.83662
 Alpha virt. eigenvalues --    1.84542   1.85295   1.86197   1.86695   1.87426
 Alpha virt. eigenvalues --    1.87525   1.88281   1.89119   1.90023   1.90820
 Alpha virt. eigenvalues --    1.91866   1.92535   1.93414   1.94501   1.94999
 Alpha virt. eigenvalues --    1.95811   1.96755   1.98043   1.98794   2.00088
 Alpha virt. eigenvalues --    2.00767   2.01854   2.02279   2.03153   2.04264
 Alpha virt. eigenvalues --    2.05130   2.06699   2.07628   2.08900   2.10317
 Alpha virt. eigenvalues --    2.11315   2.13550   2.13993   2.14922   2.15585
 Alpha virt. eigenvalues --    2.16548   2.17153   2.18044   2.18611   2.20277
 Alpha virt. eigenvalues --    2.21077   2.22532   2.24147   2.25787   2.26098
 Alpha virt. eigenvalues --    2.26427   2.27819   2.28616   2.29492   2.30878
 Alpha virt. eigenvalues --    2.31680   2.31904   2.33216   2.35016   2.35972
 Alpha virt. eigenvalues --    2.37277   2.39605   2.39790   2.41523   2.43067
 Alpha virt. eigenvalues --    2.44658   2.44845   2.47085   2.48094   2.50257
 Alpha virt. eigenvalues --    2.51002   2.51368   2.52943   2.53142   2.55027
 Alpha virt. eigenvalues --    2.55601   2.56518   2.57329   2.58272   2.59833
 Alpha virt. eigenvalues --    2.61144   2.62159   2.64496   2.64853   2.66413
 Alpha virt. eigenvalues --    2.67511   2.68711   2.70025   2.72168   2.73414
 Alpha virt. eigenvalues --    2.73760   2.74651   2.76312   2.76834   2.77972
 Alpha virt. eigenvalues --    2.79824   2.81488   2.81676   2.83404   2.84515
 Alpha virt. eigenvalues --    2.88605   2.89746   2.91670   2.93410   2.94669
 Alpha virt. eigenvalues --    2.96893   2.97957   2.99902   3.03138   3.07892
 Alpha virt. eigenvalues --    3.16954   3.23496   3.29064   3.29350   3.35234
 Alpha virt. eigenvalues --    3.37011   3.38113   3.41615   3.43837   3.46553
 Alpha virt. eigenvalues --    3.48230   3.49439   3.53260   3.57340   3.61598
 Alpha virt. eigenvalues --    3.65730   3.68304   3.86085   3.89351   3.91268
 Alpha virt. eigenvalues --    3.93172   4.08959   4.12184   4.17830   4.58833
          Condensed to atoms (all electrons):
               1          2          3          4          5          6
     1  N   14.776319  -4.135193  -0.351161  -0.186141   0.515877   1.105760
     2  C   -4.135193  22.365296  -0.580304  -0.321836  -0.366715  -4.693575
     3  C   -0.351161  -0.580304   7.329243  -0.022941   0.061903  -0.357175
     4  C   -0.186141  -0.321836  -0.022941   6.305280   0.299280   0.196525
     5  C    0.515877  -0.366715   0.061903   0.299280   5.041455  -0.114380
     6  C    1.105760  -4.693575  -0.357175   0.196525  -0.114380  21.609792
     7  C   -0.744483  -2.270794  -0.426118   0.033778  -0.026172  -5.201936
     8  N    0.133098  -0.167302   0.010386   0.000396   0.006136   0.549870
     9  C    0.080144  -0.586437  -0.002168  -0.031442   0.010164  -0.522378
    10  C   -0.045854   0.480234  -0.103969  -0.030600   0.003361  -0.069875
    11  C   -0.595306  -2.788934  -0.844094  -0.121395  -0.189193  -9.318940
    12  O   -0.119222  -0.144411   0.034957  -0.020893  -0.020756   0.187370
    13  O    0.019258  -0.025496   0.003951   0.000886  -0.001980   0.095818
    14  H   -0.538101   0.125967   0.153018   0.073290  -0.082694  -0.158260
    15  H   -0.145485  -0.060287   0.134653  -0.313390   0.009901   0.153408
    16  H    0.098142   0.054338   0.120468  -0.199772   0.120099  -0.118035
    17  H   -0.141767  -0.099876  -0.020891  -0.200346   0.040688   0.160114
    18  H    0.435064   0.485613  -0.519222   0.044032  -0.032732  -0.064306
    19  H   -0.873035   0.390149   0.008811  -0.179742  -0.096395   0.034149
    20  H   -0.644165  -1.755748   0.131229  -0.071263   0.067881   0.493858
    21  H   -0.190685  -0.166753   0.047934   0.003140  -0.017016   0.089702
    22  H   -0.001934   0.006827   0.001562  -0.000327  -0.000495  -0.354239
    23  H    0.003325  -0.049766   0.025425   0.001229  -0.000286   0.106010
    24  H   -0.025163  -0.307603   0.225299   0.000484   0.029016   1.012855
    25  C   -0.257193  -0.263844   0.186673  -0.089564  -0.155280  -0.022764
    26  H    0.393075  -0.412743   0.054037   0.024808  -0.022748   0.081536
    27  H   -0.006709   0.043640   0.001591  -0.010528   0.009335   0.015886
    28  H    0.019995  -0.007865  -0.000516   0.003282   0.001128  -0.029325
    29  H    0.006539  -0.041034   0.000677  -0.003213   0.002924   0.019333
    30  H    0.009547   0.009329   0.000338   0.001792  -0.001025  -0.008570
    31  O   -0.000043  -0.000329  -0.000009  -0.000023   0.000033  -0.001473
    32  H    0.000031   0.000032  -0.000011  -0.000008   0.000019  -0.000139
    33  H   -0.000116  -0.000065   0.000002  -0.000017   0.000004   0.000225
    34  H   -0.075830   0.054564   0.025282   0.020932   0.040888  -0.058181
    35  H   -0.974490   0.226168  -0.025833  -0.015728   0.062101  -0.056200
    36  H   -0.302414   0.093589   0.090477  -0.010077  -0.140773   0.025369
               7          8          9         10         11         12
     1  N   -0.744483   0.133098   0.080144  -0.045854  -0.595306  -0.119222
     2  C   -2.270794  -0.167302  -0.586437   0.480234  -2.788934  -0.144411
     3  C   -0.426118   0.010386  -0.002168  -0.103969  -0.844094   0.034957
     4  C    0.033778   0.000396  -0.031442  -0.030600  -0.121395  -0.020893
     5  C   -0.026172   0.006136   0.010164   0.003361  -0.189193  -0.020756
     6  C   -5.201936   0.549870  -0.522378  -0.069875  -9.318940   0.187370
     7  C   16.494964  -0.010638  -1.489681  -0.586774   0.808808  -0.241094
     8  N   -0.010638   7.491739   0.372405   0.339859  -1.085004   0.038339
     9  C   -1.489681   0.372405   8.663196  -1.394559   0.711561   0.012283
    10  C   -0.586774   0.339859  -1.394559  10.984914  -3.348062   0.022917
    11  C    0.808808  -1.085004   0.711561  -3.348062  22.938878  -0.063868
    12  O   -0.241094   0.038339   0.012283   0.022917  -0.063868   8.146272
    13  O   -0.140891   0.013484   0.012871   0.018870  -0.067038  -0.056135
    14  H    0.030448   0.001381  -0.001061   0.001492  -0.025311  -0.000174
    15  H    0.026554  -0.000257   0.001466  -0.005560   0.004245   0.001005
    16  H   -0.004465  -0.000126  -0.001231  -0.000224   0.017961  -0.003433
    17  H   -0.010524   0.008276   0.002732   0.046391  -0.103968   0.004135
    18  H   -0.058901   0.004090  -0.001754  -0.007150  -0.044372   0.002172
    19  H    0.033732  -0.002707   0.002658  -0.001617   0.020335   0.015722
    20  H    0.362889  -0.008462  -0.002466  -0.021458   0.220807  -0.008613
    21  H   -1.281201  -0.121141   0.112088  -0.051438  -0.017342   0.064891
    22  H    0.384393  -0.275671  -0.225797  -0.141563   0.366096  -0.001372
    23  H   -0.085126  -0.056063   0.236469  -1.015267   0.586332   0.000763
    24  H    0.070643   0.000208  -0.116382   0.356733  -2.282734  -0.003183
    25  C   -0.160018  -0.022126  -0.010014  -0.001413   0.047900   0.024789
    26  H   -0.099476   0.034329  -0.001682  -0.001784  -0.012485  -0.015196
    27  H   -0.002665   0.012176  -0.016382   0.024122  -0.037229   0.297621
    28  H    0.022564  -0.003470   0.000461  -0.005785   0.014993   0.352113
    29  H   -0.084208   0.130429   0.026224  -0.011779  -0.009191   0.004759
    30  H    0.030506  -0.023284   0.003237  -0.003770   0.006497   0.000319
    31  O    0.000045  -0.000946  -0.000551   0.000200  -0.000130   0.000170
    32  H    0.000297   0.000125   0.000111   0.000080  -0.000004   0.000004
    33  H    0.000194   0.000044  -0.000115  -0.000082   0.000013  -0.000057
    34  H   -0.001607  -0.000164   0.003285  -0.002793   0.012482  -0.015533
    35  H    0.067332  -0.009591  -0.001482  -0.000953   0.031362   0.013248
    36  H   -0.059923  -0.003497  -0.002659   0.004850  -0.072812   0.040278
              13         14         15         16         17         18
     1  N    0.019258  -0.538101  -0.145485   0.098142  -0.141767   0.435064
     2  C   -0.025496   0.125967  -0.060287   0.054338  -0.099876   0.485613
     3  C    0.003951   0.153018   0.134653   0.120468  -0.020891  -0.519222
     4  C    0.000886   0.073290  -0.313390  -0.199772  -0.200346   0.044032
     5  C   -0.001980  -0.082694   0.009901   0.120099   0.040688  -0.032732
     6  C    0.095818  -0.158260   0.153408  -0.118035   0.160114  -0.064306
     7  C   -0.140891   0.030448   0.026554  -0.004465  -0.010524  -0.058901
     8  N    0.013484   0.001381  -0.000257  -0.000126   0.008276   0.004090
     9  C    0.012871  -0.001061   0.001466  -0.001231   0.002732  -0.001754
    10  C    0.018870   0.001492  -0.005560  -0.000224   0.046391  -0.007150
    11  C   -0.067038  -0.025311   0.004245   0.017961  -0.103968  -0.044372
    12  O   -0.056135  -0.000174   0.001005  -0.003433   0.004135   0.002172
    13  O    7.971936  -0.000308   0.000092  -0.000060  -0.000100   0.000549
    14  H   -0.000308   1.989289  -0.164022   0.024201   0.006590   0.004435
    15  H    0.000092  -0.164022   1.881532  -0.390027   0.121430  -0.191003
    16  H   -0.000060   0.024201  -0.390027   1.819318  -0.149696   0.014812
    17  H   -0.000100   0.006590   0.121430  -0.149696   2.067842  -0.485614
    18  H    0.000549   0.004435  -0.191003   0.014812  -0.485614   2.168590
    19  H   -0.000502  -0.329208   0.180272  -0.209196   0.056923  -0.024143
    20  H   -0.003721   0.004097   0.050232   0.000266   0.117557  -0.315014
    21  H    0.011632  -0.006662   0.004860  -0.002382  -0.000452   0.001860
    22  H   -0.001370  -0.000094   0.000093  -0.000016  -0.000272  -0.000384
    23  H    0.001040   0.000161  -0.000353   0.000268   0.002213   0.000501
    24  H   -0.002903  -0.002010   0.008876  -0.002901  -0.008834  -0.069614
    25  C   -0.000214   0.166668  -0.064886   0.058838  -0.067012   0.012072
    26  H    0.000040  -0.031467  -0.002197  -0.007690  -0.003440   0.025074
    27  H   -0.001891   0.000228   0.001070  -0.001130   0.001625  -0.001405
    28  H   -0.003703   0.002419  -0.001454   0.001846  -0.004430   0.000594
    29  H    0.365754  -0.000148  -0.000086  -0.000060   0.000365  -0.000250
    30  H    0.287227   0.000094   0.000042   0.000072  -0.000150   0.000077
    31  O   -0.059227   0.000000  -0.000002  -0.000002  -0.000006   0.000002
    32  H    0.008067   0.000000  -0.000001  -0.000000  -0.000002  -0.000000
    33  H    0.004816   0.000001  -0.000001  -0.000001   0.000002  -0.000000
    34  H   -0.001127   0.053935  -0.022859   0.013239  -0.007149   0.008770
    35  H   -0.000165   0.014490   0.009916  -0.000285  -0.004247  -0.005956
    36  H    0.006844   0.033940  -0.012070   0.004093  -0.000230   0.003858
              19         20         21         22         23         24
     1  N   -0.873035  -0.644165  -0.190685  -0.001934   0.003325  -0.025163
     2  C    0.390149  -1.755748  -0.166753   0.006827  -0.049766  -0.307603
     3  C    0.008811   0.131229   0.047934   0.001562   0.025425   0.225299
     4  C   -0.179742  -0.071263   0.003140  -0.000327   0.001229   0.000484
     5  C   -0.096395   0.067881  -0.017016  -0.000495  -0.000286   0.029016
     6  C    0.034149   0.493858   0.089702  -0.354239   0.106010   1.012855
     7  C    0.033732   0.362889  -1.281201   0.384393  -0.085126   0.070643
     8  N   -0.002707  -0.008462  -0.121141  -0.275671  -0.056063   0.000208
     9  C    0.002658  -0.002466   0.112088  -0.225797   0.236469  -0.116382
    10  C   -0.001617  -0.021458  -0.051438  -0.141563  -1.015267   0.356733
    11  C    0.020335   0.220807  -0.017342   0.366096   0.586332  -2.282734
    12  O    0.015722  -0.008613   0.064891  -0.001372   0.000763  -0.003183
    13  O   -0.000502  -0.003721   0.011632  -0.001370   0.001040  -0.002903
    14  H   -0.329208   0.004097  -0.006662  -0.000094   0.000161  -0.002010
    15  H    0.180272   0.050232   0.004860   0.000093  -0.000353   0.008876
    16  H   -0.209196   0.000266  -0.002382  -0.000016   0.000268  -0.002901
    17  H    0.056923   0.117557  -0.000452  -0.000272   0.002213  -0.008834
    18  H   -0.024143  -0.315014   0.001860  -0.000384   0.000501  -0.069614
    19  H    2.436901   0.021080   0.007365   0.000159  -0.000489   0.008688
    20  H    0.021080   2.667009  -0.028864   0.001101  -0.005037   0.035228
    21  H    0.007365  -0.028864   3.436415   0.036562  -0.011172  -0.025265
    22  H    0.000159   0.001101   0.036562   1.908987  -0.111469  -0.000592
    23  H   -0.000489  -0.005037  -0.011172  -0.111469   2.097876  -0.137799
    24  H    0.008688   0.035228  -0.025265  -0.000592  -0.137799   3.128125
    25  C   -0.044633   0.117744   0.145960   0.001723   0.000008  -0.008750
    26  H    0.006662  -0.008108   0.025774  -0.000145  -0.000250  -0.003769
    27  H    0.000653  -0.000519  -0.011530  -0.006798  -0.000758   0.004810
    28  H   -0.005000  -0.000256  -0.006538   0.000904   0.000149  -0.001007
    29  H   -0.000610   0.000305  -0.031972  -0.031934   0.003459   0.000806
    30  H    0.000081  -0.000027   0.013262   0.005552  -0.000104  -0.000133
    31  O    0.000078  -0.000025   0.003128  -0.000119   0.000025  -0.000008
    32  H    0.000005   0.000007   0.000839   0.000084  -0.000007   0.000007
    33  H    0.000001   0.000002  -0.000822  -0.000065   0.000001  -0.000001
    34  H    0.004416  -0.023979   0.003265   0.000146  -0.000053  -0.000916
    35  H    0.027693   0.063611   0.031707   0.000280  -0.000146   0.001913
    36  H   -0.006259   0.001575   0.015277  -0.000953   0.001268  -0.002822
              25         26         27         28         29         30
     1  N   -0.257193   0.393075  -0.006709   0.019995   0.006539   0.009547
     2  C   -0.263844  -0.412743   0.043640  -0.007865  -0.041034   0.009329
     3  C    0.186673   0.054037   0.001591  -0.000516   0.000677   0.000338
     4  C   -0.089564   0.024808  -0.010528   0.003282  -0.003213   0.001792
     5  C   -0.155280  -0.022748   0.009335   0.001128   0.002924  -0.001025
     6  C   -0.022764   0.081536   0.015886  -0.029325   0.019333  -0.008570
     7  C   -0.160018  -0.099476  -0.002665   0.022564  -0.084208   0.030506
     8  N   -0.022126   0.034329   0.012176  -0.003470   0.130429  -0.023284
     9  C   -0.010014  -0.001682  -0.016382   0.000461   0.026224   0.003237
    10  C   -0.001413  -0.001784   0.024122  -0.005785  -0.011779  -0.003770
    11  C    0.047900  -0.012485  -0.037229   0.014993  -0.009191   0.006497
    12  O    0.024789  -0.015196   0.297621   0.352113   0.004759   0.000319
    13  O   -0.000214   0.000040  -0.001891  -0.003703   0.365754   0.287227
    14  H    0.166668  -0.031467   0.000228   0.002419  -0.000148   0.000094
    15  H   -0.064886  -0.002197   0.001070  -0.001454  -0.000086   0.000042
    16  H    0.058838  -0.007690  -0.001130   0.001846  -0.000060   0.000072
    17  H   -0.067012  -0.003440   0.001625  -0.004430   0.000365  -0.000150
    18  H    0.012072   0.025074  -0.001405   0.000594  -0.000250   0.000077
    19  H   -0.044633   0.006662   0.000653  -0.005000  -0.000610   0.000081
    20  H    0.117744  -0.008108  -0.000519  -0.000256   0.000305  -0.000027
    21  H    0.145960   0.025774  -0.011530  -0.006538  -0.031972   0.013262
    22  H    0.001723  -0.000145  -0.006798   0.000904  -0.031934   0.005552
    23  H    0.000008  -0.000250  -0.000758   0.000149   0.003459  -0.000104
    24  H   -0.008750  -0.003769   0.004810  -0.001007   0.000806  -0.000133
    25  C    4.831603  -0.146232  -0.024435   0.014698  -0.000748  -0.000878
    26  H   -0.146232   1.063140  -0.010451  -0.013743   0.001332   0.001393
    27  H   -0.024435  -0.010451   0.528438  -0.120923   0.007469  -0.017504
    28  H    0.014698  -0.013743  -0.120923   0.590405  -0.000952   0.002384
    29  H   -0.000748   0.001332   0.007469  -0.000952   0.676939  -0.203570
    30  H   -0.000878   0.001393  -0.017504   0.002384  -0.203570   0.645763
    31  O    0.000158  -0.001177   0.009371  -0.000909   0.002756  -0.021049
    32  H   -0.000014   0.000100  -0.002544   0.000153  -0.005744   0.008035
    33  H    0.000037  -0.000196   0.000968  -0.000071  -0.001095  -0.002921
    34  H    0.296449  -0.030270  -0.008747   0.001916  -0.001079   0.000526
    35  H    0.376878  -0.035306   0.003138   0.003281  -0.002487  -0.000297
    36  H    0.368228   0.018874   0.008584  -0.000100   0.004504  -0.002267
              31         32         33         34         35         36
     1  N   -0.000043   0.000031  -0.000116  -0.075830  -0.974490  -0.302414
     2  C   -0.000329   0.000032  -0.000065   0.054564   0.226168   0.093589
     3  C   -0.000009  -0.000011   0.000002   0.025282  -0.025833   0.090477
     4  C   -0.000023  -0.000008  -0.000017   0.020932  -0.015728  -0.010077
     5  C    0.000033   0.000019   0.000004   0.040888   0.062101  -0.140773
     6  C   -0.001473  -0.000139   0.000225  -0.058181  -0.056200   0.025369
     7  C    0.000045   0.000297   0.000194  -0.001607   0.067332  -0.059923
     8  N   -0.000946   0.000125   0.000044  -0.000164  -0.009591  -0.003497
     9  C   -0.000551   0.000111  -0.000115   0.003285  -0.001482  -0.002659
    10  C    0.000200   0.000080  -0.000082  -0.002793  -0.000953   0.004850
    11  C   -0.000130  -0.000004   0.000013   0.012482   0.031362  -0.072812
    12  O    0.000170   0.000004  -0.000057  -0.015533   0.013248   0.040278
    13  O   -0.059227   0.008067   0.004816  -0.001127  -0.000165   0.006844
    14  H    0.000000   0.000000   0.000001   0.053935   0.014490   0.033940
    15  H   -0.000002  -0.000001  -0.000001  -0.022859   0.009916  -0.012070
    16  H   -0.000002  -0.000000  -0.000001   0.013239  -0.000285   0.004093
    17  H   -0.000006  -0.000002   0.000002  -0.007149  -0.004247  -0.000230
    18  H    0.000002  -0.000000  -0.000000   0.008770  -0.005956   0.003858
    19  H    0.000078   0.000005   0.000001   0.004416   0.027693  -0.006259
    20  H   -0.000025   0.000007   0.000002  -0.023979   0.063611   0.001575
    21  H    0.003128   0.000839  -0.000822   0.003265   0.031707   0.015277
    22  H   -0.000119   0.000084  -0.000065   0.000146   0.000280  -0.000953
    23  H    0.000025  -0.000007   0.000001  -0.000053  -0.000146   0.001268
    24  H   -0.000008   0.000007  -0.000001  -0.000916   0.001913  -0.002822
    25  C    0.000158  -0.000014   0.000037   0.296449   0.376878   0.368228
    26  H   -0.001177   0.000100  -0.000196  -0.030270  -0.035306   0.018874
    27  H    0.009371  -0.002544   0.000968  -0.008747   0.003138   0.008584
    28  H   -0.000909   0.000153  -0.000071   0.001916   0.003281  -0.000100
    29  H    0.002756  -0.005744  -0.001095  -0.001079  -0.002487   0.004504
    30  H   -0.021049   0.008035  -0.002921   0.000526  -0.000297  -0.002267
    31  O    7.659452   0.347301   0.354850   0.000021   0.000059  -0.000307
    32  H    0.347301   0.577779  -0.072689   0.000001   0.000048  -0.000094
    33  H    0.354850  -0.072689   0.578057  -0.000001  -0.000059   0.000146
    34  H    0.000021   0.000001  -0.000001   1.577043  -0.411752  -0.329038
    35  H    0.000059   0.000048  -0.000059  -0.411752   2.120771  -0.301084
    36  H   -0.000307  -0.000094   0.000146  -0.329038  -0.301084   1.795937
 Mulliken charges:
               1
     1  N   -0.241680
     2  C    0.911166
     3  C    0.606494
     4  C    0.820112
     5  C    0.946445
     6  C    1.212170
     7  C    0.619548
     8  N   -0.356323
     9  C    0.156887
    10  C    0.568307
    11  C    1.239142
    12  O   -0.550186
    13  O   -0.456305
    14  H   -0.346624
    15  H   -0.215709
    16  H   -0.257230
    17  H   -0.327878
    18  H   -0.390344
    19  H   -0.482995
    20  H   -0.458752
    21  H   -1.084426
    22  H   -0.558861
    23  H   -0.592379
    24  H   -0.881299
    25  C    0.689592
    26  H    0.130381
    27  H    0.311420
    28  H    0.172763
    29  H    0.175585
    30  H    0.259479
    31  O   -0.291316
    32  H    0.138132
    33  H    0.139012
    34  H   -0.126080
    35  H   -0.207936
    36  H   -0.270312
 Sum of Mulliken charges =   1.00000
 Mulliken charges with hydrogens summed into heavy atoms:
               1
     1  N   -0.111299
     2  C    0.452415
     3  C   -0.111728
     4  C    0.347173
     5  C    0.116826
     6  C    1.212170
     7  C   -0.464878
     8  N   -0.356323
     9  C   -0.401974
    10  C   -0.024073
    11  C    0.357843
    12  O   -0.066003
    13  O   -0.021241
    25  C    0.085265
    31  O   -0.014172
 Electronic spatial extent (au):  <R**2>=           4488.6120
 Charge=              1.0000 electrons
 Dipole moment (field-independent basis, Debye):
    X=              1.3257    Y=             -2.5103    Z=             -0.7058  Tot=              2.9253
 Quadrupole moment (field-independent basis, Debye-Ang):
   XX=            -23.9982   YY=            -66.2793   ZZ=            -80.3434
   XY=              1.5103   XZ=              2.5355   YZ=             -5.6722
 Traceless Quadrupole moment (field-independent basis, Debye-Ang):
   XX=             32.8754   YY=             -9.4057   ZZ=            -23.4697
   XY=              1.5103   XZ=              2.5355   YZ=             -5.6722
 Octapole moment (field-independent basis, Debye-Ang**2):
  XXX=           -283.7914  YYY=              5.3957  ZZZ=            -16.3613  XYY=            -13.9181
  XXY=            -91.2471  XXZ=            -16.0131  XZZ=            -15.6401  YZZ=            -30.5077
  YYZ=             -8.0459  XYZ=              4.0817
 Hexadecapole moment (field-independent basis, Debye-Ang**3):
 XXXX=          -1002.5153 YYYY=          -1581.7937 ZZZZ=           -326.6916 XXXY=            511.2182
 XXXZ=             41.7804 YYYX=             -7.4452 YYYZ=            -80.6131 ZZZX=             31.6314
 ZZZY=             19.1594 XXYY=           -664.3766 XXZZ=           -532.1873 YYZZ=           -351.0877
 XXYZ=            -33.2471 YYXZ=            -17.8520 ZZXY=             31.1271
 N-N= 1.081360430378D+03 E-N=-3.846307039419D+03  KE= 7.239676176683D+02
 Calling FoFJK, ICntrl=      2127 FMM=F ISym2X=0 I1Cent= 0 IOpClX= 0 NMat=1 NMatS=1 NMatT=0.
 ***** Axes restored to original set *****
 -------------------------------------------------------------------
 Center     Atomic                   Forces (Hartrees/Bohr)
 Number     Number              X              Y              Z
 -------------------------------------------------------------------
      1        7          -0.000040269   -0.010807966   -0.024620207
      2        6          -0.001060888   -0.001599498    0.005350462
      3        6          -0.000283556    0.001237760    0.000059739
      4        6           0.000207656   -0.000178399    0.000263051
      5        6          -0.001197481    0.005406754    0.009697284
      6        6          -0.000235845   -0.000058025   -0.000130538
      7        6           0.000980324   -0.000171002   -0.000290504
      8        7           0.000253762    0.000433330    0.000340740
      9        6           0.000031561    0.000073337    0.000037749
     10        6           0.000121365    0.000083933    0.000015878
     11        6           0.000138498   -0.000085177   -0.000153984
     12        8           0.001055282   -0.000375826   -0.000045009
     13        8           0.000242064   -0.000226852   -0.000287471
     14        1          -0.000033562    0.000794985    0.001054140
     15        1          -0.000025958    0.000049821   -0.000062450
     16        1          -0.000250760    0.000057679   -0.000237830
     17        1          -0.000174496   -0.000006365    0.000062739
     18        1          -0.000225969    0.000103773    0.000198179
     19        1          -0.000962173   -0.000230860    0.000904387
     20        1           0.000147096   -0.000229971    0.000302728
     21        1           0.000532268    0.002434855    0.002046899
     22        1          -0.000019095    0.000032018    0.000002467
     23        1           0.000022661    0.000005904    0.000012551
     24        1          -0.000014126   -0.000091013    0.000005179
     25        6           0.005530141   -0.014573165   -0.016921982
     26        1          -0.002693504    0.001106121   -0.001531578
     27        1          -0.000412793   -0.000095623    0.000124324
     28        1          -0.000081779    0.000030968   -0.000092998
     29        1          -0.000201235    0.000166601    0.000016529
     30        1          -0.000126272    0.000090004    0.000041384
     31        8           0.000053878   -0.000065842   -0.000049002
     32        1          -0.000011975    0.000011668    0.000012023
     33        1           0.000021778    0.000031394    0.000038210
     34        1           0.004783976    0.002015670    0.011794551
     35        1          -0.005365219    0.010715655    0.002392358
     36        1          -0.000705354    0.003913353    0.009650002
 -------------------------------------------------------------------
 Cartesian Forces:  Max     0.024620207 RMS     0.004154385

 GradGradGradGradGradGradGradGradGradGradGradGradGradGradGradGradGradGrad
 Berny optimization.
 FormGI is forming the generalized inverse of G from B-inverse, IUseBI=4.
 Internal  Forces:  Max     0.011489764 RMS     0.002363590
 Search for a local minimum.
 Step number   1 out of a maximum of  208
 All quantities printed in internal units (Hartrees-Bohrs-Radians)
 Mixed Optimization -- RFO/linear search
 Second derivative matrix not updated -- first step.
 ITU=  0
     Eigenvalues ---    0.00230   0.00230   0.00230   0.00230   0.00230
     Eigenvalues ---    0.00230   0.00230   0.00230   0.00230   0.00301
     Eigenvalues ---    0.00456   0.00574   0.00621   0.00628   0.00765
     Eigenvalues ---    0.00982   0.01519   0.02114   0.02165   0.02177
     Eigenvalues ---    0.02195   0.02215   0.02219   0.02278   0.02307
     Eigenvalues ---    0.02478   0.03829   0.04176   0.04215   0.04422
     Eigenvalues ---    0.04472   0.04801   0.05188   0.05192   0.05593
     Eigenvalues ---    0.05601   0.05717   0.06053   0.06226   0.06291
     Eigenvalues ---    0.06816   0.06871   0.07119   0.08303   0.08853
     Eigenvalues ---    0.08927   0.09924   0.11540   0.13711   0.14755
     Eigenvalues ---    0.15299   0.15919   0.15995   0.15998   0.16000
     Eigenvalues ---    0.16000   0.16000   0.16000   0.16000   0.16000
     Eigenvalues ---    0.16000   0.16000   0.16000   0.20182   0.22000
     Eigenvalues ---    0.23188   0.23441   0.24994   0.26313   0.27349
     Eigenvalues ---    0.28509   0.29760   0.30678   0.31307   0.32181
     Eigenvalues ---    0.32325   0.33079   0.33774   0.33794   0.33859
     Eigenvalues ---    0.33928   0.34251   0.34308   0.34339   0.34441
     Eigenvalues ---    0.34456   0.34763   0.34872   0.35009   0.38345
     Eigenvalues ---    0.42616   0.44466   0.46580   0.46807   0.48770
     Eigenvalues ---    0.52660   0.53695   0.55345   0.55379   0.55662
     Eigenvalues ---    0.56144   0.57814
 RFO step:  Lambda=-8.14925074D-03 EMin= 2.30000000D-03
 Linear search not attempted -- first point.
 Iteration  1 RMS(Cart)=  0.23470214 RMS(Int)=  0.01144245
 Iteration  2 RMS(Cart)=  0.06002659 RMS(Int)=  0.00082951
 Iteration  3 RMS(Cart)=  0.00118098 RMS(Int)=  0.00062758
 Iteration  4 RMS(Cart)=  0.00000101 RMS(Int)=  0.00062758
 Iteration  5 RMS(Cart)=  0.00000000 RMS(Int)=  0.00062758
 Variable       Old X    -DE/DX   Delta X   Delta X   Delta X     New X
                                 (Linear)    (Quad)   (Total)
    R1        2.88346   0.00243   0.00000   0.00914   0.00907   2.89254
    R2        2.85560   0.00432   0.00000   0.01255   0.01282   2.86842
    R3        2.82213  -0.00580   0.00000  -0.01712  -0.01712   2.80500
    R4        2.00553  -0.00286   0.00000  -0.00718  -0.00710   1.99843
    R5        2.88772   0.00001   0.00000   0.00276   0.00249   2.89020
    R6        2.85428   0.00349   0.00000   0.01087   0.01090   2.86519
    R7        2.07568  -0.00034   0.00000  -0.00099  -0.00099   2.07469
    R8        2.88838  -0.00172   0.00000  -0.00751  -0.00769   2.88069
    R9        2.07679   0.00002   0.00000   0.00005   0.00005   2.07684
   R10        2.06813   0.00016   0.00000   0.00045   0.00045   2.06859
   R11        2.88435  -0.00054   0.00000  -0.00289  -0.00264   2.88171
   R12        2.07452   0.00006   0.00000   0.00018   0.00018   2.07470
   R13        2.06762  -0.00002   0.00000  -0.00006  -0.00006   2.06757
   R14        2.06568  -0.00121   0.00000  -0.00344  -0.00344   2.06224
   R15        2.06909   0.00065   0.00000   0.00184   0.00184   2.07093
   R16        2.63672   0.00138   0.00000   0.00312   0.00315   2.63987
   R17        2.63649   0.00050   0.00000   0.00111   0.00111   2.63760
   R18        2.51679   0.00075   0.00000   0.00135   0.00136   2.51815
   R19        2.06592  -0.00291   0.00000  -0.00825  -0.00825   2.05767
   R20        2.52516  -0.00059   0.00000  -0.00104  -0.00104   2.52412
   R21        2.63250  -0.00081   0.00000  -0.00187  -0.00187   2.63063
   R22        2.06062   0.00001   0.00000   0.00002   0.00002   2.06064
[...]
 00000952,-0.00000209,0.00000372,0.00003370,0.00000496,-0.00001473,0.00
 000312,0.00002767,-0.00002828,-0.00001169,0.00000955,-0.00000560,-0.00
 000197,0.00000608,-0.00000480,0.00003009,-0.00001175,-0.00006589,-0.00
 009826,0.00003066,-0.00009138,0.00032147,0.00038381,-0.00044437,-0.000
 19734,-0.00001876,-0.00008002,-0.00016788,-0.00014077,-0.00021601,0.00
 067616,-0.00189088,-0.01025056,0.01337789,0.16738113,0.68095859,0.0000
 4750,-0.00000067,0.00002491,-0.00001080,0.00000413,-0.00000432,0.00000
 074,0.00000155,0.00000024,-0.00000074,0.00000044,-0.00000135,-0.000012
 79,-0.00000665,0.00000164,0.00001557,0.00000015,-0.00001043,-0.0000066
 0,-0.00002740,-0.00001166,0.00002610,0.00003993,0.00003045,-0.00003068
 ,0.00001000,-0.00000170,0.00000181,0.00001137,0.00001054,-0.00000335,0
 .00000434,0.00000476,0.00005350,-0.00007525,0.00013891,-0.00143894,0.0
 0111567,0.00094392,-0.00000145,-0.00000036,-0.00000100,0.00000081,-0.0
 0000076,0.00000291,0.00000048,0.00000049,-0.00000194,-0.00000254,0.000
 00118,0.00000231,0.,-0.00000152,0.00000046,-0.00000404,0.00000083,0.00
 000291,0.00000303,0.00000203,0.00000156,0.00001175,0.00000334,0.000004
 05,-0.00000728,0.00002042,-0.00000677,-0.00000090,0.00000131,-0.000002
 21,0.00000242,0.00000238,-0.00000175,0.00000236,-0.00000269,-0.0000124
 6,-0.00008334,0.00002063,-0.00005420,0.00003208,0.00013382,-0.00017771
 ,-0.00010592,-0.00002801,-0.00001376,-0.00050875,-0.00007207,-0.000141
 45,0.00244359,-0.00236978,-0.00236378,-0.25699145,-0.06458174,-0.26429
 736,0.24329562,0.00003020,-0.00003554,0.00002048,0.00000040,0.00006803
 ,-0.00000293,0.00000544,-0.00001413,-0.00000135,-0.00000683,0.00000395
 ,0.00000449,0.00000267,0.00000334,-0.00001029,-0.00000009,-0.00003437,
 -0.00000258,-0.00001754,0.00007062,0.00003994,-0.00006746,-0.00009298,
 -0.00003198,0.00011095,0.00002995,-0.00000138,-0.00004955,-0.00003722,
 -0.00001809,0.00000115,0.00001948,0.00001454,0.00011597,-0.00011007,0.
 00001322,0.00153696,-0.00059730,-0.00059382,-0.00000388,-0.00000389,-0
 .00000349,0.00000118,-0.00000314,-0.00000071,-0.00000137,-0.00000243,0
 .00000103,0.00000143,0.00000395,-0.00000443,0.00000385,-0.00000217,0.0
 0000093,-0.00000387,0.00000666,0.00000313,-0.00000507,-0.00001286,-0.0
 0000213,-0.00000517,-0.00000934,-0.00002200,0.00002275,-0.00003764,-0.
 00000154,0.00000590,-0.00000112,0.00000007,-0.00000447,0.00000109,-0.0
 0000005,-0.00000179,0.00001435,0.00000631,-0.00007041,0.00004380,-0.00
 004787,-0.00003467,0.00003890,-0.00000953,-0.00005562,0.00007422,0.000
 01144,0.00024362,0.00018110,0.00022560,-0.00200400,0.00063871,0.001359
 22,-0.05176120,-0.02101715,-0.08077225,0.05951204,0.02235663,0.0000174
 7,0.00000556,-0.00001427,-0.00000690,-0.00000823,0.00000113,-0.0000004
 2,0.00000542,0.00000886,0.00000320,-0.00000045,-0.00000498,-0.00001581
 ,-0.00001163,0.00002369,0.00001635,-0.00002664,-0.00002260,-0.00004021
 ,0.00000421,0.00002600,0.00008308,-0.00008938,-0.00003183,0.00003229,0
 .00005330,0.00002924,0.00000690,-0.00001359,-0.00002098,0.00001495,0.0
 0000737,-0.00000209,0.00019774,0.00011871,-0.00021582,0.00225884,-0.00
 072996,-0.00048336,-0.00000020,-0.00000045,0.00000139,-0.00000313,0.00
 000029,-0.00000104,0.00000421,0.00000109,-0.00000020,-0.00000015,-0.00
 000212,-0.00000084,0.00000012,-0.00000026,-0.00000077,0.00000213,-0.00
 000132,-0.00000203,-0.00000144,0.00000273,-0.00000055,-0.00004144,0.00
 000023,-0.00001088,-0.00001005,-0.00001116,0.00001751,0.00000922,-0.00
 000684,0.00000302,0.00000424,-0.00000425,0.00000128,-0.00001021,0.0000
 0353,0.00001933,-0.00000817,-0.00000324,0.00001353,-0.00034439,-0.0002
 2230,0.00028806,0.00006471,0.00001411,0.00007135,-0.00008120,0.0001612
 6,0.00008532,-0.00343412,0.00136651,0.00060963,-0.20872832,-0.07975009
 ,-0.31544575,0.23987176,0.08588413,0.34096484,0.00003716,-0.00000580,-
 0.00000456,-0.00001136,0.00001754,-0.00000559,0.00000088,-0.00000086,0
 .00000441,-0.00000055,0.00000088,-0.00000401,-0.00001915,-0.00001210,0
 .00001101,0.00001845,-0.00001667,-0.00001380,-0.00003256,0.00002594,0.
 00001219,0.00001658,-0.00000595,-0.00003562,0.00000884,0.00002457,0.00
 000793,-0.00000451,-0.00000618,0.00000132,0.00000339,0.00000926,0.0000
 0669,0.00005417,-0.00005371,-0.00004056,-0.00157490,0.00049637,-0.0013
 9914,-0.00000340,-0.00000282,0.00000091,-0.00000243,-0.00000055,0.0000
 0131,0.00000224,-0.00000001,-0.00000165,-0.00000060,0.00000025,-0.0000
 0089,0.00000069,-0.00000207,-0.00000031,0.00000061,0.00000074,-0.00000
 115,-0.00000338,0.00000124,-0.00000096,-0.00000478,-0.00000274,0.00001
 884,-0.00000507,0.00000088,0.00000055,0.00000254,-0.00000219,-0.000000
 88,0.00000229,0.00000047,-0.00000033,-0.00001465,0.00000970,0.00002344
 ,-0.00003185,0.00001213,-0.00000677,-0.00001285,0.00007166,0.00002555,
 -0.00000588,0.00000992,0.00002575,-0.00029417,-0.00002744,0.00003979,0
 .00232268,-0.00072715,0.00374587,-0.21121655,0.06289602,0.25166400,0.0
 1327575,-0.00749383,-0.02985149,0.19751899,0.00000259,-0.00003900,0.00
 000067,0.00000337,0.00006564,-0.00000462,0.00000557,-0.00001598,-0.000
 00201,-0.00000740,0.00000239,0.00000522,0.00000820,0.00001028,-0.00001
 002,-0.00000028,-0.00000935,0.00000155,0.00001863,0.00005939,0.0000249
 0,-0.00009269,-0.00002972,0.00003243,0.00004966,-0.00002313,-0.0000205
 3,-0.00004154,-0.00001314,-0.00000511,-0.00000589,0.00001267,0.0000108
 9,-0.00007983,-0.00018018,0.00000794,0.00017410,-0.00011638,0.00055505
 ,-0.00000494,-0.00000416,-0.00000186,0.00000014,-0.00000159,-0.0000019
 7,-0.00000179,-0.00000259,0.00000149,0.00000188,0.00000307,-0.00000474
 ,0.00000354,-0.00000198,0.00000052,-0.00000035,0.00000467,0.00000080,-
 0.00000489,-0.00000936,-0.00000348,0.00002215,0.00000148,-0.00001206,0
 .00001564,-0.00001522,-0.00001352,-0.00000119,0.00000151,-0.00000071,-
 0.00000455,0.00000314,0.00000134,-0.00000642,0.00003211,0.00001383,-0.
 00000371,0.00002753,-0.00000730,0.00019279,0.00018967,-0.00002312,-0.0
 0000499,0.00005745,0.00001170,0.00015923,0.00002421,-0.00028211,0.0000
 0789,-0.00026905,-0.00094651,0.04854461,-0.02153024,-0.08571550,0.0062
 8444,-0.00154401,-0.00674627,-0.05521861,0.02330521,-0.00003861,-0.000
 00096,-0.00004953,0.00000755,0.00000454,0.00000566,-0.00000087,-0.0000
 0401,0.00000122,0.00000106,-0.00000024,0.00000102,0.00000230,0.0000002
 5,0.00000352,0.00000111,0.00000201,0.00000705,0.00000069,0.00003339,0.
 00000791,-0.00006863,0.00007686,-0.00008186,0.00000305,-0.00001990,-0.
 00000547,-0.00001279,-0.00000262,0.00000820,0.00000021,0.00000310,0.00
 000274,-0.00023642,-0.00005683,-0.00001678,-0.00238049,0.00043614,-0.0
 0092835,0.,-0.00000183,0.00000420,-0.00000359,0.00000067,-0.00000330,0
 .00000068,-0.00000065,0.00000074,0.00000231,-0.00000087,-0.00000444,-0
 .00000047,0.00000096,0.00000045,0.00000730,-0.00000166,-0.00000671,-0.
 00000888,-0.00000267,-0.00000334,0.00002131,-0.00000879,0.00003298,0.0
 0000488,-0.00000733,0.00000754,-0.00000101,-0.00000167,0.00000483,-0.0
 0000170,0.00000003,0.00000343,-0.00001754,0.00000652,0.00003986,0.0001
 1549,-0.00002712,0.00007717,0.00024147,0.00013140,-0.00006937,0.000041
 60,0.00000126,-0.00000118,0.00009770,-0.00015128,0.00014900,0.00349791
 ,-0.00064030,0.00158530,0.19688804,-0.08684428,-0.36009488,0.02606752,
 -0.00605918,-0.02590274,-0.22421797,0.09312448,0.38520403,0.00894160,0
 .00327100,0.00831389,0.00067925,-0.00050669,0.00018483,0.00010666,0.00
 008640,0.00019158,0.00036971,0.00023129,-0.00007944,0.00089730,-0.0001
 2372,0.00035849,0.00000613,-0.00009670,0.00008710,-0.00026880,0.000496
 28,0.00017553,0.00000950,-0.00021296,-0.00011426,0.00001146,0.00002900
 ,0.00001510,0.00002854,-0.00001375,-0.00003046,0.00007773,-0.00003848,
 0.00000081,0.00029270,-0.00013756,-0.00019567,-0.00010117,-0.00005349,
 -0.00005354,0.00013193,0.00003930,-0.00027263,-0.00032054,0.00012746,0
 .00030294,0.00005782,-0.00012131,-0.00003508,-0.00008267,0.00002873,0.
 00001713,0.00003767,-0.00001808,-0.00004244,0.00000651,0.00007922,-0.0
 0001037,0.00021232,-0.00042674,-0.00000086,0.00020549,-0.00001189,-0.0
 0003542,0.00000232,-0.00001435,-0.00000578,0.00000703,0.00000297,-0.00
 000654,0.00000246,-0.00002240,-0.00000975,-0.25826977,-0.03245917,-0.1
 2309910,-0.00040007,0.00115238,0.00206617,0.00010916,0.00004756,0.0001
 3005,-0.00001438,-0.00005203,0.00001300,-0.00000198,0.00005060,0.00001
 909,0.00007693,-0.00001387,0.00001243,-0.00004188,0.00000611,-0.000005
 93,0.00000399,0.00000053,0.00000568,0.00000883,0.00000041,-0.00000256,
 0.26948840,-0.01373918,-0.00439558,-0.01194206,-0.00159424,0.00131714,
 -0.00105562,0.00005495,0.00000032,0.00010434,-0.00012928,0.00005838,-0
 .00016979,-0.00013673,0.00029783,0.00111603,-0.00005129,-0.00044805,0.
 00014308,-0.00016556,0.00024500,0.00013525,0.00001957,-0.00003691,-0.0
 0013481,0.00005514,-0.00007506,-0.00002453,-0.00009244,-0.00002614,-0.
 00002936,0.00008216,0.00012490,0.00006828,-0.00043186,0.00037224,0.000
 14889,-0.00001207,0.00004899,-0.00000641,0.00027885,-0.00012629,0.0005
 1080,0.00025734,0.00010381,0.00001660,0.00007376,-0.00000716,0.0001379
 4,-0.00007811,0.00000057,0.00010759,0.00002918,-0.00002991,-0.00000538
 ,-0.00005519,-0.00012283,0.00003927,0.00014073,-0.00090488,0.00019291,
 0.00024219,-0.00009734,0.00005108,0.00000519,-0.00001503,0.00000314,0.
 00000398,0.00000374,-0.00000154,-0.00000260,-0.00002026,-0.00001789,-0
 .02748605,-0.05380625,-0.01605529,0.00221166,-0.00141534,-0.00148392,-
 0.00008960,-0.00004375,-0.00005845,-0.00004326,0.00005158,-0.00002393,
 0.00003590,-0.00001944,0.00001534,-0.00000529,-0.00000718,-0.00001056,
 0.00000578,0.00000627,0.00000361,-0.00000090,-0.00000087,-0.00000185,-
 0.00000410,-0.00000252,-0.00000049,0.03271184,0.05389844,-0.02689917,-
 0.00747581,-0.02513145,-0.00069510,0.00251193,-0.00011507,-0.00003276,
 -0.00019768,0.00013442,0.00000874,-0.00025957,-0.00045573,-0.00203078,
 -0.00097361,0.00136486,0.00010227,-0.00009892,0.00030501,0.00018878,-0
 .00019022,-0.00007787,0.00005465,0.00014709,0.00013963,0.00000380,0.00
 000367,-0.00001176,-0.00002631,0.00002127,-0.00003909,-0.00004177,0.00
 003003,0.00008331,-0.00103104,0.00025229,-0.00018747,-0.00004519,-0.00
 006086,0.00013007,0.00011592,0.00068374,-0.00038641,0.00052543,-0.0001
 5039,0.00012144,0.00009680,0.00007675,0.00018434,0.00001825,0.00006265
 ,0.00003681,0.00006659,0.00003643,-0.00004309,0.00006547,0.00038621,0.
 00033540,0.00029762,-0.00024774,0.00063241,-0.00019211,-0.00005822,-0.
 00010981,-0.00000029,0.00001149,0.00000295,-0.00000472,-0.00000102,-0.
 00000216,-0.00000331,-0.00000619,0.00001389,-0.11204502,-0.01683381,-0
 .11359769,0.00446026,-0.00322893,-0.00291058,0.00016607,0.00022080,-0.
 00026067,-0.00011104,0.00000506,0.00006814,-0.00002980,0.00001143,-0.0
 0002503,-0.00000972,0.00000088,0.00000286,0.00000638,-0.00000107,0.000
 00971,0.00000171,-0.00000005,-0.00000228,-0.00000497,-0.00000089,-0.00
 000254,0.12649498,0.02427944,0.13135165,-0.00311177,0.00475544,0.00018
 716,0.00097426,0.00010659,0.00013665,0.00007039,-0.00005371,-0.0000635
 8,-0.00047927,-0.00014008,-0.00018598,0.00023736,0.00129256,-0.0004641
 5,-0.00024787,0.00022465,0.00034166,-0.00016802,0.00013934,-0.00001456
 ,-0.00001739,0.00002685,-0.00007517,0.00001782,-0.00005427,0.00000358,
 -0.00005556,0.00001782,-0.00000374,0.00010507,0.00003663,0.00004714,-0
 .00019223,0.00009262,0.00028463,0.00006154,0.00019643,0.00003222,-0.00
 082032,-0.00030063,0.00063074,0.00008983,0.00000565,0.00014272,0.00003
 975,0.00003336,0.00008323,0.00001989,0.00003229,0.00001582,-0.00003258
 ,-0.00005035,0.00002877,0.00005628,-0.00022910,-0.00013316,0.00001328,
 -0.00014089,0.00024078,0.00014785,-0.00015869,0.00004152,0.00000473,-0
 .00000850,0.00000395,0.00000717,0.00000925,-0.00000471,-0.00000353,-0.
 00000258,0.00000700,-0.10496585,0.10907763,-0.02385222,0.00042009,-0.0
 0038722,-0.00021919,-0.00010792,-0.00023703,-0.00008945,0.00012739,0.0
 0007040,-0.00003000,0.00007544,-0.00009038,0.00001687,-0.00006710,-0.0
 0000687,-0.00002634,0.00004992,0.00001652,0.00001636,-0.00000523,-0.00
 000492,-0.00000800,-0.00001958,-0.00001309,-0.00000299,-0.00881490,0.0
 2302538,-0.00375392,0.10629156,0.00568996,-0.01406970,0.00100885,0.000
 72387,0.00080467,-0.00198000,-0.00037301,-0.00060743,-0.00000428,-0.00
 004493,0.00009459,0.00007308,-0.00094941,-0.00006797,0.00053338,0.0003
 4780,-0.00003121,0.00008135,-0.00004021,0.00003945,-0.00001904,-0.0000
 9487,0.00005349,-0.00004618,-0.00001122,-0.00005144,-0.00000119,-0.000
 01483,-0.00000957,-0.00001635,-0.00013541,-0.00004813,0.00002776,-0.00
 007245,0.00032189,0.00050909,0.00012729,0.00019000,0.00000300,-0.00002
 439,0.00066492,0.00015382,0.00006030,0.00001385,0.00006198,-0.00000050
 ,0.00006446,0.00003075,0.00014391,0.00001062,-0.00007656,0.00010807,0.
 00005346,-0.00008788,0.00004209,0.00018011,0.00002699,-0.00021666,0.00
 009722,-0.00037947,0.00006969,-0.00020381,-0.00000845,0.00000119,-0.00
 000427,0.00000211,-0.00001466,-0.00000723,-0.00000803,0.00000380,0.000
 02042,0.00001199,0.10855477,-0.26494668,0.04662373,0.00081885,-0.00067
 203,0.00006653,-0.00026003,-0.00025039,-0.00007202,0.00001425,0.000146
 75,0.00001359,0.00009010,-0.00011890,0.00001406,-0.00007269,0.00002907
 ,-0.00001673,0.00004796,0.00000082,0.00001214,-0.00000360,-0.00000324,
 -0.00000668,-0.00001158,-0.00000295,-0.00000107,-0.00412654,0.00685504
 ,-0.00085343,-0.11908977,0.28405419,0.01645479,-0.03378504,-0.00027470
 ,0.00044949,0.00042928,-0.00517538,0.00059548,-0.00128863,0.00065373,-
 0.00016359,-0.00015214,-0.00005981,-0.00081940,-0.00161918,0.00114722,
 0.00057020,-0.00048737,0.00014055,0.00024586,-0.00017663,-0.00012201,-
 0.00010680,0.00006919,0.00001733,-0.00002182,0.00000036,-0.00000761,0.
 00003359,-0.00000887,-0.00006370,-0.00025145,-0.00012967,0.00002197,0.
 00019469,0.00058134,-0.00009475,0.00015629,0.00009390,-0.00011672,0.00
 045467,0.00023550,-0.00011259,0.00010124,0.00011049,0.00004966,0.00006
 214,0.00003743,0.00005081,-0.00005838,0.00000489,-0.00001433,0.0003592
 8,-0.00004096,-0.00030028,-0.00011937,-0.00001786,0.00005230,0.0001450
 4,-0.00020893,0.00020807,-0.00013321,0.00007898,0.00005084,-0.00000440
 ,0.00000380,0.00000820,-0.00002216,-0.00001621,-0.00000654,0.00001076,
 0.00002354,0.00001885,-0.02932338,0.05915381,-0.06210772,0.00089958,-0
 .00083438,0.00159303,-0.00029581,-0.00017323,0.00026431,-0.00003845,-0
 .00001006,-0.00009263,0.00002421,-0.00003885,0.00000511,-0.00004300,0.
 00003204,0.00000659,0.00002571,-0.00001037,-0.00001705,-0.00000357,-0.
 00000201,0.00000467,0.00000536,0.00000660,0.00001233,-0.00432157,0.013
 96628,-0.00190050,0.02368703,-0.04834806,0.06802992,-0.00406628,-0.002
 39942,0.00308088,0.00050004,-0.00055526,0.00062828,-0.00024459,-0.0001
 1261,-0.00031839,0.00018797,-0.00014961,-0.00023689,0.00126992,0.00039
 953,0.00107822,0.00013945,0.00035453,0.00012673,-0.00038396,-0.0005228
 6,-0.00033896,0.00000473,0.00006384,-0.00008619,-0.00002791,-0.0000743
 6,-0.00001221,-0.00003986,-0.00000814,0.00002570,-0.00010406,0.0000335
 8,0.00003337,-0.00007551,-0.00010734,0.00018121,0.00006758,0.00010225,
 0.00017395,-0.00005548,0.00022552,-0.00009812,0.00010100,-0.00002333,-
 0.00000554,0.00003294,-0.00000830,0.00000394,0.00017272,0.00001680,-0.
 00011768,0.00001520,0.00002053,0.00000924,-0.00036526,0.00003609,0.000
 19455,-0.00089217,0.00054894,-0.00008360,-0.00017422,-0.00107627,-0.00
 094151,0.00000632,-0.00000611,0.00000613,-0.00000807,-0.00000728,-0.00
 000278,0.00000432,0.00002148,0.00000972,-0.15713010,-0.10284750,0.0905
 4969,0.00004033,0.00036004,-0.00018843,0.00003955,-0.00002876,-0.00011
 519,0.00004447,0.00003036,0.00001858,0.00007033,-0.00011192,-0.0000331
 5,-0.00007071,0.00002716,-0.00001680,0.00004256,-0.00000238,0.00002029
 ,-0.00000230,-0.00000330,-0.00000726,-0.00001587,-0.00000269,-0.000007
 66,-0.01345526,-0.01511588,0.01428329,0.01029952,0.00871287,-0.0087490
 5,0.16407268,0.01409590,0.00862929,-0.01352617,0.00101320,0.00134046,-
 0.00065486,-0.00025258,0.00009729,-0.00003309,0.00028537,0.00022686,-0
 .00004538,-0.00078003,-0.00201328,-0.00267691,-0.00015935,0.00013324,0
 .00000219,-0.00041859,-0.00052048,-0.00046227,0.00004315,-0.00017800,-
 0.00000156,-0.00008714,0.00007462,0.00004406,0.00008663,0.00002982,0.0
 0000932,0.00003247,-0.00008023,0.00001174,0.00007673,0.00007109,-0.000
 24352,0.00003324,-0.00016641,-0.00008095,0.00013163,0.00048238,-0.0000
 2138,0.00005050,-0.00003566,0.00003269,0.00011759,-0.00003159,0.000108
 35,0.00001252,0.00005049,0.00000305,-0.00000409,0.00000284,-0.00000477
 ,0.00066597,0.00054899,-0.00042709,0.00047530,-0.00004697,-0.00014471,
 -0.00074271,-0.00046392,-0.00103969,-0.00000271,0.00000473,-0.00000455
 ,0.00000505,0.00000898,-0.00000108,-0.00000418,0.00001718,-0.00000193,
 -0.10867327,-0.15247653,0.09130870,-0.00000236,0.00023439,0.00096956,0
 .00001361,0.00010811,0.00016943,-0.00004677,-0.00006299,-0.00001165,-0
 .00009142,0.00010905,-0.00000624,0.00002186,0.00001046,0.00003110,-0.0
 0002036,-0.00001680,-0.00002420,0.00000091,0.00000464,0.00000828,0.000
 01680,0.00001016,0.00001213,0.00008864,-0.00178346,0.00189725,-0.01819
 133,-0.01260007,0.01252102,0.11220981,0.15828133,0.02142897,0.01658643
 ,-0.02050507,-0.00069665,0.00201967,0.00017295,0.00019461,0.00009093,0
 .00021715,0.00016050,0.00034382,-0.00062801,-0.00134098,-0.00343366,-0
 .00343041,-0.00003241,0.00017688,0.00013419,0.00062378,-0.00120729,-0.
 00069889,-0.00000244,0.00045154,0.00030793,-0.00009823,0.00011802,0.00
 004273,0.00012346,0.00010707,0.00003230,-0.00014598,-0.00017669,-0.000
 05047,-0.00042836,-0.00013558,0.00025227,0.00022538,-0.00006000,0.0001
 1670,-0.00012953,-0.00017877,-0.00001064,0.00015913,-0.00010873,0.0000
 8770,0.00022083,-0.00017944,0.00015445,-0.00004547,0.00004634,0.000033
 23,-0.00001339,-0.00005120,-0.00000095,0.00119692,0.00051706,-0.000656
 93,0.00005053,-0.00031072,0.00049560,-0.00116911,-0.00059494,-0.000317
 97,-0.00000708,0.00004574,0.00001999,-0.00001026,0.00000346,0.00000958
 ,-0.00001379,0.00005770,0.00003253,0.08517982,0.08019339,-0.12046620,0
 .00088332,0.00056142,0.00057681,-0.00003944,0.00006559,-0.00027917,0.0
 0003778,0.00006674,0.00001107,-0.00009282,0.00001310,-0.00003571,-0.00
 012734,0.00005333,0.00001158,0.00006808,-0.00002363,0.00000066,-0.0000
 0316,0.00000316,-0.00000585,-0.00000430,0.00000294,0.00001130,-0.01006
 736,-0.01001799,0.01034231,0.00297935,0.00267120,-0.00186916,-0.099064
 34,-0.08771688,0.13589241\\0.00000672,-0.00002380,0.00002657,0.0000019
 3,0.00001900,0.00000883,0.00000076,-0.00001085,-0.00000534,-0.00001269
 ,0.00000569,0.00000116,0.00002281,0.00000776,0.00000054,-0.00000277,-0
 .00000525,-0.00000270,0.00000822,0.00000893,-0.00000106,-0.00000228,-0
 .00001207,-0.00000772,-0.00000616,0.00000931,0.00001235,0.00001321,0.0
 0000523,-0.00000312,-0.00000841,-0.00001698,-0.00001021,0.00000222,0.0
 0000460,-0.00000555,-0.00000743,-0.00000433,0.00001716,-0.00000965,-0.
 00000072,0.00000150,0.00000505,-0.00000271,-0.00000036,-0.00000118,0.0
 0000376,-0.00000014,0.00000150,0.00000430,0.00000266,-0.00000099,0.000
 00068,0.00000262,-0.00000279,-0.00000649,-0.00000317,0.00000127,0.0000
 0211,-0.00000399,0.00000570,0.00000137,0.00000625,0.00000109,-0.000000
 16,-0.00000349,-0.00000283,-0.00000147,0.00000074,-0.00000102,0.000002
 97,0.00000362,0.00000333,0.00001278,-0.00000860,-0.00003536,0.00001643
 ,-0.00002065,-0.00000349,-0.00001205,0.00001175,0.00001344,0.00000285,
 0.00000140,0.00000218,-0.00000189,-0.00000455,0.00001850,0.00000057,-0
 .00001181,-0.00001992,0.00000961,-0.00000338,0.00000434,-0.00000437,-0
 .00000205,0.00000571,-0.00000228,0.00000537,-0.00000302,0.00000025,0.0
 0000232,0.00000210,-0.00000611,-0.00000234,-0.00000004,-0.00000666,-0.
 00000460\\\@


 THOSE WITH THE GOLD MAKE THE RULES.

             -- PETER'S GOLDEN RULE
 Job cpu time:       0 days 22 hours 43 minutes 37.4 seconds.
 Elapsed time:       0 days  0 hours 48 minutes 47.5 seconds.
 File lengths (MBytes):  RWF=   1060 Int=      0 D2E=      0 Chk=     28 Scr=      8
 Normal termination of Gaussian 16 at Mon Jul 12 15:41:00 2021.
