 Entering Gaussian System, Link 0=g16
 Input=NicPySs3h4.gjf
 Output=NicPySs3h4.log
 Initial command:
 /sw/contrib/gaussian/g16/A03/g16/l1.exe "/gscratch/scrubbed/gds001/Gau-4001.inp" -scrdir="/gscratch/scrubbed/gds001/"
 Entering Link 1 = /sw/contrib/gaussian/g16/A03/g16/l1.exe PID=      4003.
  
 Copyright (c) 1988,1990,1992,1993,1995,1998,2003,2009,2016,
            Gaussian, Inc.  All Rights Reserved.
  
 This is part of the Gaussian(R) 16 program.  It is based on
 the Gaussian(R) 09 system (copyright 2009, Gaussian, Inc.),
 the Gaussian(R) 03 system (copyright 2003, Gaussian, Inc.),
 the Gaussian(R) 98 system (copyright 1998, Gaussian, Inc.),
 the Gaussian(R) 94 system (copyright 1995, Gaussian, Inc.),
 the Gaussian 92(TM) system (copyright 1992, Gaussian, Inc.),
 the Gaussian 90(TM) system (copyright 1990, Gaussian, Inc.),
 the Gaussian 88(TM) system (copyright 1988, Gaussian, Inc.),
 the Gaussian 86(TM) system (copyright 1986, Carnegie Mellon
 University), and the Gaussian 82(TM) system (copyright 1983,
 Carnegie Mellon University). Gaussian is a federally registered
 trademark of Gaussian, Inc.
  
 This software contains proprietary and confidential information,
 including trade secrets, belonging to Gaussian, Inc.
  
 This software is provided under written license and may be
 used, copied, transmitted, or stored only in accord with that
 written license.
  
 The following legend is applicable only to US Government
 contracts under FAR:
  
                    RESTRICTED RIGHTS LEGEND
  
 Use, reproduction and disclosure by the US Government is
 subject to restrictions as set forth in subparagraphs (a)
 and (c) of the Commercial Computer Software - Restricted
 Rights clause in FAR 52.227-19.
  
 Gaussian, Inc.
 340 Quinnipiac St., Bldg. 40, Wallingford CT 06492
  
  
 ---------------------------------------------------------------
 Warning -- This program may not be used in any manner that
 competes with the business of Gaussian, Inc. or will provide
 assistance to any competitor of Gaussian, Inc.  The licensee
 of this program is prohibited from giving any competitor of
 Gaussian, Inc. access to this program.  By using this program,
 the user acknowledges that Gaussian, Inc. is engaged in the
 business of creating and licensing software in the field of
 computational chemistry and represents and warrants to the
 licensee that it is not a competitor of Gaussian, Inc. and that
 it will not use this program in any manner prohibited above.
 ---------------------------------------------------------------
  

 Cite this work as:
 Gaussian 16, Revision A.03,
 M. J. Frisch, G. W. Trucks, H. B. Schlegel, G. E. Scuseria, 
 M. A. Robb, J. R. Cheeseman, G. Scalmani, V. Barone, 
 G. A. Petersson, H. Nakatsuji, X. Li, M. Caricato, A. V. Marenich, 
 J. Bloino, B. G. Janesko, R. Gomperts, B. Mennucci, H. P. Hratchian, 
 J. V. Ortiz, A. F. Izmaylov, J. L. Sonnenberg, D. Williams-Young, 
 F. Ding, F. Lipparini, F. Egidi, J. Goings, B. Peng, A. Petrone, 
 T. Henderson, D. Ranasinghe, V. G. Zakrzewski, J. Gao, N. Rega, 
 G. Zheng, W. Liang, M. Hada, M. Ehara, K. Toyota, R. Fukuda, 
 J. Hasegawa, M. Ishida, T. Nakajima, Y. Honda, O. Kitao, H. Nakai, 
 T. Vreven, K. Throssell, J. A. Montgomery, Jr., J. E. Peralta, 
 F. Ogliaro, M. J. Bearpark, J. J. Heyd, E. N. Brothers, K. N. Kudin, 
 V. N. Staroverov, T. A. Keith, R. Kobayashi, J. Normand, 
 K. Raghavachari, A. P. Rendell, J. C. Burant, S. S. Iyengar, 
 J. Tomasi, M. Cossi, J. M. Millam, M. Klene, C. Adamo, R. Cammi, 
 J. W. Ochterski, R. L. Martin, K. Morokuma, O. Farkas, 
 J. B. Foresman, and D. J. Fox, Gaussian, Inc., Wallingford CT, 2016.
 
 ******************************************
 Gaussian 16:  ES64L-G16RevA.03 25-Dec-2016
                26-Jan-2023 
 ******************************************
 %nprocshared=28
 Will use up to   28 processors via shared memory.
 %mem=41GB
 -----------------------------
 # wB97XD/aug-cc-pVDZ opt freq
 -----------------------------
 1/18=20,19=15,26=3,38=1/1,3;
 2/9=110,12=2,17=6,18=5,40=1/2;
 3/5=16,7=10,11=2,25=1,30=1,71=1,74=-58/1,2,3;
 4//1;
 5/5=2,38=5/2;
 6/7=2,8=2,9=2,10=2,28=1/1;
 7//1,2,3,16;
 1/18=20,19=15,26=3/3(2);
 2/9=110/2;
 99//99;
 2/9=110/2;
 3/5=16,7=10,11=2,25=1,30=1,71=1,74=-58/1,2,3;
 4/5=5,16=3,69=1/1;
 5/5=2,38=5/2;
 7//1,2,3,16;
 1/18=20,19=15,26=3/3(-5);
 2/9=110/2;
 6/7=2,8=2,9=2,10=2,19=2,28=1/1;
 99/9=1/99;
 ----
 blah
 ----
 Symbolic Z-matrix:
 Charge =  1 Multiplicity = 1
 C                    -2.50876   0.06566  -1.58309 
 C                    -1.70274  -0.50752  -0.38819 
 N                    -2.64985  -0.52006   0.71485 
 C                    -3.92686  -0.91146   0.12266 
 C                    -3.98952  -0.0969   -1.16839 
 C                    -0.48221   0.31805  -0.05738 
 C                     0.78282  -0.06684  -0.46843 
 N                     1.85533   0.70004  -0.20409 
 C                     1.76876   1.85621   0.46885 
 C                     0.53475   2.29429   0.91854 
 C                    -0.59181   1.52081   0.65278 
 C                    -2.24395  -1.3512    1.83307 
 H                    -1.36633  -1.53679  -0.63569 
 H                    -2.25756   1.11919  -1.75454 
 H                    -2.26511  -0.47933  -2.50197 
 H                    -4.44162   0.88266  -0.97697 
 H                    -4.58529  -0.59539  -1.93986 
 H                    -3.94216  -1.99799  -0.09909 
 H                    -4.74831  -0.69766   0.81645 
 H                    -1.57824   1.82571   1.00233 
 H                     2.6991    2.39517   0.63 
 H                     2.797     0.37663  -0.53374 
 H                     0.97649  -0.98911  -1.01255 
 H                    -1.30329  -0.98212   2.26341 
 H                    -2.10216  -2.41021   1.53823 
 H                    -3.00912  -1.31006   2.61666 
 H                     0.46349   3.2291    1.46962 
 O                     4.25415  -0.13964  -1.0433 
 H                     4.89307  -0.67249  -0.52637 
 H                     4.6768    0.06818  -1.87949 
 O                     5.98415  -1.64871   0.40105 
 H                     6.14293  -2.58343   0.24345 
 H                     6.76253  -1.32176   0.86036 
 O                     6.60882  -4.28773   0.0204 
 H                     6.90449  -4.77051  -0.77067 
 H                     6.22643  -4.99405   0.57005 
 
 Add virtual bond connecting atoms O28        and H22        Dist= 3.08D+00.
 Add virtual bond connecting atoms O31        and H29        Dist= 3.28D+00.
 Add virtual bond connecting atoms O34        and H32        Dist= 3.37D+00.

 GradGradGradGradGradGradGradGradGradGradGradGradGradGradGradGradGradGrad
 Berny optimization.
 Initialization pass.
                           ----------------------------
                           !    Initial Parameters    !
                           ! (Angstroms and Degrees)  !
 --------------------------                            --------------------------
 ! Name  Definition              Value          Derivative Info.                !
 --------------------------------------------------------------------------------
 ! R1    R(1,2)                  1.5511         estimate D2E/DX2                !
 ! R2    R(1,5)                  1.5463         estimate D2E/DX2                !
 ! R3    R(1,14)                 1.0966         estimate D2E/DX2                !
 ! R4    R(1,15)                 1.0958         estimate D2E/DX2                !
 ! R5    R(2,3)                  1.4539         estimate D2E/DX2                !
 ! R6    R(2,6)                  1.5102         estimate D2E/DX2                !
 ! R7    R(2,13)                 1.1108         estimate D2E/DX2                !
 ! R8    R(3,4)                  1.461          estimate D2E/DX2                !
 ! R9    R(3,12)                 1.4512         estimate D2E/DX2                !
 ! R10   R(4,5)                  1.5278         estimate D2E/DX2                !
 ! R11   R(4,18)                 1.109          estimate D2E/DX2                !
 ! R12   R(4,19)                 1.0963         estimate D2E/DX2                !
 ! R13   R(5,16)                 1.0957         estimate D2E/DX2                !
 ! R14   R(5,17)                 1.0948         estimate D2E/DX2                !
 ! R15   R(6,7)                  1.3847         estimate D2E/DX2                !
 ! R16   R(6,11)                 1.4011         estimate D2E/DX2                !
 ! R17   R(7,8)                  1.3447         estimate D2E/DX2                !
 ! R18   R(7,23)                 1.0882         estimate D2E/DX2                !
 ! R19   R(8,9)                  1.3405         estimate D2E/DX2                !
 ! R20   R(8,22)                 1.0488         estimate D2E/DX2                !
 ! R21   R(9,10)                 1.3845         estimate D2E/DX2                !
 ! R22   R(9,21)                 1.0872         estimate D2E/DX2                !
 ! R23   R(10,11)                1.3921         estimate D2E/DX2                !
 ! R24   R(10,27)                1.0875         estimate D2E/DX2                !
 ! R25   R(11,20)                1.09           estimate D2E/DX2                !
 ! R26   R(12,24)                1.0983         estimate D2E/DX2                !
 ! R27   R(12,25)                1.1084         estimate D2E/DX2                !
 ! R28   R(12,26)                1.096          estimate D2E/DX2                !
 ! R29   R(22,28)                1.6277         estimate D2E/DX2                !
 ! R30   R(28,29)                0.9795         estimate D2E/DX2                !
 ! R31   R(28,30)                0.9597         estimate D2E/DX2                !
 ! R32   R(29,31)                1.7331         estimate D2E/DX2                !
 ! R33   R(31,32)                0.9611         estimate D2E/DX2                !
 ! R34   R(31,33)                0.9611         estimate D2E/DX2                !
 ! R35   R(32,34)                1.7809         estimate D2E/DX2                !
 ! R36   R(34,35)                0.9728         estimate D2E/DX2                !
 ! R37   R(34,36)                0.9733         estimate D2E/DX2                !
 ! A1    A(2,1,5)              104.6056         estimate D2E/DX2                !
 ! A2    A(2,1,14)             110.8814         estimate D2E/DX2                !
 ! A3    A(2,1,15)             110.2831         estimate D2E/DX2                !
 ! A4    A(5,1,14)             111.2415         estimate D2E/DX2                !
 ! A5    A(5,1,15)             112.6771         estimate D2E/DX2                !
 ! A6    A(14,1,15)            107.2056         estimate D2E/DX2                !
 ! A7    A(1,2,3)              104.4257         estimate D2E/DX2                !
 ! A8    A(1,2,6)              112.7497         estimate D2E/DX2                !
 ! A9    A(1,2,13)             109.1561         estimate D2E/DX2                !
 ! A10   A(3,2,6)              111.4079         estimate D2E/DX2                !
 ! A11   A(3,2,13)             110.9981         estimate D2E/DX2                !
 ! A12   A(6,2,13)             108.0944         estimate D2E/DX2                !
 ! A13   A(2,3,4)              105.3181         estimate D2E/DX2                !
 ! A14   A(2,3,12)             114.0371         estimate D2E/DX2                !
 ! A15   A(4,3,12)             113.7887         estimate D2E/DX2                !
 ! A16   A(3,4,5)              103.6226         estimate D2E/DX2                !
 ! A17   A(3,4,18)             110.8277         estimate D2E/DX2                !
 ! A18   A(3,4,19)             110.2532         estimate D2E/DX2                !
 ! A19   A(5,4,18)             110.6591         estimate D2E/DX2                !
 ! A20   A(5,4,19)             113.5822         estimate D2E/DX2                !
 ! A21   A(18,4,19)            107.8949         estimate D2E/DX2                !
 ! A22   A(1,5,4)              104.0871         estimate D2E/DX2                !
 ! A23   A(1,5,16)             110.3643         estimate D2E/DX2                !
 ! A24   A(1,5,17)             112.3335         estimate D2E/DX2                !
 ! A25   A(4,5,16)             110.2387         estimate D2E/DX2                !
 ! A26   A(4,5,17)             112.0255         estimate D2E/DX2                !
 ! A27   A(16,5,17)            107.7964         estimate D2E/DX2                !
 ! A28   A(2,6,7)              121.4244         estimate D2E/DX2                !
 ! A29   A(2,6,11)             121.1377         estimate D2E/DX2                !
 ! A30   A(7,6,11)             117.4225         estimate D2E/DX2                !
 ! A31   A(6,7,8)              120.7818         estimate D2E/DX2                !
 ! A32   A(6,7,23)             123.134          estimate D2E/DX2                !
 ! A33   A(8,7,23)             116.084          estimate D2E/DX2                !
 ! A34   A(7,8,9)              122.6179         estimate D2E/DX2                !
 ! A35   A(7,8,22)             118.5844         estimate D2E/DX2                !
 ! A36   A(9,8,22)             118.7969         estimate D2E/DX2                !
 ! A37   A(8,9,10)             119.5707         estimate D2E/DX2                !
 ! A38   A(8,9,21)             116.5326         estimate D2E/DX2                !
 ! A39   A(10,9,21)            123.8963         estimate D2E/DX2                !
 ! A40   A(9,10,11)            118.9106         estimate D2E/DX2                !
 ! A41   A(9,10,27)            119.669          estimate D2E/DX2                !
 ! A42   A(11,10,27)           121.4204         estimate D2E/DX2                !
 ! A43   A(6,11,10)            120.6925         estimate D2E/DX2                !
 ! A44   A(6,11,20)            118.2588         estimate D2E/DX2                !
 ! A45   A(10,11,20)           121.0431         estimate D2E/DX2                !
 ! A46   A(3,12,24)            110.4275         estimate D2E/DX2                !
 ! A47   A(3,12,25)            112.2109         estimate D2E/DX2                !
 ! A48   A(3,12,26)            109.5201         estimate D2E/DX2                !
 ! A49   A(24,12,25)           108.4052         estimate D2E/DX2                !
 ! A50   A(24,12,26)           107.7703         estimate D2E/DX2                !
 ! A51   A(25,12,26)           108.3824         estimate D2E/DX2                !
 ! A52   A(22,28,29)           126.2478         estimate D2E/DX2                !
 ! A53   A(22,28,30)           126.7497         estimate D2E/DX2                !
 ! A54   A(29,28,30)           106.8809         estimate D2E/DX2                !
 ! A55   A(29,31,32)           124.3381         estimate D2E/DX2                !
 ! A56   A(29,31,33)           125.0277         estimate D2E/DX2                !
 ! A57   A(32,31,33)           105.9868         estimate D2E/DX2                !
 ! A58   A(32,34,35)           131.02           estimate D2E/DX2                !
 ! A59   A(32,34,36)           121.4002         estimate D2E/DX2                !
 ! A60   A(35,34,36)           102.6215         estimate D2E/DX2                !
 ! A61   L(8,22,28,23,-1)      179.5513         estimate D2E/DX2                !
 ! A62   L(28,29,31,24,-1)     178.5001         estimate D2E/DX2                !
 ! A63   L(31,32,34,13,-1)     185.8924         estimate D2E/DX2                !
 ! A64   L(8,22,28,23,-2)      180.3209         estimate D2E/DX2                !
 ! A65   L(28,29,31,24,-2)     179.0218         estimate D2E/DX2                !
 ! A66   L(31,32,34,13,-2)     181.3128         estimate D2E/DX2                !
 ! D1    D(5,1,2,3)            -18.0601         estimate D2E/DX2                !
 ! D2    D(5,1,2,6)           -139.161          estimate D2E/DX2                !
 ! D3    D(5,1,2,13)           100.6939         estimate D2E/DX2                !
 ! D4    D(14,1,2,3)           101.9485         estimate D2E/DX2                !
 ! D5    D(14,1,2,6)           -19.1525         estimate D2E/DX2                !
 ! D6    D(14,1,2,13)         -139.2976         estimate D2E/DX2                !
 ! D7    D(15,1,2,3)          -139.4632         estimate D2E/DX2                !
 ! D8    D(15,1,2,6)            99.4359         estimate D2E/DX2                !
 ! D9    D(15,1,2,13)          -20.7092         estimate D2E/DX2                !
 ! D10   D(2,1,5,4)             -7.4487         estimate D2E/DX2                !
 ! D11   D(2,1,5,16)           110.8183         estimate D2E/DX2                !
 ! D12   D(2,1,5,17)          -128.8544         estimate D2E/DX2                !
 ! D13   D(14,1,5,4)          -127.216          estimate D2E/DX2                !
 ! D14   D(14,1,5,16)           -8.9489         estimate D2E/DX2                !
 ! D15   D(14,1,5,17)          111.3784         estimate D2E/DX2                !
 ! D16   D(15,1,5,4)           112.3617         estimate D2E/DX2                !
 ! D17   D(15,1,5,16)         -129.3712         estimate D2E/DX2                !
 ! D18   D(15,1,5,17)           -9.0439         estimate D2E/DX2                !
 ! D19   D(1,2,3,4)             38.2797         estimate D2E/DX2                !
 ! D20   D(1,2,3,12)           163.7372         estimate D2E/DX2                !
 ! D21   D(6,2,3,4)            160.2673         estimate D2E/DX2                !
 ! D22   D(6,2,3,12)           -74.2752         estimate D2E/DX2                !
 ! D23   D(13,2,3,4)           -79.2146         estimate D2E/DX2                !
 ! D24   D(13,2,3,12)           46.2429         estimate D2E/DX2                !
 ! D25   D(1,2,6,7)           -100.7762         estimate D2E/DX2                !
 ! D26   D(1,2,6,11)            77.758          estimate D2E/DX2                !
 ! D27   D(3,2,6,7)            142.1872         estimate D2E/DX2                !
 ! D28   D(3,2,6,11)           -39.2786         estimate D2E/DX2                !
 ! D29   D(13,2,6,7)            19.9776         estimate D2E/DX2                !
 ! D30   D(13,2,6,11)         -161.4882         estimate D2E/DX2                !
 ! D31   D(2,3,4,5)            -43.387          estimate D2E/DX2                !
 ! D32   D(2,3,4,18)            75.3371         estimate D2E/DX2                !
 ! D33   D(2,3,4,19)          -165.2705         estimate D2E/DX2                !
 ! D34   D(12,3,4,5)          -168.9986         estimate D2E/DX2                !
 ! D35   D(12,3,4,18)          -50.2746         estimate D2E/DX2                !
 ! D36   D(12,3,4,19)           69.1178         estimate D2E/DX2                !
 ! D37   D(2,3,12,24)           61.7017         estimate D2E/DX2                !
 ! D38   D(2,3,12,25)          -59.3627         estimate D2E/DX2                !
 ! D39   D(2,3,12,26)         -179.771          estimate D2E/DX2                !
 ! D40   D(4,3,12,24)         -177.4527         estimate D2E/DX2                !
 ! D41   D(4,3,12,25)           61.483          estimate D2E/DX2                !
 ! D42   D(4,3,12,26)          -58.9253         estimate D2E/DX2                !
 ! D43   D(3,4,5,1)             30.3109         estimate D2E/DX2                !
 ! D44   D(3,4,5,16)           -88.0425         estimate D2E/DX2                !
 ! D45   D(3,4,5,17)           151.9213         estimate D2E/DX2                !
 ! D46   D(18,4,5,1)           -88.5294         estimate D2E/DX2                !
 ! D47   D(18,4,5,16)          153.1172         estimate D2E/DX2                !
 ! D48   D(18,4,5,17)           33.081          estimate D2E/DX2                !
 ! D49   D(19,4,5,1)           149.9434         estimate D2E/DX2                !
 ! D50   D(19,4,5,16)           31.59           estimate D2E/DX2                !
 ! D51   D(19,4,5,17)          -88.4461         estimate D2E/DX2                !
 ! D52   D(2,6,7,8)            177.8312         estimate D2E/DX2                !
 ! D53   D(2,6,7,23)            -2.3215         estimate D2E/DX2                !
 ! D54   D(11,6,7,8)            -0.7554         estimate D2E/DX2                !
 ! D55   D(11,6,7,23)          179.0918         estimate D2E/DX2                !
 ! D56   D(2,6,11,10)         -178.0958         estimate D2E/DX2                !
 ! D57   D(2,6,11,20)            2.7562         estimate D2E/DX2                !
 ! D58   D(7,6,11,10)            0.4951         estimate D2E/DX2                !
 ! D59   D(7,6,11,20)         -178.6529         estimate D2E/DX2                !
 ! D60   D(6,7,8,9)              0.501          estimate D2E/DX2                !
 ! D61   D(6,7,8,22)          -179.8395         estimate D2E/DX2                !
 ! D62   D(23,7,8,9)          -179.3566         estimate D2E/DX2                !
 ! D63   D(23,7,8,22)            0.3029         estimate D2E/DX2                !
 ! D64   D(7,8,9,10)             0.0503         estimate D2E/DX2                !
 ! D65   D(7,8,9,21)           179.807          estimate D2E/DX2                !
 ! D66   D(22,8,9,10)         -179.6085         estimate D2E/DX2                !
 ! D67   D(22,8,9,21)            0.1482         estimate D2E/DX2                !
 ! D68   D(7,8,28,29)          -92.7436         estimate D2E/DX2                !
 ! D69   D(7,8,28,30)           91.5384         estimate D2E/DX2                !
 ! D70   D(9,8,28,29)           86.7367         estimate D2E/DX2                !
 ! D71   D(9,8,28,30)          -88.9812         estimate D2E/DX2                !
 ! D72   D(8,9,10,11)           -0.3064         estimate D2E/DX2                !
 ! D73   D(8,9,10,27)          179.6464         estimate D2E/DX2                !
 ! D74   D(21,9,10,11)         179.9558         estimate D2E/DX2                !
 ! D75   D(21,9,10,27)          -0.0914         estimate D2E/DX2                !
 ! D76   D(9,10,11,6)            0.0236         estimate D2E/DX2                !
 ! D77   D(9,10,11,20)         179.1476         estimate D2E/DX2                !
 ! D78   D(27,10,11,6)        -179.9284         estimate D2E/DX2                !
 ! D79   D(27,10,11,20)         -0.8043         estimate D2E/DX2                !
 ! D80   D(22,28,31,32)        105.7276         estimate D2E/DX2                !
 ! D81   D(22,28,31,33)       -101.2887         estimate D2E/DX2                !
 ! D82   D(30,28,31,32)        -77.2173         estimate D2E/DX2                !
 ! D83   D(30,28,31,33)         75.7663         estimate D2E/DX2                !
 ! D84   D(29,31,34,35)         51.6208         estimate D2E/DX2                !
 ! D85   D(29,31,34,36)       -101.931          estimate D2E/DX2                !
 ! D86   D(33,31,34,35)       -103.6237         estimate D2E/DX2                !
 ! D87   D(33,31,34,36)        102.8245         estimate D2E/DX2                !
 --------------------------------------------------------------------------------
 Trust Radius=3.00D-01 FncErr=1.00D-07 GrdErr=1.00D-06 EigMax=2.50D+02 EigMin=1.00D-04
 Number of steps in this run=    200 maximum allowed number of steps=    216.
 GradGradGradGradGradGradGradGradGradGradGradGradGradGradGradGradGradGrad

                          Input orientation:                          
 ---------------------------------------------------------------------
 Center     Atomic      Atomic             Coordinates (Angstroms)
 Number     Number       Type             X           Y           Z
 ---------------------------------------------------------------------
      1          6           0       -2.508755    0.065661   -1.583093
      2          6           0       -1.702739   -0.507517   -0.388190
      3          7           0       -2.649853   -0.520061    0.714850
      4          6           0       -3.926860   -0.911463    0.122663
      5          6           0       -3.989524   -0.096897   -1.168391
      6          6           0       -0.482208    0.318046   -0.057381
      7          6           0        0.782822   -0.066840   -0.468434
      8          7           0        1.855330    0.700040   -0.204086
      9          6           0        1.768764    1.856207    0.468846
     10          6           0        0.534754    2.294295    0.918544
     11          6           0       -0.591810    1.520811    0.652776
     12          6           0       -2.243947   -1.351195    1.833069
     13          1           0       -1.366325   -1.536793   -0.635687
     14          1           0       -2.257561    1.119194   -1.754538
     15          1           0       -2.265105   -0.479331   -2.501973
     16          1           0       -4.441619    0.882661   -0.976967
     17          1           0       -4.585292   -0.595388   -1.939859
     18          1           0       -3.942160   -1.997989   -0.099085
     19          1           0       -4.748313   -0.697657    0.816451
     20          1           0       -1.578244    1.825706    1.002332
     21          1           0        2.699099    2.395170    0.629995
     22          1           0        2.797003    0.376629   -0.533743
     23          1           0        0.976489   -0.989108   -1.012545
     24          1           0       -1.303294   -0.982123    2.263405
     25          1           0       -2.102156   -2.410207    1.538229
     26          1           0       -3.009123   -1.310057    2.616660
     27          1           0        0.463491    3.229102    1.469620
     28          8           0        4.254153   -0.139640   -1.043304
     29          1           0        4.893071   -0.672489   -0.526366
     30          1           0        4.676796    0.068180   -1.879494
     31          8           0        5.984154   -1.648714    0.401048
     32          1           0        6.142934   -2.583427    0.243448
     33          1           0        6.762525   -1.321755    0.860362
     34          8           0        6.608824   -4.287735    0.020401
     35          1           0        6.904486   -4.770510   -0.770666
     36          1           0        6.226434   -4.994055    0.570050
 ---------------------------------------------------------------------
                    Distance matrix (angstroms):
                    1          2          3          4          5
     1  C    0.000000
     2  C    1.551125   0.000000
     3  N    2.375610   1.453919   0.000000
     4  C    2.423922   2.317511   1.461037   0.000000
     5  C    1.546312   2.450859   2.349549   1.527830   0.000000
     6  C    2.549194   1.510194   2.448969   3.661931   3.702403
     7  C    3.477715   2.525599   3.659075   4.821192   4.823498
     8  N    4.620534   3.761907   4.757075   6.011441   5.977233
     9  C    5.070866   4.286378   5.023081   6.341922   6.297066
    10  C    4.526361   3.816291   4.254858   5.551244   5.526499
    11  C    3.285004   2.536117   2.899061   4.161675   4.180680
    12  C    3.707798   2.436943   1.451192   2.439477   3.691756
    13  H    2.184166   1.110783   2.122531   2.742712   3.039448
    14  H    1.096551   2.195660   2.989804   3.230172   2.195937
    15  H    1.095775   2.187494   3.240006   3.136380   2.213214
    16  H    2.184225   3.127414   2.835542   2.166343   1.095704
    17  H    2.208229   3.274830   3.286195   2.188020   1.094804
    18  H    2.918147   2.705567   2.125281   1.109029   2.181699
    19  H    3.369879   3.280676   2.108411   1.096285   2.208228
    20  H    3.263132   2.719003   2.594921   3.712399   3.771301
    21  H    6.119323   5.370146   6.092377   7.422570   7.360861
    22  H    5.417463   4.588091   5.659618   6.877527   6.832566
    23  H    3.685782   2.792850   4.044039   5.033643   5.047932
    24  H    4.164917   2.723190   2.103508   3.386867   4.447098
    25  H    4.004734   2.736942   2.133208   2.753108   4.029808
    26  H    4.447572   3.373401   2.090466   2.687218   4.093843
    27  H    5.306662   4.701737   4.931411   6.183345   6.152293
    28  O    6.787521   6.004088   7.134502   8.299648   8.244737
    29  H    7.513226   6.599320   7.645885   8.847007   8.924349
    30  H    7.191662   6.576768   7.794641   8.887701   8.697012
    31  O    8.888498   7.811117   8.713117   9.942295  10.214966
    32  H    9.230690   8.140206   9.043937  10.208369  10.528192
    33  H    9.687726   8.595497   9.447579  10.722662  11.010117
    34  O   10.230029   9.139971  10.020016  11.063919  11.458679
    35  H   10.614033   9.612686  10.562125  11.532924  11.860873
    36  H   10.321835   9.160733   9.941129  10.952492  11.461681
                    6          7          8          9         10
     6  C    0.000000
     7  C    1.384703   0.000000
     8  N    2.373084   1.344715   0.000000
     9  C    2.776640   2.355565   1.340542   0.000000
    10  C    2.427386   2.749583   2.354967   1.384532   0.000000
    11  C    1.401064   2.380622   2.719627   2.391366   1.392141
    12  C    3.076344   4.013454   5.016138   5.315109   4.674092
    13  H    2.134603   2.609132   3.945727   4.749866   4.550491
    14  H    2.583420   3.507801   4.415367   4.658102   4.040205
    15  H    3.128987   3.687179   4.863043   5.527441   5.218443
    16  H    4.103823   5.334317   6.346831   6.450351   5.509080
    17  H    4.605799   5.591163   6.795046   7.224002   6.537248
    18  H    4.163775   5.117735   6.395411   6.913178   6.285064
    19  H    4.471564   5.713345   6.826650   7.008234   6.072314
    20  H    2.144137   3.364449   3.809462   3.389395   2.165954
    21  H    3.861042   3.307591   2.069083   1.087186   2.185824
    22  H    3.314148   2.063457   1.048817   2.061944   3.302174
    23  H    2.179171   1.088183   2.068620   3.304245   3.834706
    24  H    2.784002   3.557045   4.346848   4.551274   3.990236
    25  H    3.551558   4.223880   5.326443   5.859171   5.428595
    26  H    4.023247   5.044030   5.971600   6.120991   5.332356
    27  H    3.420574   3.836829   3.336864   2.142458   1.087487
    28  O    4.859489   3.519363   2.676509   3.528053   4.858685
    29  H    5.485866   4.155035   3.348966   4.140778   5.466672
    30  H    5.477029   4.143954   3.341693   4.143476   5.471848
    31  O    6.774374   5.505650   4.788530   5.482571   6.746190
    32  H    7.238892   5.964125   5.418947   6.236547   7.463217
    33  H    7.484474   6.252788   5.413065   5.932148   7.201690
    34  O    8.455886   7.210909   6.893765   7.834239   9.001339
    35  H    8.998079   7.725971   7.466051   8.474988   9.661180
    36  H    8.580091   7.415443   7.220010   8.173564   9.254010
                   11         12         13         14         15
    11  C    0.000000
    12  C    3.517253   0.000000
    13  H    3.407191   2.626675   0.000000
    14  H    2.954858   4.355908   3.016686   0.000000
    15  H    4.093034   4.421898   2.325737   1.764652   0.000000
    16  H    4.228987   4.209059   3.927806   2.330381   2.986282
    17  H    5.210370   4.504234   3.598452   2.896975   2.390127
    18  H    4.916512   2.652450   2.671249   3.910911   3.300410
    19  H    4.714330   2.780732   3.775010   4.014322   4.150413
    20  H    1.090047   3.350520   3.746254   2.925912   4.250309
    21  H    3.405159   6.317938   5.795684   5.646467   6.535694
    22  H    3.768426   5.830811   4.583108   5.252653   5.498321
    23  H    3.395961   4.312752   2.435315   3.931230   3.603637
    24  H    3.060231   1.098286   2.952349   4.633576   4.887403
    25  H    4.303263   1.108396   2.455649   4.829403   4.480856
    26  H    4.208807   1.095993   3.650747   5.057023   5.238709
    27  H    2.167753   5.333051   5.522164   4.717100   6.080400
    28  O    5.396030   7.208793   5.805856   6.670303   6.689083
    29  H    6.023692   7.547490   6.319732   7.473291   7.428312
    30  H    6.023349   7.980879   6.375132   7.014667   6.991226
    31  O    7.304284   8.357084   7.424075   8.957328   8.822996
    32  H    7.897411   8.624678   7.632646   9.395194   9.091737
    33  H    7.887301   9.058894   8.268168   9.703499   9.670216
    34  O    9.272984   9.501610   8.461745  10.535562   9.980627
    35  H    9.889457  10.107669   8.881524  10.936166  10.270981
    36  H    9.430735   9.306610   8.429498  10.712315  10.095855
                   16         17         18         19         20
    16  H    0.000000
    17  H    1.769868   0.000000
    18  H    3.052586   2.401949   0.000000
    19  H    2.409941   2.763020   1.782962   0.000000
    20  H    3.606366   4.853918   4.628376   4.056014   0.000000
    21  H    7.473946   8.283112   7.996107   8.066244   4.331118
    22  H    7.269812   7.577616   7.158495   7.740084   4.858203
    23  H    5.732424   5.652286   5.103465   6.016937   4.302275
    24  H    4.881241   5.346822   3.684692   3.747366   3.090276
    25  H    4.758390   4.642912   2.497266   3.233564   4.301701
    26  H    4.446820   4.874108   2.952809   2.576930   3.806111
    27  H    5.962523   7.193155   7.013778   6.558122   2.521222
    28  O    8.755909   8.896477   8.457219   9.209477   6.485682
    29  H    9.474068   9.583490   8.944318   9.734479   7.103226
    30  H    9.199099   9.286024   9.040205   9.832970   7.107696
    31  O   10.816817  10.876697   9.945041  10.782528   8.344040
    32  H   11.204282  11.127172  10.107877  11.068140   8.923730
    33  H   11.565815  11.710756  10.768849  11.527828   8.916002
    34  O   12.240916  11.949237  10.797244  11.937626  10.264815
    35  H   12.678131  12.280621  11.215508  12.445674  10.890836
    36  H   12.277475  11.939067  10.621885  11.788334  10.373475
                   21         22         23         24         25
    21  H    0.000000
    22  H    2.332033   0.000000
    23  H    4.137470   2.325674   0.000000
    24  H    5.485735   5.146132   3.991154   0.000000
    25  H    6.853363   6.005105   4.243115   1.789828   0.000000
    26  H    7.089382   6.817701   5.399930   1.772620   1.787717
    27  H    2.529497   4.194680   4.921139   4.635304   6.195890
    28  O    3.412240   1.627720   3.386093   6.521451   7.226510
    29  H    3.944771   2.343972   3.959322   6.802473   7.497694
    30  H    3.952683   2.332340   3.944836   7.350389   7.986077
    31  O    5.215074   3.890216   5.245001   7.551133   8.201309
    32  H    6.065958   4.534447   5.550813   7.879766   8.347932
    33  H    5.511808   4.533586   6.090702   8.193980   8.956941
    34  O    7.766516   6.049243   6.608412   8.863394   9.039363
    35  H    8.425800   6.589430   7.035528   9.535466   9.592791
    36  H    8.188182   6.467117   6.790149   8.698267   8.773770
                   26         27         28         29         30
    26  H    0.000000
    27  H    5.829126   0.000000
    28  O    8.217079   5.659711   0.000000
    29  H    8.528175   6.231176   0.979474   0.000000
    30  H    9.010454   6.241789   0.959703   1.557665   0.000000
    31  O    9.268369   7.443968   2.712261   1.733082   3.139710
    32  H    9.540113   8.218580   3.345941   2.409659   3.699657
    33  H    9.928234   7.794827   3.363521   2.416489   3.713354
    34  O   10.397693   9.816730   4.886986   4.038906   5.129944
    35  H   11.033058  10.511855   5.342617   4.571570   5.441050
    36  H   10.151648  10.081718   5.482531   4.653591   5.833341
                   31         32         33         34         35
    31  O    0.000000
    32  H    0.961113   0.000000
    33  H    0.961110   1.535022   0.000000
    34  O    2.738528   1.780862   3.086453   0.000000
    35  H    3.459124   2.528185   3.817632   0.972766   0.000000
    36  H    3.358357   2.434084   3.722561   0.973255   1.518962
                   36
    36  H    0.000000
 Stoichiometry    C10H21N2O3(1+)
 Framework group  C1[X(C10H21N2O3)]
 Deg. of freedom   102
 Full point group                 C1      NOp   1
 Largest Abelian subgroup         C1      NOp   1
 Largest concise Abelian subgroup C1      NOp   1
                         Standard orientation:                         
 ---------------------------------------------------------------------
 Center     Atomic      Atomic             Coordinates (Angstroms)
 Number     Number       Type             X           Y           Z
 ---------------------------------------------------------------------
      1          6           0       -3.083519   -0.247899   -1.584319
      2          6           0       -2.171783   -0.630084   -0.389054
      3          7           0       -3.093496   -0.850782    0.713496
      4          6           0       -4.252916   -1.513251    0.120613
      5          6           0       -4.492515   -0.732129   -1.170397
      6          6           0       -1.162787    0.443558   -0.057537
      7          6           0        0.156109    0.346307   -0.467973
      8          7           0        1.033638    1.330171   -0.203000
      9          6           0        0.694668    2.438877    0.469996
     10          6           0       -0.605683    2.594842    0.919098
     11          6           0       -1.534492    1.592650    0.652676
     12          6           0       -2.515328   -1.572565    1.831846
     13          1           0       -1.617182   -1.560159   -0.636474
     14          1           0       -3.070021    0.835119   -1.755535
     15          1           0       -2.725564   -0.725797   -2.503124
     16          1           0       -5.149008    0.124023   -0.979114
     17          1           0       -4.963733   -1.349251   -1.942219
     18          1           0       -4.028848   -2.576509   -0.101245
     19          1           0       -5.101611   -1.485425    0.813997
     20          1           0       -2.563993    1.673133    1.001751
     21          1           0        1.483663    3.169165    0.631676
     22          1           0        2.023535    1.221780   -0.532201
     23          1           0        0.548072   -0.510703   -1.012071
     24          1           0       -1.679045   -1.005798    2.262702
     25          1           0       -2.144027   -2.574429    1.536980
     26          1           0       -3.271204   -1.700828    2.615046
     27          1           0       -0.880997    3.490994    1.470225
     28          8           0        3.558783    1.038620   -1.041058
     29          1           0        4.298971    0.659177   -0.523840
     30          1           0        3.925797    1.334449   -1.877010
     31          8           0        5.577543   -0.053464    0.404046
     32          1           0        5.938022   -0.930363    0.246440
     33          1           0        6.264760    0.436535    0.863792
     34          8           0        6.767333   -2.490491    0.023473
     35          1           0        7.162286   -2.896286   -0.767486
     36          1           0        6.549326   -3.263713    0.572859
 ---------------------------------------------------------------------
 Rotational constants (GHZ):           0.7675518           0.1760942           0.1592283
 Standard basis: Aug-CC-pVDZ (5D, 7F)
 There are   564 symmetry adapted cartesian basis functions of A   symmetry.
 There are   534 symmetry adapted basis functions of A   symmetry.
   534 basis functions,   876 primitive gaussians,   564 cartesian basis functions
    59 alpha electrons       59 beta electrons
       nuclear repulsion energy       997.2099895848 Hartrees.
 NAtoms=   36 NActive=   36 NUniq=   36 SFac= 1.00D+00 NAtFMM=   60 NAOKFM=F Big=F
 Integral buffers will be    131072 words long.
 Raffenetti 2 integral format.
 Two-electron integral symmetry is turned on.
 Nuclear repulsion after empirical dispersion term =      997.1874793046 Hartrees.
 One-electron integrals computed using PRISM.
 NBasis=   534 RedAO= T EigKep=  2.48D-06  NBF=   534
 NBsUse=   534 1.00D-06 EigRej= -1.00D+00 NBFU=   534
 ExpMin= 2.97D-02 ExpMax= 1.17D+04 ExpMxC= 4.01D+02 IAcc=3 IRadAn=         5 AccDes= 0.00D+00
 Harris functional with IExCor= 4639 and IRadAn=       5 diagonalized for initial guess.
 HarFok:  IExCor= 4639 AccDes= 0.00D+00 IRadAn=         5 IDoV= 1 UseB2=F ITyADJ=14
 ICtDFT=  3500011 ScaDFX=  1.000000  1.000000  1.000000  1.000000
 FoFCou: FMM=F IPFlag=           0 FMFlag=      100000 FMFlg1=           0
         NFxFlg=           0 DoJE=T BraDBF=F KetDBF=T FulRan=T
         wScrn=  0.000000 ICntrl=       500 IOpCl=  0 I1Cent=   200000004 NGrid=           0
         NMat0=    1 NMatS0=      1 NMatT0=    0 NMatD0=    1 NMtDS0=    0 NMtDT0=    0
 Petite list used in FoFCou.
 Requested convergence on RMS density matrix=1.00D-08 within 128 cycles.
 Requested convergence on MAX density matrix=1.00D-06.
 Requested convergence on             energy=1.00D-06.
 No special actions if energy rises.
 SCF Done:  E(RwB97XD) =  -728.586080866     A.U. after   14 cycles
            NFock= 14  Conv=0.74D-08     -V/T= 2.0063

 **********************************************************************

            Population analysis using the SCF density.

 **********************************************************************

 Orbital symmetries:
       Occupied  (A) (A) (A) (A) (A) (A) (A) (A) (A) (A) (A) (A)
                 (A) (A) (A) (A) (A) (A) (A) (A) (A) (A) (A) (A)
                 (A) (A) (A) (A) (A) (A) (A) (A) (A) (A) (A) (A)
                 (A) (A) (A) (A) (A) (A) (A) (A) (A) (A) (A) (A)
                 (A) (A) (A) (A) (A) (A) (A) (A) (A) (A) (A)
       Virtual   (A) (A) (A) (A) (A) (A) (A) (A) (A) (A) (A) (A)
                 (A) (A) (A) (A) (A) (A) (A) (A) (A) (A) (A) (A)
                 (A) (A) (A) (A) (A) (A) (A) (A) (A) (A) (A) (A)
                 (A) (A) (A) (A) (A) (A) (A) (A) (A) (A) (A) (A)
                 (A) (A) (A) (A) (A) (A) (A) (A) (A) (A) (A) (A)
                 (A) (A) (A) (A) (A) (A) (A) (A) (A) (A) (A) (A)
                 (A) (A) (A) (A) (A) (A) (A) (A) (A) (A) (A) (A)
                 (A) (A) (A) (A) (A) (A) (A) (A) (A) (A) (A) (A)
                 (A) (A) (A) (A) (A) (A) (A) (A) (A) (A) (A) (A)
                 (A) (A) (A) (A) (A) (A) (A) (A) (A) (A) (A) (A)
                 (A) (A) (A) (A) (A) (A) (A) (A) (A) (A) (A) (A)
                 (A) (A) (A) (A) (A) (A) (A) (A) (A) (A) (A) (A)
                 (A) (A) (A) (A) (A) (A) (A) (A) (A) (A) (A) (A)
                 (A) (A) (A) (A) (A) (A) (A) (A) (A) (A) (A) (A)
                 (A) (A) (A) (A) (A) (A) (A) (A) (A) (A) (A) (A)
                 (A) (A) (A) (A) (A) (A) (A) (A) (A) (A) (A) (A)
                 (A) (A) (A) (A) (A) (A) (A) (A) (A) (A) (A) (A)
                 (A) (A) (A) (A) (A) (A) (A) (A) (A) (A) (A) (A)
                 (A) (A) (A) (A) (A) (A) (A) (A) (A) (A) (A) (A)
                 (A) (A) (A) (A) (A) (A) (A) (A) (A) (A) (A) (A)
                 (A) (A) (A) (A) (A) (A) (A) (A) (A) (A) (A) (A)
                 (A) (A) (A) (A) (A) (A) (A) (A) (A) (A) (A) (A)
                 (A) (A) (A) (A) (A) (A) (A) (A) (A) (A) (A) (A)
                 (A) (A) (A) (A) (A) (A) (A) (A) (A) (A) (A) (A)
                 (A) (A) (A) (A) (A) (A) (A) (A) (A) (A) (A) (A)
                 (A) (A) (A) (A) (A) (A) (A) (A) (A) (A) (A) (A)
                 (A) (A) (A) (A) (A) (A) (A) (A) (A) (A) (A) (A)
                 (A) (A) (A) (A) (A) (A) (A) (A) (A) (A) (A) (A)
                 (A) (A) (A) (A) (A) (A) (A) (A) (A) (A) (A) (A)
                 (A) (A) (A) (A) (A) (A) (A) (A) (A) (A) (A) (A)
                 (A) (A) (A) (A) (A) (A) (A) (A) (A) (A) (A) (A)
                 (A) (A) (A) (A) (A) (A) (A) (A) (A) (A) (A) (A)
                 (A) (A) (A) (A) (A) (A) (A) (A) (A) (A) (A) (A)
                 (A) (A) (A) (A) (A) (A) (A) (A) (A) (A) (A) (A)
                 (A) (A) (A) (A) (A) (A) (A) (A) (A) (A) (A) (A)
                 (A) (A) (A) (A) (A) (A) (A) (A) (A) (A) (A) (A)
                 (A) (A) (A) (A) (A) (A) (A) (A) (A) (A) (A) (A)
                 (A) (A) (A) (A) (A) (A) (A) (A) (A) (A) (A) (A)
                 (A) (A) (A) (A) (A) (A) (A) (A) (A) (A) (A) (A)
                 (A) (A) (A) (A) (A) (A) (A)
 The electronic state is 1-A.
 Alpha  occ. eigenvalues --  -19.39861 -19.39506 -19.37492 -14.67492 -14.54921
 Alpha  occ. eigenvalues --  -10.50837 -10.50489 -10.46946 -10.46556 -10.46456
 Alpha  occ. eigenvalues --  -10.44904 -10.41220 -10.41135 -10.40256 -10.38837
 Alpha  occ. eigenvalues --   -1.25735  -1.23998  -1.23609  -1.21672  -1.15431
 Alpha  occ. eigenvalues --   -1.07546  -1.04317  -0.98764  -0.94739  -0.90177
 Alpha  occ. eigenvalues --   -0.88498  -0.87238  -0.82449  -0.78142  -0.76991
 Alpha  occ. eigenvalues --   -0.75018  -0.74516  -0.73466  -0.73153  -0.73066
 Alpha  occ. eigenvalues --   -0.70302  -0.68531  -0.68165  -0.67478  -0.64273
 Alpha  occ. eigenvalues --   -0.63570  -0.62971  -0.62078  -0.61751  -0.59827
 Alpha  occ. eigenvalues --   -0.59109  -0.56876  -0.56755  -0.55865  -0.54969
 Alpha  occ. eigenvalues --   -0.53997  -0.53257  -0.52545  -0.52481  -0.52080
 Alpha  occ. eigenvalues --   -0.51066  -0.50458  -0.48645  -0.40985
 Alpha virt. eigenvalues --   -0.13760  -0.10208  -0.06550  -0.05155  -0.04491
 Alpha virt. eigenvalues --   -0.04295  -0.03614  -0.02797  -0.02639  -0.02517
 Alpha virt. eigenvalues --   -0.01895  -0.01366  -0.00950  -0.00759  -0.00680
 Alpha virt. eigenvalues --   -0.00003   0.00076   0.01152   0.01498   0.01784
 Alpha virt. eigenvalues --    0.01987   0.02324   0.02684   0.03370   0.03513
 Alpha virt. eigenvalues --    0.03567   0.03761   0.04074   0.04733   0.04987
 Alpha virt. eigenvalues --    0.05418   0.05502   0.05741   0.06143   0.06335
 Alpha virt. eigenvalues --    0.06569   0.07366   0.07480   0.07729   0.08083
 Alpha virt. eigenvalues --    0.08256   0.08388   0.08669   0.09240   0.09562
 Alpha virt. eigenvalues --    0.09651   0.10255   0.10514   0.10641   0.10953
 Alpha virt. eigenvalues --    0.11073   0.11528   0.12122   0.12197   0.12334
 Alpha virt. eigenvalues --    0.12691   0.12961   0.13410   0.13468   0.13946
 Alpha virt. eigenvalues --    0.14166   0.14472   0.14754   0.15359   0.15719
 Alpha virt. eigenvalues --    0.15776   0.16250   0.16680   0.16834   0.17113
 Alpha virt. eigenvalues --    0.17252   0.17383   0.17723   0.18189   0.18503
 Alpha virt. eigenvalues --    0.18873   0.19199   0.19349   0.19902   0.20119
 Alpha virt. eigenvalues --    0.20316   0.20666   0.20883   0.21175   0.21575
 Alpha virt. eigenvalues --    0.21843   0.22119   0.22632   0.22977   0.23494
 Alpha virt. eigenvalues --    0.23672   0.24129   0.24687   0.24843   0.25130
 Alpha virt. eigenvalues --    0.25464   0.25836   0.26158   0.26502   0.26886
 Alpha virt. eigenvalues --    0.27235   0.27382   0.27526   0.28184   0.28508
 Alpha virt. eigenvalues --    0.29190   0.29469   0.29567   0.30397   0.31016
 Alpha virt. eigenvalues --    0.31400   0.31760   0.32137   0.32291   0.32978
 Alpha virt. eigenvalues --    0.33247   0.33578   0.34178   0.34623   0.34628
 Alpha virt. eigenvalues --    0.35822   0.36007   0.36107   0.36728   0.37076
 Alpha virt. eigenvalues --    0.37384   0.37685   0.38312   0.38528   0.38869
 Alpha virt. eigenvalues --    0.39542   0.39827   0.40394   0.40992   0.41600
 Alpha virt. eigenvalues --    0.41859   0.42653   0.42880   0.43173   0.43402
 Alpha virt. eigenvalues --    0.43615   0.43881   0.43997   0.44919   0.45035
 Alpha virt. eigenvalues --    0.45906   0.45933   0.46356   0.46744   0.46925
 Alpha virt. eigenvalues --    0.47392   0.47658   0.47835   0.48095   0.48705
 Alpha virt. eigenvalues --    0.49936   0.50231   0.50292   0.50590   0.50767
 Alpha virt. eigenvalues --    0.51285   0.51576   0.51836   0.52170   0.52606
 Alpha virt. eigenvalues --    0.52743   0.53173   0.53871   0.53949   0.54289
 Alpha virt. eigenvalues --    0.54528   0.54699   0.55197   0.55771   0.56173
 Alpha virt. eigenvalues --    0.56733   0.57507   0.57730   0.57879   0.58167
 Alpha virt. eigenvalues --    0.59254   0.59951   0.60213   0.60479   0.61483
 Alpha virt. eigenvalues --    0.62043   0.62572   0.62889   0.63216   0.63891
 Alpha virt. eigenvalues --    0.64304   0.64462   0.64920   0.65298   0.65551
 Alpha virt. eigenvalues --    0.66165   0.66521   0.67467   0.68104   0.68736
 Alpha virt. eigenvalues --    0.68957   0.69486   0.69923   0.70425   0.70740
 Alpha virt. eigenvalues --    0.71173   0.71846   0.72034   0.72702   0.73137
 Alpha virt. eigenvalues --    0.73710   0.74178   0.74287   0.74572   0.75779
 Alpha virt. eigenvalues --    0.75892   0.76879   0.77028   0.77386   0.77813
 Alpha virt. eigenvalues --    0.78583   0.79301   0.79807   0.80049   0.80785
 Alpha virt. eigenvalues --    0.81028   0.81702   0.82189   0.82755   0.84038
 Alpha virt. eigenvalues --    0.84776   0.85634   0.85922   0.86506   0.87352
 Alpha virt. eigenvalues --    0.88028   0.88084   0.89584   0.90624   0.91545
 Alpha virt. eigenvalues --    0.92181   0.92460   0.93105   0.94279   0.94759
 Alpha virt. eigenvalues --    0.95478   0.96696   0.97573   0.97931   0.98333
 Alpha virt. eigenvalues --    0.99082   0.99224   1.00525   1.01151   1.01684
 Alpha virt. eigenvalues --    1.02802   1.03929   1.04404   1.05230   1.05846
 Alpha virt. eigenvalues --    1.06836   1.07378   1.07818   1.08923   1.09762
 Alpha virt. eigenvalues --    1.11348   1.11991   1.13204   1.15058   1.15847
 Alpha virt. eigenvalues --    1.16490   1.16600   1.17165   1.18123   1.18409
 Alpha virt. eigenvalues --    1.20762   1.22120   1.22217   1.23657   1.24383
 Alpha virt. eigenvalues --    1.25256   1.26057   1.26997   1.28257   1.29589
 Alpha virt. eigenvalues --    1.30243   1.31425   1.32021   1.32635   1.33363
 Alpha virt. eigenvalues --    1.34558   1.35799   1.36104   1.36900   1.37537
 Alpha virt. eigenvalues --    1.39044   1.39354   1.41856   1.42618   1.42897
 Alpha virt. eigenvalues --    1.43460   1.44286   1.44794   1.47155   1.47314
 Alpha virt. eigenvalues --    1.48380   1.48935   1.50768   1.51769   1.51986
 Alpha virt. eigenvalues --    1.53099   1.54573   1.55105   1.56833   1.57409
 Alpha virt. eigenvalues --    1.58778   1.60160   1.60574   1.62054   1.62767
 Alpha virt. eigenvalues --    1.63669   1.64946   1.65208   1.66261   1.66677
 Alpha virt. eigenvalues --    1.67798   1.68937   1.69061   1.70281   1.71693
 Alpha virt. eigenvalues --    1.72374   1.72663   1.73167   1.73466   1.74102
 Alpha virt. eigenvalues --    1.74488   1.76021   1.77989   1.78206   1.79209
 Alpha virt. eigenvalues --    1.79470   1.80047   1.80795   1.81917   1.82326
 Alpha virt. eigenvalues --    1.83063   1.84611   1.84867   1.86079   1.86283
 Alpha virt. eigenvalues --    1.87444   1.88461   1.89069   1.89561   1.90875
 Alpha virt. eigenvalues --    1.91537   1.92508   1.93510   1.94054   1.95639
 Alpha virt. eigenvalues --    1.95934   1.97093   1.97604   1.99298   1.99995
 Alpha virt. eigenvalues --    2.00467   2.01349   2.02914   2.03597   2.05952
 Alpha virt. eigenvalues --    2.06296   2.07011   2.08024   2.08676   2.09332
 Alpha virt. eigenvalues --    2.11418   2.12121   2.12248   2.14068   2.14471
 Alpha virt. eigenvalues --    2.15875   2.16512   2.17108   2.17784   2.18649
 Alpha virt. eigenvalues --    2.19919   2.20486   2.21651   2.22683   2.23076
 Alpha virt. eigenvalues --    2.24206   2.24896   2.26270   2.26815   2.27853
 Alpha virt. eigenvalues --    2.29478   2.30358   2.31026   2.33056   2.33520
 Alpha virt. eigenvalues --    2.35222   2.36214   2.37608   2.39762   2.41371
 Alpha virt. eigenvalues --    2.41698   2.43626   2.44708   2.45428   2.47534
 Alpha virt. eigenvalues --    2.48586   2.49550   2.50473   2.51657   2.52483
 Alpha virt. eigenvalues --    2.54735   2.55415   2.56016   2.56674   2.56911
 Alpha virt. eigenvalues --    2.58872   2.60808   2.61426   2.63631   2.64803
 Alpha virt. eigenvalues --    2.65568   2.65973   2.67526   2.68372   2.69397
 Alpha virt. eigenvalues --    2.70463   2.71473   2.73534   2.74517   2.75208
 Alpha virt. eigenvalues --    2.76407   2.78122   2.78716   2.82128   2.82297
 Alpha virt. eigenvalues --    2.83234   2.84580   2.86787   2.88295   2.90563
 Alpha virt. eigenvalues --    2.93045   2.96072   3.01680   3.04095   3.13258
 Alpha virt. eigenvalues --    3.14054   3.15769   3.21663   3.27022   3.28750
 Alpha virt. eigenvalues --    3.31506   3.33955   3.34547   3.36477   3.40434
 Alpha virt. eigenvalues --    3.42674   3.44126   3.48164   3.50030   3.50513
 Alpha virt. eigenvalues --    3.59462   3.64959   3.70252   3.77437   3.81430
 Alpha virt. eigenvalues --    3.88448   4.03079   4.07629   4.25899   4.89057
          Condensed to atoms (all electrons):
               1          2          3          4          5          6
     1  C    6.992051  -0.748029  -0.424673   0.301346  -0.633506   0.257916
     2  C   -0.748029  19.229660  -2.130486  -0.187957  -0.908147  -5.057509
     3  N   -0.424673  -2.130486   8.845315   0.121139   0.140581   0.727900
     4  C    0.301346  -0.187957   0.121139   5.649476   0.119245  -0.243668
     5  C   -0.633506  -0.908147   0.140581   0.119245   6.084580   0.586317
     6  C    0.257916  -5.057509   0.727900  -0.243668   0.586317  22.838871
     7  C   -0.617169  -1.751393   0.007481  -0.206929   0.123952  -7.145973
     8  N    0.029201   0.454892  -0.058128   0.018613  -0.013687   0.372500
     9  C   -0.124179  -0.924481   0.058923  -0.055935  -0.010568  -0.484852
    10  C    0.265103   0.266602  -0.162621   0.070205   0.068004   1.370483
    11  C   -0.179669  -0.918549   0.390720  -0.102714  -0.366027  -8.350412
    12  C   -0.067809  -0.363273   0.430914  -0.209100   0.006585   0.199401
    13  H    0.395975  -2.193177  -0.137090  -0.114787   0.059255   0.482582
    14  H   -0.320210   0.007181   0.039631   0.069900   0.269475  -0.484794
    15  H   -0.698638   0.214784   0.143019  -0.146377   0.243409   0.192863
    16  H    0.109263  -0.048067   0.087995  -0.026566  -0.207887   0.057075
    17  H    0.325048  -0.003769  -0.030686   0.122576  -0.323281  -0.044878
    18  H   -0.127496  -0.271675   0.451325  -0.275552   0.068967   0.176678
    19  H    0.125056   0.539832  -0.690091  -0.103778  -0.040431  -0.219028
    20  H    0.062435   0.114355  -0.224923   0.032069   0.010200   0.143153
    21  H    0.004500   0.012383   0.003865  -0.001061  -0.000398   0.220938
    22  H   -0.023476  -0.022965   0.001254  -0.004530   0.004391  -0.663358
    23  H    0.143672   0.060080   0.056733   0.013152   0.001879   0.116425
    24  H    0.124699   0.162458  -0.167674  -0.074477  -0.067715   0.059124
    25  H   -0.022587  -0.281642   0.218393   0.014797   0.058091   0.011728
    26  H   -0.059049  -0.054002  -0.259297   0.026429   0.049726   0.112107
    27  H   -0.009706   0.014899  -0.004340   0.001148   0.005008  -0.390186
    28  O   -0.001561  -0.002089   0.000369   0.000164  -0.000193  -0.107114
    29  H    0.000482   0.001956   0.000297   0.000227  -0.000139  -0.008062
    30  H    0.000183   0.002929  -0.000117   0.000040  -0.000044   0.009886
    31  O    0.000014   0.000126  -0.000001   0.000001  -0.000001   0.000715
    32  H    0.000002   0.000033  -0.000020  -0.000006   0.000008   0.000537
    33  H   -0.000002   0.000030  -0.000003  -0.000001  -0.000001   0.000406
    34  O   -0.000000   0.000002   0.000000   0.000000  -0.000000   0.000355
    35  H    0.000000  -0.000010   0.000000  -0.000000   0.000000   0.000024
    36  H   -0.000001   0.000008   0.000000   0.000001  -0.000000   0.000019
               7          8          9         10         11         12
     1  C   -0.617169   0.029201  -0.124179   0.265103  -0.179669  -0.067809
     2  C   -1.751393   0.454892  -0.924481   0.266602  -0.918549  -0.363273
     3  N    0.007481  -0.058128   0.058923  -0.162621   0.390720   0.430914
     4  C   -0.206929   0.018613  -0.055935   0.070205  -0.102714  -0.209100
     5  C    0.123952  -0.013687  -0.010568   0.068004  -0.366027   0.006585
     6  C   -7.145973   0.372500  -0.484852   1.370483  -8.350412   0.199401
     7  C   18.646834  -0.985403  -0.582600  -1.492039  -0.851897  -0.034872
     8  N   -0.985403   7.403270   0.021291   0.394820  -0.465228  -0.016388
     9  C   -0.582600   0.021291  10.252106  -3.055752   1.065254   0.007812
    10  C   -1.492039   0.394820  -3.055752  13.576329  -5.407508  -0.001686
    11  C   -0.851897  -0.465228   1.065254  -5.407508  21.425769  -0.048654
    12  C   -0.034872  -0.016388   0.007812  -0.001686  -0.048654   4.475684
    13  H    0.389737  -0.010886   0.038983  -0.068918  -0.041623   0.053568
    14  H    0.127655   0.019992  -0.021926  -0.005738   0.091435   0.018274
    15  H   -0.036035  -0.012314   0.003265   0.030416  -0.050189   0.014697
    16  H    0.013041  -0.002130   0.002124   0.011101   0.011648  -0.015218
    17  H    0.004281  -0.000465   0.000739  -0.005178   0.000166   0.014529
    18  H    0.015304  -0.000147  -0.000373   0.003529   0.023133  -0.016003
    19  H   -0.013196   0.001947  -0.003062   0.001929  -0.007504  -0.012545
    20  H    0.161241  -0.027379  -0.213454   1.059090  -2.322319  -0.029526
    21  H    0.032118   0.016083  -0.883829   0.330019   0.033574   0.003000
    22  H    0.551650   0.015225  -0.355752  -0.175764   0.062713  -0.002478
    23  H   -1.033835   0.093392  -0.010211   0.023906   0.031211   0.006394
    24  H   -0.208714   0.023870  -0.011118   0.062101  -0.046397   0.257127
    25  H    0.073549  -0.009517   0.002532   0.000055   0.022592   0.140240
    26  H    0.028326  -0.003165   0.005173  -0.004434  -0.038398   0.354660
    27  H    0.069234  -0.034405   0.534795  -1.312625   0.841419  -0.008115
    28  O    0.098691  -0.181939   0.017280  -0.047985   0.048346  -0.000476
    29  H    0.001990   0.003751  -0.006443  -0.001271   0.009123  -0.000383
    30  H   -0.010707   0.007526  -0.009782   0.010021  -0.003051   0.000065
    31  O    0.000093  -0.002926   0.003845   0.001701  -0.000174  -0.000010
    32  H   -0.001063   0.000989   0.000681   0.000776  -0.001039   0.000033
    33  H    0.000544   0.000146  -0.001042  -0.000102  -0.000022  -0.000000
    34  O    0.000151   0.000257   0.000138   0.000059  -0.000021   0.000000
    35  H   -0.000034   0.000007  -0.000014  -0.000011   0.000016  -0.000001
    36  H   -0.000051   0.000016  -0.000015   0.000005   0.000002   0.000001
              13         14         15         16         17         18
     1  C    0.395975  -0.320210  -0.698638   0.109263   0.325048  -0.127496
     2  C   -2.193177   0.007181   0.214784  -0.048067  -0.003769  -0.271675
     3  N   -0.137090   0.039631   0.143019   0.087995  -0.030686   0.451325
     4  C   -0.114787   0.069900  -0.146377  -0.026566   0.122576  -0.275552
     5  C    0.059255   0.269475   0.243409  -0.207887  -0.323281   0.068967
     6  C    0.482582  -0.484794   0.192863   0.057075  -0.044878   0.176678
     7  C    0.389737   0.127655  -0.036035   0.013041   0.004281   0.015304
     8  N   -0.010886   0.019992  -0.012314  -0.002130  -0.000465  -0.000147
     9  C    0.038983  -0.021926   0.003265   0.002124   0.000739  -0.000373
    10  C   -0.068918  -0.005738   0.030416   0.011101  -0.005178   0.003529
    11  C   -0.041623   0.091435  -0.050189   0.011648   0.000166   0.023133
    12  C    0.053568   0.018274   0.014697  -0.015218   0.014529  -0.016003
    13  H    3.118946   0.133268  -0.291206  -0.046618   0.041109  -0.075707
    14  H    0.133268   2.206809  -0.486237  -0.343242   0.135774  -0.038651
    15  H   -0.291206  -0.486237   2.329346   0.188894  -0.300913   0.059989
    16  H   -0.046618  -0.343242   0.188894   2.064211  -0.447717   0.168325
    17  H    0.041109   0.135774  -0.300913  -0.447717   1.912156  -0.198045
    18  H   -0.075707  -0.038651   0.059989   0.168325  -0.198045   1.848723
    19  H    0.049845   0.017786  -0.024293  -0.255327   0.070776  -0.435317
    20  H    0.009734  -0.017739  -0.000552   0.008196   0.004828   0.001816
    21  H   -0.000174  -0.001915   0.001466   0.000272  -0.000007   0.000145
    22  H    0.005759   0.000998   0.000896   0.000389   0.000114  -0.000227
    23  H   -0.075890   0.017378   0.002987   0.000606   0.000684   0.004007
    24  H    0.027896   0.007516  -0.002841  -0.007140  -0.000769  -0.003124
    25  H    0.043932   0.001539   0.000899  -0.001126   0.007389   0.003403
    26  H    0.004945  -0.002184   0.000714   0.007196  -0.002460  -0.002016
    27  H    0.003508  -0.001808  -0.001115   0.000409  -0.000417  -0.000101
    28  O    0.001161   0.000252  -0.000072  -0.000021   0.000000  -0.000032
    29  H    0.000140   0.000161  -0.000115  -0.000019   0.000003  -0.000004
    30  H   -0.000153   0.000025   0.000048  -0.000005  -0.000002   0.000003
    31  O   -0.000107   0.000010  -0.000005  -0.000001   0.000000  -0.000000
    32  H   -0.000028  -0.000008   0.000007   0.000001  -0.000000   0.000002
    33  H   -0.000005   0.000002  -0.000001  -0.000000   0.000000  -0.000000
    34  O    0.000032   0.000000   0.000001  -0.000000  -0.000000  -0.000000
    35  H   -0.000000   0.000000  -0.000000  -0.000000   0.000000  -0.000000
    36  H    0.000005  -0.000000   0.000001   0.000000  -0.000000   0.000000
              19         20         21         22         23         24
     1  C    0.125056   0.062435   0.004500  -0.023476   0.143672   0.124699
     2  C    0.539832   0.114355   0.012383  -0.022965   0.060080   0.162458
     3  N   -0.690091  -0.224923   0.003865   0.001254   0.056733  -0.167674
     4  C   -0.103778   0.032069  -0.001061  -0.004530   0.013152  -0.074477
     5  C   -0.040431   0.010200  -0.000398   0.004391   0.001879  -0.067715
     6  C   -0.219028   0.143153   0.220938  -0.663358   0.116425   0.059124
     7  C   -0.013196   0.161241   0.032118   0.551650  -1.033835  -0.208714
     8  N    0.001947  -0.027379   0.016083   0.015225   0.093392   0.023870
     9  C   -0.003062  -0.213454  -0.883829  -0.355752  -0.010211  -0.011118
    10  C    0.001929   1.059090   0.330019  -0.175764   0.023906   0.062101
    11  C   -0.007504  -2.322319   0.033574   0.062713   0.031211  -0.046397
    12  C   -0.012545  -0.029526   0.003000  -0.002478   0.006394   0.257127
    13  H    0.049845   0.009734  -0.000174   0.005759  -0.075890   0.027896
    14  H    0.017786  -0.017739  -0.001915   0.000998   0.017378   0.007516
    15  H   -0.024293  -0.000552   0.001466   0.000896   0.002987  -0.002841
    16  H   -0.255327   0.008196   0.000272   0.000389   0.000606  -0.007140
    17  H    0.070776   0.004828  -0.000007   0.000114   0.000684  -0.000769
    18  H   -0.435317   0.001816   0.000145  -0.000227   0.004007  -0.003124
    19  H    2.488933   0.012329  -0.000154  -0.000250  -0.001295   0.006370
    20  H    0.012329   3.305268  -0.014888   0.018088  -0.022815   0.022336
    21  H   -0.000154  -0.014888   2.141178  -0.146587   0.005737  -0.000634
    22  H   -0.000250   0.018088  -0.146587   1.714407  -0.084811  -0.003318
    23  H   -0.001295  -0.022815   0.005737  -0.084811   2.457709   0.007705
    24  H    0.006370   0.022336  -0.000634  -0.003318   0.007705   2.124161
    25  H    0.006734   0.003413   0.000112   0.001995   0.002316  -0.404546
    26  H    0.014367  -0.002828   0.000356   0.000140   0.000870  -0.549036
    27  H   -0.000648  -0.130619  -0.125584   0.016663  -0.000977   0.000590
    28  O    0.000010   0.001041  -0.001838   0.048512  -0.000009  -0.000013
    29  H    0.000013  -0.000066  -0.000482  -0.007748   0.005929  -0.000043
    30  H    0.000004  -0.000104   0.006299  -0.013372   0.001483   0.000030
    31  O    0.000000  -0.000002   0.001458  -0.013676   0.002567   0.000046
    32  H   -0.000001  -0.000012   0.000342   0.001077  -0.001088  -0.000008
    33  H    0.000000  -0.000003  -0.000037   0.001040   0.000150   0.000005
    34  O    0.000000  -0.000001  -0.000032  -0.000827  -0.000388   0.000009
    35  H    0.000000   0.000000  -0.000004   0.000141  -0.000020   0.000001
    36  H   -0.000000  -0.000000  -0.000007  -0.000008  -0.000061  -0.000002
              25         26         27         28         29         30
     1  C   -0.022587  -0.059049  -0.009706  -0.001561   0.000482   0.000183
     2  C   -0.281642  -0.054002   0.014899  -0.002089   0.001956   0.002929
     3  N    0.218393  -0.259297  -0.004340   0.000369   0.000297  -0.000117
     4  C    0.014797   0.026429   0.001148   0.000164   0.000227   0.000040
     5  C    0.058091   0.049726   0.005008  -0.000193  -0.000139  -0.000044
     6  C    0.011728   0.112107  -0.390186  -0.107114  -0.008062   0.009886
     7  C    0.073549   0.028326   0.069234   0.098691   0.001990  -0.010707
     8  N   -0.009517  -0.003165  -0.034405  -0.181939   0.003751   0.007526
     9  C    0.002532   0.005173   0.534795   0.017280  -0.006443  -0.009782
    10  C    0.000055  -0.004434  -1.312625  -0.047985  -0.001271   0.010021
    11  C    0.022592  -0.038398   0.841419   0.048346   0.009123  -0.003051
    12  C    0.140240   0.354660  -0.008115  -0.000476  -0.000383   0.000065
    13  H    0.043932   0.004945   0.003508   0.001161   0.000140  -0.000153
    14  H    0.001539  -0.002184  -0.001808   0.000252   0.000161   0.000025
    15  H    0.000899   0.000714  -0.001115  -0.000072  -0.000115   0.000048
    16  H   -0.001126   0.007196   0.000409  -0.000021  -0.000019  -0.000005
    17  H    0.007389  -0.002460  -0.000417   0.000000   0.000003  -0.000002
    18  H    0.003403  -0.002016  -0.000101  -0.000032  -0.000004   0.000003
    19  H    0.006734   0.014367  -0.000648   0.000010   0.000013   0.000004
    20  H    0.003413  -0.002828  -0.130619   0.001041  -0.000066  -0.000104
    21  H    0.000112   0.000356  -0.125584  -0.001838  -0.000482   0.006299
    22  H    0.001995   0.000140   0.016663   0.048512  -0.007748  -0.013372
    23  H    0.002316   0.000870  -0.000977  -0.000009   0.005929   0.001483
    24  H   -0.404546  -0.549036   0.000590  -0.000013  -0.000043   0.000030
    25  H    1.552143  -0.276533  -0.001393   0.000037  -0.000004  -0.000011
    26  H   -0.276533   1.882523   0.000208  -0.000047  -0.000038  -0.000001
    27  H   -0.001393   0.000208   2.119500  -0.001059   0.000225  -0.000313
    28  O    0.000037  -0.000047  -0.001059   7.931642   0.322114   0.361718
    29  H   -0.000004  -0.000038   0.000225   0.322114   0.526554  -0.110326
    30  H   -0.000011  -0.000001  -0.000313   0.361718  -0.110326   0.606316
    31  O    0.000002  -0.000002  -0.000001  -0.042803   0.013345   0.003883
    32  H   -0.000009   0.000006   0.000005   0.002643  -0.005983  -0.000325
    33  H    0.000002  -0.000000   0.000001   0.001685  -0.004032  -0.000307
    34  O   -0.000000  -0.000000   0.000002   0.000385  -0.003072   0.000625
    35  H    0.000001  -0.000000  -0.000000   0.000216  -0.000743   0.000034
    36  H   -0.000002   0.000000   0.000000  -0.000068   0.000189  -0.000005
              31         32         33         34         35         36
     1  C    0.000014   0.000002  -0.000002  -0.000000   0.000000  -0.000001
     2  C    0.000126   0.000033   0.000030   0.000002  -0.000010   0.000008
     3  N   -0.000001  -0.000020  -0.000003   0.000000   0.000000   0.000000
     4  C    0.000001  -0.000006  -0.000001   0.000000  -0.000000   0.000001
     5  C   -0.000001   0.000008  -0.000001  -0.000000   0.000000  -0.000000
     6  C    0.000715   0.000537   0.000406   0.000355   0.000024   0.000019
     7  C    0.000093  -0.001063   0.000544   0.000151  -0.000034  -0.000051
     8  N   -0.002926   0.000989   0.000146   0.000257   0.000007   0.000016
     9  C    0.003845   0.000681  -0.001042   0.000138  -0.000014  -0.000015
    10  C    0.001701   0.000776  -0.000102   0.000059  -0.000011   0.000005
    11  C   -0.000174  -0.001039  -0.000022  -0.000021   0.000016   0.000002
    12  C   -0.000010   0.000033  -0.000000   0.000000  -0.000001   0.000001
    13  H   -0.000107  -0.000028  -0.000005   0.000032  -0.000000   0.000005
    14  H    0.000010  -0.000008   0.000002   0.000000   0.000000  -0.000000
    15  H   -0.000005   0.000007  -0.000001   0.000001  -0.000000   0.000001
    16  H   -0.000001   0.000001  -0.000000  -0.000000  -0.000000   0.000000
    17  H    0.000000  -0.000000   0.000000  -0.000000   0.000000  -0.000000
    18  H   -0.000000   0.000002  -0.000000  -0.000000  -0.000000   0.000000
    19  H    0.000000  -0.000001   0.000000   0.000000   0.000000  -0.000000
    20  H   -0.000002  -0.000012  -0.000003  -0.000001   0.000000  -0.000000
    21  H    0.001458   0.000342  -0.000037  -0.000032  -0.000004  -0.000007
    22  H   -0.013676   0.001077   0.001040  -0.000827   0.000141  -0.000008
    23  H    0.002567  -0.001088   0.000150  -0.000388  -0.000020  -0.000061
    24  H    0.000046  -0.000008   0.000005   0.000009   0.000001  -0.000002
    25  H    0.000002  -0.000009   0.000002  -0.000000   0.000001  -0.000002
    26  H   -0.000002   0.000006  -0.000000  -0.000000  -0.000000   0.000000
    27  H   -0.000001   0.000005   0.000001   0.000002  -0.000000   0.000000
    28  O   -0.042803   0.002643   0.001685   0.000385   0.000216  -0.000068
    29  H    0.013345  -0.005983  -0.004032  -0.003072  -0.000743   0.000189
    30  H    0.003883  -0.000325  -0.000307   0.000625   0.000034  -0.000005
    31  O    7.715433   0.332994   0.365485  -0.036468   0.001909   0.000856
    32  H    0.332994   0.557914  -0.103251   0.008233  -0.001158  -0.003999
    33  H    0.365485  -0.103251   0.606309   0.004670  -0.000114  -0.000826
    34  O   -0.036468   0.008233   0.004670   7.669906   0.346269   0.348713
    35  H    0.001909  -0.001158  -0.000114   0.346269   0.555134  -0.068265
    36  H    0.000856  -0.003999  -0.000826   0.348713  -0.068265   0.569596
 Mulliken charges:
               1
     1  C    0.920815
     2  C    0.785010
     3  N   -0.435705
     4  C    1.192911
     5  C    0.672354
     6  C    1.261831
     7  C    0.626036
     8  N   -0.053682
     9  C    0.740444
    10  C    0.195380
    11  C    1.144271
    12  C    0.843555
    13  H   -0.804008
    14  H   -0.440607
    15  H   -0.376798
    16  H   -0.329664
    17  H   -0.281586
    18  H   -0.380879
    19  H   -0.529012
    20  H   -0.962362
    21  H   -0.636215
    22  H    0.073697
    23  H   -0.825573
    24  H   -0.338474
    25  H   -0.168525
    26  H   -0.234256
    27  H   -0.584202
    28  O   -0.448947
    29  H    0.262476
    30  H    0.137510
    31  O   -0.348307
    32  H    0.211715
    33  H    0.129276
    34  O   -0.339002
    35  H    0.166623
    36  H    0.153897
 Sum of Mulliken charges =   1.00000
 Mulliken charges with hydrogens summed into heavy atoms:
               1
     1  C    0.103411
     2  C   -0.018997
     3  N   -0.435705
     4  C    0.283020
     5  C    0.061104
     6  C    1.261831
     7  C   -0.199537
     8  N    0.020015
     9  C    0.104229
    10  C   -0.388822
    11  C    0.181910
    12  C    0.102300
    28  O   -0.048961
    31  O   -0.007316
    34  O   -0.018482
 Electronic spatial extent (au):  <R**2>=           6911.7410
 Charge=              1.0000 electrons
 Dipole moment (field-independent basis, Debye):
    X=              6.4237    Y=              0.6072    Z=             -0.7227  Tot=              6.4927
 Quadrupole moment (field-independent basis, Debye-Ang):
   XX=             -7.8615   YY=            -58.0695   ZZ=            -81.3684
   XY=            -13.8331   XZ=             -5.1111   YZ=              3.8862
 Traceless Quadrupole moment (field-independent basis, Debye-Ang):
   XX=             41.2382   YY=             -8.9697   ZZ=            -32.2686
   XY=            -13.8331   XZ=             -5.1111   YZ=              3.8862
 Octapole moment (field-independent basis, Debye-Ang**2):
  XXX=            452.6506  YYY=            -17.7065  ZZZ=            -10.0814  XYY=            124.2962
  XXY=           -153.7716  XXZ=            -30.6523  XZZ=             41.9957  YZZ=             -2.4193
  YYZ=             14.7573  XYZ=              1.5474
 Hexadecapole moment (field-independent basis, Debye-Ang**3):
 XXXX=          -3232.8890 YYYY=           -992.1838 ZZZZ=           -553.8462 XXXY=           -985.0143
 XXXZ=           -160.2257 YYYX=           -413.3439 YYYZ=             47.1380 ZZZX=            -59.7457
 ZZZY=            -14.6984 XXYY=           -535.1755 XXZZ=           -981.3793 YYZZ=           -270.6316
 XXYZ=             65.3868 YYXZ=            -36.0261 ZZXY=            -12.9590
 N-N= 9.971874793046D+02 E-N=-3.678961117424D+03  KE= 7.239906769777D+02
 Calling FoFJK, ICntrl=      2127 FMM=F ISym2X=0 I1Cent= 0 IOpClX= 0 NMat=1 NMatS=1 NMatT=0.
 ***** Axes restored to original set *****
 -------------------------------------------------------------------
 Center     Atomic                   Forces (Hartrees/Bohr)
 Number     Number              X              Y              Z
 -------------------------------------------------------------------
      1        6          -0.000081775   -0.000034279    0.000073990
      2        6           0.000143797    0.000187257   -0.000034908
      3        7          -0.000144184   -0.000156557   -0.000018500
      4        6           0.000055392    0.000091496    0.000079686
      5        6           0.000057543    0.000006994   -0.000042282
      6        6           0.000115557    0.000095179    0.000067781
      7        6           0.000252095    0.000209428    0.000079898
      8        7          -0.000892942    0.000311635    0.000301965
      9        6           0.000127704   -0.000334645   -0.000193489
     10        6          -0.000197421   -0.000000587    0.000015013
     11        6          -0.000021709   -0.000015994   -0.000007688
     12        6           0.000013651    0.000129645   -0.000013047
     13        1          -0.000019749   -0.000023357    0.000005962
     14        1           0.000007385   -0.000039238    0.000015132
     15        1           0.000002766    0.000002000   -0.000009660
     16        1          -0.000007104   -0.000000060    0.000012769
     17        1          -0.000030546   -0.000009498   -0.000006852
     18        1          -0.000006391   -0.000055108   -0.000018495
     19        1          -0.000022816   -0.000006078    0.000005875
     20        1           0.000014190    0.000002972    0.000002441
     21        1           0.000061626   -0.000088974   -0.000015162
     22        1           0.001799769   -0.000654366   -0.000517555
     23        1           0.000113192    0.000021356    0.000024674
     24        1          -0.000015766   -0.000014579   -0.000031849
     25        1          -0.000000447   -0.000034412   -0.000028697
     26        1          -0.000023043   -0.000004736    0.000012206
     27        1          -0.000007770   -0.000010850    0.000007924
     28        8          -0.002789280    0.002168081   -0.001453663
     29        1           0.003447297   -0.003128276    0.002587535
     30        1          -0.000022555   -0.000160730    0.000479012
     31        8          -0.003311506    0.015006645    0.002154409
     32        1           0.003152803   -0.011838913   -0.002912880
     33        1          -0.001565005   -0.000445513   -0.001026486
     34        8          -0.002482218   -0.020839335   -0.003273966
     35        1          -0.001555663    0.009305043    0.006826674
     36        1           0.003833121    0.010358353   -0.003147767
 -------------------------------------------------------------------
 Cartesian Forces:  Max     0.020839335 RMS     0.003292011

 GradGradGradGradGradGradGradGradGradGradGradGradGradGradGradGradGradGrad
 Berny optimization.
 FormGI is forming the generalized inverse of G from B-inverse, IUseBI=4.
 Internal  Forces:  Max     0.013530303 RMS     0.001587324
 Search for a local minimum.
 Step number   1 out of a maximum of  200
 All quantities printed in internal units (Hartrees-Bohrs-Radians)
 Mixed Optimization -- RFO/linear search
 Second derivative matrix not updated -- first step.
 ITU=  0
     Eigenvalues ---    0.00230   0.00230   0.00230   0.00230   0.00230
     Eigenvalues ---    0.00230   0.00230   0.00230   0.00230   0.00242
     Eigenvalues ---    0.00336   0.00631   0.00676   0.00921   0.00955
     Eigenvalues ---    0.01015   0.01545   0.01916   0.02130   0.02172
     Eigenvalues ---    0.02226   0.02243   0.02294   0.02349   0.02375
     Eigenvalues ---    0.02434   0.02580   0.03518   0.04555   0.04821
     Eigenvalues ---    0.05023   0.05212   0.05537   0.05987   0.06337
     Eigenvalues ---    0.06371   0.06843   0.06943   0.06959   0.06988
     Eigenvalues ---    0.07272   0.07587   0.08369   0.08579   0.09409
     Eigenvalues ---    0.10408   0.12960   0.15300   0.15841   0.15991
     Eigenvalues ---    0.15998   0.16000   0.16000   0.16000   0.16000
     Eigenvalues ---    0.16000   0.16000   0.16000   0.16000   0.16000
     Eigenvalues ---    0.16000   0.16000   0.18449   0.20635   0.21999
     Eigenvalues ---    0.22000   0.23455   0.24991   0.26465   0.26723
     Eigenvalues ---    0.28868   0.31331   0.32517   0.32703   0.32770
     Eigenvalues ---    0.33872   0.34066   0.34096   0.34129   0.34154
     Eigenvalues ---    0.34162   0.34263   0.34751   0.34807   0.35023
     Eigenvalues ---    0.35105   0.35140   0.35624   0.38089   0.40041
     Eigenvalues ---    0.43052   0.43752   0.46880   0.48266   0.51487
     Eigenvalues ---    0.52717   0.52816   0.54024   0.55234   0.55235
     Eigenvalues ---    0.55537   0.56072
 RFO step:  Lambda=-1.75459536D-03 EMin= 2.30000000D-03
 Linear search not attempted -- first point.
 Iteration  1 RMS(Cart)=  0.17807748 RMS(Int)=  0.00651528
 Iteration  2 RMS(Cart)=  0.02202327 RMS(Int)=  0.00042367
 Iteration  3 RMS(Cart)=  0.00021129 RMS(Int)=  0.00041635
 Iteration  4 RMS(Cart)=  0.00000011 RMS(Int)=  0.00041635
 Variable       Old X    -DE/DX   Delta X   Delta X   Delta X     New X
                                 (Linear)    (Quad)   (Total)
    R1        2.93120  -0.00002   0.00000  -0.00008  -0.00008   2.93113
    R2        2.92211  -0.00002   0.00000  -0.00007  -0.00006   2.92204
    R3        2.07218  -0.00004   0.00000  -0.00011  -0.00011   2.07207
    R4        2.07071   0.00001   0.00000   0.00002   0.00002   2.07074
    R5        2.74751   0.00008   0.00000   0.00021   0.00021   2.74771
    R6        2.85385   0.00003   0.00000   0.00010   0.00011   2.85396
    R7        2.09908   0.00002   0.00000   0.00005   0.00004   2.09911
    R8        2.76096  -0.00006   0.00000  -0.00018  -0.00019   2.76077
    R9        2.74235  -0.00010   0.00000  -0.00026  -0.00026   2.74210
   R10        2.88718  -0.00001   0.00000  -0.00003  -0.00003   2.88715
   R11        2.09576   0.00006   0.00000   0.00017   0.00017   2.09594
   R12        2.07168   0.00002   0.00000   0.00006   0.00006   2.07174
   R13        2.07058   0.00001   0.00000   0.00002   0.00002   2.07060
   R14        2.06888   0.00003   0.00000   0.00007   0.00007   2.06895
   R15        2.61671   0.00006   0.00000   0.00011   0.00010   2.61681
   R16        2.64763  -0.00009   0.00000  -0.00015  -0.00015   2.64747
   R17        2.54114  -0.00045   0.00000  -0.00084  -0.00084   2.54031
   R18        2.05637  -0.00001   0.00000  -0.00003  -0.00003   2.05634
   R19        2.53326  -0.00039   0.00000  -0.00072  -0.00072   2.53254
   R20        1.98198   0.00061   0.00000   0.00153   0.00154   1.98351
   R21        2.61639   0.00016   0.00000   0.00033   0.00033   2.61672
   R22        2.05448   0.00001   0.00000   0.00002   0.00002   2.05450
   R23        2.63077  -0.00011   0.00000  -0.00018  -0.00017   2.63059
   R24        2.05505  -0.00000   0.00000  -0.00001  -0.00001   2.05504
   R25        2.05989  -0.00001   0.00000  -0.00003  -0.00003   2.05986
   R26        2.07546  -0.00003   0.00000  -0.00009  -0.00010   2.07536
   R27        2.09456   0.00004   0.00000   0.00012   0.00012   2.09469
   R28        2.07113   0.00002   0.00000   0.00007   0.00007   2.07120
   R29        3.07594  -0.00137   0.00000  -0.01561  -0.01562   3.06033
   R30        1.85094   0.00249   0.00000   0.00482   0.00486   1.85580
   R31        1.81358  -0.00046   0.00000  -0.00083  -0.00083   1.81275
   R32        3.27505  -0.00282   0.00000  -0.03961  -0.03964   3.23541
   R33        1.81624   0.01353   0.00000   0.02445   0.02448   1.84072
[...]
 0003295,0.00001292,-0.00014795,0.00362437,-0.00096215,-0.00198524,0.00
 012529,0.00002625,-0.00007701,0.00001274,0.00003214,-0.00001714,0.0000
 0145,-0.00003192,-0.00000743,-0.00001560,-0.00000746,0.00001228,-0.000
 05162,0.00002349,-0.00000810,-0.01175388,0.01168986,-0.00430920,0.0008
 8203,-0.00421513,-0.00823174,-0.00026172,-0.00028551,0.00085703,0.2301
 4654,0.18153465,0.19778317,0.00000432,0.00000551,-0.00001428,-0.000034
 35,0.00001696,0.00002570,0.00005749,-0.00001404,0.00000437,-0.00003495
 ,-0.00000501,-0.00001243,-0.00000457,0.00000114,0.00000805,-0.00000874
 ,-0.00007511,-0.00004296,-0.00006216,0.00005666,0.00004454,0.00002780,
 0.00001055,0.00001594,0.00003249,0.00001250,0.00000571,-0.00002785,-0.
 00000563,-0.00000335,0.00001267,0.00004098,0.00002100,-0.00001448,0.00
 001401,-0.00001120,0.00000275,-0.00002011,-0.00000747,0.,-0.00000125,-
 0.00000251,-0.00000006,0.00000240,-0.00000015,0.00000310,-0.00000396,-
 0.00000255,0.00000563,0.00000293,0.00000346,0.00000175,0.00000519,0.00
 000366,0.00000545,0.00000007,-0.00000374,-0.00000252,-0.00000162,-0.00
 000352,0.00000211,0.00000463,-0.00000826,0.00003752,0.00009810,-0.0000
 1759,-0.00005128,0.00002093,-0.00004442,0.00000357,0.00001505,0.000011
 98,-0.00000960,-0.00001275,-0.00000382,0.00000938,-0.00000546,-0.00000
 144,-0.00000053,0.00000355,-0.00000139,-0.00078174,0.00033808,-0.00160
 469,0.00117090,0.00043360,0.00359733,-0.00018339,0.00018178,-0.0002527
 9,-0.06640812,0.11787892,0.00556741,0.06586049,-0.00003434,-0.00003282
 ,0.00006923,0.00009068,0.00020923,-0.00003418,-0.00013466,-0.00015891,
 -0.00001236,0.00007364,0.00005658,0.00006634,0.00001536,-0.00000157,-0
 .00003548,0.00009072,0.00003099,0.00004130,0.00018626,0.00029334,0.000
 15329,-0.00090373,0.00032588,0.00032517,0.00010723,-0.00033191,-0.0001
 9879,-0.00021333,-0.00002934,0.00000364,0.00003301,0.00001935,0.000001
 91,0.00000279,0.00012436,-0.00001157,-0.00002234,-0.00003501,0.0000031
 1,0.00001223,-0.00002837,0.00001680,-0.00000346,-0.00000024,-0.0000104
 4,-0.00000618,0.00000046,0.00000710,-0.00002623,-0.00000586,-0.0000039
 8,-0.00000579,-0.00004382,-0.00001574,-0.00001973,-0.00000523,0.000007
 47,0.00002163,0.00001755,0.00000089,0.00006969,-0.00010522,-0.00001077
 ,0.00197250,-0.00062243,-0.00053518,0.00007085,0.00004976,0.00000981,-
 0.00001340,-0.00000172,-0.00003126,-0.00000157,-0.00004225,-0.00002593
 ,-0.00001719,-0.00000528,0.00000792,-0.00000781,-0.00000919,0.00000576
 ,-0.00364767,0.00252736,-0.00249000,0.00495699,-0.00466915,0.00449299,
 0.00008659,-0.00011802,0.00050062,0.07337433,-0.42356165,-0.09632243,-
 0.07903470,0.43360241,-0.00000832,-0.00000433,0.00002299,0.00000629,0.
 00004983,0.00000492,-0.00003923,-0.00002749,-0.00003321,0.00002804,0.0
 0001612,0.00001474,0.00000072,-0.00000040,-0.00000959,0.00002525,-0.00
 001091,-0.00000318,0.00004255,0.00010140,0.00006113,-0.00022480,0.0000
 9228,0.00010664,0.00001461,-0.00008865,-0.00005488,-0.00005135,-0.0000
 0657,0.00000093,0.00001479,0.00000848,0.00000157,0.00001804,0.00001672
 ,0.00001872,-0.00000279,-0.00001223,0.00000354,0.00000293,-0.00000391,
 0.00000408,-0.00000263,-0.00000327,-0.00000725,-0.00000050,0.00000078,
 0.00000093,-0.00000777,-0.00000134,-0.00000251,-0.00000221,-0.00001086
 ,-0.00000236,-0.00000289,-0.00000189,0.00000081,0.00000537,0.00000062,
 0.00000270,0.00001441,-0.00002963,0.00000705,0.00042595,-0.00014487,-0
 .00018120,-0.00000231,0.00001279,0.00002633,-0.00000775,-0.00001090,-0
 .00000730,0.00000159,-0.00000061,-0.00000248,-0.00000231,0.00000049,-0
 .00000025,-0.00000175,-0.00000464,0.00000521,-0.00340862,0.00147184,-0
 .00354428,0.00468185,-0.00016295,0.00582388,-0.00028084,0.00057373,0.0
 0010515,-0.00805624,-0.07431663,-0.04113357,0.00017312,0.09233912,0.05
 064541,0.00000666,0.00000780,-0.00001626,-0.00001627,-0.00002242,0.000
 00839,0.00004141,0.00001229,0.00001474,-0.00002671,-0.00000811,-0.0000
 1155,-0.00000277,0.00000110,0.00000898,-0.00002806,-0.00000225,-0.0000
 0613,-0.00001266,-0.00003121,-0.00002743,0.00004254,-0.00003719,-0.000
 01076,-0.00004988,0.00002715,0.00002499,0.00003942,0.00002299,0.000017
 06,-0.00001400,-0.00000458,-0.00000246,-0.00001554,-0.00000705,-0.0000
 1145,0.00000437,0.00000096,-0.00000229,-0.00000257,0.00000089,-0.00000
 368,0.00000100,0.00000270,0.00000283,0.00000188,-0.00000255,-0.0000019
 8,0.00000567,0.00000218,0.00000229,0.00000204,0.00000651,0.00000312,0.
 00000390,0.00000078,-0.00000229,-0.00000347,0.00000118,-0.00000086,-0.
 00001391,0.00005269,-0.00002693,-0.00008404,-0.00001022,-0.00007567,0.
 00000248,-0.00000068,-0.00000636,0.00000530,0.00000808,0.00000700,-0.0
 0000168,-0.00000155,0.00000113,0.00000394,-0.00000125,-0.00000061,-0.0
 0000338,0.00000824,-0.00000441,0.00056184,0.00036730,-0.00021643,-0.00
 179535,-0.00173694,0.00019426,-0.00010170,0.00027971,-0.00011753,-0.34
 177082,-0.15211762,-0.22713763,0.00569291,0.00648784,0.00561541,0.3381
 2633,-0.00000411,-0.00000120,0.00000875,-0.00000166,0.00003069,-0.0000
 0126,0.00000312,-0.00003168,-0.00000299,0.00000046,0.00000839,0.000005
 37,0.00000015,0.00000155,-0.00000297,0.00005867,-0.00005918,-0.0000320
 4,-0.00009820,-0.00001613,0.00001352,0.00021120,-0.00001791,-0.0000751
 5,0.00013861,0.00008949,0.00001877,-0.00007538,-0.00004691,-0.00001685
 ,0.00002557,0.00004841,0.00002111,-0.00000244,0.00002397,-0.00000349,-
 0.00000270,-0.00001390,-0.00000201,0.00000138,-0.00000349,0.00000181,-
 0.00000064,-0.00000029,-0.00000263,0.00000082,-0.00000175,-0.00000012,
 -0.00000226,0.00000004,0.00000048,0.00000017,-0.00000560,-0.00000114,-
 0.00000046,-0.00000025,-0.00000057,0.00000049,0.00000072,-0.00000160,0
 .00004549,-0.00002563,0.00002630,-0.00036280,0.00017071,0.00024115,-0.
 00002871,0.00000409,-0.00001011,-0.00000190,0.00000536,0.00000032,-0.0
 0000361,-0.00001144,-0.00000670,0.00000107,-0.00000108,0.00000084,0.00
 001765,-0.00000457,-0.00000184,0.00196918,-0.00406430,0.00203080,-0.00
 134042,0.00717397,-0.00252370,0.00035916,-0.00000200,0.00020839,-0.109
 74403,-0.10941110,-0.08741934,-0.03760415,-0.01043600,-0.02267781,0.14
 508757,0.11789320,-0.00000042,0.00000181,0.00000455,-0.00001941,0.0000
 0278,0.00001429,0.00000088,0.00000013,-0.00002847,0.00000687,0.0000053
 9,-0.00000142,-0.00000332,0.00000032,-0.00000031,0.00002737,-0.0000352
 7,-0.00002495,-0.00005831,-0.00000913,0.00001107,0.00013909,-0.0000459
 7,-0.00005745,0.00003137,0.00003480,0.00002570,-0.00000848,-0.00000597
 ,-0.00001927,0.00001865,0.00001815,0.00001179,0.00001729,0.00000010,0.
 00002123,0.00000293,-0.00000764,-0.00000038,-0.00000042,0.00000359,0.0
 0000008,-0.00000106,-0.00000325,-0.00000465,0.00000110,-0.00000008,-0.
 00000055,-0.00000082,0.00000034,-0.00000127,-0.00000050,-0.00000123,0.
 00000101,0.00000276,-0.00000047,-0.00000133,0.00000062,-0.00000266,0.0
 0000321,-0.00000796,-0.00001091,0.00004381,-0.00034691,0.00019211,0.00
 015751,-0.00002341,-0.00000260,0.00000610,-0.00000622,-0.00000614,0.00
 000456,-0.00000222,0.00000231,-0.00000139,0.00000552,0.00000049,-0.000
 00212,0.00000889,-0.00000784,0.00000726,0.00006470,0.00129979,-0.00033
 736,-0.00113019,-0.00247278,-0.00079069,-0.00042192,-0.00004948,-0.000
 22028,-0.21117379,-0.10873434,-0.14670879,-0.00885430,-0.00057116,-0.0
 0458184,0.22158069,0.10993192,0.15231047,-0.00000052,-0.00000626,0.000
 00712,0.00004579,-0.00005963,-0.00003843,-0.00006776,0.00005099,0.0000
 0627,0.00003890,-0.00001149,0.00000809,0.00000680,-0.00000184,-0.00000
 685,-0.00002612,0.00009251,0.00005002,0.00009115,-0.00005616,-0.000047
 70,-0.00009001,0.00001322,0.00000070,-0.00003995,-0.00002610,0.0000006
 5,0.00004352,0.00000903,-0.00000436,-0.00001680,-0.00005530,-0.0000226
 1,0.00001493,-0.00005054,0.00000608,-0.00000454,0.00003600,0.00000837,
 -0.00000092,0.00000529,0.00000221,0.00000070,-0.00000375,0.00000531,-0
 .00000447,0.00000775,0.00000382,-0.00000355,-0.00000497,-0.00000408,-0
 .00000218,0.00000270,-0.00000346,-0.00000655,0.00000183,0.00000591,0.0
 0000137,-0.00000228,0.00000174,-0.00000569,-0.00001324,0.00000109,0.00
 009107,-0.00011438,-0.00002498,0.00004217,-0.00003650,0.00003074,-0.00
 000132,-0.00001496,-0.00001274,0.00001341,0.00002606,0.00001208,-0.000
 01179,0.00000838,0.00000247,-0.00000297,-0.00000247,0.00000150,0.00000
 989,0.00034838,-0.00011646,0.00000294,-0.00027693,0.00017910,-0.000115
 66,-0.00006464,0.00003609,0.00317314,0.00512002,0.00008750,-0.00511339
 ,-0.00324468,0.00291133,-0.00075734,0.00129641,0.00015360,0.28978043,0
 .00002232,0.00002077,-0.00004432,-0.00006086,-0.00013185,0.00002462,0.
 00009213,0.00010441,0.00000734,-0.00005131,-0.00004204,-0.00004443,-0.
 00001038,0.00000076,0.00002261,-0.00005976,-0.00003476,-0.00003581,-0.
 00012087,-0.00016699,-0.00007792,0.00055727,-0.00019784,-0.00019745,-0
 .00005615,0.00020103,0.00012492,0.00012301,0.00001501,-0.00000761,-0.0
 0001674,-0.00000299,0.00000354,-0.00000281,-0.00008306,0.00000534,0.00
 001314,0.00002002,-0.00000323,-0.00000749,0.00001959,-0.00000988,0.000
 00135,-0.00000119,0.00000627,0.00000429,0.00000008,-0.00000469,0.00001
 740,0.00000355,0.00000328,0.00000328,0.00003070,0.00001061,0.00001300,
 0.00000367,-0.00000527,-0.00001503,-0.00001263,-0.00000142,-0.00003921
 ,0.00005992,0.00000817,-0.00119245,0.00039789,0.00034455,-0.00005792,-
 0.00002833,-0.00000758,0.00000944,0.00000449,0.00002111,-0.00000094,0.
 00002669,0.00001720,0.00001164,0.00000256,-0.00000525,0.00000514,0.000
 00595,-0.00000296,0.00190954,-0.00133153,0.00131653,-0.00230320,0.0018
 6547,-0.00243053,0.00000667,0.00007131,-0.00024478,0.00452160,-0.01590
 752,-0.00357325,-0.00323678,-0.00281566,0.00083655,0.00116402,-0.00042
 829,0.00061748,-0.09735588,0.43516820,0.00000544,-0.00000291,-0.000020
 49,0.00001766,-0.00003246,-0.00002009,0.00002200,0.00001039,0.00005264
 ,-0.00002298,-0.00001500,-0.00000803,0.00000293,-0.00000035,0.00000548
 ,-0.00003375,0.00002670,0.00001777,0.00001214,-0.00005120,-0.00003944,
 0.00000816,-0.00001822,0.00000899,-0.00002570,0.00002498,0.00001005,0.
 00003125,0.00000870,0.00000850,-0.00001510,-0.00001447,-0.00000887,-0.
 00002447,-0.00000040,-0.00003211,-0.00000301,0.00001495,-0.00000428,-0
 .00000092,-0.00000006,-0.00000191,0.00000281,0.00000470,0.00001005,-0.
 00000109,0.00000004,0.00000084,0.00000623,-0.00000015,0.00000265,0.000
 00176,0.00000770,-0.00000075,-0.00000117,0.00000222,0.00000151,-0.0000
 0291,0.00000205,-0.00000351,-0.00000424,0.00001671,-0.00001798,-0.0000
 1945,0.00000308,-0.00005858,0.00001164,-0.00000818,-0.00003925,0.00000
 947,0.00001463,0.00000187,-0.00000148,-0.00000672,-0.00000147,-0.00000
 307,-0.00000085,0.00000270,-0.00000287,0.00000642,-0.00000628,0.000476
 76,-0.00015686,0.00081845,-0.00085825,0.00048535,-0.00117630,0.0000603
 3,-0.00023933,-0.00013097,0.00004223,-0.00424118,0.00456332,0.00281886
 ,0.00158900,-0.00917941,0.00013526,0.00056541,-0.00008265,-0.30093673,
 -0.15030546,0.48670682,-0.00000037,0.00000380,0.00000116,-0.00001866,0
 .00002359,0.00001576,0.00002200,-0.00001927,-0.00000901,-0.00001114,0.
 00000705,-0.00000189,-0.00000330,0.00000092,0.00000186,0.00001478,-0.0
 0003454,-0.00001951,-0.00003498,0.00001929,0.00001592,0.00005043,-0.00
 001042,-0.00001040,0.00001632,0.00001219,0.00000241,-0.00001528,-0.000
 00379,0.00000113,0.00000688,0.00001927,0.00000954,-0.00000230,0.000017
 38,0.00000260,0.00000275,-0.00001445,-0.00000154,0.00000007,-0.0000018
 0,-0.00000107,-0.00000082,0.00000071,-0.00000372,0.00000191,-0.0000032
 0,-0.00000184,0.00000034,0.00000214,0.00000118,0.00000078,-0.00000235,
 0.00000147,0.00000263,-0.00000094,-0.00000264,-0.00000024,0.00000101,-
 0.00000035,0.00000117,0.00000491,0.00000165,-0.00007659,0.00005020,0.0
 0003393,-0.00001484,0.00001126,0.00000140,-0.00000049,0.00000256,0.000
 00354,-0.00000361,-0.00000768,-0.00000402,0.00000394,-0.00000222,-0.00
 000152,0.00000158,0.00000065,-0.00000046,0.00002396,-0.00018876,-0.000
 03134,-0.00001562,0.00011772,0.00000709,0.00004495,0.00009109,0.000006
 57,0.00025105,-0.00150236,0.00012702,-0.00067582,0.00172297,-0.0002529
 2,0.00018181,0.00009106,-0.00013822,-0.25747453,0.11100174,0.24968313,
 0.26220447,-0.00000287,-0.00000239,0.00000504,0.00000835,0.00001887,-0
 .00000425,-0.00001211,-0.00001725,0.00000109,0.00000676,0.00000799,0.0
 0000650,0.00000202,0.00000014,-0.00000241,0.00000963,0.00000464,0.0000
 0467,0.00000968,0.00001730,0.00000611,-0.00006936,0.00002175,0.0000266
 9,0.00000741,-0.00001988,-0.00001514,-0.00001571,-0.00000168,0.0000029
 0,0.00000197,0.00000068,-0.00000124,-0.00000130,0.00001375,-0.00000229
 ,-0.00000160,-0.00000296,0.00000040,0.00000096,-0.00000377,0.00000077,
 0.00000044,0.00000140,-0.00000045,-0.00000061,-0.00000039,0.00000059,-
 0.00000234,-0.00000029,-0.00000057,-0.00000006,-0.00000528,-0.00000155
 ,-0.00000187,-0.00000055,0.00000102,0.00000201,0.00000246,0.00000008,0
 .00000486,-0.00000287,-0.00000400,0.00014490,-0.00004337,-0.00005410,0
 .00000846,0.00000466,-0.00000447,-0.00000137,-0.00000023,-0.00000259,0
 .00000042,-0.00000478,-0.00000282,-0.00000148,-0.00000033,0.00000113,-
 0.00000002,-0.00000025,-0.00000057,-0.00008089,0.00002873,0.00018519,-
 0.00004739,0.00001500,-0.00025790,0.00008811,-0.00009299,-0.00000681,-
 0.00066781,-0.00300587,0.00051037,0.00199889,0.00499373,-0.00162751,0.
 00034751,-0.00041333,-0.00026959,0.14255329,-0.10077657,-0.11714323,-0
 .11884554,0.09029949,-0.00000226,0.00000158,0.00001019,-0.00000432,0.0
 0000794,0.00000601,-0.00001172,0.00000023,-0.00002252,0.00001083,0.000
 00435,0.00000408,-0.00000105,0.00000048,-0.00000268,0.00001247,-0.0000
 0487,-0.00000328,-0.00000128,0.00001255,0.00001114,-0.00000610,0.00000
 822,-0.00000604,0.00000867,-0.00001019,-0.00000125,-0.00001026,-0.0000
 0183,-0.00000354,0.00000429,0.00000339,0.00000183,0.00001002,-0.000004
 64,0.00001355,0.00000113,-0.00000369,0.00000229,0.00000017,0.00000103,
 0.00000099,-0.00000125,-0.00000310,-0.00000422,0.00000033,0.00000034,-
 0.00000027,-0.00000306,-0.00000033,-0.00000111,-0.00000091,-0.00000257
 ,0.00000026,0.00000032,-0.00000080,-0.00000074,0.00000094,-0.00000085,
 0.00000218,0.00000239,-0.00000650,0.00000775,0.00001101,-0.00001089,0.
 00002526,0.00000024,-0.00000205,0.00001982,-0.00000408,-0.00000577,-0.
 00000133,0.00000119,0.00000457,0.00000137,0.00000092,0.00000095,-0.000
 00099,0.00000125,-0.00000255,0.00000302,-0.00014092,0.00009282,-0.0003
 1266,0.00026592,-0.00026700,0.00041899,-0.00002986,0.00009118,0.000082
 68,-0.00029132,0.00147331,0.00002812,0.00028781,-0.00254998,-0.0005317
 3,0.00010039,-0.00013035,-0.00005009,0.22662093,-0.07611798,-0.2343425
 4,-0.24975127,0.09225485,0.25310116,-0.00000261,-0.00000177,-0.0000001
 0,-0.00001129,0.00005510,0.00001431,0.00002928,-0.00005104,0.00000665,
 -0.00001988,0.00001223,0.00000254,-0.00000147,0.00000119,0.00000077,0.
 00002114,-0.00003909,-0.00001733,-0.00002577,0.00004581,0.00003367,-0.
 00004429,0.00002409,0.00003478,0.00002673,-0.00001769,-0.00001968,-0.0
 0004003,-0.00000413,0.00000544,0.00000760,0.00002891,0.00001042,-0.000
 01434,0.00005074,-0.00001157,-0.00000029,-0.00002240,-0.00000603,0.000
 00177,-0.00000663,0.00000065,-0.00000013,0.00000313,-0.00000222,0.0000
 0154,-0.00000492,-0.00000108,0.00000010,0.00000236,0.00000265,0.000001
 05,-0.00000607,-0.00000024,0.00000140,-0.00000150,-0.00000255,0.000001
 52,0.00000499,-0.00000103,0.00000770,-0.00000058,-0.00000453,0.0001549
 2,-0.00001232,-0.00006088,-0.00000576,0.00002273,-0.00002448,0.0000009
 2,0.00001221,0.00000450,-0.00000936,-0.00002421,-0.00001244,0.00000479
 ,-0.00000635,0.00000007,-0.00000006,0.00000132,-0.00000076,-0.00025758
 ,0.00008155,-0.00006124,0.00027624,-0.00016245,0.00015009,0.00002845,-
 0.00001404,0.00001290,-0.00033327,0.00111845,0.00052137,0.00048323,-0.
 00203850,-0.00162703,-0.00002334,-0.00003477,0.00013553,-0.02961015,-0
 .01488917,0.04860917,-0.00448320,-0.02544333,0.02291845,0.03383445,-0.
 00000419,-0.00000341,0.00000916,0.00001291,0.00001961,-0.00000730,-0.0
 0002475,-0.00001891,-0.00000381,0.00001536,0.00001198,0.00000953,0.000
 00209,-0.00000029,-0.00000485,0.00001628,0.00001481,0.00001071,0.00001
 985,0.00001333,0.00000201,-0.00006261,0.00002092,0.00001524,0.00000577
 ,-0.00002511,-0.00001597,-0.00001337,-0.00000260,0.00000041,0.00000207
 ,-0.00000468,-0.00000357,0.00000495,0.00001603,0.00000395,-0.00000175,
 -0.00000119,0.00000189,0.00000093,-0.00000345,0.00000161,-0.00000003,0
 .00000025,-0.00000126,-0.00000109,0.00000011,0.00000110,-0.00000379,-0
 .00000064,-0.00000145,-0.00000041,-0.00000745,-0.00000248,-0.00000277,
 -0.00000063,0.00000154,0.00000321,0.00000256,0.00000119,0.00000334,-0.
 00000759,0.00000255,0.00010901,-0.00005138,-0.00001978,0.00001329,0.00
 000050,0.00000835,-0.00000319,-0.00000549,-0.00000513,0.00000210,-0.00
 000305,-0.00000349,-0.00000317,0.00000093,0.00000096,0.00000049,-0.000
 00218,0.00000109,-0.00012546,0.00011362,-0.00007130,0.00011490,-0.0001
 4624,0.00010771,0.00000454,-0.00001016,0.00002109,0.00036112,-0.000911
 28,-0.00152740,-0.00112189,0.00080863,0.00362663,0.00009412,-0.0004545
 7,0.00012500,-0.04816985,-0.31606082,0.26945400,0.00743581,0.00896445,
 -0.01483186,0.04131618,0.30773338,-0.00000029,0.00000391,0.00000440,-0
 .00002197,0.00000845,0.00001790,0.00000209,0.00000151,-0.00003038,0.00
 000549,0.00000676,-0.00000108,-0.00000286,0.00000032,0.00000059,0.0000
 1341,-0.00002314,-0.00001579,-0.00002879,0.00000915,0.00001238,0.00006
 924,-0.00001710,-0.00002949,0.00000605,0.00001313,0.00001012,-0.000002
 80,-0.00000264,-0.00000460,0.00000689,0.00000993,0.00000557,0.00001349
 ,-0.00000373,0.00001961,0.00000383,-0.00000893,0.00000095,-0.00000005,
 0.00000137,-0.00000076,-0.00000077,-0.00000148,-0.00000501,0.00000124,
 -0.00000056,-0.00000117,-0.00000116,0.00000089,-0.00000125,-0.00000034
 ,-0.00000179,0.00000188,0.00000277,-0.00000129,-0.00000154,0.00000001,
 -0.00000242,0.00000199,-0.00000354,0.00000050,0.00000966,-0.00013990,0
 .00005603,0.00006862,-0.00001347,0.00000581,0.00001189,-0.00000511,-0.
 00000807,0.00000292,-0.00000028,0.00000481,0.00000212,0.00000496,-0.00
 000035,-0.00000224,0.00000231,-0.00000303,0.00000284,0.00012541,-0.000
 15365,-0.00000444,-0.00009060,0.00012131,-0.00008764,0.00000292,0.0000
 4977,0.00000522,0.00100257,-0.00235862,-0.00141880,-0.00169609,0.00321
 779,0.00241832,-0.00003384,-0.00016229,0.00029265,0.07107564,0.2297496
 9,-0.24703671,0.00031433,0.02639409,-0.01845570,-0.07061079,-0.2569060
 8,0.26420698\\0.00000027,-0.00000083,0.00000034,0.00000096,0.00000103,
 -0.00000064,-0.00000077,0.00000014,0.00000026,-0.00000092,0.00000005,0
 .00000090,-0.00000020,-0.00000025,0.00000076,-0.00000026,0.00000109,0.
 00000078,0.00000334,0.00000209,0.00000038,-0.00000394,-0.00000404,-0.0
 0000213,-0.00000096,0.00000255,0.00000101,0.00000212,0.00000052,-0.000
 00058,-0.00000079,-0.00000113,-0.00000140,-0.00000016,0.00000031,0.000
 00021,-0.00000044,-0.00000019,-0.00000009,0.00000017,-0.00000028,0.000
 00015,0.00000007,-0.00000031,0.00000020,-0.00000015,-0.00000017,0.0000
 0015,-0.00000013,-0.00000041,0.00000071,-0.00000011,0.00000003,0.00000
 043,-0.00000019,0.00000007,0.00000042,0.00000022,0.00000020,-0.0000003
 2,0.00000028,-0.00000026,-0.00000087,0.00000468,-0.00000273,0.00000235
 ,-0.00000057,-0.00000036,0.00000010,0.00000006,0.00000053,0.00000012,0
 .00000008,0.00000029,0.00000058,0.00000019,0.00000059,0.00000031,0.,0.
 00000025,-0.00000069,-0.00000234,0.00000219,-0.00000467,-0.00000360,0.
 00000241,-0.00000071,0.00000261,-0.00000180,0.00000065,0.00000007,-0.0
 0000031,-0.00000031,0.00000036,-0.00000317,0.00000167,-0.00000003,-0.0
 0000041,-0.00000021,0.00000040,0.00000526,-0.00000148,-0.00000067,-0.0
 0000294,0.00000099,0.00000036,0.00000002,0.00000063\\\@


 UNDER MOST GREENE GRASSE LY MOST GREATE SNAKES.
 -- PROVERBS AND REASONS OF THE YEAR 1585
           AS REPRINTED IN PAISLEY MAGAZINE 1828.
 Job cpu time:       0 days 17 hours 59 minutes 53.1 seconds.
 Elapsed time:       0 days  0 hours 38 minutes 36.4 seconds.
 File lengths (MBytes):  RWF=   1060 Int=      0 D2E=      0 Chk=     28 Scr=      8
 Normal termination of Gaussian 16 at Thu Jan 26 16:32:13 2023.
