 Entering Gaussian System, Link 0=g16
 Input=NicPySs3h5.gjf
 Output=NicPySs3h5.log
 Initial command:
 /sw/contrib/gaussian/g16/A03/g16/l1.exe "/gscratch/scrubbed/gds001/Gau-22715.inp" -scrdir="/gscratch/scrubbed/gds001/"
 Entering Link 1 = /sw/contrib/gaussian/g16/A03/g16/l1.exe PID=     22716.
  
 Copyright (c) 1988,1990,1992,1993,1995,1998,2003,2009,2016,
            Gaussian, Inc.  All Rights Reserved.
  
 This is part of the Gaussian(R) 16 program.  It is based on
 the Gaussian(R) 09 system (copyright 2009, Gaussian, Inc.),
 the Gaussian(R) 03 system (copyright 2003, Gaussian, Inc.),
 the Gaussian(R) 98 system (copyright 1998, Gaussian, Inc.),
 the Gaussian(R) 94 system (copyright 1995, Gaussian, Inc.),
 the Gaussian 92(TM) system (copyright 1992, Gaussian, Inc.),
 the Gaussian 90(TM) system (copyright 1990, Gaussian, Inc.),
 the Gaussian 88(TM) system (copyright 1988, Gaussian, Inc.),
 the Gaussian 86(TM) system (copyright 1986, Carnegie Mellon
 University), and the Gaussian 82(TM) system (copyright 1983,
 Carnegie Mellon University). Gaussian is a federally registered
 trademark of Gaussian, Inc.
  
 This software contains proprietary and confidential information,
 including trade secrets, belonging to Gaussian, Inc.
  
 This software is provided under written license and may be
 used, copied, transmitted, or stored only in accord with that
 written license.
  
 The following legend is applicable only to US Government
 contracts under FAR:
  
                    RESTRICTED RIGHTS LEGEND
  
 Use, reproduction and disclosure by the US Government is
 subject to restrictions as set forth in subparagraphs (a)
 and (c) of the Commercial Computer Software - Restricted
 Rights clause in FAR 52.227-19.
  
 Gaussian, Inc.
 340 Quinnipiac St., Bldg. 40, Wallingford CT 06492
  
  
 ---------------------------------------------------------------
 Warning -- This program may not be used in any manner that
 competes with the business of Gaussian, Inc. or will provide
 assistance to any competitor of Gaussian, Inc.  The licensee
 of this program is prohibited from giving any competitor of
 Gaussian, Inc. access to this program.  By using this program,
 the user acknowledges that Gaussian, Inc. is engaged in the
 business of creating and licensing software in the field of
 computational chemistry and represents and warrants to the
 licensee that it is not a competitor of Gaussian, Inc. and that
 it will not use this program in any manner prohibited above.
 ---------------------------------------------------------------
  

 Cite this work as:
 Gaussian 16, Revision A.03,
 M. J. Frisch, G. W. Trucks, H. B. Schlegel, G. E. Scuseria, 
 M. A. Robb, J. R. Cheeseman, G. Scalmani, V. Barone, 
 G. A. Petersson, H. Nakatsuji, X. Li, M. Caricato, A. V. Marenich, 
 J. Bloino, B. G. Janesko, R. Gomperts, B. Mennucci, H. P. Hratchian, 
 J. V. Ortiz, A. F. Izmaylov, J. L. Sonnenberg, D. Williams-Young, 
 F. Ding, F. Lipparini, F. Egidi, J. Goings, B. Peng, A. Petrone, 
 T. Henderson, D. Ranasinghe, V. G. Zakrzewski, J. Gao, N. Rega, 
 G. Zheng, W. Liang, M. Hada, M. Ehara, K. Toyota, R. Fukuda, 
 J. Hasegawa, M. Ishida, T. Nakajima, Y. Honda, O. Kitao, H. Nakai, 
 T. Vreven, K. Throssell, J. A. Montgomery, Jr., J. E. Peralta, 
 F. Ogliaro, M. J. Bearpark, J. J. Heyd, E. N. Brothers, K. N. Kudin, 
 V. N. Staroverov, T. A. Keith, R. Kobayashi, J. Normand, 
 K. Raghavachari, A. P. Rendell, J. C. Burant, S. S. Iyengar, 
 J. Tomasi, M. Cossi, J. M. Millam, M. Klene, C. Adamo, R. Cammi, 
 J. W. Ochterski, R. L. Martin, K. Morokuma, O. Farkas, 
 J. B. Foresman, and D. J. Fox, Gaussian, Inc., Wallingford CT, 2016.
 
 ******************************************
 Gaussian 16:  ES64L-G16RevA.03 25-Dec-2016
                26-Jan-2023 
 ******************************************
 %nprocshared=28
 Will use up to   28 processors via shared memory.
 %mem=41GB
 -----------------------------
 # wB97XD/aug-cc-pVDZ opt freq
 -----------------------------
 1/18=20,19=15,26=3,38=1/1,3;
 2/9=110,12=2,17=6,18=5,40=1/2;
 3/5=16,7=10,11=2,25=1,30=1,71=1,74=-58/1,2,3;
 4//1;
 5/5=2,38=5/2;
 6/7=2,8=2,9=2,10=2,28=1/1;
 7//1,2,3,16;
 1/18=20,19=15,26=3/3(2);
 2/9=110/2;
 99//99;
 2/9=110/2;
 3/5=16,7=10,11=2,25=1,30=1,71=1,74=-58/1,2,3;
 4/5=5,16=3,69=1/1;
 5/5=2,38=5/2;
 7//1,2,3,16;
 1/18=20,19=15,26=3/3(-5);
 2/9=110/2;
 6/7=2,8=2,9=2,10=2,19=2,28=1/1;
 99/9=1/99;
 ----
 blah
 ----
 Symbolic Z-matrix:
 Charge =  1 Multiplicity = 1
 C                    -2.50876   0.06566  -1.58309 
 C                    -1.70274  -0.50752  -0.38819 
 N                    -2.64985  -0.52006   0.71485 
 C                    -3.92686  -0.91146   0.12266 
 C                    -3.98952  -0.0969   -1.16839 
 C                    -0.48221   0.31805  -0.05738 
 C                     0.78282  -0.06684  -0.46843 
 N                     1.85533   0.70004  -0.20409 
 C                     1.76876   1.85621   0.46885 
 C                     0.53475   2.29429   0.91854 
 C                    -0.59181   1.52081   0.65278 
 C                    -2.24395  -1.3512    1.83307 
 H                    -1.36633  -1.53679  -0.63569 
 H                    -2.25756   1.11919  -1.75454 
 H                    -2.26511  -0.47933  -2.50197 
 H                    -4.44162   0.88266  -0.97697 
 H                    -4.58529  -0.59539  -1.93986 
 H                    -3.94216  -1.99799  -0.09909 
 H                    -4.74831  -0.69766   0.81645 
 H                    -1.57824   1.82571   1.00233 
 H                     2.6991    2.39517   0.63 
 H                     2.797     0.37663  -0.53374 
 H                     0.97649  -0.98911  -1.01255 
 H                    -1.30329  -0.98212   2.26341 
 H                    -2.10216  -2.41021   1.53823 
 H                    -3.00912  -1.31006   2.61666 
 H                     0.46349   3.2291    1.46962 
 O                     4.25415  -0.13964  -1.0433 
 H                     4.89307  -0.67249  -0.52637 
 H                     4.6768    0.06818  -1.87949 
 O                     5.98415  -1.64871   0.40105 
 H                     6.14293  -2.58343   0.24345 
 H                     6.76253  -1.32176   0.86036 
 O                     8.18171  -0.90942   1.85606 
 H                     9.12574  -0.68892   1.77834 
 H                     7.95175  -0.55333   2.73265 
 
 Add virtual bond connecting atoms O28        and H22        Dist= 3.08D+00.
 Add virtual bond connecting atoms O31        and H29        Dist= 3.28D+00.
 Add virtual bond connecting atoms O34        and H33        Dist= 3.37D+00.

 GradGradGradGradGradGradGradGradGradGradGradGradGradGradGradGradGradGrad
 Berny optimization.
 Initialization pass.
                           ----------------------------
                           !    Initial Parameters    !
                           ! (Angstroms and Degrees)  !
 --------------------------                            --------------------------
 ! Name  Definition              Value          Derivative Info.                !
 --------------------------------------------------------------------------------
 ! R1    R(1,2)                  1.5511         estimate D2E/DX2                !
 ! R2    R(1,5)                  1.5463         estimate D2E/DX2                !
 ! R3    R(1,14)                 1.0966         estimate D2E/DX2                !
 ! R4    R(1,15)                 1.0958         estimate D2E/DX2                !
 ! R5    R(2,3)                  1.4539         estimate D2E/DX2                !
 ! R6    R(2,6)                  1.5102         estimate D2E/DX2                !
 ! R7    R(2,13)                 1.1108         estimate D2E/DX2                !
 ! R8    R(3,4)                  1.461          estimate D2E/DX2                !
 ! R9    R(3,12)                 1.4512         estimate D2E/DX2                !
 ! R10   R(4,5)                  1.5278         estimate D2E/DX2                !
 ! R11   R(4,18)                 1.109          estimate D2E/DX2                !
 ! R12   R(4,19)                 1.0963         estimate D2E/DX2                !
 ! R13   R(5,16)                 1.0957         estimate D2E/DX2                !
 ! R14   R(5,17)                 1.0948         estimate D2E/DX2                !
 ! R15   R(6,7)                  1.3847         estimate D2E/DX2                !
 ! R16   R(6,11)                 1.4011         estimate D2E/DX2                !
 ! R17   R(7,8)                  1.3447         estimate D2E/DX2                !
 ! R18   R(7,23)                 1.0882         estimate D2E/DX2                !
 ! R19   R(8,9)                  1.3405         estimate D2E/DX2                !
 ! R20   R(8,22)                 1.0488         estimate D2E/DX2                !
 ! R21   R(9,10)                 1.3845         estimate D2E/DX2                !
 ! R22   R(9,21)                 1.0872         estimate D2E/DX2                !
 ! R23   R(10,11)                1.3921         estimate D2E/DX2                !
 ! R24   R(10,27)                1.0875         estimate D2E/DX2                !
 ! R25   R(11,20)                1.09           estimate D2E/DX2                !
 ! R26   R(12,24)                1.0983         estimate D2E/DX2                !
 ! R27   R(12,25)                1.1084         estimate D2E/DX2                !
 ! R28   R(12,26)                1.096          estimate D2E/DX2                !
 ! R29   R(22,28)                1.6277         estimate D2E/DX2                !
 ! R30   R(28,29)                0.9795         estimate D2E/DX2                !
 ! R31   R(28,30)                0.9597         estimate D2E/DX2                !
 ! R32   R(29,31)                1.7331         estimate D2E/DX2                !
 ! R33   R(31,32)                0.9611         estimate D2E/DX2                !
 ! R34   R(31,33)                0.9611         estimate D2E/DX2                !
 ! R35   R(33,34)                1.782          estimate D2E/DX2                !
 ! R36   R(34,35)                0.9726         estimate D2E/DX2                !
 ! R37   R(34,36)                0.9737         estimate D2E/DX2                !
 ! A1    A(2,1,5)              104.6056         estimate D2E/DX2                !
 ! A2    A(2,1,14)             110.8814         estimate D2E/DX2                !
 ! A3    A(2,1,15)             110.2831         estimate D2E/DX2                !
 ! A4    A(5,1,14)             111.2415         estimate D2E/DX2                !
 ! A5    A(5,1,15)             112.6771         estimate D2E/DX2                !
 ! A6    A(14,1,15)            107.2056         estimate D2E/DX2                !
 ! A7    A(1,2,3)              104.4257         estimate D2E/DX2                !
 ! A8    A(1,2,6)              112.7497         estimate D2E/DX2                !
 ! A9    A(1,2,13)             109.1561         estimate D2E/DX2                !
 ! A10   A(3,2,6)              111.4079         estimate D2E/DX2                !
 ! A11   A(3,2,13)             110.9981         estimate D2E/DX2                !
 ! A12   A(6,2,13)             108.0944         estimate D2E/DX2                !
 ! A13   A(2,3,4)              105.3181         estimate D2E/DX2                !
 ! A14   A(2,3,12)             114.0371         estimate D2E/DX2                !
 ! A15   A(4,3,12)             113.7887         estimate D2E/DX2                !
 ! A16   A(3,4,5)              103.6226         estimate D2E/DX2                !
 ! A17   A(3,4,18)             110.8277         estimate D2E/DX2                !
 ! A18   A(3,4,19)             110.2532         estimate D2E/DX2                !
 ! A19   A(5,4,18)             110.6591         estimate D2E/DX2                !
 ! A20   A(5,4,19)             113.5822         estimate D2E/DX2                !
 ! A21   A(18,4,19)            107.8949         estimate D2E/DX2                !
 ! A22   A(1,5,4)              104.0871         estimate D2E/DX2                !
 ! A23   A(1,5,16)             110.3643         estimate D2E/DX2                !
 ! A24   A(1,5,17)             112.3335         estimate D2E/DX2                !
 ! A25   A(4,5,16)             110.2387         estimate D2E/DX2                !
 ! A26   A(4,5,17)             112.0255         estimate D2E/DX2                !
 ! A27   A(16,5,17)            107.7964         estimate D2E/DX2                !
 ! A28   A(2,6,7)              121.4244         estimate D2E/DX2                !
 ! A29   A(2,6,11)             121.1377         estimate D2E/DX2                !
 ! A30   A(7,6,11)             117.4225         estimate D2E/DX2                !
 ! A31   A(6,7,8)              120.7818         estimate D2E/DX2                !
 ! A32   A(6,7,23)             123.134          estimate D2E/DX2                !
 ! A33   A(8,7,23)             116.084          estimate D2E/DX2                !
 ! A34   A(7,8,9)              122.6179         estimate D2E/DX2                !
 ! A35   A(7,8,22)             118.5844         estimate D2E/DX2                !
 ! A36   A(9,8,22)             118.7969         estimate D2E/DX2                !
 ! A37   A(8,9,10)             119.5707         estimate D2E/DX2                !
 ! A38   A(8,9,21)             116.5326         estimate D2E/DX2                !
 ! A39   A(10,9,21)            123.8963         estimate D2E/DX2                !
 ! A40   A(9,10,11)            118.9106         estimate D2E/DX2                !
 ! A41   A(9,10,27)            119.669          estimate D2E/DX2                !
 ! A42   A(11,10,27)           121.4204         estimate D2E/DX2                !
 ! A43   A(6,11,10)            120.6925         estimate D2E/DX2                !
 ! A44   A(6,11,20)            118.2588         estimate D2E/DX2                !
 ! A45   A(10,11,20)           121.0431         estimate D2E/DX2                !
 ! A46   A(3,12,24)            110.4275         estimate D2E/DX2                !
 ! A47   A(3,12,25)            112.2109         estimate D2E/DX2                !
 ! A48   A(3,12,26)            109.5201         estimate D2E/DX2                !
 ! A49   A(24,12,25)           108.4052         estimate D2E/DX2                !
 ! A50   A(24,12,26)           107.7703         estimate D2E/DX2                !
 ! A51   A(25,12,26)           108.3824         estimate D2E/DX2                !
 ! A52   A(22,28,29)           126.2478         estimate D2E/DX2                !
 ! A53   A(22,28,30)           126.7497         estimate D2E/DX2                !
 ! A54   A(29,28,30)           106.8809         estimate D2E/DX2                !
 ! A55   A(29,31,32)           124.3381         estimate D2E/DX2                !
 ! A56   A(29,31,33)           125.0277         estimate D2E/DX2                !
 ! A57   A(32,31,33)           105.9868         estimate D2E/DX2                !
 ! A58   A(33,34,35)           141.3394         estimate D2E/DX2                !
 ! A59   A(33,34,36)           113.551          estimate D2E/DX2                !
 ! A60   A(35,34,36)           102.6072         estimate D2E/DX2                !
 ! A61   L(8,22,28,23,-1)      179.5513         estimate D2E/DX2                !
 ! A62   L(28,29,31,24,-1)     178.5001         estimate D2E/DX2                !
 ! A63   L(31,33,34,21,-1)     184.2225         estimate D2E/DX2                !
 ! A64   L(8,22,28,23,-2)      180.3209         estimate D2E/DX2                !
 ! A65   L(28,29,31,24,-2)     179.0218         estimate D2E/DX2                !
 ! A66   L(31,33,34,21,-2)     172.7509         estimate D2E/DX2                !
 ! D1    D(5,1,2,3)            -18.0601         estimate D2E/DX2                !
 ! D2    D(5,1,2,6)           -139.161          estimate D2E/DX2                !
 ! D3    D(5,1,2,13)           100.6939         estimate D2E/DX2                !
 ! D4    D(14,1,2,3)           101.9485         estimate D2E/DX2                !
 ! D5    D(14,1,2,6)           -19.1525         estimate D2E/DX2                !
 ! D6    D(14,1,2,13)         -139.2976         estimate D2E/DX2                !
 ! D7    D(15,1,2,3)          -139.4632         estimate D2E/DX2                !
 ! D8    D(15,1,2,6)            99.4359         estimate D2E/DX2                !
 ! D9    D(15,1,2,13)          -20.7092         estimate D2E/DX2                !
 ! D10   D(2,1,5,4)             -7.4487         estimate D2E/DX2                !
 ! D11   D(2,1,5,16)           110.8183         estimate D2E/DX2                !
 ! D12   D(2,1,5,17)          -128.8544         estimate D2E/DX2                !
 ! D13   D(14,1,5,4)          -127.216          estimate D2E/DX2                !
 ! D14   D(14,1,5,16)           -8.9489         estimate D2E/DX2                !
 ! D15   D(14,1,5,17)          111.3784         estimate D2E/DX2                !
 ! D16   D(15,1,5,4)           112.3617         estimate D2E/DX2                !
 ! D17   D(15,1,5,16)         -129.3712         estimate D2E/DX2                !
 ! D18   D(15,1,5,17)           -9.0439         estimate D2E/DX2                !
 ! D19   D(1,2,3,4)             38.2797         estimate D2E/DX2                !
 ! D20   D(1,2,3,12)           163.7372         estimate D2E/DX2                !
 ! D21   D(6,2,3,4)            160.2673         estimate D2E/DX2                !
 ! D22   D(6,2,3,12)           -74.2752         estimate D2E/DX2                !
 ! D23   D(13,2,3,4)           -79.2146         estimate D2E/DX2                !
 ! D24   D(13,2,3,12)           46.2429         estimate D2E/DX2                !
 ! D25   D(1,2,6,7)           -100.7762         estimate D2E/DX2                !
 ! D26   D(1,2,6,11)            77.758          estimate D2E/DX2                !
 ! D27   D(3,2,6,7)            142.1872         estimate D2E/DX2                !
 ! D28   D(3,2,6,11)           -39.2786         estimate D2E/DX2                !
 ! D29   D(13,2,6,7)            19.9776         estimate D2E/DX2                !
 ! D30   D(13,2,6,11)         -161.4882         estimate D2E/DX2                !
 ! D31   D(2,3,4,5)            -43.387          estimate D2E/DX2                !
 ! D32   D(2,3,4,18)            75.3371         estimate D2E/DX2                !
 ! D33   D(2,3,4,19)          -165.2705         estimate D2E/DX2                !
 ! D34   D(12,3,4,5)          -168.9986         estimate D2E/DX2                !
 ! D35   D(12,3,4,18)          -50.2746         estimate D2E/DX2                !
 ! D36   D(12,3,4,19)           69.1178         estimate D2E/DX2                !
 ! D37   D(2,3,12,24)           61.7017         estimate D2E/DX2                !
 ! D38   D(2,3,12,25)          -59.3627         estimate D2E/DX2                !
 ! D39   D(2,3,12,26)         -179.771          estimate D2E/DX2                !
 ! D40   D(4,3,12,24)         -177.4527         estimate D2E/DX2                !
 ! D41   D(4,3,12,25)           61.483          estimate D2E/DX2                !
 ! D42   D(4,3,12,26)          -58.9253         estimate D2E/DX2                !
 ! D43   D(3,4,5,1)             30.3109         estimate D2E/DX2                !
 ! D44   D(3,4,5,16)           -88.0425         estimate D2E/DX2                !
 ! D45   D(3,4,5,17)           151.9213         estimate D2E/DX2                !
 ! D46   D(18,4,5,1)           -88.5294         estimate D2E/DX2                !
 ! D47   D(18,4,5,16)          153.1172         estimate D2E/DX2                !
 ! D48   D(18,4,5,17)           33.081          estimate D2E/DX2                !
 ! D49   D(19,4,5,1)           149.9434         estimate D2E/DX2                !
 ! D50   D(19,4,5,16)           31.59           estimate D2E/DX2                !
 ! D51   D(19,4,5,17)          -88.4461         estimate D2E/DX2                !
 ! D52   D(2,6,7,8)            177.8312         estimate D2E/DX2                !
 ! D53   D(2,6,7,23)            -2.3215         estimate D2E/DX2                !
 ! D54   D(11,6,7,8)            -0.7554         estimate D2E/DX2                !
 ! D55   D(11,6,7,23)          179.0918         estimate D2E/DX2                !
 ! D56   D(2,6,11,10)         -178.0958         estimate D2E/DX2                !
 ! D57   D(2,6,11,20)            2.7562         estimate D2E/DX2                !
 ! D58   D(7,6,11,10)            0.4951         estimate D2E/DX2                !
 ! D59   D(7,6,11,20)         -178.6529         estimate D2E/DX2                !
 ! D60   D(6,7,8,9)              0.501          estimate D2E/DX2                !
 ! D61   D(6,7,8,22)          -179.8395         estimate D2E/DX2                !
 ! D62   D(23,7,8,9)          -179.3566         estimate D2E/DX2                !
 ! D63   D(23,7,8,22)            0.3029         estimate D2E/DX2                !
 ! D64   D(7,8,9,10)             0.0503         estimate D2E/DX2                !
 ! D65   D(7,8,9,21)           179.807          estimate D2E/DX2                !
 ! D66   D(22,8,9,10)         -179.6085         estimate D2E/DX2                !
 ! D67   D(22,8,9,21)            0.1482         estimate D2E/DX2                !
 ! D68   D(7,8,28,29)          -92.7436         estimate D2E/DX2                !
 ! D69   D(7,8,28,30)           91.5384         estimate D2E/DX2                !
 ! D70   D(9,8,28,29)           86.7367         estimate D2E/DX2                !
 ! D71   D(9,8,28,30)          -88.9812         estimate D2E/DX2                !
 ! D72   D(8,9,10,11)           -0.3064         estimate D2E/DX2                !
 ! D73   D(8,9,10,27)          179.6464         estimate D2E/DX2                !
 ! D74   D(21,9,10,11)         179.9558         estimate D2E/DX2                !
 ! D75   D(21,9,10,27)          -0.0914         estimate D2E/DX2                !
 ! D76   D(9,10,11,6)            0.0236         estimate D2E/DX2                !
 ! D77   D(9,10,11,20)         179.1476         estimate D2E/DX2                !
 ! D78   D(27,10,11,6)        -179.9284         estimate D2E/DX2                !
 ! D79   D(27,10,11,20)         -0.8043         estimate D2E/DX2                !
 ! D80   D(22,28,31,32)        105.7276         estimate D2E/DX2                !
 ! D81   D(22,28,31,33)       -101.2887         estimate D2E/DX2                !
 ! D82   D(30,28,31,32)        -77.2173         estimate D2E/DX2                !
 ! D83   D(30,28,31,33)         75.7663         estimate D2E/DX2                !
 ! D84   D(29,31,34,35)        -81.5387         estimate D2E/DX2                !
 ! D85   D(29,31,34,36)         80.2551         estimate D2E/DX2                !
 ! D86   D(32,31,34,35)         77.6012         estimate D2E/DX2                !
 ! D87   D(32,31,34,36)       -120.6049         estimate D2E/DX2                !
 --------------------------------------------------------------------------------
 Trust Radius=3.00D-01 FncErr=1.00D-07 GrdErr=1.00D-06 EigMax=2.50D+02 EigMin=1.00D-04
 Number of steps in this run=    200 maximum allowed number of steps=    216.
 GradGradGradGradGradGradGradGradGradGradGradGradGradGradGradGradGradGrad

                          Input orientation:                          
 ---------------------------------------------------------------------
 Center     Atomic      Atomic             Coordinates (Angstroms)
 Number     Number       Type             X           Y           Z
 ---------------------------------------------------------------------
      1          6           0       -2.508755    0.065661   -1.583093
      2          6           0       -1.702739   -0.507517   -0.388190
      3          7           0       -2.649853   -0.520061    0.714850
      4          6           0       -3.926860   -0.911463    0.122663
      5          6           0       -3.989524   -0.096897   -1.168391
      6          6           0       -0.482208    0.318046   -0.057381
      7          6           0        0.782822   -0.066840   -0.468434
      8          7           0        1.855330    0.700040   -0.204086
      9          6           0        1.768764    1.856207    0.468846
     10          6           0        0.534754    2.294295    0.918544
     11          6           0       -0.591810    1.520811    0.652776
     12          6           0       -2.243947   -1.351195    1.833069
     13          1           0       -1.366325   -1.536793   -0.635687
     14          1           0       -2.257561    1.119194   -1.754538
     15          1           0       -2.265105   -0.479331   -2.501973
     16          1           0       -4.441619    0.882661   -0.976967
     17          1           0       -4.585292   -0.595388   -1.939859
     18          1           0       -3.942160   -1.997989   -0.099085
     19          1           0       -4.748313   -0.697657    0.816451
     20          1           0       -1.578244    1.825706    1.002332
     21          1           0        2.699099    2.395170    0.629995
     22          1           0        2.797003    0.376629   -0.533743
     23          1           0        0.976489   -0.989108   -1.012545
     24          1           0       -1.303294   -0.982123    2.263405
     25          1           0       -2.102156   -2.410207    1.538229
     26          1           0       -3.009123   -1.310057    2.616660
     27          1           0        0.463491    3.229102    1.469620
     28          8           0        4.254153   -0.139640   -1.043304
     29          1           0        4.893071   -0.672489   -0.526366
     30          1           0        4.676796    0.068180   -1.879494
     31          8           0        5.984154   -1.648714    0.401048
     32          1           0        6.142934   -2.583427    0.243448
     33          1           0        6.762525   -1.321755    0.860362
     34          8           0        8.181708   -0.909418    1.856055
     35          1           0        9.125744   -0.688922    1.778342
     36          1           0        7.951751   -0.553327    2.732655
 ---------------------------------------------------------------------
                    Distance matrix (angstroms):
                    1          2          3          4          5
     1  C    0.000000
     2  C    1.551125   0.000000
     3  N    2.375610   1.453919   0.000000
     4  C    2.423922   2.317511   1.461037   0.000000
     5  C    1.546312   2.450859   2.349549   1.527830   0.000000
     6  C    2.549194   1.510194   2.448969   3.661931   3.702403
     7  C    3.477715   2.525599   3.659075   4.821192   4.823498
     8  N    4.620534   3.761907   4.757075   6.011441   5.977233
     9  C    5.070866   4.286378   5.023081   6.341922   6.297066
    10  C    4.526361   3.816291   4.254858   5.551244   5.526499
    11  C    3.285004   2.536117   2.899061   4.161675   4.180680
    12  C    3.707798   2.436943   1.451192   2.439477   3.691756
    13  H    2.184166   1.110783   2.122531   2.742712   3.039448
    14  H    1.096551   2.195660   2.989804   3.230172   2.195937
    15  H    1.095775   2.187494   3.240006   3.136380   2.213214
    16  H    2.184225   3.127414   2.835542   2.166343   1.095704
    17  H    2.208229   3.274830   3.286195   2.188020   1.094804
    18  H    2.918147   2.705567   2.125281   1.109029   2.181699
    19  H    3.369879   3.280676   2.108411   1.096285   2.208228
    20  H    3.263132   2.719003   2.594921   3.712399   3.771301
    21  H    6.119323   5.370146   6.092377   7.422570   7.360861
    22  H    5.417463   4.588091   5.659618   6.877527   6.832566
    23  H    3.685782   2.792850   4.044039   5.033643   5.047932
    24  H    4.164917   2.723190   2.103508   3.386867   4.447098
    25  H    4.004734   2.736942   2.133208   2.753108   4.029808
    26  H    4.447572   3.373401   2.090466   2.687218   4.093843
    27  H    5.306662   4.701737   4.931411   6.183345   6.152293
    28  O    6.787521   6.004088   7.134502   8.299648   8.244737
    29  H    7.513226   6.599320   7.645885   8.847007   8.924349
    30  H    7.191662   6.576768   7.794641   8.887701   8.697012
    31  O    8.888498   7.811117   8.713117   9.942295  10.214966
    32  H    9.230690   8.140206   9.043937  10.208369  10.528192
    33  H    9.687726   8.595497   9.447579  10.722662  11.010117
    34  O   11.272290  10.143986  10.898471  12.232010  12.567671
    35  H   12.133846  11.044583  11.824729  13.159076  13.455259
    36  H   11.332741  10.146475  10.791972  12.167240  12.570622
                    6          7          8          9         10
     6  C    0.000000
     7  C    1.384703   0.000000
     8  N    2.373084   1.344715   0.000000
     9  C    2.776640   2.355565   1.340542   0.000000
    10  C    2.427386   2.749583   2.354967   1.384532   0.000000
    11  C    1.401064   2.380622   2.719627   2.391366   1.392141
    12  C    3.076344   4.013454   5.016138   5.315109   4.674092
    13  H    2.134603   2.609132   3.945727   4.749866   4.550491
    14  H    2.583420   3.507801   4.415367   4.658102   4.040205
    15  H    3.128987   3.687179   4.863043   5.527441   5.218443
    16  H    4.103823   5.334317   6.346831   6.450351   5.509080
    17  H    4.605799   5.591163   6.795046   7.224002   6.537248
    18  H    4.163775   5.117735   6.395411   6.913178   6.285064
    19  H    4.471564   5.713345   6.826650   7.008234   6.072314
    20  H    2.144137   3.364449   3.809462   3.389395   2.165954
    21  H    3.861042   3.307591   2.069083   1.087186   2.185824
    22  H    3.314148   2.063457   1.048817   2.061944   3.302174
    23  H    2.179171   1.088183   2.068620   3.304245   3.834706
    24  H    2.784002   3.557045   4.346848   4.551274   3.990236
    25  H    3.551558   4.223880   5.326443   5.859171   5.428595
    26  H    4.023247   5.044030   5.971600   6.120991   5.332356
    27  H    3.420574   3.836829   3.336864   2.142458   1.087487
    28  O    4.859489   3.519363   2.676509   3.528053   4.858685
    29  H    5.485866   4.155035   3.348966   4.140778   5.466672
    30  H    5.477029   4.143954   3.341693   4.143476   5.471848
    31  O    6.774374   5.505650   4.788530   5.482571   6.746190
    32  H    7.238892   5.964125   5.418947   6.236547   7.463217
    33  H    7.484474   6.252788   5.413065   5.932148   7.201690
    34  O    8.957195   7.801071   6.845261   7.120315   8.343777
    35  H    9.833444   8.662525   7.662778   7.894151   9.134766
    36  H    8.926100   7.866205   6.881986   7.011420   8.149343
                   11         12         13         14         15
    11  C    0.000000
    12  C    3.517253   0.000000
    13  H    3.407191   2.626675   0.000000
    14  H    2.954858   4.355908   3.016686   0.000000
    15  H    4.093034   4.421898   2.325737   1.764652   0.000000
    16  H    4.228987   4.209059   3.927806   2.330381   2.986282
    17  H    5.210370   4.504234   3.598452   2.896975   2.390127
    18  H    4.916512   2.652450   2.671249   3.910911   3.300410
    19  H    4.714330   2.780732   3.775010   4.014322   4.150413
    20  H    1.090047   3.350520   3.746254   2.925912   4.250309
    21  H    3.405159   6.317938   5.795684   5.646467   6.535694
    22  H    3.768426   5.830811   4.583108   5.252653   5.498321
    23  H    3.395961   4.312752   2.435315   3.931230   3.603637
    24  H    3.060231   1.098286   2.952349   4.633576   4.887403
    25  H    4.303263   1.108396   2.455649   4.829403   4.480856
    26  H    4.208807   1.095993   3.650747   5.057023   5.238709
    27  H    2.167753   5.333051   5.522164   4.717100   6.080400
    28  O    5.396030   7.208793   5.805856   6.670303   6.689083
    29  H    6.023692   7.547490   6.319732   7.473291   7.428312
    30  H    6.023349   7.980879   6.375132   7.014667   6.991226
    31  O    7.304284   8.357084   7.424075   8.957328   8.822996
    32  H    7.897411   8.624678   7.632646   9.395194   9.091737
    33  H    7.887301   9.058894   8.268168   9.703499   9.670216
    34  O    9.183056  10.435036   9.887736  11.230761  11.327546
    35  H   10.028992  11.389095  10.799534  12.055296  12.170311
    36  H    9.034400  10.266358   9.956881  11.276625  11.480024
                   16         17         18         19         20
    16  H    0.000000
    17  H    1.769868   0.000000
    18  H    3.052586   2.401949   0.000000
    19  H    2.409941   2.763020   1.782962   0.000000
    20  H    3.606366   4.853918   4.628376   4.056014   0.000000
    21  H    7.473946   8.283112   7.996107   8.066244   4.331118
    22  H    7.269812   7.577616   7.158495   7.740084   4.858203
    23  H    5.732424   5.652286   5.103465   6.016937   4.302275
    24  H    4.881241   5.346822   3.684692   3.747366   3.090276
    25  H    4.758390   4.642912   2.497266   3.233564   4.301701
    26  H    4.446820   4.874108   2.952809   2.576930   3.806111
    27  H    5.962523   7.193155   7.013778   6.558122   2.521222
    28  O    8.755909   8.896477   8.457219   9.209477   6.485682
    29  H    9.474068   9.583490   8.944318   9.734479   7.103226
    30  H    9.199099   9.286024   9.040205   9.832970   7.107696
    31  O   10.816817  10.876697   9.945041  10.782528   8.344040
    32  H   11.204282  11.127172  10.107877  11.068140   8.923730
    33  H   11.565815  11.710756  10.768849  11.527828   8.916002
    34  O   13.060856  13.323058  12.328655  12.973476  10.171844
    35  H   13.933232  14.206558  13.266820  13.907364  11.022745
    36  H   13.016105  13.379522  12.311414  12.844621   9.973697
                   21         22         23         24         25
    21  H    0.000000
    22  H    2.332033   0.000000
    23  H    4.137470   2.325674   0.000000
    24  H    5.485735   5.146132   3.991154   0.000000
    25  H    6.853363   6.005105   4.243115   1.789828   0.000000
    26  H    7.089382   6.817701   5.399930   1.772620   1.787717
    27  H    2.529497   4.194680   4.921139   4.635304   6.195890
    28  O    3.412240   1.627720   3.386093   6.521451   7.226510
    29  H    3.944771   2.343972   3.959322   6.802473   7.497694
    30  H    3.952683   2.332340   3.944836   7.350389   7.986077
    31  O    5.215074   3.890216   5.245001   7.551133   8.201309
    32  H    6.065958   4.534447   5.550813   7.879766   8.347932
    33  H    5.511808   4.533586   6.090702   8.193980   8.956941
    34  O    6.517862   6.029934   7.755669   9.494024  10.397656
    35  H    7.220256   6.821591   8.619137  10.444429  11.361612
    36  H    6.380060   6.172973   7.929105   9.276849  10.293479
                   26         27         28         29         30
    26  H    0.000000
    27  H    5.829126   0.000000
    28  O    8.217079   5.659711   0.000000
    29  H    8.528175   6.231176   0.979474   0.000000
    30  H    9.010454   6.241789   0.959703   1.557665   0.000000
    31  O    9.268369   7.443968   2.712261   1.733082   3.139710
    32  H    9.540113   8.218580   3.345941   2.409659   3.699657
    33  H    9.928234   7.794827   3.363521   2.416489   3.713354
    34  O   11.223802   8.766274   4.942118   4.067825   5.214829
    35  H   12.179638   9.512142   5.656483   4.819489   5.809140
    36  H   10.987577   8.483871   5.301060   4.471123   5.690652
                   31         32         33         34         35
    31  O    0.000000
    32  H    0.961113   0.000000
    33  H    0.961110   1.535022   0.000000
    34  O    2.737307   3.091830   1.781996   0.000000
    35  H    3.561984   3.852559   2.613039   0.972554   0.000000
    36  H    3.241558   3.686363   2.347386   0.973708   1.519000
                   36
    36  H    0.000000
 Stoichiometry    C10H21N2O3(1+)
 Framework group  C1[X(C10H21N2O3)]
 Deg. of freedom   102
 Full point group                 C1      NOp   1
 Largest Abelian subgroup         C1      NOp   1
 Largest concise Abelian subgroup C1      NOp   1
                         Standard orientation:                         
 ---------------------------------------------------------------------
 Center     Atomic      Atomic             Coordinates (Angstroms)
 Number     Number       Type             X           Y           Z
 ---------------------------------------------------------------------
      1          6           0       -3.354568    0.332318   -1.399178
      2          6           0       -2.416580   -0.448139   -0.441549
      3          7           0       -3.254895   -0.773810    0.700838
      4          6           0       -4.563900   -1.098459    0.138934
      5          6           0       -4.781751   -0.014490   -0.915493
      6          6           0       -1.206699    0.354678   -0.026390
      7          6           0        0.029535    0.155361   -0.617491
      8          7           0        1.088455    0.907115   -0.268475
      9          6           0        1.016117    1.869724    0.661690
     10          6           0       -0.187909    2.113782    1.300193
     11          6           0       -1.300451    1.352525    0.952636
     12          6           0       -2.711093   -1.812435    1.556112
     13          1           0       -2.061299   -1.369551   -0.950089
     14          1           0       -3.165601    1.410755   -1.338435
     15          1           0       -3.175017    0.029733   -2.436929
     16          1           0       -5.255232    0.864221   -0.463553
     17          1           0       -5.425350   -0.358861   -1.731449
     18          1           0       -4.553621   -2.103618   -0.329569
     19          1           0       -5.325162   -1.102265    0.927798
     20          1           0       -2.261917    1.505905    1.442799
     21          1           0        1.933661    2.414880    0.868792
     22          1           0        2.008048    0.728348   -0.740076
     23          1           0        0.210507   -0.602949   -1.376673
     24          1           0       -1.750858   -1.493513    1.983275
     25          1           0       -2.552569   -2.764140    1.010520
     26          1           0       -3.400620   -2.001020    2.386889
     27          1           0       -0.247008    2.890403    2.059136
     28          8           0        3.431756    0.436231   -1.473011
     29          1           0        4.138357   -0.159731   -1.149106
     30          1           0        3.765044    0.857039   -2.268542
     31          8           0        5.352020   -1.252085   -0.568282
     32          1           0        5.534998   -2.113560   -0.953144
     33          1           0        6.155339   -0.990980   -0.109767
     34          8           0        7.642644   -0.729796    0.836391
     35          1           0        8.565016   -0.438129    0.736274
     36          1           0        7.480797   -0.600076    1.787751
 ---------------------------------------------------------------------
 Rotational constants (GHZ):           1.0278461           0.1569304           0.1534706
 Standard basis: Aug-CC-pVDZ (5D, 7F)
 There are   564 symmetry adapted cartesian basis functions of A   symmetry.
 There are   534 symmetry adapted basis functions of A   symmetry.
   534 basis functions,   876 primitive gaussians,   564 cartesian basis functions
    59 alpha electrons       59 beta electrons
       nuclear repulsion energy       995.1145985785 Hartrees.
 NAtoms=   36 NActive=   36 NUniq=   36 SFac= 1.00D+00 NAtFMM=   60 NAOKFM=F Big=F
 Integral buffers will be    131072 words long.
 Raffenetti 2 integral format.
 Two-electron integral symmetry is turned on.
 Nuclear repulsion after empirical dispersion term =      995.0920981216 Hartrees.
 One-electron integrals computed using PRISM.
 NBasis=   534 RedAO= T EigKep=  2.50D-06  NBF=   534
 NBsUse=   534 1.00D-06 EigRej= -1.00D+00 NBFU=   534
 ExpMin= 2.97D-02 ExpMax= 1.17D+04 ExpMxC= 4.01D+02 IAcc=3 IRadAn=         5 AccDes= 0.00D+00
 Harris functional with IExCor= 4639 and IRadAn=       5 diagonalized for initial guess.
 HarFok:  IExCor= 4639 AccDes= 0.00D+00 IRadAn=         5 IDoV= 1 UseB2=F ITyADJ=14
 ICtDFT=  3500011 ScaDFX=  1.000000  1.000000  1.000000  1.000000
 FoFCou: FMM=F IPFlag=           0 FMFlag=      100000 FMFlg1=           0
         NFxFlg=           0 DoJE=T BraDBF=F KetDBF=T FulRan=T
         wScrn=  0.000000 ICntrl=       500 IOpCl=  0 I1Cent=   200000004 NGrid=           0
         NMat0=    1 NMatS0=      1 NMatT0=    0 NMatD0=    1 NMtDS0=    0 NMtDT0=    0
 Petite list used in FoFCou.
 Requested convergence on RMS density matrix=1.00D-08 within 128 cycles.
 Requested convergence on MAX density matrix=1.00D-06.
 Requested convergence on             energy=1.00D-06.
 No special actions if energy rises.
 SCF Done:  E(RwB97XD) =  -728.585544280     A.U. after   14 cycles
            NFock= 14  Conv=0.73D-08     -V/T= 2.0063

 **********************************************************************

            Population analysis using the SCF density.

 **********************************************************************

 Orbital symmetries:
       Occupied  (A) (A) (A) (A) (A) (A) (A) (A) (A) (A) (A) (A)
                 (A) (A) (A) (A) (A) (A) (A) (A) (A) (A) (A) (A)
                 (A) (A) (A) (A) (A) (A) (A) (A) (A) (A) (A) (A)
                 (A) (A) (A) (A) (A) (A) (A) (A) (A) (A) (A) (A)
                 (A) (A) (A) (A) (A) (A) (A) (A) (A) (A) (A)
       Virtual   (A) (A) (A) (A) (A) (A) (A) (A) (A) (A) (A) (A)
                 (A) (A) (A) (A) (A) (A) (A) (A) (A) (A) (A) (A)
                 (A) (A) (A) (A) (A) (A) (A) (A) (A) (A) (A) (A)
                 (A) (A) (A) (A) (A) (A) (A) (A) (A) (A) (A) (A)
                 (A) (A) (A) (A) (A) (A) (A) (A) (A) (A) (A) (A)
                 (A) (A) (A) (A) (A) (A) (A) (A) (A) (A) (A) (A)
                 (A) (A) (A) (A) (A) (A) (A) (A) (A) (A) (A) (A)
                 (A) (A) (A) (A) (A) (A) (A) (A) (A) (A) (A) (A)
                 (A) (A) (A) (A) (A) (A) (A) (A) (A) (A) (A) (A)
                 (A) (A) (A) (A) (A) (A) (A) (A) (A) (A) (A) (A)
                 (A) (A) (A) (A) (A) (A) (A) (A) (A) (A) (A) (A)
                 (A) (A) (A) (A) (A) (A) (A) (A) (A) (A) (A) (A)
                 (A) (A) (A) (A) (A) (A) (A) (A) (A) (A) (A) (A)
                 (A) (A) (A) (A) (A) (A) (A) (A) (A) (A) (A) (A)
                 (A) (A) (A) (A) (A) (A) (A) (A) (A) (A) (A) (A)
                 (A) (A) (A) (A) (A) (A) (A) (A) (A) (A) (A) (A)
                 (A) (A) (A) (A) (A) (A) (A) (A) (A) (A) (A) (A)
                 (A) (A) (A) (A) (A) (A) (A) (A) (A) (A) (A) (A)
                 (A) (A) (A) (A) (A) (A) (A) (A) (A) (A) (A) (A)
                 (A) (A) (A) (A) (A) (A) (A) (A) (A) (A) (A) (A)
                 (A) (A) (A) (A) (A) (A) (A) (A) (A) (A) (A) (A)
                 (A) (A) (A) (A) (A) (A) (A) (A) (A) (A) (A) (A)
                 (A) (A) (A) (A) (A) (A) (A) (A) (A) (A) (A) (A)
                 (A) (A) (A) (A) (A) (A) (A) (A) (A) (A) (A) (A)
                 (A) (A) (A) (A) (A) (A) (A) (A) (A) (A) (A) (A)
                 (A) (A) (A) (A) (A) (A) (A) (A) (A) (A) (A) (A)
                 (A) (A) (A) (A) (A) (A) (A) (A) (A) (A) (A) (A)
                 (A) (A) (A) (A) (A) (A) (A) (A) (A) (A) (A) (A)
                 (A) (A) (A) (A) (A) (A) (A) (A) (A) (A) (A) (A)
                 (A) (A) (A) (A) (A) (A) (A) (A) (A) (A) (A) (A)
                 (A) (A) (A) (A) (A) (A) (A) (A) (A) (A) (A) (A)
                 (A) (A) (A) (A) (A) (A) (A) (A) (A) (A) (A) (A)
                 (A) (A) (A) (A) (A) (A) (A) (A) (A) (A) (A) (A)
                 (A) (A) (A) (A) (A) (A) (A) (A) (A) (A) (A) (A)
                 (A) (A) (A) (A) (A) (A) (A) (A) (A) (A) (A) (A)
                 (A) (A) (A) (A) (A) (A) (A) (A) (A) (A) (A) (A)
                 (A) (A) (A) (A) (A) (A) (A) (A) (A) (A) (A) (A)
                 (A) (A) (A) (A) (A) (A) (A) (A) (A) (A) (A) (A)
                 (A) (A) (A) (A) (A) (A) (A) (A) (A) (A) (A) (A)
                 (A) (A) (A) (A) (A) (A) (A)
 The electronic state is 1-A.
 Alpha  occ. eigenvalues --  -19.39778 -19.39514 -19.37589 -14.67517 -14.54876
 Alpha  occ. eigenvalues --  -10.50881 -10.50494 -10.46967 -10.46562 -10.46497
 Alpha  occ. eigenvalues --  -10.44863 -10.41168 -10.41084 -10.40214 -10.38793
 Alpha  occ. eigenvalues --   -1.25759  -1.24002  -1.23559  -1.21737  -1.15389
 Alpha  occ. eigenvalues --   -1.07561  -1.04339  -0.98722  -0.94720  -0.90197
 Alpha  occ. eigenvalues --   -0.88494  -0.87200  -0.82459  -0.78100  -0.76976
 Alpha  occ. eigenvalues --   -0.75040  -0.74523  -0.73894  -0.73170  -0.72646
 Alpha  occ. eigenvalues --   -0.70300  -0.68548  -0.68134  -0.67487  -0.64256
 Alpha  occ. eigenvalues --   -0.63579  -0.62952  -0.62031  -0.61720  -0.59802
 Alpha  occ. eigenvalues --   -0.59113  -0.56923  -0.56710  -0.55839  -0.54938
 Alpha  occ. eigenvalues --   -0.53957  -0.53266  -0.52504  -0.52492  -0.52034
 Alpha  occ. eigenvalues --   -0.51103  -0.50413  -0.48647  -0.40938
 Alpha virt. eigenvalues --   -0.13784  -0.10231  -0.06579  -0.05016  -0.04790
 Alpha virt. eigenvalues --   -0.04098  -0.03498  -0.03075  -0.02536  -0.02406
 Alpha virt. eigenvalues --   -0.01858  -0.01417  -0.01044  -0.00671  -0.00389
 Alpha virt. eigenvalues --    0.00089   0.00119   0.01031   0.01291   0.01626
 Alpha virt. eigenvalues --    0.02067   0.02564   0.02915   0.03452   0.03529
 Alpha virt. eigenvalues --    0.03680   0.03838   0.04067   0.04627   0.04872
 Alpha virt. eigenvalues --    0.05362   0.05576   0.05793   0.06027   0.06439
 Alpha virt. eigenvalues --    0.06585   0.07253   0.07492   0.07777   0.08169
 Alpha virt. eigenvalues --    0.08373   0.08557   0.08805   0.09109   0.09285
 Alpha virt. eigenvalues --    0.09661   0.10002   0.10388   0.10676   0.10966
 Alpha virt. eigenvalues --    0.11180   0.11862   0.12082   0.12309   0.12427
 Alpha virt. eigenvalues --    0.12757   0.13016   0.13455   0.13758   0.13989
 Alpha virt. eigenvalues --    0.14333   0.14633   0.14716   0.14909   0.15358
 Alpha virt. eigenvalues --    0.15755   0.16142   0.16688   0.16932   0.17162
 Alpha virt. eigenvalues --    0.17268   0.17521   0.17955   0.18269   0.18505
 Alpha virt. eigenvalues --    0.18795   0.19076   0.19293   0.19704   0.20156
 Alpha virt. eigenvalues --    0.20297   0.20786   0.21136   0.21252   0.21747
 Alpha virt. eigenvalues --    0.21911   0.22137   0.22579   0.23133   0.23207
 Alpha virt. eigenvalues --    0.23585   0.24186   0.24688   0.24879   0.25123
 Alpha virt. eigenvalues --    0.25496   0.26016   0.26329   0.26745   0.26901
 Alpha virt. eigenvalues --    0.27117   0.27406   0.27896   0.28311   0.28556
 Alpha virt. eigenvalues --    0.28896   0.29437   0.29475   0.30407   0.31069
 Alpha virt. eigenvalues --    0.31435   0.31771   0.32034   0.32216   0.33125
 Alpha virt. eigenvalues --    0.33243   0.33555   0.34047   0.34428   0.35069
 Alpha virt. eigenvalues --    0.35851   0.36014   0.36274   0.36390   0.37112
 Alpha virt. eigenvalues --    0.37584   0.37638   0.38213   0.38618   0.38670
 Alpha virt. eigenvalues --    0.39365   0.40057   0.40534   0.41099   0.41624
 Alpha virt. eigenvalues --    0.42077   0.42529   0.42795   0.42999   0.43278
 Alpha virt. eigenvalues --    0.43395   0.43675   0.44147   0.44662   0.45008
 Alpha virt. eigenvalues --    0.45869   0.45975   0.46358   0.46566   0.46911
 Alpha virt. eigenvalues --    0.47137   0.47698   0.48293   0.48508   0.49203
 Alpha virt. eigenvalues --    0.49965   0.50170   0.50293   0.50463   0.51069
 Alpha virt. eigenvalues --    0.51349   0.51535   0.51670   0.52075   0.52519
 Alpha virt. eigenvalues --    0.52664   0.52936   0.53965   0.54210   0.54393
 Alpha virt. eigenvalues --    0.54540   0.54900   0.55204   0.55755   0.56201
 Alpha virt. eigenvalues --    0.56679   0.57499   0.57835   0.57944   0.58286
 Alpha virt. eigenvalues --    0.59192   0.59917   0.60122   0.60404   0.61441
 Alpha virt. eigenvalues --    0.62112   0.62578   0.62944   0.63342   0.64002
 Alpha virt. eigenvalues --    0.64317   0.64723   0.65190   0.65392   0.65679
 Alpha virt. eigenvalues --    0.66175   0.67191   0.67692   0.68006   0.68326
 Alpha virt. eigenvalues --    0.69047   0.69571   0.69939   0.70508   0.70784
 Alpha virt. eigenvalues --    0.71206   0.71716   0.72046   0.72703   0.73180
 Alpha virt. eigenvalues --    0.73459   0.74103   0.74421   0.74712   0.75752
 Alpha virt. eigenvalues --    0.75957   0.76801   0.77240   0.77260   0.77811
 Alpha virt. eigenvalues --    0.78818   0.79302   0.79892   0.79988   0.80897
 Alpha virt. eigenvalues --    0.81003   0.81821   0.82392   0.82730   0.83971
 Alpha virt. eigenvalues --    0.84839   0.85732   0.86101   0.86168   0.87050
 Alpha virt. eigenvalues --    0.88021   0.88182   0.89648   0.90629   0.91544
 Alpha virt. eigenvalues --    0.91940   0.92378   0.93098   0.94247   0.95032
 Alpha virt. eigenvalues --    0.95244   0.96545   0.97141   0.98010   0.98827
 Alpha virt. eigenvalues --    0.99185   0.99804   1.00755   1.01154   1.01904
 Alpha virt. eigenvalues --    1.02890   1.03842   1.04098   1.05107   1.06019
 Alpha virt. eigenvalues --    1.06804   1.07150   1.07823   1.09116   1.09867
 Alpha virt. eigenvalues --    1.11392   1.12247   1.13194   1.14441   1.15876
 Alpha virt. eigenvalues --    1.16300   1.16469   1.17179   1.17378   1.18569
 Alpha virt. eigenvalues --    1.19786   1.21391   1.22229   1.23806   1.24129
 Alpha virt. eigenvalues --    1.25400   1.26247   1.27205   1.28638   1.29591
 Alpha virt. eigenvalues --    1.30110   1.31260   1.31787   1.32789   1.33394
 Alpha virt. eigenvalues --    1.34550   1.35730   1.36066   1.36770   1.37886
 Alpha virt. eigenvalues --    1.38937   1.39480   1.41852   1.42927   1.43233
 Alpha virt. eigenvalues --    1.43796   1.44330   1.45012   1.47090   1.47359
 Alpha virt. eigenvalues --    1.48269   1.48961   1.50850   1.51651   1.52029
 Alpha virt. eigenvalues --    1.53144   1.54574   1.55086   1.56867   1.57436
 Alpha virt. eigenvalues --    1.58822   1.60205   1.60626   1.62098   1.62796
 Alpha virt. eigenvalues --    1.63680   1.65013   1.65435   1.66506   1.66889
 Alpha virt. eigenvalues --    1.67819   1.69096   1.69498   1.70376   1.71788
 Alpha virt. eigenvalues --    1.72017   1.72609   1.73338   1.73665   1.74488
 Alpha virt. eigenvalues --    1.74560   1.76083   1.77893   1.78036   1.79355
 Alpha virt. eigenvalues --    1.79592   1.80178   1.80760   1.81735   1.82422
 Alpha virt. eigenvalues --    1.83068   1.84521   1.84724   1.86077   1.86247
 Alpha virt. eigenvalues --    1.86953   1.88450   1.89090   1.89536   1.90741
 Alpha virt. eigenvalues --    1.91529   1.92468   1.93411   1.93711   1.94092
 Alpha virt. eigenvalues --    1.95862   1.97081   1.97623   1.99364   2.00054
 Alpha virt. eigenvalues --    2.00457   2.01315   2.02939   2.03637   2.05957
 Alpha virt. eigenvalues --    2.06318   2.07033   2.08066   2.08675   2.09348
 Alpha virt. eigenvalues --    2.11492   2.12105   2.12204   2.14087   2.14499
 Alpha virt. eigenvalues --    2.15908   2.16554   2.17141   2.17808   2.19932
 Alpha virt. eigenvalues --    2.20359   2.21189   2.21634   2.22971   2.23122
 Alpha virt. eigenvalues --    2.24109   2.24951   2.26386   2.26797   2.27835
 Alpha virt. eigenvalues --    2.29487   2.30615   2.31052   2.33034   2.33587
 Alpha virt. eigenvalues --    2.35424   2.36250   2.37650   2.39782   2.41385
 Alpha virt. eigenvalues --    2.41731   2.43642   2.44732   2.45414   2.47505
 Alpha virt. eigenvalues --    2.48571   2.49339   2.49995   2.51695   2.52501
 Alpha virt. eigenvalues --    2.54740   2.55311   2.56060   2.56524   2.56979
 Alpha virt. eigenvalues --    2.58947   2.60822   2.61463   2.63669   2.64206
 Alpha virt. eigenvalues --    2.65339   2.65970   2.67307   2.68388   2.69319
 Alpha virt. eigenvalues --    2.70554   2.71563   2.73618   2.74726   2.75459
 Alpha virt. eigenvalues --    2.77858   2.78681   2.79463   2.82309   2.82317
 Alpha virt. eigenvalues --    2.83329   2.84582   2.86806   2.88303   2.90591
 Alpha virt. eigenvalues --    2.93074   2.96090   3.01649   3.04143   3.13274
 Alpha virt. eigenvalues --    3.14109   3.15766   3.21557   3.27063   3.28394
 Alpha virt. eigenvalues --    3.31602   3.33536   3.35325   3.36542   3.40439
 Alpha virt. eigenvalues --    3.42079   3.44151   3.47786   3.49825   3.51052
 Alpha virt. eigenvalues --    3.59439   3.64930   3.70275   3.77114   3.81530
 Alpha virt. eigenvalues --    3.89261   4.03447   4.06710   4.25791   4.89114
          Condensed to atoms (all electrons):
               1          2          3          4          5          6
     1  C    7.006944  -0.737464  -0.429210   0.304494  -0.639577   0.249916
     2  C   -0.737464  19.219959  -2.134631  -0.181021  -0.914865  -5.143351
     3  N   -0.429210  -2.134631   8.848398   0.118897   0.142834   0.733059
     4  C    0.304494  -0.181021   0.118897   5.650284   0.116596  -0.249490
     5  C   -0.639577  -0.914865   0.142834   0.116596   6.087194   0.590323
     6  C    0.249916  -5.143351   0.733059  -0.249490   0.590323  22.671099
     7  C   -0.635222  -1.699039   0.007193  -0.211345   0.129979  -6.949816
     8  N    0.029712   0.455083  -0.058115   0.018632  -0.014214   0.344823
     9  C   -0.120781  -0.916873   0.062920  -0.055603  -0.010202  -0.452132
    10  C    0.259790   0.254813  -0.163562   0.071357   0.069590   1.318210
    11  C   -0.167128  -0.868642   0.388599  -0.099758  -0.367352  -8.255825
    12  C   -0.066828  -0.371395   0.429910  -0.208427   0.006310   0.200194
    13  H    0.395173  -2.191688  -0.136404  -0.114777   0.058310   0.476407
    14  H   -0.315301   0.011441   0.038969   0.070423   0.268307  -0.484399
    15  H   -0.704798   0.209011   0.144138  -0.147564   0.244725   0.194260
    16  H    0.107080  -0.047687   0.088295  -0.027285  -0.206713   0.057045
    17  H    0.325816  -0.003613  -0.030929   0.123152  -0.323361  -0.045390
    18  H   -0.128009  -0.272366   0.451932  -0.276271   0.069308   0.177238
    19  H    0.127000   0.540581  -0.691156  -0.102301  -0.042034  -0.220445
    20  H    0.058222   0.109593  -0.223816   0.031256   0.011090   0.132172
    21  H    0.004720   0.010020   0.004108  -0.001104  -0.000436   0.210373
    22  H   -0.024502  -0.019843   0.001466  -0.004518   0.004796  -0.662659
    23  H    0.144559   0.063931   0.055829   0.012737   0.002017   0.143906
    24  H    0.127151   0.161127  -0.168701  -0.073728  -0.068535   0.059219
    25  H   -0.023353  -0.280242   0.218337   0.014811   0.058303   0.011461
    26  H   -0.059923  -0.053344  -0.259225   0.025863   0.050103   0.111731
    27  H   -0.009705   0.016280  -0.004428   0.001220   0.005081  -0.379792
    28  O   -0.001690  -0.001789   0.000381   0.000152  -0.000172  -0.105350
    29  H    0.000549   0.002619   0.000292   0.000211  -0.000131  -0.003327
    30  H    0.000188   0.002711  -0.000124   0.000045  -0.000057   0.008446
    31  O    0.000022   0.000122  -0.000001   0.000001  -0.000002   0.001771
    32  H    0.000003   0.000064  -0.000007  -0.000003   0.000002   0.000753
    33  H   -0.000018  -0.000068  -0.000007  -0.000002   0.000003   0.000274
    34  O    0.000000   0.000005   0.000000   0.000000  -0.000000   0.000106
    35  H    0.000000  -0.000002   0.000000  -0.000000  -0.000000  -0.000017
    36  H    0.000000   0.000020  -0.000000   0.000000  -0.000000   0.000039
               7          8          9         10         11         12
     1  C   -0.635222   0.029712  -0.120781   0.259790  -0.167128  -0.066828
     2  C   -1.699039   0.455083  -0.916873   0.254813  -0.868642  -0.371395
     3  N    0.007193  -0.058115   0.062920  -0.163562   0.388599   0.429910
     4  C   -0.211345   0.018632  -0.055603   0.071357  -0.099758  -0.208427
     5  C    0.129979  -0.014214  -0.010202   0.069590  -0.367352   0.006310
     6  C   -6.949816   0.344823  -0.452132   1.318210  -8.255825   0.200194
     7  C   18.502198  -0.965115  -0.622213  -1.417426  -1.005026  -0.027722
     8  N   -0.965115   7.402193   0.014191   0.394791  -0.454076  -0.016820
     9  C   -0.622213   0.014191  10.189878  -3.030037   1.108339   0.008387
    10  C   -1.417426   0.394791  -3.030037  13.574995  -5.443760  -0.001761
    11  C   -1.005026  -0.454076   1.108339  -5.443760  21.412761  -0.049350
    12  C   -0.027722  -0.016820   0.008387  -0.001761  -0.049350   4.474772
    13  H    0.391217  -0.011257   0.039794  -0.070888  -0.034371   0.053280
    14  H    0.122570   0.020203  -0.021305  -0.006237   0.088469   0.018306
    15  H   -0.030139  -0.012635   0.003198   0.030123  -0.047837   0.014559
    16  H    0.013622  -0.002148   0.002114   0.011291   0.012085  -0.015189
    17  H    0.004280  -0.000485   0.000732  -0.005104  -0.000398   0.014504
    18  H    0.014963  -0.000142  -0.000289   0.003572   0.023645  -0.015809
    19  H   -0.013523   0.001955  -0.003039   0.001815  -0.007374  -0.012597
    20  H    0.179082  -0.027502  -0.220884   1.068110  -2.326262  -0.028918
    21  H    0.029937   0.017384  -0.867198   0.309749   0.048547   0.002906
    22  H    0.565209   0.013157  -0.375114  -0.162349   0.056709  -0.002057
    23  H   -1.059026   0.100157  -0.001153   0.027219   0.015141   0.007053
    24  H   -0.209118   0.023907  -0.009257   0.059129  -0.044876   0.256072
    25  H    0.073998  -0.009515   0.002510   0.000322   0.021734   0.140661
    26  H    0.027965  -0.003229   0.004698  -0.003919  -0.038513   0.356155
    27  H    0.061424  -0.035616   0.528877  -1.304246   0.837297  -0.008068
    28  O    0.101322  -0.180677   0.012386  -0.047254   0.047394  -0.000445
    29  H   -0.000420   0.005060  -0.006445   0.000600   0.007467  -0.000345
    30  H   -0.010447   0.007119  -0.008984   0.008910  -0.002462   0.000045
    31  O   -0.001254  -0.002563   0.004598   0.001201  -0.000167  -0.000011
    32  H   -0.002153   0.000653   0.000314   0.000505  -0.000320   0.000010
    33  H    0.000897   0.000581  -0.000872   0.000069  -0.000695   0.000018
    34  O    0.000017   0.000056   0.000423   0.000082   0.000016  -0.000001
    35  H    0.000010  -0.000027   0.000012  -0.000031   0.000025  -0.000000
    36  H    0.000044   0.000012  -0.000062   0.000065  -0.000010  -0.000001
              13         14         15         16         17         18
     1  C    0.395173  -0.315301  -0.704798   0.107080   0.325816  -0.128009
     2  C   -2.191688   0.011441   0.209011  -0.047687  -0.003613  -0.272366
     3  N   -0.136404   0.038969   0.144138   0.088295  -0.030929   0.451932
     4  C   -0.114777   0.070423  -0.147564  -0.027285   0.123152  -0.276271
     5  C    0.058310   0.268307   0.244725  -0.206713  -0.323361   0.069308
     6  C    0.476407  -0.484399   0.194260   0.057045  -0.045390   0.177238
     7  C    0.391217   0.122570  -0.030139   0.013622   0.004280   0.014963
     8  N   -0.011257   0.020203  -0.012635  -0.002148  -0.000485  -0.000142
     9  C    0.039794  -0.021305   0.003198   0.002114   0.000732  -0.000289
    10  C   -0.070888  -0.006237   0.030123   0.011291  -0.005104   0.003572
    11  C   -0.034371   0.088469  -0.047837   0.012085  -0.000398   0.023645
    12  C    0.053280   0.018306   0.014559  -0.015189   0.014504  -0.015809
    13  H    3.115804   0.134057  -0.292448  -0.046723   0.041253  -0.075588
    14  H    0.134057   2.206071  -0.485352  -0.343246   0.135516  -0.038613
    15  H   -0.292448  -0.485352   2.329443   0.188909  -0.300607   0.060059
    16  H   -0.046723  -0.343246   0.188909   2.064324  -0.447629   0.168233
    17  H    0.041253   0.135516  -0.300607  -0.447629   1.911621  -0.198047
    18  H   -0.075588  -0.038613   0.060059   0.168233  -0.198047   1.847959
    19  H    0.049986   0.017836  -0.024290  -0.255454   0.070696  -0.435218
    20  H    0.009112  -0.017691  -0.000687   0.008288   0.004870   0.001811
    21  H   -0.000146  -0.001785   0.001436   0.000259  -0.000006   0.000144
    22  H    0.005209   0.000691   0.001085   0.000441   0.000113  -0.000175
    23  H   -0.073593   0.016399   0.004824   0.000706   0.000571   0.003889
    24  H    0.028012   0.007575  -0.002802  -0.007172  -0.000814  -0.002999
    25  H    0.044057   0.001414   0.001008  -0.001062   0.007332   0.003492
    26  H    0.004791  -0.002118   0.000623   0.007138  -0.002376  -0.002252
    27  H    0.003543  -0.001834  -0.001086   0.000417  -0.000416  -0.000100
    28  O    0.001146   0.000221  -0.000118  -0.000021   0.000002  -0.000033
    29  H    0.000293   0.000136  -0.000066  -0.000016   0.000000   0.000001
    30  H   -0.000177   0.000048   0.000019  -0.000007  -0.000001   0.000002
    31  O   -0.000052   0.000012  -0.000003  -0.000001   0.000000  -0.000001
    32  H   -0.000018  -0.000003   0.000005   0.000000  -0.000000   0.000001
    33  H   -0.000031  -0.000003  -0.000003   0.000000   0.000000  -0.000001
    34  O    0.000003   0.000000   0.000000  -0.000000  -0.000000  -0.000000
    35  H    0.000000   0.000000   0.000000   0.000000  -0.000000   0.000000
    36  H    0.000002   0.000000  -0.000000  -0.000000  -0.000000   0.000000
              19         20         21         22         23         24
     1  C    0.127000   0.058222   0.004720  -0.024502   0.144559   0.127151
     2  C    0.540581   0.109593   0.010020  -0.019843   0.063931   0.161127
     3  N   -0.691156  -0.223816   0.004108   0.001466   0.055829  -0.168701
     4  C   -0.102301   0.031256  -0.001104  -0.004518   0.012737  -0.073728
     5  C   -0.042034   0.011090  -0.000436   0.004796   0.002017  -0.068535
     6  C   -0.220445   0.132172   0.210373  -0.662659   0.143906   0.059219
     7  C   -0.013523   0.179082   0.029937   0.565209  -1.059026  -0.209118
     8  N    0.001955  -0.027502   0.017384   0.013157   0.100157   0.023907
     9  C   -0.003039  -0.220884  -0.867198  -0.375114  -0.001153  -0.009257
    10  C    0.001815   1.068110   0.309749  -0.162349   0.027219   0.059129
    11  C   -0.007374  -2.326262   0.048547   0.056709   0.015141  -0.044876
    12  C   -0.012597  -0.028918   0.002906  -0.002057   0.007053   0.256072
    13  H    0.049986   0.009112  -0.000146   0.005209  -0.073593   0.028012
    14  H    0.017836  -0.017691  -0.001785   0.000691   0.016399   0.007575
    15  H   -0.024290  -0.000687   0.001436   0.001085   0.004824  -0.002802
    16  H   -0.255454   0.008288   0.000259   0.000441   0.000706  -0.007172
    17  H    0.070696   0.004870  -0.000006   0.000113   0.000571  -0.000814
    18  H   -0.435218   0.001811   0.000144  -0.000175   0.003889  -0.002999
    19  H    2.489408   0.012249  -0.000156  -0.000271  -0.001356   0.006533
    20  H    0.012249   3.308670  -0.015507   0.018307  -0.021508   0.022184
    21  H   -0.000156  -0.015507   2.136940  -0.143529   0.006701  -0.000543
    22  H   -0.000271   0.018307  -0.143529   1.709173  -0.083730  -0.003477
    23  H   -0.001356  -0.021508   0.006701  -0.083730   2.440063   0.007250
    24  H    0.006533   0.022184  -0.000543  -0.003477   0.007250   2.125517
    25  H    0.006611   0.003642   0.000131   0.002014   0.002109  -0.404888
    26  H    0.014485  -0.003031   0.000325   0.000126   0.001104  -0.548291
    27  H   -0.000646  -0.130365  -0.123493   0.015775  -0.001491   0.000680
    28  O    0.000010   0.001011  -0.003574   0.048614   0.001970  -0.000013
    29  H    0.000013  -0.000076   0.002198  -0.012704   0.003566   0.000053
    30  H    0.000004  -0.000104   0.005393  -0.012086   0.002222   0.000019
    31  O    0.000000  -0.000000   0.001756  -0.013482   0.001732   0.000046
    32  H   -0.000000  -0.000007   0.000154   0.001629  -0.000103   0.000017
    33  H   -0.000000  -0.000010  -0.000473   0.001661  -0.000090  -0.000031
    34  O    0.000000   0.000000   0.000016  -0.001312  -0.000069   0.000005
    35  H   -0.000000   0.000001   0.000005   0.000121  -0.000003   0.000001
    36  H    0.000000  -0.000000  -0.000051  -0.000209   0.000007   0.000001
              25         26         27         28         29         30
     1  C   -0.023353  -0.059923  -0.009705  -0.001690   0.000549   0.000188
     2  C   -0.280242  -0.053344   0.016280  -0.001789   0.002619   0.002711
     3  N    0.218337  -0.259225  -0.004428   0.000381   0.000292  -0.000124
     4  C    0.014811   0.025863   0.001220   0.000152   0.000211   0.000045
     5  C    0.058303   0.050103   0.005081  -0.000172  -0.000131  -0.000057
     6  C    0.011461   0.111731  -0.379792  -0.105350  -0.003327   0.008446
     7  C    0.073998   0.027965   0.061424   0.101322  -0.000420  -0.010447
     8  N   -0.009515  -0.003229  -0.035616  -0.180677   0.005060   0.007119
     9  C    0.002510   0.004698   0.528877   0.012386  -0.006445  -0.008984
    10  C    0.000322  -0.003919  -1.304246  -0.047254   0.000600   0.008910
    11  C    0.021734  -0.038513   0.837297   0.047394   0.007467  -0.002462
    12  C    0.140661   0.356155  -0.008068  -0.000445  -0.000345   0.000045
    13  H    0.044057   0.004791   0.003543   0.001146   0.000293  -0.000177
    14  H    0.001414  -0.002118  -0.001834   0.000221   0.000136   0.000048
    15  H    0.001008   0.000623  -0.001086  -0.000118  -0.000066   0.000019
    16  H   -0.001062   0.007138   0.000417  -0.000021  -0.000016  -0.000007
    17  H    0.007332  -0.002376  -0.000416   0.000002   0.000000  -0.000001
    18  H    0.003492  -0.002252  -0.000100  -0.000033   0.000001   0.000002
    19  H    0.006611   0.014485  -0.000646   0.000010   0.000013   0.000004
    20  H    0.003642  -0.003031  -0.130365   0.001011  -0.000076  -0.000104
    21  H    0.000131   0.000325  -0.123493  -0.003574   0.002198   0.005393
    22  H    0.002014   0.000126   0.015775   0.048614  -0.012704  -0.012086
    23  H    0.002109   0.001104  -0.001491   0.001970   0.003566   0.002222
    24  H   -0.404888  -0.548291   0.000680  -0.000013   0.000053   0.000019
    25  H    1.550347  -0.276269  -0.001420   0.000046  -0.000026  -0.000009
    26  H   -0.276269   1.881047   0.000263  -0.000046  -0.000045   0.000000
    27  H   -0.001420   0.000263   2.117439  -0.000977   0.000071  -0.000255
    28  O    0.000046  -0.000046  -0.000977   7.931730   0.320755   0.362350
    29  H   -0.000026  -0.000045   0.000071   0.320755   0.525807  -0.110159
    30  H   -0.000009   0.000000  -0.000255   0.362350  -0.110159   0.605458
    31  O   -0.000002  -0.000001  -0.000030  -0.041896   0.013151   0.004169
    32  H   -0.000003  -0.000000   0.000002   0.001215  -0.004123  -0.000448
    33  H    0.000007   0.000004   0.000023   0.002907  -0.005481  -0.000281
    34  O   -0.000000  -0.000000   0.000004   0.000258  -0.001013   0.000518
    35  H   -0.000000  -0.000000  -0.000003   0.000071  -0.000125  -0.000068
    36  H   -0.000000  -0.000000   0.000003   0.000070  -0.000317   0.000064
              31         32         33         34         35         36
     1  C    0.000022   0.000003  -0.000018   0.000000   0.000000   0.000000
     2  C    0.000122   0.000064  -0.000068   0.000005  -0.000002   0.000020
     3  N   -0.000001  -0.000007  -0.000007   0.000000   0.000000  -0.000000
     4  C    0.000001  -0.000003  -0.000002   0.000000  -0.000000   0.000000
     5  C   -0.000002   0.000002   0.000003  -0.000000  -0.000000  -0.000000
     6  C    0.001771   0.000753   0.000274   0.000106  -0.000017   0.000039
     7  C   -0.001254  -0.002153   0.000897   0.000017   0.000010   0.000044
     8  N   -0.002563   0.000653   0.000581   0.000056  -0.000027   0.000012
     9  C    0.004598   0.000314  -0.000872   0.000423   0.000012  -0.000062
    10  C    0.001201   0.000505   0.000069   0.000082  -0.000031   0.000065
    11  C   -0.000167  -0.000320  -0.000695   0.000016   0.000025  -0.000010
    12  C   -0.000011   0.000010   0.000018  -0.000001  -0.000000  -0.000001
    13  H   -0.000052  -0.000018  -0.000031   0.000003   0.000000   0.000002
    14  H    0.000012  -0.000003  -0.000003   0.000000   0.000000   0.000000
    15  H   -0.000003   0.000005  -0.000003   0.000000   0.000000  -0.000000
    16  H   -0.000001   0.000000   0.000000  -0.000000   0.000000  -0.000000
    17  H    0.000000  -0.000000   0.000000  -0.000000  -0.000000  -0.000000
    18  H   -0.000001   0.000001  -0.000001  -0.000000   0.000000   0.000000
    19  H    0.000000  -0.000000  -0.000000   0.000000  -0.000000   0.000000
    20  H   -0.000000  -0.000007  -0.000010   0.000000   0.000001  -0.000000
    21  H    0.001756   0.000154  -0.000473   0.000016   0.000005  -0.000051
    22  H   -0.013482   0.001629   0.001661  -0.001312   0.000121  -0.000209
    23  H    0.001732  -0.000103  -0.000090  -0.000069  -0.000003   0.000007
    24  H    0.000046   0.000017  -0.000031   0.000005   0.000001   0.000001
    25  H   -0.000002  -0.000003   0.000007  -0.000000  -0.000000  -0.000000
    26  H   -0.000001  -0.000000   0.000004  -0.000000  -0.000000  -0.000000
    27  H   -0.000030   0.000002   0.000023   0.000004  -0.000003   0.000003
    28  O   -0.041896   0.001215   0.002907   0.000258   0.000071   0.000070
    29  H    0.013151  -0.004123  -0.005481  -0.001013  -0.000125  -0.000317
    30  H    0.004169  -0.000448  -0.000281   0.000518  -0.000068   0.000064
    31  O    7.708164   0.366207   0.334021  -0.036827   0.002697   0.001089
    32  H    0.366207   0.603824  -0.102845   0.004410  -0.000083  -0.001006
    33  H    0.334021  -0.102845   0.560260   0.005762  -0.000480  -0.003867
    34  O   -0.036827   0.004410   0.005762   7.666671   0.344519   0.351254
    35  H    0.002697  -0.000083  -0.000480   0.344519   0.546352  -0.067833
    36  H    0.001089  -0.001006  -0.003867   0.351254  -0.067833   0.580945
 Mulliken charges:
               1
     1  C    0.922174
     2  C    0.780544
     3  N   -0.435241
     4  C    1.193066
     5  C    0.672784
     6  C    1.259166
     7  C    0.633078
     8  N   -0.055530
     9  C    0.739070
    10  C    0.190266
    11  C    1.145977
    12  C    0.842602
    13  H   -0.803286
    14  H   -0.440779
    15  H   -0.376990
    16  H   -0.329895
    17  H   -0.281281
    18  H   -0.380332
    19  H   -0.529320
    20  H   -0.963301
    21  H   -0.635198
    22  H    0.075720
    23  H   -0.823541
    24  H   -0.339249
    25  H   -0.167557
    26  H   -0.233838
    27  H   -0.584429
    28  O   -0.449956
    29  H    0.261976
    30  H    0.137940
    31  O   -0.344468
    32  H    0.131356
    33  H    0.208770
    34  O   -0.334904
    35  H    0.174860
    36  H    0.139745
 Sum of Mulliken charges =   1.00000
 Mulliken charges with hydrogens summed into heavy atoms:
               1
     1  C    0.104405
     2  C   -0.022742
     3  N   -0.435241
     4  C    0.283415
     5  C    0.061608
     6  C    1.259166
     7  C   -0.190464
     8  N    0.020191
     9  C    0.103872
    10  C   -0.394162
    11  C    0.182676
    12  C    0.101958
    28  O   -0.050040
    31  O   -0.004341
    34  O   -0.020300
 Electronic spatial extent (au):  <R**2>=           7220.4437
 Charge=              1.0000 electrons
 Dipole moment (field-independent basis, Debye):
    X=              7.5057    Y=              1.9616    Z=              0.5355  Tot=              7.7762
 Quadrupole moment (field-independent basis, Debye-Ang):
   XX=             12.4773   YY=            -76.6177   ZZ=            -75.7157
   XY=              1.2780   XZ=              6.1833   YZ=              4.8988
 Traceless Quadrupole moment (field-independent basis, Debye-Ang):
   XX=             59.0960   YY=            -29.9990   ZZ=            -29.0970
   XY=              1.2780   XZ=              6.1833   YZ=              4.8988
 Octapole moment (field-independent basis, Debye-Ang**2):
  XXX=            682.2189  YYY=              3.6232  ZZZ=             -5.0260  XYY=             39.1485
  XXY=            -40.9537  XXZ=             64.4549  XZZ=             67.5464  YZZ=              4.2127
  YYZ=              8.1286  XYZ=              4.1112
 Hexadecapole moment (field-independent basis, Debye-Ang**3):
 XXXX=          -1135.5174 YYYY=           -776.9232 ZZZZ=           -579.6091 XXXY=           -202.5683
 XXXZ=            706.3317 YYYX=            -72.2922 YYYZ=             54.7672 ZZZX=              1.9006
 ZZZY=             -8.0679 XXYY=          -1247.6996 XXZZ=           -957.9727 YYZZ=           -205.4401
 XXYZ=              4.3688 YYXZ=            -59.9022 ZZXY=             -3.5910
 N-N= 9.950920981216D+02 E-N=-3.674778524861D+03  KE= 7.239897912706D+02
 Calling FoFJK, ICntrl=      2127 FMM=F ISym2X=0 I1Cent= 0 IOpClX= 0 NMat=1 NMatS=1 NMatT=0.
 ***** Axes restored to original set *****
 -------------------------------------------------------------------
 Center     Atomic                   Forces (Hartrees/Bohr)
 Number     Number              X              Y              Z
 -------------------------------------------------------------------
      1        6          -0.000047338   -0.000024883    0.000048755
      2        6           0.000142853    0.000049616   -0.000068647
      3        7          -0.000164278   -0.000024156    0.000048518
      4        6           0.000028013    0.000033394    0.000005823
      5        6           0.000071730   -0.000006245   -0.000008646
      6        6          -0.000022720    0.000163723    0.000112910
      7        6           0.000360122    0.000171722    0.000036275
      8        7          -0.000889974    0.000251861    0.000285295
      9        6          -0.000012672   -0.000313373   -0.000168456
     10        6          -0.000050103   -0.000001083    0.000011453
     11        6          -0.000061245   -0.000079923   -0.000033198
     12        6           0.000013111    0.000014260   -0.000028849
     13        1          -0.000018118    0.000030401    0.000011985
     14        1           0.000005574   -0.000015152    0.000010085
     15        1           0.000002645    0.000000035    0.000002423
     16        1          -0.000007833    0.000006129    0.000011294
     17        1          -0.000016335   -0.000007526   -0.000003650
     18        1          -0.000004631   -0.000026350   -0.000014365
     19        1          -0.000013849   -0.000002187    0.000003739
     20        1          -0.000001083   -0.000006391   -0.000007367
     21        1           0.000044362   -0.000091352   -0.000065386
     22        1           0.001801798   -0.000694326   -0.000579112
     23        1           0.000110088    0.000003867    0.000022440
     24        1          -0.000002756   -0.000017188   -0.000035443
     25        1           0.000014488    0.000005943    0.000007958
     26        1          -0.000036345    0.000000637    0.000013814
     27        1          -0.000033356    0.000000947   -0.000006378
     28        8          -0.002752901    0.002328866   -0.001229223
     29        1           0.003307884   -0.003354838    0.002271959
     30        1           0.000011141   -0.000212147    0.000438423
     31        8          -0.012329382   -0.003641500   -0.007489108
     32        1          -0.000421953    0.001860181    0.000351357
     33        1           0.010729628    0.002834315    0.004335892
     34        8           0.010443549    0.010869776    0.015796916
     35        1          -0.010253077   -0.004360996   -0.004145250
     36        1           0.000052965   -0.005746059   -0.009944238
 -------------------------------------------------------------------
 Cartesian Forces:  Max     0.015796916 RMS     0.003283849

 GradGradGradGradGradGradGradGradGradGradGradGradGradGradGradGradGradGrad
 Berny optimization.
 FormGI is forming the generalized inverse of G from B-inverse, IUseBI=4.
 Internal  Forces:  Max     0.012973164 RMS     0.001585220
 Search for a local minimum.
 Step number   1 out of a maximum of  200
 All quantities printed in internal units (Hartrees-Bohrs-Radians)
 Mixed Optimization -- RFO/linear search
 Second derivative matrix not updated -- first step.
 ITU=  0
     Eigenvalues ---    0.00230   0.00230   0.00230   0.00230   0.00230
     Eigenvalues ---    0.00230   0.00230   0.00230   0.00230   0.00242
     Eigenvalues ---    0.00336   0.00573   0.00631   0.00670   0.00921
     Eigenvalues ---    0.01015   0.01545   0.01916   0.02130   0.02172
     Eigenvalues ---    0.02226   0.02243   0.02294   0.02349   0.02375
     Eigenvalues ---    0.02434   0.02580   0.03518   0.04555   0.04821
     Eigenvalues ---    0.05023   0.05212   0.05537   0.05987   0.06324
     Eigenvalues ---    0.06371   0.06843   0.06943   0.06959   0.06988
     Eigenvalues ---    0.07272   0.07587   0.08369   0.08579   0.09409
     Eigenvalues ---    0.10408   0.12960   0.15579   0.15841   0.15991
     Eigenvalues ---    0.15998   0.16000   0.16000   0.16000   0.16000
     Eigenvalues ---    0.16000   0.16000   0.16000   0.16000   0.16000
     Eigenvalues ---    0.16000   0.16000   0.18449   0.20635   0.21999
     Eigenvalues ---    0.22000   0.23455   0.24991   0.26465   0.26723
     Eigenvalues ---    0.28868   0.31331   0.32517   0.32703   0.32770
     Eigenvalues ---    0.33872   0.34066   0.34096   0.34129   0.34154
     Eigenvalues ---    0.34162   0.34263   0.34751   0.34807   0.35023
     Eigenvalues ---    0.35105   0.35139   0.35624   0.38089   0.40041
     Eigenvalues ---    0.43052   0.43752   0.46880   0.48266   0.51487
     Eigenvalues ---    0.52626   0.52858   0.54024   0.55231   0.55235
     Eigenvalues ---    0.55537   0.56072
 RFO step:  Lambda=-1.68208782D-03 EMin= 2.30000000D-03
 Linear search not attempted -- first point.
 Iteration  1 RMS(Cart)=  0.08591837 RMS(Int)=  0.00311748
 Iteration  2 RMS(Cart)=  0.00651459 RMS(Int)=  0.00059402
 Iteration  3 RMS(Cart)=  0.00002900 RMS(Int)=  0.00059384
 Iteration  4 RMS(Cart)=  0.00000005 RMS(Int)=  0.00059384
 Variable       Old X    -DE/DX   Delta X   Delta X   Delta X     New X
                                 (Linear)    (Quad)   (Total)
    R1        2.93120  -0.00004   0.00000  -0.00013  -0.00013   2.93107
    R2        2.92211  -0.00003   0.00000  -0.00014  -0.00014   2.92196
    R3        2.07218  -0.00002   0.00000  -0.00005  -0.00005   2.07214
    R4        2.07071  -0.00000   0.00000  -0.00000  -0.00000   2.07071
    R5        2.74751   0.00012   0.00000   0.00033   0.00033   2.74784
    R6        2.85385   0.00002   0.00000   0.00005   0.00005   2.85390
    R7        2.09908  -0.00004   0.00000  -0.00011  -0.00011   2.09896
    R8        2.76096  -0.00003   0.00000  -0.00007  -0.00007   2.76089
    R9        2.74235  -0.00004   0.00000  -0.00010  -0.00009   2.74226
   R10        2.88718  -0.00003   0.00000  -0.00011  -0.00011   2.88707
   R11        2.09576   0.00003   0.00000   0.00009   0.00009   2.09585
   R12        2.07168   0.00001   0.00000   0.00004   0.00004   2.07172
   R13        2.07058   0.00001   0.00000   0.00003   0.00003   2.07061
   R14        2.06888   0.00001   0.00000   0.00004   0.00004   2.06892
   R15        2.61671   0.00011   0.00000   0.00022   0.00022   2.61693
   R16        2.64763  -0.00015   0.00000  -0.00028  -0.00028   2.64735
   R17        2.54114  -0.00045   0.00000  -0.00084  -0.00084   2.54030
   R18        2.05637   0.00001   0.00000   0.00001   0.00001   2.05638
   R19        2.53326  -0.00041   0.00000  -0.00075  -0.00074   2.53251
   R20        1.98198   0.00062   0.00000   0.00156   0.00155   1.98353
   R21        2.61639   0.00013   0.00000   0.00026   0.00026   2.61665
   R22        2.05448  -0.00002   0.00000  -0.00005  -0.00005   2.05443
   R23        2.63077  -0.00001   0.00000   0.00003   0.00003   2.63080
   R24        2.05505  -0.00000   0.00000  -0.00000  -0.00000   2.05505
   R25        2.05989  -0.00000   0.00000  -0.00001  -0.00001   2.05988
   R26        2.07546  -0.00002   0.00000  -0.00006  -0.00006   2.07540
   R27        2.09456  -0.00001   0.00000  -0.00002  -0.00002   2.09454
   R28        2.07113   0.00004   0.00000   0.00010   0.00010   2.07123
   R29        3.07594  -0.00139   0.00000  -0.01588  -0.01588   3.06007
   R30        1.85094   0.00246   0.00000   0.00475   0.00475   1.85569
   R31        1.81358  -0.00042   0.00000  -0.00076  -0.00076   1.81282
   R32        3.27505  -0.00273   0.00000  -0.03838  -0.03838   3.23667
   R33        1.81624  -0.00194   0.00000  -0.00350  -0.00350   1.81274
[...]
 003604,-0.00000767,-0.00015760,0.00424754,-0.00140588,-0.00221899,0.00
 016974,0.00002888,-0.00006358,0.00001203,0.00002692,-0.00002801,0.0000
 0548,-0.00003121,-0.00000797,-0.00002501,-0.00000621,0.00001457,-0.000
 06166,0.00002630,-0.00000714,-0.01338299,0.01191080,-0.00654560,0.0016
 5569,-0.00494768,-0.00657224,-0.00056347,-0.00037798,0.00084238,0.1862
 5843,0.08607777,0.10628979,-0.00000065,-0.00000012,-0.00000534,-0.0000
 1947,0.00005377,0.00002081,0.00004374,-0.00004492,0.00000801,-0.000028
 99,0.00000372,-0.00000295,-0.00000204,0.00000152,0.00000363,0.00000696
 ,-0.00008139,-0.00004060,-0.00005003,0.00010111,0.00007052,-0.00011973
 ,0.00006703,0.00009146,0.00006175,-0.00001740,-0.00002751,-0.00007151,
 -0.00001422,0.00000052,0.00001864,0.00005348,0.00002238,-0.00001940,0.
 00003829,-0.00001929,-0.00000167,-0.00002691,-0.00000901,0.00000218,-0
 .00000641,0.00000028,-0.00000027,0.00000328,-0.00000110,0.00000237,-0.
 00000470,-0.00000162,0.00000215,0.00000215,0.00000366,0.00000126,-0.00
 000156,0.00000119,0.00000252,-0.00000066,-0.00000280,-0.00000012,0.000
 00125,-0.00000356,0.00001988,-0.00001679,-0.00000923,0.00039009,0.0000
 0971,-0.00016131,-0.00003940,0.00003037,-0.00005507,0.00000262,0.00001
 948,0.00000929,-0.00001152,-0.00002257,-0.00000973,0.00000772,-0.00000
 714,0.00000043,-0.00000076,0.00000291,-0.00000219,-0.00191676,0.000486
 97,-0.00233776,0.00282671,0.00091803,0.00469698,-0.00020722,0.00009765
 ,-0.00018361,-0.04977218,0.09201306,-0.01307957,0.04350751,-0.00000876
 ,-0.00000745,0.00001574,0.00001950,0.00005823,-0.00000373,-0.00002472,
 -0.00004692,-0.00000125,0.00001233,0.00001507,0.00001563,0.00000323,-0
 .00000002,-0.00000773,0.00002864,-0.00000271,0.00000410,0.00003444,0.0
 0007059,0.00004407,-0.00020339,0.00007565,0.00007347,0.00002757,-0.000
 07724,-0.00004552,-0.00005682,-0.00000722,0.00000338,0.00000886,0.0000
 1193,0.00000169,-0.00000171,0.00004000,-0.00000466,-0.00000557,-0.0000
 1252,-0.00000094,0.00000303,-0.00000806,0.00000370,-0.00000066,0.00000
 082,-0.00000295,-0.00000103,-0.00000099,0.00000131,-0.00000585,-0.0000
 0072,-0.00000038,-0.00000111,-0.00001112,-0.00000392,-0.00000425,-0.00
 000136,0.00000117,0.00000545,0.00000489,0.00000016,0.00001300,-0.00001
 788,-0.00000335,0.00043854,-0.00014349,-0.00012293,0.00001382,0.000017
 16,-0.00000191,-0.00000271,0.00000274,-0.00000605,-0.00000271,-0.00001
 505,-0.00000919,-0.00000306,-0.00000248,0.00000166,-0.00000088,-0.0000
 0214,0.00000049,-0.00110335,0.00088211,-0.00039762,0.00143630,-0.00244
 062,0.00050114,0.00018166,-0.00012506,0.00013580,0.04513839,-0.5332985
 0,-0.04098320,-0.05520789,0.55091094,-0.00000219,0.00000300,0.00001130
 ,-0.00001737,0.00001693,0.00001639,-0.00001142,-0.00000197,-0.00003908
 ,0.00001493,0.00000854,0.00000240,-0.00000304,-0.00000016,-0.00000300,
 0.00001801,-0.00002882,-0.00001577,-0.00000774,0.00004427,0.00004219,-
 0.00000781,0.00002948,0.00002260,0.00000050,-0.00001640,-0.00001439,-0
 .00001646,-0.00000450,-0.00000088,0.00001416,0.00001233,0.00000211,0.0
 0002161,-0.00000225,0.00002667,0.00000196,-0.00001027,0.00000223,0.000
 00092,0.00000143,0.00000074,-0.00000193,-0.00000351,-0.00000702,0.0000
 0108,0.00000031,-0.00000071,-0.00000310,0.00000019,-0.00000199,-0.0000
 0114,-0.00000369,0.00000084,0.00000167,-0.00000120,-0.00000110,0.00000
 145,-0.00000327,0.00000333,0.00000081,-0.00000848,0.00001330,-0.000044
 12,-0.00000770,-0.00003120,-0.00002280,0.00000842,0.00002181,-0.000007
 49,-0.00001225,-0.00000050,0.00000068,0.00000601,0.00000139,0.00000272
 ,0.00000093,-0.00000231,0.00000192,-0.00000568,0.00000483,-0.00269260,
 0.00040958,-0.00279420,0.00386323,0.00153729,0.00414092,-0.00016833,0.
 00051236,0.00005055,-0.01764747,-0.02428345,-0.01384581,0.01286819,0.0
 3925107,0.01292213,0.00002077,0.00002913,-0.00004034,-0.00009568,-0.00
 005172,0.00005119,0.00014391,0.00002036,0.00000121,-0.00007816,-0.0000
 1161,-0.00004218,-0.00001540,0.00000478,0.00002648,0.00000263,-0.00013
 079,-0.00009096,-0.00024916,-0.00013564,-0.00005626,0.00069193,-0.0002
 4196,-0.00022225,0.00003280,0.00026403,0.00013592,0.00004946,0.0000008
 2,0.00000708,0.00001129,0.00006212,0.00003012,-0.00001986,-0.00001005,
 -0.00000186,0.00001612,-0.00002078,-0.00001008,-0.00000694,0.00000825,
 -0.00001127,0.00000141,0.00000299,-0.00000073,0.00000881,-0.00000950,-
 0.00000801,0.00001696,0.00000759,0.00000636,0.00000664,0.00001718,0.00
 001196,0.00001789,0.00000177,-0.00000977,-0.00001075,-0.00000304,-0.00
 000204,-0.00001764,0.00010815,0.00000801,-0.00140761,0.00057882,0.0003
 9342,-0.00008920,0.00000455,-0.00003270,0.00000685,0.00001805,0.000031
 03,-0.00001245,-0.00000663,-0.00000172,0.00002212,-0.00000419,-0.00000
 603,0.00002070,0.00000725,-0.00000503,0.00277036,-0.00227514,0.0015916
 1,-0.00427141,0.00274242,-0.00278252,0.00008465,0.00037163,-0.00038217
 ,-0.34521829,-0.14506320,-0.15409754,0.00747885,0.00876258,0.00466388,
 0.33877108,0.00000473,0.00001043,-0.00000743,-0.00004148,0.00000170,0.
 00002025,0.00005698,-0.00001511,-0.00000671,-0.00002778,0.00000241,-0.
 00001258,-0.00000619,0.00000335,0.00000760,0.00005999,-0.00011450,-0.0
 0007026,-0.00021595,-0.00008242,-0.00001745,0.00052547,-0.00014103,-0.
 00016985,0.00016277,0.00021437,0.00009049,-0.00005344,-0.00004974,-0.0
 0002371,0.00003254,0.00007263,0.00003569,-0.00000636,0.00001235,0.0000
 0059,0.00000394,-0.00001958,-0.00000553,-0.00000124,0.00000155,-0.0000
 0287,-0.00000004,0.00000051,-0.00000297,0.00000421,-0.00000490,-0.0000
 0325,0.00000477,0.00000300,0.00000252,0.00000266,0.00000234,0.00000376
 ,0.00000683,0.00000060,-0.00000410,-0.00000492,-0.00000206,-0.00000252
 ,0.00004090,0.00000820,0.00003396,-0.00100521,0.00048711,0.00041413,-0
 .00006794,0.00000246,-0.00002251,0.00000029,0.00000993,0.00001276,-0.0
 0000780,-0.00000997,-0.00000575,0.00001059,-0.00000212,-0.00000214,0.0
 0002711,-0.00000362,-0.00000261,0.00286210,-0.00453390,0.00330227,-0.0
 0258868,0.00790250,-0.00527690,0.00051520,0.00005686,0.00015580,-0.097
 83677,-0.10722380,-0.04677401,-0.03866859,-0.01659227,-0.01759994,0.13
 306498,0.12399066,0.00000640,0.00001031,-0.00000873,-0.00005149,-0.000
 01028,0.00003201,0.00005157,0.00000328,-0.00002584,-0.00002114,0.00000
 160,-0.00001487,-0.00000838,0.00000254,0.00000820,0.00003551,-0.000089
 92,-0.00005966,-0.00016061,-0.00005837,-0.00000900,0.00038466,-0.00012
 947,-0.00011784,0.00006346,0.00013841,0.00007841,-0.00000601,-0.000010
 69,-0.00001978,0.00002533,0.00004736,0.00002557,0.00000724,-0.00000161
 ,0.00001767,0.00000721,-0.00001620,-0.00000438,-0.00000212,0.00000603,
 -0.00000317,-0.00000065,-0.00000149,-0.00000458,0.00000423,-0.00000362
 ,-0.00000328,0.00000485,0.00000300,0.00000116,0.00000182,0.00000420,0.
 00000487,0.00000859,0.00000017,-0.00000453,-0.00000297,-0.00000381,0.0
 0000178,-0.00000562,0.00001690,0.00005128,-0.00083102,0.00043520,0.000
 26667,-0.00005843,-0.00000013,-0.00000973,-0.00000354,0.00000264,0.000
 01509,-0.00000709,-0.00000190,-0.00000284,0.00001357,-0.00000121,-0.00
 000382,0.00001783,-0.00000614,0.00000528,0.00055232,0.00060107,-0.0001
 0029,-0.00188763,-0.00143152,-0.00127789,-0.00039863,0.00008865,-0.000
 35708,-0.14774045,-0.06623850,-0.07861089,-0.00102667,0.00120469,-0.00
 017448,0.14643420,0.06450300,0.08733417,-0.00001662,-0.00002081,0.0000
 3430,0.00006561,0.00005266,-0.00003449,-0.00010626,-0.00002818,-0.0000
 1094,0.00006088,0.00001378,0.00003386,0.00001072,-0.00000291,-0.000020
 72,0.00002963,0.00006441,0.00005108,0.00013142,0.00009143,0.00004057,-
 0.00042880,0.00016528,0.00012807,0.00003271,-0.00015283,-0.00009126,-0
 .00007142,-0.00001533,-0.00000688,0.00000687,-0.00002137,-0.00001365,0
 .00001829,0.00001724,0.00000587,-0.00001294,0.00000818,0.00000678,0.00
 000509,-0.00000834,0.00000935,-0.00000152,-0.00000277,-0.00000158,-0.0
 0000579,0.00000645,0.00000589,-0.00001370,-0.00000567,-0.00000533,-0.0
 0000498,-0.00001573,-0.00000913,-0.00001267,-0.00000157,0.00000712,0.0
 0001051,0.00000250,0.00000220,0.00003239,-0.00007467,0.00001421,0.0008
 6194,-0.00034818,-0.00020998,0.00005263,-0.00000007,0.00002323,-0.0000
 0866,-0.00001261,-0.00002113,0.00000719,0.00000104,-0.00000199,-0.0000
 1385,0.00000263,0.00000444,-0.00000445,-0.00000971,0.00000630,-0.00135
 415,0.00122571,-0.00121505,0.00162308,-0.00185222,0.00202906,-0.000129
 74,-0.00006095,0.00020614,-0.01116264,-0.00642899,-0.00852517,-0.00149
 159,0.00066901,-0.00046047,-0.00233417,-0.00074992,0.00422530,0.525272
 05,0.00000287,-0.00000251,-0.00000712,0.00000631,-0.00003776,-0.000003
 00,-0.00001589,0.00004322,0.00000041,0.00000735,-0.00001164,-0.0000045
 7,0.00000085,-0.00000289,0.00000067,-0.00006470,0.00007636,0.00004430,
 0.00012867,0.00001944,-0.00000505,-0.00019092,0.00004511,0.00005060,-0
 .00014065,-0.00009666,-0.00003527,0.00008270,0.00002908,0.00001112,-0.
 00003231,-0.00005693,-0.00002772,0.00000858,-0.00003300,0.00000822,0.0
 0000224,0.00001923,0.00000349,-0.00000059,0.00000550,-0.00000085,0.000
 00036,-0.00000053,0.00000309,-0.00000210,0.00000372,0.00000097,0.00000
 130,-0.00000075,-0.00000109,-0.00000100,0.00000704,0.00000077,-0.00000
 054,-0.00000018,0.00000105,-0.00000219,-0.00000421,0.00000209,-0.00004
 618,-0.00002163,-0.00002109,0.00037476,-0.00023359,-0.00014564,0.00003
 345,-0.00000773,0.00001439,0.00000123,-0.00000991,-0.00000288,0.000005
 17,0.00001638,0.00000962,-0.00000292,0.00000177,-0.00000070,-0.0000236
 7,0.00000156,0.00000272,-0.00070792,0.00117263,-0.00064753,0.00109584,
 -0.00161282,0.00131382,-0.00013439,-0.00019376,-0.00000883,-0.00613962
 ,0.00120535,-0.00337876,0.00074750,0.00065272,0.00043090,-0.00049142,-
 0.00507115,-0.00000265,0.04042096,0.00890699,-0.00000474,-0.00000803,0
 .00000382,0.00003922,0.00001455,-0.00002374,-0.00003073,-0.00000919,0.
 00003061,0.00000872,-0.00000168,0.00000948,0.00000644,-0.00000197,-0.0
 0000498,-0.00002760,0.00005570,0.00003753,0.00011125,0.00005594,0.0000
 1038,-0.00031936,0.00009522,0.00011723,-0.00003202,-0.00009666,-0.0000
 5781,-0.00000863,0.00000337,0.00001160,-0.00001665,-0.00002960,-0.0000
 1376,-0.00001347,0.00000714,-0.00002273,-0.00000597,0.00000973,0.00000
 229,0.00000204,-0.00000632,0.00000143,0.00000073,0.00000324,0.00000453
 ,-0.00000290,0.00000191,0.00000198,-0.00000268,-0.00000167,0.00000014,
 -0.00000099,-0.00000302,-0.00000346,-0.00000670,-0.00000006,0.00000347
 ,0.00000177,0.00000355,-0.00000404,0.00001394,-0.00001138,-0.00005449,
 0.00067831,-0.00026829,-0.00026249,0.00003792,0.00000410,-0.00000532,0
 .00000584,0.00000242,-0.00001051,0.00000430,-0.00000282,0.00000125,-0.
 00001003,-0.00000058,0.00000301,-0.00001383,0.00000641,-0.00000841,-0.
 00090679,0.00044597,-0.00027293,0.00083436,-0.00059989,0.00065942,0.00
 017300,-0.00000054,0.00014049,-0.00772274,-0.00306932,0.00178567,-0.00
 034704,0.00044289,-0.00043341,0.00364556,-0.00046805,-0.00979822,-0.09
 222004,-0.00914689,0.67708239,0.00000396,0.00000433,-0.00000811,-0.000
 01394,-0.00001432,0.00000780,0.00002344,0.00000940,0.00000330,-0.00001
 399,-0.00000407,-0.00000818,-0.00000272,0.00000053,0.00000463,-0.00001
 287,-0.00000685,-0.00000626,-0.00001393,-0.00001737,-0.00000851,0.0000
 7826,-0.00003210,-0.00002597,-0.00002107,0.00002038,0.00001495,0.00002
 548,0.00000645,0.00000331,-0.00000536,-0.00000133,0.00000023,-0.000003
 62,-0.00000566,-0.00000087,0.00000321,-0.00000027,-0.00000107,-0.00000
 131,0.00000237,-0.00000212,0.00000024,0.00000051,0.00000051,0.00000117
 ,-0.00000139,-0.00000140,0.00000324,0.00000142,0.00000128,0.00000112,0
 .00000416,0.00000214,0.00000284,0.00000033,-0.00000173,-0.00000237,-0.
 00000075,-0.00000037,-0.00001355,0.00000971,-0.00000055,-0.00015978,0.
 00005215,0.00004120,-0.00000760,-0.00000077,-0.00000208,0.00000259,0.0
 0000206,0.00000412,-0.00000121,0.00000081,0.00000101,0.00000245,-0.000
 00045,-0.00000122,-0.00000198,0.00000248,-0.00000148,0.00020636,0.0000
 2030,0.00004165,-0.00015611,-0.00004904,-0.00004165,-0.00007345,-0.000
 01522,-0.00006936,0.00020852,-0.00054560,-0.00071193,-0.00037962,-0.00
 012284,-0.00012264,-0.00069370,0.00120943,0.00214920,-0.43975496,-0.02
 984248,0.22536688,0.43495940,-0.00000245,-0.00000003,0.00000498,0.0000
 0486,0.00001909,-0.00000223,-0.00000355,-0.00001942,0.00000126,0.00000
 204,0.00000600,0.00000479,0.00000091,0.00000076,-0.00000166,0.00002059
 ,-0.00001552,-0.00000786,-0.00002230,0.00000813,0.00000477,0.00000077,
 0.00000332,0.00000609,0.00003749,0.00000855,-0.00000064,-0.00003008,-0
 .00000801,0.00000061,0.00000885,0.00001434,0.00000576,-0.00000327,0.00
 001458,-0.00000431,-0.00000179,-0.00000601,-0.00000042,0.00000053,-0.0
 0000360,0.00000079,-0.00000008,0.00000050,-0.00000092,0.00000029,-0.00
 000097,0.00000005,-0.00000167,-0.00000012,0.,0.00000006,-0.00000432,-0
 .00000107,-0.00000112,-0.00000006,0.00000034,0.00000189,0.00000251,-0.
 00000077,0.00001435,0.00000990,-0.00000499,0.00000454,0.00002375,-0.00
 000259,-0.00000359,0.00000393,-0.00000283,-0.00000050,0.00000253,-0.00
 000129,-0.00000082,-0.00000629,-0.00000359,-0.00000068,-0.00000045,0.0
 0000080,0.00000576,0.00000082,-0.00000249,-0.00001271,-0.00017629,0.00
 002937,-0.00009160,0.00014827,-0.00011923,0.00003779,0.00009917,0.0000
 2836,-0.00064382,-0.00057983,-0.00116883,-0.00042205,0.00000336,0.0001
 4363,0.00042702,0.00038873,0.00208205,-0.02772851,-0.00303346,0.012338
 23,0.02848196,0.00298427,-0.00000109,-0.00000034,0.00000458,-0.0000032
 8,0.00000190,0.00000365,-0.00000570,0.00000087,-0.00001349,0.00000611,
 0.00000189,0.00000217,-0.00000087,0.00000041,-0.00000154,0.00000956,-0
 .00000435,-0.00000358,-0.00000886,-0.00000229,0.00000414,0.00002552,-0
 .00000346,-0.00001642,0.00000946,0.00000044,0.00000551,-0.00000502,0.0
 0000083,-0.00000596,0.00000405,0.00000311,0.00000271,0.00000698,-0.000
 00173,0.00000923,0.00000049,-0.00000165,0.00000045,-0.00000002,0.00000
 163,0.00000117,-0.00000062,-0.00000227,-0.00000210,0.00000011,0.000000
 32,0.00000022,-0.00000133,-0.00000033,-0.00000076,-0.00000054,-0.00000
 099,-0.00000009,0.00000049,-0.00000025,-0.00000045,0.00000058,-0.00000
 077,0.00000205,0.00000044,-0.00000807,0.00001938,-0.00005686,0.0000150
 8,0.00004725,-0.00000175,-0.00000244,0.00000833,-0.00000304,-0.0000028
 8,0.00000011,-0.00000008,0.00000195,-0.00000024,0.00000129,0.00000068,
 -0.00000058,0.00000251,-0.00000312,0.00000419,-0.00000766,0.00019709,-
 0.00029543,0.00017161,-0.00034029,0.00042799,-0.00014786,-0.00001373,0
 .00000957,-0.00205026,-0.00128014,-0.00235450,-0.00027462,-0.00002776,
 0.00009007,0.00284989,0.00242639,0.00409781,0.16882549,0.00954050,-0.1
 4958505,-0.21390875,-0.01318000,0.16741738,0.00000405,0.00000381,-0.00
 001065,-0.00000659,-0.00001484,0.00000331,0.00002532,0.00000949,0.0000
 1580,-0.00001873,-0.00000679,-0.00000794,-0.00000145,0.00000045,0.0000
 0545,-0.00003045,0.00000921,0.00000278,0.00001817,-0.00000308,-0.00000
 931,-0.00001789,-0.00001060,0.00001456,-0.00004047,-0.00000528,0.00000
 728,0.00003025,0.00001328,0.00000843,-0.00001557,-0.00001119,-0.000002
 68,-0.00001294,-0.00000584,-0.00001122,0.00000249,0.00000244,-0.000001
 19,-0.00000116,0.00000110,-0.00000240,0.00000071,0.00000175,0.00000241
 ,0.00000079,-0.00000153,-0.00000129,0.00000372,0.00000130,0.00000212,0
 .00000130,0.00000493,0.00000194,0.00000187,0.00000046,-0.00000148,-0.0
 0000290,0.00000067,-0.00000229,-0.00000822,0.00001947,-0.00003022,0.00
 006134,-0.00002841,-0.00006586,0.00000267,0.00000116,-0.00000744,0.000
 00585,0.00000531,0.00000273,-0.00000035,-0.00000041,0.00000197,0.00000
 065,-0.00000109,-0.00000049,-0.00000748,0.00000761,-0.00000530,-0.0001
 0793,0.00007741,0.00002652,0.00011088,-0.00011053,0.00003544,0.0000250
 6,0.00000040,0.00000143,-0.00248540,-0.00142478,0.00024559,-0.00024204
 ,-0.00003903,-0.00023960,0.00434519,0.00268680,-0.00178083,-0.07129209
 ,-0.00508065,-0.12923736,0.00581084,-0.00007910,0.04456363,0.06384050,
 -0.00000352,-0.00000173,0.00000746,0.00000752,0.00002455,-0.00000397,-
 0.00000569,-0.00002561,0.00000108,0.00000346,0.00000715,0.00000693,0.0
 0000111,0.00000119,-0.00000299,0.00003272,-0.00002409,-0.00001244,-0.0
 0003806,0.00000122,0.00000757,0.00001930,0.00000251,-0.00000247,0.0000
 6021,0.00001856,0.00000049,-0.00004467,-0.00000919,-0.00000263,0.00001
 562,0.00002170,0.00000937,-0.00000329,0.00001944,-0.00000504,-0.000002
 82,-0.00000764,-0.00000108,0.00000080,-0.00000373,0.00000179,-0.000000
 27,-0.00000020,-0.00000134,0.00000019,-0.00000106,0.00000042,-0.000002
 32,-0.00000040,0.00000001,-0.00000007,-0.00000550,-0.00000181,-0.00000
 151,0.00000009,0.00000035,0.00000273,0.00000320,-0.00000020,0.00001848
 ,0.00000353,0.00001877,-0.00004223,0.00004529,0.00002897,-0.00000557,0
 .00000301,-0.00000378,-0.00000121,0.00000427,-0.00000165,-0.00000161,-
 0.00000872,-0.00000554,-0.00000080,-0.00000030,0.00000103,0.00001060,-
 0.00000163,0.00000078,0.00008685,-0.00014800,0.00001730,-0.00016138,0.
 00014020,-0.00008036,0.00000156,0.00003655,0.00000293,-0.00139719,-0.0
 0074960,0.00033789,-0.00010797,0.00006763,-0.00042315,0.00195117,0.000
 69447,-0.00114361,-0.00519996,-0.00177501,0.00023558,0.00083172,0.0001
 1183,0.00268377,0.00397610,0.00155603,0.00000215,0.00000321,-0.0000020
 1,-0.00001645,-0.00000707,0.00001076,0.00001065,0.00000540,-0.00001473
 ,-0.00000206,0.00000116,-0.00000355,-0.00000248,0.00000066,0.00000218,
 0.00000534,-0.00001547,-0.00001100,-0.00003205,-0.00001875,-0.00000367
 ,0.00010213,-0.00003187,-0.00003752,-0.00000769,0.00002639,0.00001793,
 0.00001272,0.00000565,-0.00000165,0.00000349,0.00000627,0.00000261,0.0
 0000676,-0.00000394,0.00001147,0.00000289,-0.00000315,-0.00000089,-0.0
 0000082,0.00000279,-0.00000069,-0.00000009,-0.00000130,-0.00000181,0.0
 0000110,-0.00000058,-0.00000066,0.00000103,0.00000058,-0.00000038,0.00
 000035,0.00000115,0.00000135,0.00000287,-0.00000012,-0.00000129,-0.000
 00012,-0.00000133,0.00000253,-0.00001318,0.00000583,0.00001660,-0.0002
 1603,0.00007457,0.00007502,-0.00001114,-0.00000129,0.00000292,-0.00000
 326,-0.00000185,0.00000471,-0.00000162,0.00000189,-0.00000052,0.000004
 84,0.00000042,-0.00000124,0.00000311,-0.00000308,0.00000486,0.00027939
 ,-0.00011866,0.00010184,-0.00024013,0.00015718,-0.00020638,-0.00003366
 ,-0.00000554,-0.00003723,0.00147644,0.00034375,0.00057074,-0.00019678,
 -0.00007911,-0.00000996,-0.00208444,-0.00052808,-0.00132906,-0.0728114
 7,0.00200089,-0.51934534,-0.01271794,-0.00014619,-0.01987780,0.0864761
 7,-0.00167043,0.54006188\\0.00000038,-0.00000059,0.00000017,0.00000063
 ,-0.00000038,0.00000004,-0.00000028,0.00000059,0.00000073,-0.00000038,
 0.00000019,0.00000008,-0.00000009,-0.00000058,0.00000051,0.00000174,-0
 .00000268,-0.00000216,-0.00000547,-0.00000256,-0.00000087,0.00000961,0
 .00000588,0.00000257,0.00000192,-0.00000490,-0.00000364,-0.00000329,-0
 .00000023,-0.00000067,0.00000138,0.00000298,0.00000078,0.00000037,0.00
 000003,0.00000078,-0.00000021,0.00000002,0.00000093,-0.00000020,-0.000
 00087,-0.00000029,-0.00000025,-0.00000102,0.00000035,-0.00000002,-0.00
 000047,-0.00000003,-0.00000020,-0.00000085,0.00000052,0.00000001,-0.00
 000016,0.00000101,-0.00000002,0.00000028,0.00000053,-0.00000011,0.0000
 0032,-0.00000039,-0.00000024,0.00000070,-0.00000108,-0.00000929,0.0000
 0057,0.00000366,0.00000075,-0.00000020,0.00000014,0.00000003,0.0000008
 5,0.00000037,0.00000007,0.00000091,0.00000111,0.00000007,0.00000108,0.
 00000072,0.00000017,0.00000060,-0.00000147,-0.00000438,0.00000542,-0.0
 0001330,0.00000775,-0.00000722,0.00001076,0.00000152,-0.00000283,0.000
 00167,-0.00000739,-0.00000848,-0.00000677,-0.00000400,0.00000495,-0.00
 000009,0.00001144,0.00000768,0.00000660,0.00000386,0.00000069,-0.00000
 060,-0.00000311,0.00000045,0.00000042,-0.00000279,-0.00000016,-0.00000
 309\\\@


 YOU KNOW YOU'VE SPOKEN TOO LONG WHEN THE AUDIENCE STOPS LOOKING AT
 THEIR WATCHES AND STARTS SHAKING THEM.
 Job cpu time:       0 days 17 hours 44 minutes  6.0 seconds.
 Elapsed time:       0 days  0 hours 38 minutes  2.5 seconds.
 File lengths (MBytes):  RWF=   1060 Int=      0 D2E=      0 Chk=     28 Scr=      8
 Normal termination of Gaussian 16 at Thu Jan 26 16:27:45 2023.
