 Entering Gaussian System, Link 0=g16
 Input=NicPySa3h5wB97XDaVDZ180K.gjf
 Output=NicPySa3h5wB97XDaVDZ180K.log
 Initial command:
 /sw/contrib/gaussian/g16/A03/g16/l1.exe "/gscratch/scrubbed/gds001/Gau-2320.inp" -scrdir="/gscratch/scrubbed/gds001/"
 Entering Link 1 = /sw/contrib/gaussian/g16/A03/g16/l1.exe PID=      2321.
  
 Copyright (c) 1988,1990,1992,1993,1995,1998,2003,2009,2016,
            Gaussian, Inc.  All Rights Reserved.
  
 This is part of the Gaussian(R) 16 program.  It is based on
 the Gaussian(R) 09 system (copyright 2009, Gaussian, Inc.),
 the Gaussian(R) 03 system (copyright 2003, Gaussian, Inc.),
 the Gaussian(R) 98 system (copyright 1998, Gaussian, Inc.),
 the Gaussian(R) 94 system (copyright 1995, Gaussian, Inc.),
 the Gaussian 92(TM) system (copyright 1992, Gaussian, Inc.),
 the Gaussian 90(TM) system (copyright 1990, Gaussian, Inc.),
 the Gaussian 88(TM) system (copyright 1988, Gaussian, Inc.),
 the Gaussian 86(TM) system (copyright 1986, Carnegie Mellon
 University), and the Gaussian 82(TM) system (copyright 1983,
 Carnegie Mellon University). Gaussian is a federally registered
 trademark of Gaussian, Inc.
  
 This software contains proprietary and confidential information,
 including trade secrets, belonging to Gaussian, Inc.
  
 This software is provided under written license and may be
 used, copied, transmitted, or stored only in accord with that
 written license.
  
 The following legend is applicable only to US Government
 contracts under FAR:
  
                    RESTRICTED RIGHTS LEGEND
  
 Use, reproduction and disclosure by the US Government is
 subject to restrictions as set forth in subparagraphs (a)
 and (c) of the Commercial Computer Software - Restricted
 Rights clause in FAR 52.227-19.
  
 Gaussian, Inc.
 340 Quinnipiac St., Bldg. 40, Wallingford CT 06492
  
  
 ---------------------------------------------------------------
 Warning -- This program may not be used in any manner that
 competes with the business of Gaussian, Inc. or will provide
 assistance to any competitor of Gaussian, Inc.  The licensee
 of this program is prohibited from giving any competitor of
 Gaussian, Inc. access to this program.  By using this program,
 the user acknowledges that Gaussian, Inc. is engaged in the
 business of creating and licensing software in the field of
 computational chemistry and represents and warrants to the
 licensee that it is not a competitor of Gaussian, Inc. and that
 it will not use this program in any manner prohibited above.
 ---------------------------------------------------------------
  

 Cite this work as:
 Gaussian 16, Revision A.03,
 M. J. Frisch, G. W. Trucks, H. B. Schlegel, G. E. Scuseria, 
 M. A. Robb, J. R. Cheeseman, G. Scalmani, V. Barone, 
 G. A. Petersson, H. Nakatsuji, X. Li, M. Caricato, A. V. Marenich, 
 J. Bloino, B. G. Janesko, R. Gomperts, B. Mennucci, H. P. Hratchian, 
 J. V. Ortiz, A. F. Izmaylov, J. L. Sonnenberg, D. Williams-Young, 
 F. Ding, F. Lipparini, F. Egidi, J. Goings, B. Peng, A. Petrone, 
 T. Henderson, D. Ranasinghe, V. G. Zakrzewski, J. Gao, N. Rega, 
 G. Zheng, W. Liang, M. Hada, M. Ehara, K. Toyota, R. Fukuda, 
 J. Hasegawa, M. Ishida, T. Nakajima, Y. Honda, O. Kitao, H. Nakai, 
 T. Vreven, K. Throssell, J. A. Montgomery, Jr., J. E. Peralta, 
 F. Ogliaro, M. J. Bearpark, J. J. Heyd, E. N. Brothers, K. N. Kudin, 
 V. N. Staroverov, T. A. Keith, R. Kobayashi, J. Normand, 
 K. Raghavachari, A. P. Rendell, J. C. Burant, S. S. Iyengar, 
 J. Tomasi, M. Cossi, J. M. Millam, M. Klene, C. Adamo, R. Cammi, 
 J. W. Ochterski, R. L. Martin, K. Morokuma, O. Farkas, 
 J. B. Foresman, and D. J. Fox, Gaussian, Inc., Wallingford CT, 2016.
 
 ******************************************
 Gaussian 16:  ES64L-G16RevA.03 25-Dec-2016
                15-Nov-2021 
 ******************************************
 %nprocshared=28
 Will use up to   28 processors via shared memory.
 %mem=41GB
 ---------------------------------------------
 # wB97XD/aug-cc-pVDZ opt freq temperature=180
 ---------------------------------------------
 1/18=20,19=15,26=3,38=1,112=180000/1,3;
 2/9=110,12=2,17=6,18=5,40=1/2;
 3/5=16,7=10,11=2,25=1,30=1,71=1,74=-58/1,2,3;
 4//1;
 5/5=2,38=5/2;
 6/7=2,8=2,9=2,10=2,28=1/1;
 7//1,2,3,16;
 1/18=20,19=15,26=3/3(2);
 2/9=110/2;
 99//99;
 2/9=110/2;
 3/5=16,7=10,11=2,25=1,30=1,71=1,74=-58/1,2,3;
 4/5=5,16=3,69=1/1;
 5/5=2,38=5/2;
 7//1,2,3,16;
 1/18=20,19=15,26=3/3(-5);
 2/9=110/2;
 6/7=2,8=2,9=2,10=2,19=2,28=1/1;
 99/9=1/99;
 --------
 Nicotine
 --------
 Symbolic Z-matrix:
 Charge =  1 Multiplicity = 1
 C                     1.29971   2.3134   -0.48951 
 C                     1.4374    0.97888  -0.09459 
 C                     0.3067    0.33821   0.39189 
 N                    -0.86721   0.98394   0.46732 
 C                    -1.0201    2.26036   0.08507 
 C                     0.06794   2.95998  -0.40534 
 C                     2.75152   0.23745  -0.22402 
 N                     2.78947  -0.93588   0.63957 
 C                     3.58945  -1.95105  -0.0406 
 C                     3.13498  -1.82313  -1.48785 
 C                     2.99593  -0.30163  -1.66551 
 O                    -3.00509  -0.28473   1.38901 
 O                    -4.69366  -1.53334  -0.22362 
 H                     3.39809  -2.93868   0.39624 
 H                     3.84279  -2.263    -2.19797 
 H                     2.16565  -2.32053  -1.61843 
 H                     3.92238   0.12959  -2.06156 
 H                     2.18775  -0.02992  -2.35407 
 H                     4.67444  -1.74165   0.04834 
 H                     3.5561    0.9528    0.03614 
 H                     0.33693  -0.69471   0.7306 
 H                    -2.01636   2.68264   0.19012 
 H                    -0.0497    3.99691  -0.71097 
 H                     2.16857   2.85419  -0.86674 
 C                     3.20442  -0.654     2.00103 
 H                    -1.70509   0.46898   0.84598 
 H                    -3.29486  -0.37864   2.2983 
 H                    -3.65664  -0.76206   0.82051 
 H                    -5.60686  -1.23389  -0.3938 
 H                    -4.6951   -2.48521  -0.34452 
 O                    -7.25128  -0.64471  -0.71086 
 H                    -8.01455  -0.78859  -0.14529 
 H                    -7.60167  -0.48749  -1.59159 
 H                     2.52266   0.07227   2.46461 
 H                     4.23157  -0.24292   2.05113 
 H                     3.17062  -1.57498   2.59501 
 
 Add virtual bond connecting atoms H26        and O12        Dist= 3.02D+00.
 Add virtual bond connecting atoms H28        and O13        Dist= 3.14D+00.
 Add virtual bond connecting atoms O31        and H29        Dist= 3.35D+00.

 GradGradGradGradGradGradGradGradGradGradGradGradGradGradGradGradGradGrad
 Berny optimization.
 Initialization pass.
                           ----------------------------
                           !    Initial Parameters    !
                           ! (Angstroms and Degrees)  !
 --------------------------                            --------------------------
 ! Name  Definition              Value          Derivative Info.                !
 --------------------------------------------------------------------------------
 ! R1    R(1,2)                  1.3985         estimate D2E/DX2                !
 ! R2    R(1,6)                  1.3937         estimate D2E/DX2                !
 ! R3    R(1,24)                 1.0907         estimate D2E/DX2                !
 ! R4    R(2,3)                  1.3877         estimate D2E/DX2                !
 ! R5    R(2,7)                  1.5144         estimate D2E/DX2                !
 ! R6    R(3,4)                  1.3419         estimate D2E/DX2                !
 ! R7    R(3,21)                 1.0875         estimate D2E/DX2                !
 ! R8    R(4,5)                  1.3412         estimate D2E/DX2                !
 ! R9    R(4,26)                 1.0539         estimate D2E/DX2                !
 ! R10   R(5,6)                  1.3834         estimate D2E/DX2                !
 ! R11   R(5,22)                 1.0872         estimate D2E/DX2                !
 ! R12   R(6,23)                 1.0874         estimate D2E/DX2                !
 ! R13   R(7,8)                  1.4574         estimate D2E/DX2                !
 ! R14   R(7,11)                 1.5583         estimate D2E/DX2                !
 ! R15   R(7,20)                 1.1076         estimate D2E/DX2                !
 ! R16   R(8,9)                  1.4605         estimate D2E/DX2                !
 ! R17   R(8,25)                 1.4509         estimate D2E/DX2                !
 ! R18   R(9,10)                 1.5223         estimate D2E/DX2                !
 ! R19   R(9,14)                 1.0967         estimate D2E/DX2                !
 ! R20   R(9,19)                 1.1086         estimate D2E/DX2                !
 ! R21   R(10,11)                1.5381         estimate D2E/DX2                !
 ! R22   R(10,15)                1.0949         estimate D2E/DX2                !
 ! R23   R(10,16)                1.0973         estimate D2E/DX2                !
 ! R24   R(11,17)                1.096          estimate D2E/DX2                !
 ! R25   R(11,18)                1.0959         estimate D2E/DX2                !
 ! R26   R(12,26)                1.5978         estimate D2E/DX2                !
 ! R27   R(12,27)                0.959          estimate D2E/DX2                !
 ! R28   R(12,28)                0.9877         estimate D2E/DX2                !
 ! R29   R(13,28)                1.6615         estimate D2E/DX2                !
 ! R30   R(13,29)                0.976          estimate D2E/DX2                !
 ! R31   R(13,30)                0.9595         estimate D2E/DX2                !
 ! R32   R(25,34)                1.0987         estimate D2E/DX2                !
 ! R33   R(25,35)                1.1075         estimate D2E/DX2                !
 ! R34   R(25,36)                1.0964         estimate D2E/DX2                !
 ! R35   R(29,31)                1.7753         estimate D2E/DX2                !
 ! R36   R(31,32)                0.9608         estimate D2E/DX2                !
 ! R37   R(31,33)                0.9608         estimate D2E/DX2                !
 ! A1    A(2,1,6)              120.8412         estimate D2E/DX2                !
 ! A2    A(2,1,24)             119.4956         estimate D2E/DX2                !
 ! A3    A(6,1,24)             119.6631         estimate D2E/DX2                !
 ! A4    A(1,2,3)              117.3445         estimate D2E/DX2                !
 ! A5    A(1,2,7)              121.9028         estimate D2E/DX2                !
 ! A6    A(3,2,7)              120.7298         estimate D2E/DX2                !
 ! A7    A(2,3,4)              120.6871         estimate D2E/DX2                !
 ! A8    A(2,3,21)             121.6738         estimate D2E/DX2                !
 ! A9    A(4,3,21)             117.6378         estimate D2E/DX2                !
 ! A10   A(3,4,5)              122.7977         estimate D2E/DX2                !
 ! A11   A(3,4,26)             118.7235         estimate D2E/DX2                !
 ! A12   A(5,4,26)             118.4784         estimate D2E/DX2                !
 ! A13   A(4,5,6)              119.5176         estimate D2E/DX2                !
 ! A14   A(4,5,22)             116.5265         estimate D2E/DX2                !
 ! A15   A(6,5,22)             123.9554         estimate D2E/DX2                !
 ! A16   A(1,6,5)              118.8093         estimate D2E/DX2                !
 ! A17   A(1,6,23)             121.4011         estimate D2E/DX2                !
 ! A18   A(5,6,23)             119.7888         estimate D2E/DX2                !
 ! A19   A(2,7,8)              111.4762         estimate D2E/DX2                !
 ! A20   A(2,7,11)             112.6147         estimate D2E/DX2                !
 ! A21   A(2,7,20)             107.1021         estimate D2E/DX2                !
 ! A22   A(8,7,11)             105.3997         estimate D2E/DX2                !
 ! A23   A(8,7,20)             111.2156         estimate D2E/DX2                !
 ! A24   A(11,7,20)            109.074          estimate D2E/DX2                !
 ! A25   A(7,8,9)              107.3316         estimate D2E/DX2                !
 ! A26   A(7,8,25)             114.0201         estimate D2E/DX2                !
 ! A27   A(9,8,25)             114.5428         estimate D2E/DX2                !
 ! A28   A(8,9,10)             102.7568         estimate D2E/DX2                !
 ! A29   A(8,9,14)             110.173          estimate D2E/DX2                !
 ! A30   A(8,9,19)             111.5567         estimate D2E/DX2                !
 ! A31   A(10,9,14)            113.7183         estimate D2E/DX2                !
 ! A32   A(10,9,19)            110.6449         estimate D2E/DX2                !
 ! A33   A(14,9,19)            107.9937         estimate D2E/DX2                !
 ! A34   A(9,10,11)            102.7045         estimate D2E/DX2                !
 ! A35   A(9,10,15)            112.9453         estimate D2E/DX2                !
 ! A36   A(9,10,16)            109.8015         estimate D2E/DX2                !
 ! A37   A(11,10,15)           112.3916         estimate D2E/DX2                !
 ! A38   A(11,10,16)           110.7805         estimate D2E/DX2                !
 ! A39   A(15,10,16)           108.1669         estimate D2E/DX2                !
 ! A40   A(7,11,10)            104.4499         estimate D2E/DX2                !
 ! A41   A(7,11,17)            109.3148         estimate D2E/DX2                !
 ! A42   A(7,11,18)            112.3193         estimate D2E/DX2                !
 ! A43   A(10,11,17)           110.7643         estimate D2E/DX2                !
 ! A44   A(10,11,18)           112.6117         estimate D2E/DX2                !
 ! A45   A(17,11,18)           107.3841         estimate D2E/DX2                !
 ! A46   A(26,12,27)           127.9018         estimate D2E/DX2                !
 ! A47   A(26,12,28)           124.6846         estimate D2E/DX2                !
 ! A48   A(27,12,28)           107.4047         estimate D2E/DX2                !
 ! A49   A(28,13,29)           123.4457         estimate D2E/DX2                !
 ! A50   A(28,13,30)           122.7272         estimate D2E/DX2                !
 ! A51   A(29,13,30)           106.3192         estimate D2E/DX2                !
 ! A52   A(8,25,34)            110.2958         estimate D2E/DX2                !
 ! A53   A(8,25,35)            112.3216         estimate D2E/DX2                !
 ! A54   A(8,25,36)            109.6529         estimate D2E/DX2                !
 ! A55   A(34,25,35)           108.1232         estimate D2E/DX2                !
 ! A56   A(34,25,36)           107.9109         estimate D2E/DX2                !
 ! A57   A(35,25,36)           108.4132         estimate D2E/DX2                !
 ! A58   A(29,31,32)           125.5216         estimate D2E/DX2                !
 ! A59   A(29,31,33)           123.7658         estimate D2E/DX2                !
 ! A60   A(32,31,33)           105.9244         estimate D2E/DX2                !
 ! A61   L(4,26,12,36,-1)      181.8026         estimate D2E/DX2                !
 ! A62   L(12,28,13,10,-1)     177.1185         estimate D2E/DX2                !
 ! A63   L(13,29,31,22,-1)     178.4788         estimate D2E/DX2                !
 ! A64   L(4,26,12,36,-2)      180.2806         estimate D2E/DX2                !
 ! A65   L(12,28,13,10,-2)     182.6488         estimate D2E/DX2                !
 ! A66   L(13,29,31,22,-2)     179.6612         estimate D2E/DX2                !
 ! D1    D(6,1,2,3)             -0.5987         estimate D2E/DX2                !
 ! D2    D(6,1,2,7)            177.6737         estimate D2E/DX2                !
 ! D3    D(24,1,2,3)           179.3188         estimate D2E/DX2                !
 ! D4    D(24,1,2,7)            -2.4088         estimate D2E/DX2                !
 ! D5    D(2,1,6,5)              0.3956         estimate D2E/DX2                !
 ! D6    D(2,1,6,23)          -179.9263         estimate D2E/DX2                !
 ! D7    D(24,1,6,5)          -179.5218         estimate D2E/DX2                !
 ! D8    D(24,1,6,23)            0.1563         estimate D2E/DX2                !
 ! D9    D(1,2,3,4)              0.3753         estimate D2E/DX2                !
 ! D10   D(1,2,3,21)          -179.1915         estimate D2E/DX2                !
 ! D11   D(7,2,3,4)           -177.9185         estimate D2E/DX2                !
 ! D12   D(7,2,3,21)             2.5148         estimate D2E/DX2                !
 ! D13   D(1,2,7,8)            160.4951         estimate D2E/DX2                !
 ! D14   D(1,2,7,11)           -81.2744         estimate D2E/DX2                !
 ! D15   D(1,2,7,20)            38.63           estimate D2E/DX2                !
 ! D16   D(3,2,7,8)            -21.2902         estimate D2E/DX2                !
 ! D17   D(3,2,7,11)            96.9404         estimate D2E/DX2                !
 ! D18   D(3,2,7,20)          -143.1553         estimate D2E/DX2                !
 ! D19   D(2,3,4,5)              0.0604         estimate D2E/DX2                !
 ! D20   D(2,3,4,26)          -179.7136         estimate D2E/DX2                !
 ! D21   D(21,3,4,5)           179.6443         estimate D2E/DX2                !
 ! D22   D(21,3,4,26)           -0.1298         estimate D2E/DX2                !
 ! D23   D(3,4,5,6)             -0.2795         estimate D2E/DX2                !
 ! D24   D(3,4,5,22)           179.983          estimate D2E/DX2                !
 ! D25   D(26,4,5,6)           179.4951         estimate D2E/DX2                !
 ! D26   D(26,4,5,22)           -0.2424         estimate D2E/DX2                !
 ! D27   D(3,4,12,27)           86.9516         estimate D2E/DX2                !
 ! D28   D(3,4,12,28)          -92.6837         estimate D2E/DX2                !
 ! D29   D(5,4,12,27)          -93.4746         estimate D2E/DX2                !
 ! D30   D(5,4,12,28)           86.8901         estimate D2E/DX2                !
 ! D31   D(4,5,6,1)              0.0475         estimate D2E/DX2                !
 ! D32   D(4,5,6,23)          -179.636          estimate D2E/DX2                !
 ! D33   D(22,5,6,1)           179.7643         estimate D2E/DX2                !
 ! D34   D(22,5,6,23)            0.0808         estimate D2E/DX2                !
 ! D35   D(2,7,8,9)            147.1567         estimate D2E/DX2                !
 ! D36   D(2,7,8,25)           -84.8583         estimate D2E/DX2                !
 ! D37   D(11,7,8,9)            24.6785         estimate D2E/DX2                !
 ! D38   D(11,7,8,25)          152.6636         estimate D2E/DX2                !
 ! D39   D(20,7,8,9)           -93.3898         estimate D2E/DX2                !
 ! D40   D(20,7,8,25)           34.5952         estimate D2E/DX2                !
 ! D41   D(2,7,11,10)         -120.74           estimate D2E/DX2                !
 ! D42   D(2,7,11,17)          120.6885         estimate D2E/DX2                !
 ! D43   D(2,7,11,18)            1.6028         estimate D2E/DX2                !
 ! D44   D(8,7,11,10)            1.0035         estimate D2E/DX2                !
 ! D45   D(8,7,11,17)         -117.568          estimate D2E/DX2                !
 ! D46   D(8,7,11,18)          123.3463         estimate D2E/DX2                !
 ! D47   D(20,7,11,10)         120.502          estimate D2E/DX2                !
 ! D48   D(20,7,11,17)           1.9304         estimate D2E/DX2                !
 ! D49   D(20,7,11,18)        -117.1553         estimate D2E/DX2                !
 ! D50   D(7,8,9,10)           -40.8219         estimate D2E/DX2                !
 ! D51   D(7,8,9,14)          -162.3255         estimate D2E/DX2                !
 ! D52   D(7,8,9,19)            77.7412         estimate D2E/DX2                !
 ! D53   D(25,8,9,10)         -168.5033         estimate D2E/DX2                !
 ! D54   D(25,8,9,14)           69.9931         estimate D2E/DX2                !
 ! D55   D(25,8,9,19)          -49.9403         estimate D2E/DX2                !
 ! D56   D(7,8,25,34)           59.1338         estimate D2E/DX2                !
 ! D57   D(7,8,25,35)          -61.5538         estimate D2E/DX2                !
 ! D58   D(7,8,25,36)          177.8356         estimate D2E/DX2                !
 ! D59   D(9,8,25,34)         -176.6696         estimate D2E/DX2                !
 ! D60   D(9,8,25,35)           62.6427         estimate D2E/DX2                !
 ! D61   D(9,8,25,36)          -57.9678         estimate D2E/DX2                !
 ! D62   D(8,9,10,11)           39.7188         estimate D2E/DX2                !
 ! D63   D(8,9,10,15)          161.0167         estimate D2E/DX2                !
 ! D64   D(8,9,10,16)          -78.1676         estimate D2E/DX2                !
 ! D65   D(14,9,10,11)         158.7756         estimate D2E/DX2                !
 ! D66   D(14,9,10,15)         -79.9266         estimate D2E/DX2                !
 ! D67   D(14,9,10,16)          40.8892         estimate D2E/DX2                !
 ! D68   D(19,9,10,11)         -79.4821         estimate D2E/DX2                !
 ! D69   D(19,9,10,15)          41.8158         estimate D2E/DX2                !
 ! D70   D(19,9,10,16)         162.6315         estimate D2E/DX2                !
 ! D71   D(9,10,11,7)          -24.6715         estimate D2E/DX2                !
 ! D72   D(9,10,11,17)          92.9088         estimate D2E/DX2                !
 ! D73   D(9,10,11,18)        -146.8226         estimate D2E/DX2                !
 ! D74   D(15,10,11,7)        -146.347          estimate D2E/DX2                !
 ! D75   D(15,10,11,17)        -28.7667         estimate D2E/DX2                !
 ! D76   D(15,10,11,18)         91.5019         estimate D2E/DX2                !
 ! D77   D(16,10,11,7)          92.5207         estimate D2E/DX2                !
 ! D78   D(16,10,11,17)       -149.899          estimate D2E/DX2                !
 ! D79   D(16,10,11,18)        -29.6305         estimate D2E/DX2                !
 ! D80   D(26,12,13,29)       -111.675          estimate D2E/DX2                !
 ! D81   D(26,12,13,30)        100.9757         estimate D2E/DX2                !
 ! D82   D(27,12,13,29)         69.2671         estimate D2E/DX2                !
 ! D83   D(27,12,13,30)        -78.0822         estimate D2E/DX2                !
 ! D84   D(28,13,31,32)        -79.6901         estimate D2E/DX2                !
 ! D85   D(28,13,31,33)        127.6625         estimate D2E/DX2                !
 ! D86   D(30,13,31,32)         71.197          estimate D2E/DX2                !
 ! D87   D(30,13,31,33)        -81.4504         estimate D2E/DX2                !
 --------------------------------------------------------------------------------
 Trust Radius=3.00D-01 FncErr=1.00D-07 GrdErr=1.00D-06 EigMax=2.50D+02 EigMin=1.00D-04
 Number of steps in this run=    200 maximum allowed number of steps=    216.
 GradGradGradGradGradGradGradGradGradGradGradGradGradGradGradGradGradGrad

                          Input orientation:                          
 ---------------------------------------------------------------------
 Center     Atomic      Atomic             Coordinates (Angstroms)
 Number     Number       Type             X           Y           Z
 ---------------------------------------------------------------------
      1          6           0        1.299707    2.313396   -0.489513
      2          6           0        1.437398    0.978879   -0.094588
      3          6           0        0.306703    0.338205    0.391890
      4          7           0       -0.867209    0.983935    0.467318
      5          6           0       -1.020097    2.260355    0.085074
      6          6           0        0.067936    2.959979   -0.405343
      7          6           0        2.751524    0.237450   -0.224021
      8          7           0        2.789471   -0.935883    0.639572
      9          6           0        3.589446   -1.951048   -0.040596
     10          6           0        3.134981   -1.823128   -1.487846
     11          6           0        2.995925   -0.301632   -1.665512
     12          8           0       -3.005095   -0.284727    1.389012
     13          8           0       -4.693657   -1.533338   -0.223622
     14          1           0        3.398085   -2.938675    0.396236
     15          1           0        3.842790   -2.262996   -2.197969
     16          1           0        2.165650   -2.320534   -1.618425
     17          1           0        3.922379    0.129586   -2.061565
     18          1           0        2.187750   -0.029919   -2.354074
     19          1           0        4.674444   -1.741646    0.048336
     20          1           0        3.556100    0.952798    0.036143
     21          1           0        0.336933   -0.694710    0.730595
     22          1           0       -2.016357    2.682644    0.190116
     23          1           0       -0.049698    3.996914   -0.710972
     24          1           0        2.168566    2.854189   -0.866743
     25          6           0        3.204424   -0.653996    2.001033
     26          1           0       -1.705085    0.468976    0.845978
     27          1           0       -3.294864   -0.378638    2.298302
     28          1           0       -3.656637   -0.762058    0.820507
     29          1           0       -5.606856   -1.233889   -0.393797
     30          1           0       -4.695104   -2.485213   -0.344524
     31          8           0       -7.251277   -0.644713   -0.710856
     32          1           0       -8.014552   -0.788589   -0.145286
     33          1           0       -7.601670   -0.487491   -1.591588
     34          1           0        2.522658    0.072265    2.464607
     35          1           0        4.231566   -0.242924    2.051134
     36          1           0        3.170623   -1.574982    2.595013
 ---------------------------------------------------------------------
                    Distance matrix (angstroms):
                    1          2          3          4          5
     1  C    0.000000
     2  C    1.398521   0.000000
     3  C    2.379981   1.387658   0.000000
     4  N    2.716343   2.372125   1.341911   0.000000
     5  C    2.390492   2.777362   2.355673   1.341169   0.000000
     6  C    1.393705   2.428323   2.750689   2.353887   1.383401
     7  C    2.547118   1.514397   2.523222   3.759045   4.291015
     8  N    3.748606   2.456299   2.801568   4.133604   5.003620
     9  C    4.861061   3.635753   4.025435   5.360399   6.244966
    10  C    4.634191   3.560084   4.025410   5.264959   6.034367
    11  C    3.331441   2.556661   3.445897   4.596243   5.075112
    12  O    5.367534   4.851135   3.514300   2.651335   3.481079
    13  O    7.126603   6.627045   5.374489   4.632037   5.289843
    14  H    5.724683   4.408223   4.504953   5.795227   6.829866
    15  H    5.507219   4.551909   5.096815   6.311134   7.022867
    16  H    4.847433   3.706556   3.816536   4.946521   5.833990
    17  H    3.757497   3.281071   4.374480   5.483185   5.794506
    18  H    3.123513   2.585726   3.348757   4.280295   4.635200
    19  H    5.302971   4.230857   4.849842   6.189851   6.960256
    20  H    2.686792   2.122892   3.326088   4.444383   4.759588
    21  H    3.385897   2.166299   1.087450   2.082576   3.315213
    22  H    3.405073   3.861644   3.306617   2.069540   1.087150
    23  H    2.168910   3.420514   3.837900   3.336875   2.142662
    24  H    1.090722   2.155833   3.373554   3.807033   3.380261
    25  C    4.316964   3.190657   3.459854   4.649010   5.478222
    26  H    3.770172   3.319618   2.066540   1.053851   2.063304
    27  H    6.010744   5.473854   4.137578   3.332059   4.127618
    28  H    5.978287   5.460536   4.135499   3.309704   4.077645
    29  H    7.764857   7.389681   6.169195   5.303255   5.785967
    30  H    7.680197   7.047693   5.790688   5.229422   6.017528
    31  O    9.050897   8.860525   7.700989   6.693050   6.921021
    32  H    9.823249   9.615918   8.414363   7.389292   7.633579
    33  H    9.396491   9.278793   8.195018   7.194244   7.326592
    34  H    3.904498   2.923904   3.045872   4.038750   4.795939
    35  H    4.646015   3.728847   4.300622   5.478244   6.140990
    36  H    5.304160   4.093926   4.088529   5.232517   6.210615
                    6          7          8          9         10
     6  C    0.000000
     7  C    3.827099   0.000000
     8  N    4.865834   1.457375   0.000000
     9  C    6.054111   2.350592   1.460530   0.000000
    10  C    5.784176   2.447504   2.330770   1.522312   0.000000
    11  C    4.560620   1.558280   2.399648   2.390229   1.538133
    12  O    4.815739   6.001100   5.879002   6.950423   6.952951
    13  O    6.549480   7.652869   7.556405   8.295648   7.935352
    14  H    6.821037   3.300080   2.107320   1.096744   2.205319
    15  H    6.688983   3.367427   3.304898   2.194482   1.094875
    16  H    5.809973   2.971682   2.721206   2.157141   1.097299
    17  H    5.060724   2.181537   3.116865   2.919623   2.182256
    18  H    4.150982   2.219561   3.185083   3.317781   2.205266
    19  H    6.597804   2.772836   2.133527   1.108593   2.176337
    20  H    4.048577   1.107588   2.125785   2.905051   3.194628
    21  H    3.836596   2.758707   2.466048   3.570989   3.744847
    22  H    2.185352   5.374307   6.032556   7.276631   7.046547
    23  H    1.087419   4.713548   5.849559   7.005071   6.679716
    24  H    2.153306   2.756856   4.125428   5.078555   4.816329
    25  C    5.356213   2.439397   1.450938   2.449252   3.680213
    26  H    3.303711   4.589103   4.713519   5.888513   5.841807
    27  H    5.455684   6.580310   6.330959   7.438860   7.600288
    28  H    5.406358   6.569215   6.450989   7.393302   7.251237
    29  H    7.056339   8.488591   8.464926   9.230983   8.829715
    30  H    7.234664   7.929671   7.706344   8.307314   7.940767
    31  O    8.164436  10.053420  10.135337  10.939700  10.481733
    32  H    8.913249  10.815144  10.833495  11.662549  11.277625
    33  H    8.492060  10.468257  10.637431  11.392482  10.819906
    34  H    4.754068   2.703403   2.101976   3.392326   4.425985
    35  H    5.799024   2.756377   2.133621   2.775849   4.027893
    36  H    6.260565   3.377500   2.092241   2.695046   4.090548
                   11         12         13         14         15
    11  C    0.000000
    12  O    6.733695   0.000000
    13  O    7.919963   2.647803   0.000000
    14  H    3.371429   7.002125   8.236230   0.000000
    15  H    2.201736   7.979568   8.792120   2.717389   0.000000
    16  H    2.183469   6.318686   7.043809   2.441281   1.775382
    17  H    1.095958   7.750357   8.965457   3.966093   2.397788
    18  H    1.095944   6.406345   7.358862   4.182102   2.783911
    19  H    2.797917   7.930659   9.374362   1.784098   2.451396
    20  H    2.187012   6.812562   8.620142   3.911291   3.926166
    21  H    3.600844   3.430853   5.188513   3.810227   4.829808
    22  H    6.121456   3.349663   5.011349   7.807554   8.030685
    23  H    5.353920   5.610415   7.237925   7.824034   7.519913
    24  H    3.358833   6.458173   8.170318   6.055089   5.546239
    25  C    3.689334   6.250524   8.252395   2.798685   4.541807
    26  H    5.385250   1.597805   3.752981   6.152780   6.892619
    27  H    7.435844   0.958954   3.106454   7.413988   8.643689
    28  H    7.116802   0.987699   1.661472   7.395050   8.222251
    29  H    8.746096   3.293703   0.975993   9.198881   9.675221
    30  H    8.103392   3.271608   0.959524   8.139660   8.739581
    31  O   10.297292   4.750694   2.751085  10.949741  11.309671
    32  H   11.125593   5.263327   3.404281  11.626023  12.123693
    33  H   10.599482   5.482116   3.379596  11.443529  11.597232
    34  H    4.173927   5.642730   7.866368   3.756367   5.379201
    35  H    3.917105   7.267009   9.300499   3.271154   4.720881
    36  H    4.450170   6.423293   8.354241   2.597310   4.888543
                   16         17         18         19         20
    16  H    0.000000
    17  H    3.047221   0.000000
    18  H    2.405948   1.766336   0.000000
    19  H    3.067124   2.918697   3.858138   0.000000
    20  H    3.922454   2.283028   2.924252   2.917340   0.000000
    21  H    3.391962   4.618554   3.658231   4.513929   3.682334
    22  H    6.766963   6.845200   5.612969   8.022547   5.836810
    23  H    6.755841   5.705938   4.890945   7.471622   4.777719
    24  H    5.229034   3.453537   3.245089   5.313990   2.521060
    25  C    4.117873   4.199305   4.515535   2.675251   2.562471
    26  H    5.370031   6.343291   5.063931   6.798638   5.345090
    27  H    6.994921   8.447208   7.198977   8.392259   7.336606
    28  H    6.502020   8.157380   6.691102   8.423939   7.455168
    29  H    7.943070   9.769690   8.126999  10.303321   9.430070
    30  H    6.979963   9.167683   7.578947   9.407213   8.946910
    31  O    9.607839  11.281602   9.600696  12.000102  10.950317
    32  H   10.399688  12.124582  10.466198  12.726210  11.702364
    33  H    9.937872  11.550124   9.829725  12.448503  11.367487
    34  H    4.745955   4.738010   4.831386   3.709289   2.782225
    35  H    4.695757   4.141093   4.860907   2.540376   2.438482
    36  H    4.395325   5.015417   5.276999   2.962232   3.617469
                   21         22         23         24         25
    21  H    0.000000
    22  H    4.151700   0.000000
    23  H    4.923305   2.531208   0.000000
    24  H    4.301285   4.319717   2.500156   0.000000
    25  C    3.136587   6.455164   6.290886   4.648064   0.000000
    26  H    2.353150   2.329672   4.196516   4.860846   5.167059
    27  H    3.968319   3.930709   6.223527   7.093500   6.511907
    28  H    3.995150   3.867025   6.164678   7.060952   6.962721
    29  H    6.073187   5.345266   7.638318   8.797343   9.149325
    30  H    5.448227   5.845363   7.983236   8.711595   8.441418
    31  O    7.724067   6.267970   8.567814  10.049879  10.801672
    32  H    8.397814   6.938321   9.309132  10.839106  11.423232
    33  H    8.273868   6.664829   8.827098  10.351316  11.388868
    34  H    2.893517   5.708769   5.666056   4.354581   1.098709
    35  H    4.137161   7.145550   6.628324   4.728857   1.107480
    36  H    3.504388   7.128511   7.235056   5.710116   1.096435
                   26         27         28         29         30
    26  H    0.000000
    27  H    2.314107   0.000000
    28  H    2.307520   1.569002   0.000000
    29  H    4.434028   3.650227   2.345317   0.000000
    30  H    4.368609   3.658259   2.324860   1.549042   0.000000
    31  O    5.867221   4.977854   3.909000   1.775324   3.171066
    32  H    6.509489   5.330538   4.463730   2.461107   3.733224
    33  H    6.451843   5.804453   4.632157   2.443583   3.740881
    34  H    4.544354   5.837340   6.448476   8.715820   8.156470
    35  H    6.099428   7.531710   8.000481  10.185983   9.510651
    36  H    5.568610   6.581930   7.100788   9.278657   8.446245
                   31         32         33         34         35
    31  O    0.000000
    32  H    0.960811   0.000000
    33  H    0.960824   1.533923   0.000000
    34  H   10.301817  10.889693  10.920992   0.000000
    35  H   11.817178  12.453490  12.383647   1.786245   0.000000
    36  H   10.973157  11.542781  11.608297   1.774905   1.787675
                   36
    36  H    0.000000
 Stoichiometry    C10H21N2O3(1+)
 Framework group  C1[X(C10H21N2O3)]
 Deg. of freedom   102
 Full point group                 C1      NOp   1
 Largest Abelian subgroup         C1      NOp   1
 Largest concise Abelian subgroup C1      NOp   1
                         Standard orientation:                         
 ---------------------------------------------------------------------
 Center     Atomic      Atomic             Coordinates (Angstroms)
 Number     Number       Type             X           Y           Z
 ---------------------------------------------------------------------
      1          6           0        1.299707    2.313396   -0.489513
      2          6           0        1.437398    0.978879   -0.094588
      3          6           0        0.306703    0.338205    0.391890
      4          7           0       -0.867209    0.983935    0.467318
      5          6           0       -1.020097    2.260355    0.085074
      6          6           0        0.067936    2.959979   -0.405343
      7          6           0        2.751524    0.237450   -0.224021
      8          7           0        2.789471   -0.935883    0.639572
      9          6           0        3.589446   -1.951048   -0.040596
     10          6           0        3.134981   -1.823128   -1.487846
     11          6           0        2.995925   -0.301632   -1.665512
     12          8           0       -3.005095   -0.284727    1.389012
     13          8           0       -4.693657   -1.533338   -0.223622
     14          1           0        3.398085   -2.938675    0.396236
     15          1           0        3.842790   -2.262996   -2.197969
     16          1           0        2.165650   -2.320534   -1.618425
     17          1           0        3.922379    0.129586   -2.061565
     18          1           0        2.187750   -0.029919   -2.354074
     19          1           0        4.674444   -1.741646    0.048336
     20          1           0        3.556100    0.952798    0.036143
     21          1           0        0.336933   -0.694710    0.730595
     22          1           0       -2.016357    2.682644    0.190116
     23          1           0       -0.049698    3.996914   -0.710972
     24          1           0        2.168566    2.854189   -0.866743
     25          6           0        3.204424   -0.653996    2.001033
     26          1           0       -1.705085    0.468976    0.845978
     27          1           0       -3.294864   -0.378638    2.298302
     28          1           0       -3.656637   -0.762058    0.820507
     29          1           0       -5.606856   -1.233889   -0.393797
     30          1           0       -4.695104   -2.485213   -0.344524
     31          8           0       -7.251277   -0.644713   -0.710856
     32          1           0       -8.014552   -0.788589   -0.145286
     33          1           0       -7.601670   -0.487491   -1.591588
     34          1           0        2.522658    0.072265    2.464607
     35          1           0        4.231566   -0.242924    2.051134
     36          1           0        3.170623   -1.574982    2.595013
 ---------------------------------------------------------------------
 Rotational constants (GHZ):           0.7381297           0.1903832           0.1731251
 Standard basis: Aug-CC-pVDZ (5D, 7F)
 There are   564 symmetry adapted cartesian basis functions of A   symmetry.
 There are   534 symmetry adapted basis functions of A   symmetry.
   534 basis functions,   876 primitive gaussians,   564 cartesian basis functions
    59 alpha electrons       59 beta electrons
       nuclear repulsion energy      1007.2306736189 Hartrees.
 NAtoms=   36 NActive=   36 NUniq=   36 SFac= 1.00D+00 NAtFMM=   60 NAOKFM=F Big=F
 Integral buffers will be    131072 words long.
 Raffenetti 2 integral format.
 Two-electron integral symmetry is turned on.
 Nuclear repulsion after empirical dispersion term =     1007.2079943319 Hartrees.
 One-electron integrals computed using PRISM.
 NBasis=   534 RedAO= T EigKep=  2.53D-06  NBF=   534
 NBsUse=   534 1.00D-06 EigRej= -1.00D+00 NBFU=   534
 ExpMin= 2.97D-02 ExpMax= 1.17D+04 ExpMxC= 4.01D+02 IAcc=3 IRadAn=         5 AccDes= 0.00D+00
 Harris functional with IExCor= 4639 and IRadAn=       5 diagonalized for initial guess.
 HarFok:  IExCor= 4639 AccDes= 0.00D+00 IRadAn=         5 IDoV= 1 UseB2=F ITyADJ=14
 ICtDFT=  3500011 ScaDFX=  1.000000  1.000000  1.000000  1.000000
 FoFCou: FMM=F IPFlag=           0 FMFlag=      100000 FMFlg1=           0
         NFxFlg=           0 DoJE=T BraDBF=F KetDBF=T FulRan=T
         wScrn=  0.000000 ICntrl=       500 IOpCl=  0 I1Cent=   200000004 NGrid=           0
         NMat0=    1 NMatS0=      1 NMatT0=    0 NMatD0=    1 NMtDS0=    0 NMtDT0=    0
 Petite list used in FoFCou.
 Requested convergence on RMS density matrix=1.00D-08 within 128 cycles.
 Requested convergence on MAX density matrix=1.00D-06.
 Requested convergence on             energy=1.00D-06.
 No special actions if energy rises.
 SCF Done:  E(RwB97XD) =  -728.588185456     A.U. after   14 cycles
            NFock= 14  Conv=0.66D-08     -V/T= 2.0063

 **********************************************************************

            Population analysis using the SCF density.

 **********************************************************************

 Orbital symmetries:
       Occupied  (A) (A) (A) (A) (A) (A) (A) (A) (A) (A) (A) (A)
                 (A) (A) (A) (A) (A) (A) (A) (A) (A) (A) (A) (A)
                 (A) (A) (A) (A) (A) (A) (A) (A) (A) (A) (A) (A)
                 (A) (A) (A) (A) (A) (A) (A) (A) (A) (A) (A) (A)
                 (A) (A) (A) (A) (A) (A) (A) (A) (A) (A) (A)
       Virtual   (A) (A) (A) (A) (A) (A) (A) (A) (A) (A) (A) (A)
                 (A) (A) (A) (A) (A) (A) (A) (A) (A) (A) (A) (A)
                 (A) (A) (A) (A) (A) (A) (A) (A) (A) (A) (A) (A)
                 (A) (A) (A) (A) (A) (A) (A) (A) (A) (A) (A) (A)
                 (A) (A) (A) (A) (A) (A) (A) (A) (A) (A) (A) (A)
                 (A) (A) (A) (A) (A) (A) (A) (A) (A) (A) (A) (A)
                 (A) (A) (A) (A) (A) (A) (A) (A) (A) (A) (A) (A)
                 (A) (A) (A) (A) (A) (A) (A) (A) (A) (A) (A) (A)
                 (A) (A) (A) (A) (A) (A) (A) (A) (A) (A) (A) (A)
                 (A) (A) (A) (A) (A) (A) (A) (A) (A) (A) (A) (A)
                 (A) (A) (A) (A) (A) (A) (A) (A) (A) (A) (A) (A)
                 (A) (A) (A) (A) (A) (A) (A) (A) (A) (A) (A) (A)
                 (A) (A) (A) (A) (A) (A) (A) (A) (A) (A) (A) (A)
                 (A) (A) (A) (A) (A) (A) (A) (A) (A) (A) (A) (A)
                 (A) (A) (A) (A) (A) (A) (A) (A) (A) (A) (A) (A)
                 (A) (A) (A) (A) (A) (A) (A) (A) (A) (A) (A) (A)
                 (A) (A) (A) (A) (A) (A) (A) (A) (A) (A) (A) (A)
                 (A) (A) (A) (A) (A) (A) (A) (A) (A) (A) (A) (A)
                 (A) (A) (A) (A) (A) (A) (A) (A) (A) (A) (A) (A)
                 (A) (A) (A) (A) (A) (A) (A) (A) (A) (A) (A) (A)
                 (A) (A) (A) (A) (A) (A) (A) (A) (A) (A) (A) (A)
                 (A) (A) (A) (A) (A) (A) (A) (A) (A) (A) (A) (A)
                 (A) (A) (A) (A) (A) (A) (A) (A) (A) (A) (A) (A)
                 (A) (A) (A) (A) (A) (A) (A) (A) (A) (A) (A) (A)
                 (A) (A) (A) (A) (A) (A) (A) (A) (A) (A) (A) (A)
                 (A) (A) (A) (A) (A) (A) (A) (A) (A) (A) (A) (A)
                 (A) (A) (A) (A) (A) (A) (A) (A) (A) (A) (A) (A)
                 (A) (A) (A) (A) (A) (A) (A) (A) (A) (A) (A) (A)
                 (A) (A) (A) (A) (A) (A) (A) (A) (A) (A) (A) (A)
                 (A) (A) (A) (A) (A) (A) (A) (A) (A) (A) (A) (A)
                 (A) (A) (A) (A) (A) (A) (A) (A) (A) (A) (A) (A)
                 (A) (A) (A) (A) (A) (A) (A) (A) (A) (A) (A) (A)
                 (A) (A) (A) (A) (A) (A) (A) (A) (A) (A) (A) (A)
                 (A) (A) (A) (A) (A) (A) (A) (A) (A) (A) (A) (A)
                 (A) (A) (A) (A) (A) (A) (A) (A) (A) (A) (A) (A)
                 (A) (A) (A) (A) (A) (A) (A) (A) (A) (A) (A) (A)
                 (A) (A) (A) (A) (A) (A) (A) (A) (A) (A) (A) (A)
                 (A) (A) (A) (A) (A) (A) (A) (A) (A) (A) (A) (A)
                 (A) (A) (A) (A) (A) (A) (A) (A) (A) (A) (A) (A)
                 (A) (A) (A) (A) (A) (A) (A)
 The electronic state is 1-A.
 Alpha  occ. eigenvalues --  -19.39847 -19.38969 -19.37985 -14.66870 -14.54806
 Alpha  occ. eigenvalues --  -10.50323 -10.49562 -10.46969 -10.46228 -10.46145
 Alpha  occ. eigenvalues --  -10.44822 -10.41234 -10.41224 -10.40266 -10.39014
 Alpha  occ. eigenvalues --   -1.25179  -1.24305  -1.23446  -1.21751  -1.15233
 Alpha  occ. eigenvalues --   -1.07380  -1.03682  -0.98944  -0.94627  -0.89822
 Alpha  occ. eigenvalues --   -0.88354  -0.87087  -0.81677  -0.78278  -0.77393
 Alpha  occ. eigenvalues --   -0.74816  -0.74588  -0.73588  -0.73543  -0.72938
 Alpha  occ. eigenvalues --   -0.69873  -0.68599  -0.68185  -0.66864  -0.63710
 Alpha  occ. eigenvalues --   -0.63326  -0.63272  -0.61836  -0.61411  -0.60265
 Alpha  occ. eigenvalues --   -0.58892  -0.57203  -0.56444  -0.55934  -0.54905
 Alpha  occ. eigenvalues --   -0.54057  -0.52847  -0.52706  -0.52149  -0.52098
 Alpha  occ. eigenvalues --   -0.51452  -0.50849  -0.48166  -0.40773
 Alpha virt. eigenvalues --   -0.13347  -0.09797  -0.06364  -0.05137  -0.04410
 Alpha virt. eigenvalues --   -0.03996  -0.03670  -0.02859  -0.02524  -0.02262
 Alpha virt. eigenvalues --   -0.01879  -0.01307  -0.01010  -0.00832  -0.00130
 Alpha virt. eigenvalues --    0.00058   0.00284   0.00924   0.01254   0.02067
 Alpha virt. eigenvalues --    0.02237   0.02634   0.02770   0.03000   0.03620
 Alpha virt. eigenvalues --    0.03756   0.04171   0.04504   0.04960   0.05080
 Alpha virt. eigenvalues --    0.05572   0.05647   0.06004   0.06256   0.06518
 Alpha virt. eigenvalues --    0.06840   0.07167   0.07385   0.07876   0.08258
 Alpha virt. eigenvalues --    0.08550   0.08651   0.08891   0.09283   0.09596
 Alpha virt. eigenvalues --    0.09762   0.10278   0.10583   0.10727   0.10920
 Alpha virt. eigenvalues --    0.11151   0.11712   0.11875   0.12063   0.12514
 Alpha virt. eigenvalues --    0.12749   0.12931   0.13377   0.13488   0.13957
 Alpha virt. eigenvalues --    0.14272   0.14555   0.14937   0.15221   0.15656
 Alpha virt. eigenvalues --    0.16035   0.16260   0.16442   0.16685   0.17011
 Alpha virt. eigenvalues --    0.17291   0.17367   0.17717   0.18031   0.18174
 Alpha virt. eigenvalues --    0.18608   0.19102   0.19356   0.19797   0.20143
 Alpha virt. eigenvalues --    0.20597   0.20982   0.21272   0.21488   0.21762
 Alpha virt. eigenvalues --    0.22032   0.22216   0.22673   0.23219   0.23403
 Alpha virt. eigenvalues --    0.23534   0.23903   0.24591   0.24780   0.25167
 Alpha virt. eigenvalues --    0.25353   0.26042   0.26277   0.26747   0.27059
 Alpha virt. eigenvalues --    0.27342   0.27966   0.28462   0.28967   0.29041
 Alpha virt. eigenvalues --    0.29505   0.29634   0.30030   0.30220   0.30597
 Alpha virt. eigenvalues --    0.31145   0.31253   0.31784   0.32935   0.33282
 Alpha virt. eigenvalues --    0.33708   0.34029   0.34447   0.34537   0.35090
 Alpha virt. eigenvalues --    0.35410   0.35937   0.36270   0.36460   0.36672
 Alpha virt. eigenvalues --    0.37366   0.37859   0.38247   0.38813   0.39329
 Alpha virt. eigenvalues --    0.39499   0.39948   0.40071   0.40572   0.41535
 Alpha virt. eigenvalues --    0.42285   0.42489   0.42804   0.43410   0.43734
 Alpha virt. eigenvalues --    0.44102   0.44386   0.44613   0.44787   0.45258
 Alpha virt. eigenvalues --    0.45531   0.45812   0.46586   0.46768   0.47237
 Alpha virt. eigenvalues --    0.47959   0.48077   0.48537   0.48833   0.49596
 Alpha virt. eigenvalues --    0.49841   0.50113   0.50244   0.50837   0.50946
 Alpha virt. eigenvalues --    0.51260   0.51330   0.51851   0.52130   0.52586
 Alpha virt. eigenvalues --    0.53178   0.53418   0.54149   0.54329   0.54573
 Alpha virt. eigenvalues --    0.55215   0.55416   0.56035   0.56492   0.57115
 Alpha virt. eigenvalues --    0.57293   0.57488   0.58174   0.58437   0.58832
 Alpha virt. eigenvalues --    0.59111   0.59580   0.60080   0.60779   0.60979
 Alpha virt. eigenvalues --    0.62195   0.62524   0.62707   0.63423   0.64232
 Alpha virt. eigenvalues --    0.64259   0.64918   0.65382   0.65976   0.65999
 Alpha virt. eigenvalues --    0.66278   0.66942   0.67026   0.67624   0.68350
 Alpha virt. eigenvalues --    0.68666   0.69077   0.69791   0.70454   0.70951
 Alpha virt. eigenvalues --    0.71106   0.71600   0.72117   0.72706   0.73209
 Alpha virt. eigenvalues --    0.73973   0.74203   0.74724   0.75489   0.75872
 Alpha virt. eigenvalues --    0.75983   0.76628   0.77423   0.77967   0.78400
 Alpha virt. eigenvalues --    0.78944   0.79370   0.79494   0.80185   0.80451
 Alpha virt. eigenvalues --    0.80898   0.81697   0.82024   0.82531   0.82860
 Alpha virt. eigenvalues --    0.85023   0.85532   0.86153   0.86237   0.87451
 Alpha virt. eigenvalues --    0.87654   0.88598   0.89302   0.89784   0.91071
 Alpha virt. eigenvalues --    0.92384   0.92954   0.93357   0.94834   0.95608
 Alpha virt. eigenvalues --    0.96229   0.96753   0.97565   0.98410   0.98924
 Alpha virt. eigenvalues --    0.99270   1.00495   1.01568   1.01921   1.02125
 Alpha virt. eigenvalues --    1.03002   1.03753   1.04084   1.04287   1.06013
 Alpha virt. eigenvalues --    1.07260   1.08470   1.08776   1.10207   1.10401
 Alpha virt. eigenvalues --    1.11313   1.11451   1.12776   1.13272   1.14911
 Alpha virt. eigenvalues --    1.15869   1.17361   1.18527   1.18964   1.19613
 Alpha virt. eigenvalues --    1.21074   1.22000   1.22718   1.23139   1.24084
 Alpha virt. eigenvalues --    1.25493   1.26722   1.27499   1.28716   1.30014
 Alpha virt. eigenvalues --    1.30883   1.31947   1.33044   1.33636   1.34291
 Alpha virt. eigenvalues --    1.35086   1.35511   1.35708   1.37290   1.38096
 Alpha virt. eigenvalues --    1.38986   1.40126   1.40546   1.41773   1.43038
 Alpha virt. eigenvalues --    1.43564   1.44202   1.45760   1.46403   1.47661
 Alpha virt. eigenvalues --    1.48753   1.49878   1.51112   1.51293   1.52964
 Alpha virt. eigenvalues --    1.53515   1.54723   1.56428   1.57470   1.58225
 Alpha virt. eigenvalues --    1.58963   1.60794   1.61718   1.62220   1.63117
 Alpha virt. eigenvalues --    1.63917   1.64322   1.65133   1.65614   1.67279
 Alpha virt. eigenvalues --    1.68300   1.69140   1.69973   1.70724   1.70987
 Alpha virt. eigenvalues --    1.71719   1.72803   1.73262   1.73724   1.74731
 Alpha virt. eigenvalues --    1.75311   1.75973   1.76963   1.78950   1.79439
 Alpha virt. eigenvalues --    1.79885   1.80415   1.81338   1.83267   1.83690
 Alpha virt. eigenvalues --    1.83939   1.85248   1.86032   1.86179   1.86867
 Alpha virt. eigenvalues --    1.87947   1.88547   1.89198   1.90192   1.90799
 Alpha virt. eigenvalues --    1.91785   1.93211   1.93623   1.94990   1.95416
 Alpha virt. eigenvalues --    1.95635   1.96929   1.97258   1.97600   1.97879
 Alpha virt. eigenvalues --    2.00583   2.02510   2.02945   2.04085   2.05698
 Alpha virt. eigenvalues --    2.06221   2.07638   2.08295   2.09275   2.09529
 Alpha virt. eigenvalues --    2.10155   2.11483   2.11955   2.12251   2.14297
 Alpha virt. eigenvalues --    2.14723   2.16039   2.16144   2.17298   2.19176
 Alpha virt. eigenvalues --    2.19702   2.20487   2.21403   2.22602   2.23763
 Alpha virt. eigenvalues --    2.24168   2.25357   2.26990   2.27988   2.29023
 Alpha virt. eigenvalues --    2.29960   2.30280   2.31579   2.32086   2.33984
 Alpha virt. eigenvalues --    2.35436   2.36849   2.36901   2.38799   2.41235
 Alpha virt. eigenvalues --    2.42200   2.43662   2.43889   2.44797   2.47633
 Alpha virt. eigenvalues --    2.48392   2.48856   2.50814   2.51124   2.53496
 Alpha virt. eigenvalues --    2.54424   2.55445   2.57029   2.57074   2.57577
 Alpha virt. eigenvalues --    2.58588   2.60797   2.63019   2.63860   2.64472
 Alpha virt. eigenvalues --    2.65088   2.66118   2.67635   2.68325   2.69551
 Alpha virt. eigenvalues --    2.70959   2.72861   2.73983   2.74652   2.76787
 Alpha virt. eigenvalues --    2.77768   2.78620   2.80876   2.82191   2.83494
 Alpha virt. eigenvalues --    2.84616   2.84914   2.85032   2.87607   2.89707
 Alpha virt. eigenvalues --    2.90742   2.97284   3.02518   3.04086   3.11058
 Alpha virt. eigenvalues --    3.14973   3.16819   3.21171   3.24983   3.28829
 Alpha virt. eigenvalues --    3.31947   3.34212   3.35661   3.40654   3.43140
 Alpha virt. eigenvalues --    3.45127   3.46424   3.48267   3.50643   3.55781
 Alpha virt. eigenvalues --    3.62135   3.66493   3.75899   3.79077   3.81578
 Alpha virt. eigenvalues --    3.89929   4.03294   4.05603   4.19616   4.56213
          Condensed to atoms (all electrons):
               1          2          3          4          5          6
     1  C   21.666964  -9.791337  -1.956592   0.176059   1.634616  -4.084680
     2  C   -9.791337  20.185873  -2.713077  -0.045592  -1.858033   1.819618
     3  C   -1.956592  -2.713077  15.799470  -1.582779  -0.639284  -1.006641
     4  N    0.176059  -0.045592  -1.582779   7.780054   0.405641   0.042930
     5  C    1.634616  -1.858033  -0.639284   0.405641   9.839017  -2.661523
     6  C   -4.084680   1.819618  -1.006641   0.042930  -2.661523  11.782201
     7  C   -0.193014  -4.475717  -3.039975   0.733405  -0.168729  -0.458163
     8  N   -0.337167   0.873822   0.914545  -0.162940  -0.042157   0.037492
     9  C    0.083273  -0.187194  -0.318219   0.055429  -0.006411  -0.007059
    10  C   -0.247540   0.453057   0.115977  -0.072061  -0.024523   0.059987
    11  C   -0.447612   0.391780  -0.422835   0.061184  -0.223559   0.360893
    12  O    0.054181  -0.110066   0.064261  -0.176372   0.054370  -0.058652
    13  O   -0.000604   0.003265  -0.009149   0.002174   0.008754   0.001680
    14  H    0.011954  -0.199589  -0.058679   0.010893  -0.001108  -0.000344
    15  H    0.000859  -0.065462  -0.004832  -0.003493  -0.004990   0.007835
    16  H   -0.018292   0.160432   0.081105  -0.009349   0.010661  -0.006267
    17  H   -0.069231   0.253582   0.103199  -0.011076   0.012724  -0.015978
    18  H    0.156726  -0.528867  -0.123662   0.032867  -0.021200   0.035259
    19  H   -0.008860   0.210102   0.017679  -0.001269   0.002074   0.002034
    20  H   -0.052994   0.522558  -0.065264   0.007045  -0.037630   0.061867
    21  H   -0.107576  -0.261169  -0.974534   0.021616  -0.080480   0.061124
    22  H    0.012839   0.122571   0.208125  -0.049706  -0.880507   0.318272
    23  H    0.706890  -0.261812   0.016527  -0.034123   0.467380  -1.141256
    24  H   -2.266878   1.126053   0.256231  -0.093158  -0.210371   0.791505
    25  C   -0.075454  -0.062319   0.170922  -0.013335  -0.013706  -0.029753
    26  H    0.092950  -0.485908   0.490034  -0.085968  -0.282900  -0.216701
    27  H   -0.005074   0.009171  -0.001511   0.001443  -0.009599   0.011381
    28  H    0.008194  -0.008832   0.010484   0.000828  -0.006095  -0.004687
    29  H   -0.000873   0.001263   0.000510   0.000850  -0.001280  -0.000088
    30  H   -0.000352   0.000289  -0.002343   0.000466   0.000311   0.000895
    31  O    0.000012   0.000072   0.000022   0.000083   0.000562   0.000198
    32  H    0.000012   0.000005  -0.000012   0.000024  -0.000003  -0.000041
    33  H    0.000020  -0.000029   0.000053  -0.000060  -0.000065   0.000064
    34  H   -0.168250   0.168565  -0.079887   0.001031  -0.041514   0.045123
    35  H    0.046876   0.038740   0.071160  -0.007935   0.004786  -0.002939
    36  H    0.031269  -0.028865  -0.027845   0.010765   0.007876  -0.010109
               7          8          9         10         11         12
     1  C   -0.193014  -0.337167   0.083273  -0.247540  -0.447612   0.054181
     2  C   -4.475717   0.873822  -0.187194   0.453057   0.391780  -0.110066
     3  C   -3.039975   0.914545  -0.318219   0.115977  -0.422835   0.064261
     4  N    0.733405  -0.162940   0.055429  -0.072061   0.061184  -0.176372
     5  C   -0.168729  -0.042157  -0.006411  -0.024523  -0.223559   0.054370
     6  C   -0.458163   0.037492  -0.007059   0.059987   0.360893  -0.058652
     7  C   17.953787  -2.629613   0.034736  -0.980334  -0.194617   0.001447
     8  N   -2.629613   9.383702   0.029696   0.095474  -0.419542   0.002579
     9  C    0.034736   0.029696   5.499210   0.228742  -0.003970   0.000300
    10  C   -0.980334   0.095474   0.228742   5.632992   0.024532  -0.000430
    11  C   -0.194617  -0.419542  -0.003970   0.024532   6.066977  -0.001267
    12  O    0.001447   0.002579   0.000300  -0.000430  -0.001267   7.985903
    13  O    0.000571  -0.000113  -0.000023  -0.000005   0.000008  -0.045837
    14  H    0.507830  -0.654638   0.012306  -0.057063   0.071669   0.000027
    15  H    0.064661  -0.008064   0.082786  -0.219995   0.256437   0.000000
    16  H   -0.135141   0.077501  -0.080564  -0.093373  -0.042017  -0.000059
    17  H    0.287763   0.139802  -0.199860   0.111681  -0.695045  -0.000058
    18  H   -0.093848   0.021006   0.161577   0.169192  -0.093497   0.000238
    19  H   -0.391862   0.388814  -0.309094   0.021542  -0.054185  -0.000034
    20  H   -1.507126  -0.194899  -0.044475   0.103432   0.368244   0.000131
    21  H    0.666090  -0.379557   0.031512   0.040394   0.035064  -0.004090
    22  H    0.008151   0.002731  -0.000748   0.000047   0.005067  -0.001655
    23  H   -0.007835  -0.002390  -0.000799   0.000169  -0.015000  -0.001263
    24  H   -0.480374   0.055975  -0.018544   0.025411   0.062095   0.001024
    25  C   -0.320176   0.456797  -0.222891  -0.009390  -0.015362  -0.000529
    26  H   -0.104497   0.024417   0.001748   0.005926  -0.035724   0.020324
    27  H    0.001625  -0.000113  -0.000054  -0.000029   0.000719   0.363086
    28  H   -0.000323  -0.000174   0.000124   0.000059  -0.000464   0.322097
    29  H   -0.000015   0.000006  -0.000033   0.000016  -0.000023   0.002642
    30  H    0.000106  -0.000046   0.000046  -0.000028   0.000104   0.001207
    31  O    0.000006  -0.000000  -0.000000   0.000000  -0.000000   0.000725
    32  H   -0.000002   0.000000   0.000000   0.000000  -0.000000   0.000143
    33  H    0.000006  -0.000000   0.000000  -0.000000   0.000000  -0.000074
    34  H    0.122427  -0.081316  -0.123855  -0.029671   0.063108   0.000435
    35  H   -0.122322   0.147255   0.046885   0.049559  -0.054359   0.000050
    36  H   -0.018981  -0.332761   0.081782   0.003521  -0.001326  -0.000257
              13         14         15         16         17         18
     1  C   -0.000604   0.011954   0.000859  -0.018292  -0.069231   0.156726
     2  C    0.003265  -0.199589  -0.065462   0.160432   0.253582  -0.528867
     3  C   -0.009149  -0.058679  -0.004832   0.081105   0.103199  -0.123662
     4  N    0.002174   0.010893  -0.003493  -0.009349  -0.011076   0.032867
     5  C    0.008754  -0.001108  -0.004990   0.010661   0.012724  -0.021200
     6  C    0.001680  -0.000344   0.007835  -0.006267  -0.015978   0.035259
     7  C    0.000571   0.507830   0.064661  -0.135141   0.287763  -0.093848
     8  N   -0.000113  -0.654638  -0.008064   0.077501   0.139802   0.021006
     9  C   -0.000023   0.012306   0.082786  -0.080564  -0.199860   0.161577
    10  C   -0.000005  -0.057063  -0.219995  -0.093373   0.111681   0.169192
    11  C    0.000008   0.071669   0.256437  -0.042017  -0.695045  -0.093497
    12  O   -0.045837   0.000027   0.000000  -0.000059  -0.000058   0.000238
    13  O    7.776698   0.000011  -0.000003  -0.000070  -0.000003   0.000100
    14  H    0.000011   2.400391   0.016525  -0.208227  -0.020216   0.013880
    15  H   -0.000003   0.016525   1.810360  -0.392767  -0.224342   0.053090
    16  H   -0.000070  -0.208227  -0.392767   2.037028   0.160463  -0.253468
    17  H   -0.000003  -0.020216  -0.224342   0.160463   2.171999  -0.447895
    18  H    0.000100   0.013880   0.053090  -0.253468  -0.447895   2.268241
    19  H   -0.000001  -0.385020  -0.148676   0.148651   0.065764  -0.019410
    20  H    0.000032   0.036806   0.027495  -0.037067  -0.251829   0.099517
    21  H    0.003026   0.016283   0.008551  -0.019794  -0.008698   0.018211
    22  H    0.002582  -0.000114  -0.000086   0.000219   0.000946  -0.000152
    23  H    0.000007  -0.000043   0.000056   0.000159  -0.001369  -0.002439
    24  H   -0.000041  -0.002277   0.001687   0.002637  -0.000199  -0.009580
    25  C   -0.000035  -0.026434   0.007281  -0.009421  -0.000324   0.005069
    26  H   -0.018621  -0.002310   0.000152   0.003933   0.000856   0.000083
    27  H    0.005289   0.000095  -0.000000  -0.000071   0.000005  -0.000007
    28  H   -0.008328  -0.000067   0.000042  -0.000232  -0.000029   0.000186
    29  H    0.328573  -0.000002  -0.000002   0.000044   0.000001  -0.000046
    30  H    0.361895   0.000009  -0.000002  -0.000033  -0.000000   0.000029
    31  O   -0.034623   0.000000   0.000000  -0.000003  -0.000000   0.000005
    32  H    0.001525  -0.000000   0.000000  -0.000000  -0.000000   0.000000
    33  H    0.001403   0.000000   0.000000  -0.000001  -0.000000   0.000002
    34  H    0.000008  -0.007428  -0.001285  -0.001884  -0.000675   0.000106
    35  H   -0.000005   0.016983   0.007003  -0.003945   0.000682   0.000248
    36  H   -0.000006   0.020321  -0.004261   0.006768   0.000655   0.000971
              19         20         21         22         23         24
     1  C   -0.008860  -0.052994  -0.107576   0.012839   0.706890  -2.266878
     2  C    0.210102   0.522558  -0.261169   0.122571  -0.261812   1.126053
     3  C    0.017679  -0.065264  -0.974534   0.208125   0.016527   0.256231
     4  N   -0.001269   0.007045   0.021616  -0.049706  -0.034123  -0.093158
     5  C    0.002074  -0.037630  -0.080480  -0.880507   0.467380  -0.210371
     6  C    0.002034   0.061867   0.061124   0.318272  -1.141256   0.791505
     7  C   -0.391862  -1.507126   0.666090   0.008151  -0.007835  -0.480374
     8  N    0.388814  -0.194899  -0.379557   0.002731  -0.002390   0.055975
     9  C   -0.309094  -0.044475   0.031512  -0.000748  -0.000799  -0.018544
    10  C    0.021542   0.103432   0.040394   0.000047   0.000169   0.025411
    11  C   -0.054185   0.368244   0.035064   0.005067  -0.015000   0.062095
    12  O   -0.000034   0.000131  -0.004090  -0.001655  -0.001263   0.001024
    13  O   -0.000001   0.000032   0.003026   0.002582   0.000007  -0.000041
    14  H   -0.385020   0.036806   0.016283  -0.000114  -0.000043  -0.002277
    15  H   -0.148676   0.027495   0.008551  -0.000086   0.000056   0.001687
    16  H    0.148651  -0.037067  -0.019794   0.000219   0.000159   0.002637
    17  H    0.065764  -0.251829  -0.008698   0.000946  -0.001369  -0.000199
    18  H   -0.019410   0.099517   0.018211  -0.000152  -0.002439  -0.009580
    19  H    1.957663  -0.053518   0.003046   0.000085  -0.000006   0.000595
    20  H   -0.053518   2.459052   0.042588  -0.000146   0.000048  -0.043720
    21  H    0.003046   0.042588   3.017648   0.012171  -0.000766  -0.022025
    22  H    0.000085  -0.000146   0.012171   2.177307  -0.118908  -0.013684
    23  H   -0.000006   0.000048  -0.000766  -0.118908   2.074973  -0.132854
    24  H    0.000595  -0.043720  -0.022025  -0.013684  -0.132854   2.820800
    25  C    0.003826   0.087787  -0.076546  -0.000193   0.002323   0.006956
    26  H    0.000110  -0.008154  -0.069249  -0.155434   0.011414   0.014107
    27  H   -0.000008   0.000041   0.003563   0.006600  -0.000238  -0.000097
    28  H   -0.000006   0.000044  -0.000088   0.000820  -0.000072  -0.000055
    29  H    0.000001   0.000004   0.000296  -0.000606   0.000031  -0.000018
    30  H   -0.000001   0.000002  -0.000153   0.000130   0.000004  -0.000007
    31  O   -0.000000   0.000000  -0.000055  -0.000064   0.000009  -0.000001
    32  H   -0.000000  -0.000000  -0.000005   0.000001  -0.000001   0.000000
    33  H   -0.000000   0.000000  -0.000015   0.000014  -0.000002   0.000001
    34  H   -0.001390   0.020487   0.004987   0.000577   0.000352  -0.004503
    35  H    0.010985  -0.001087   0.001797   0.000033  -0.000070   0.003055
    36  H   -0.004558   0.014112  -0.003394  -0.000038   0.000052   0.001597
              25         26         27         28         29         30
     1  C   -0.075454   0.092950  -0.005074   0.008194  -0.000873  -0.000352
     2  C   -0.062319  -0.485908   0.009171  -0.008832   0.001263   0.000289
     3  C    0.170922   0.490034  -0.001511   0.010484   0.000510  -0.002343
     4  N   -0.013335  -0.085968   0.001443   0.000828   0.000850   0.000466
     5  C   -0.013706  -0.282900  -0.009599  -0.006095  -0.001280   0.000311
     6  C   -0.029753  -0.216701   0.011381  -0.004687  -0.000088   0.000895
     7  C   -0.320176  -0.104497   0.001625  -0.000323  -0.000015   0.000106
     8  N    0.456797   0.024417  -0.000113  -0.000174   0.000006  -0.000046
     9  C   -0.222891   0.001748  -0.000054   0.000124  -0.000033   0.000046
    10  C   -0.009390   0.005926  -0.000029   0.000059   0.000016  -0.000028
    11  C   -0.015362  -0.035724   0.000719  -0.000464  -0.000023   0.000104
    12  O   -0.000529   0.020324   0.363086   0.322097   0.002642   0.001207
    13  O   -0.000035  -0.018621   0.005289  -0.008328   0.328573   0.361895
    14  H   -0.026434  -0.002310   0.000095  -0.000067  -0.000002   0.000009
    15  H    0.007281   0.000152  -0.000000   0.000042  -0.000002  -0.000002
    16  H   -0.009421   0.003933  -0.000071  -0.000232   0.000044  -0.000033
    17  H   -0.000324   0.000856   0.000005  -0.000029   0.000001  -0.000000
    18  H    0.005069   0.000083  -0.000007   0.000186  -0.000046   0.000029
    19  H    0.003826   0.000110  -0.000008  -0.000006   0.000001  -0.000001
    20  H    0.087787  -0.008154   0.000041   0.000044   0.000004   0.000002
    21  H   -0.076546  -0.069249   0.003563  -0.000088   0.000296  -0.000153
    22  H   -0.000193  -0.155434   0.006600   0.000820  -0.000606   0.000130
    23  H    0.002323   0.011414  -0.000238  -0.000072   0.000031   0.000004
    24  H    0.006956   0.014107  -0.000097  -0.000055  -0.000018  -0.000007
    25  C    4.569436  -0.004336   0.000136   0.000459  -0.000027  -0.000001
    26  H   -0.004336   1.732905  -0.020135  -0.000890   0.001506   0.001892
    27  H    0.000136  -0.020135   0.610975  -0.111297  -0.000203  -0.000342
    28  H    0.000459  -0.000890  -0.111297   0.510535  -0.002640  -0.005875
    29  H   -0.000027   0.001506  -0.000203  -0.002640   0.540975  -0.105265
    30  H   -0.000001   0.001892  -0.000342  -0.005875  -0.105265   0.611418
    31  O    0.000000  -0.001166   0.000558  -0.001537   0.008443   0.000914
    32  H    0.000000   0.000211  -0.000117   0.000179  -0.002049  -0.000375
    33  H    0.000001  -0.000101  -0.000060   0.000810  -0.004320  -0.000967
    34  H    0.335751  -0.016417   0.000699  -0.000149  -0.000005   0.000004
    35  H    0.057488   0.004448  -0.000101   0.000068  -0.000003  -0.000001
    36  H    0.376321   0.000716  -0.000120   0.000078  -0.000002  -0.000005
              31         32         33         34         35         36
     1  C    0.000012   0.000012   0.000020  -0.168250   0.046876   0.031269
     2  C    0.000072   0.000005  -0.000029   0.168565   0.038740  -0.028865
     3  C    0.000022  -0.000012   0.000053  -0.079887   0.071160  -0.027845
     4  N    0.000083   0.000024  -0.000060   0.001031  -0.007935   0.010765
     5  C    0.000562  -0.000003  -0.000065  -0.041514   0.004786   0.007876
     6  C    0.000198  -0.000041   0.000064   0.045123  -0.002939  -0.010109
     7  C    0.000006  -0.000002   0.000006   0.122427  -0.122322  -0.018981
     8  N   -0.000000   0.000000  -0.000000  -0.081316   0.147255  -0.332761
     9  C   -0.000000   0.000000   0.000000  -0.123855   0.046885   0.081782
    10  C    0.000000   0.000000  -0.000000  -0.029671   0.049559   0.003521
    11  C   -0.000000  -0.000000   0.000000   0.063108  -0.054359  -0.001326
    12  O    0.000725   0.000143  -0.000074   0.000435   0.000050  -0.000257
    13  O   -0.034623   0.001525   0.001403   0.000008  -0.000005  -0.000006
    14  H    0.000000  -0.000000   0.000000  -0.007428   0.016983   0.020321
    15  H    0.000000   0.000000   0.000000  -0.001285   0.007003  -0.004261
    16  H   -0.000003  -0.000000  -0.000001  -0.001884  -0.003945   0.006768
    17  H   -0.000000  -0.000000  -0.000000  -0.000675   0.000682   0.000655
    18  H    0.000005   0.000000   0.000002   0.000106   0.000248   0.000971
    19  H   -0.000000  -0.000000  -0.000000  -0.001390   0.010985  -0.004558
    20  H    0.000000  -0.000000   0.000000   0.020487  -0.001087   0.014112
    21  H   -0.000055  -0.000005  -0.000015   0.004987   0.001797  -0.003394
    22  H   -0.000064   0.000001   0.000014   0.000577   0.000033  -0.000038
    23  H    0.000009  -0.000001  -0.000002   0.000352  -0.000070   0.000052
    24  H   -0.000001   0.000000   0.000001  -0.004503   0.003055   0.001597
    25  C    0.000000   0.000000   0.000001   0.335751   0.057488   0.376321
    26  H   -0.001166   0.000211  -0.000101  -0.016417   0.004448   0.000716
    27  H    0.000558  -0.000117  -0.000060   0.000699  -0.000101  -0.000120
    28  H   -0.001537   0.000179   0.000810  -0.000149   0.000068   0.000078
    29  H    0.008443  -0.002049  -0.004320  -0.000005  -0.000003  -0.000002
    30  H    0.000914  -0.000375  -0.000967   0.000004  -0.000001  -0.000005
    31  O    7.627334   0.355640   0.359267   0.000000   0.000000   0.000000
    32  H    0.355640   0.570549  -0.075073  -0.000000   0.000000   0.000000
    33  H    0.359267  -0.075073   0.573138   0.000000   0.000000   0.000000
    34  H    0.000000  -0.000000   0.000000   1.996901  -0.418669  -0.497489
    35  H    0.000000   0.000000   0.000000  -0.418669   1.582680  -0.307719
    36  H    0.000000   0.000000   0.000000  -0.497489  -0.307719   1.895842
 Mulliken charges:
               1
     1  C    1.148688
     2  C    0.743050
     3  C    0.706819
     4  N    0.004428
     5  C    0.766896
     6  C    0.264525
     7  C    0.940051
     8  N   -0.406122
     9  C    1.173642
    10  C    0.592732
    11  C    0.952526
    12  O   -0.474527
    13  O   -0.380134
    14  H   -0.512424
    15  H   -0.266562
    16  H   -0.377553
    17  H   -0.363295
    18  H   -0.442531
    19  H   -0.455074
    20  H   -0.553384
    21  H   -0.979772
    22  H   -0.657248
    23  H   -0.559150
    24  H   -0.871344
    25  C    0.799679
    26  H    0.100778
    27  H    0.133788
    28  H    0.296832
    29  H    0.232339
    30  H    0.136078
    31  O   -0.316403
    32  H    0.149390
    33  H    0.145989
    34  H   -0.286173
    35  H   -0.171627
    36  H   -0.214909
 Sum of Mulliken charges =   1.00000
 Mulliken charges with hydrogens summed into heavy atoms:
               1
     1  C    0.277344
     2  C    0.743050
     3  C   -0.272953
     4  N    0.105206
     5  C    0.109648
     6  C   -0.294625
     7  C    0.386667
     8  N   -0.406122
     9  C    0.206144
    10  C   -0.051383
    11  C    0.146700
    12  O   -0.043907
    13  O   -0.011716
    25  C    0.126970
    31  O   -0.021024
 Electronic spatial extent (au):  <R**2>=           6476.3958
 Charge=              1.0000 electrons
 Dipole moment (field-independent basis, Debye):
    X=             -6.9361    Y=              1.7944    Z=             -0.1515  Tot=              7.1661
 Quadrupole moment (field-independent basis, Debye-Ang):
   XX=             10.4399   YY=            -66.1680   ZZ=            -80.2248
   XY=              9.8901   XZ=              1.3293   YZ=             -2.4676
 Traceless Quadrupole moment (field-independent basis, Debye-Ang):
   XX=             55.7575   YY=            -20.8503   ZZ=            -34.9072
   XY=              9.8901   XZ=              1.3293   YZ=             -2.4676
 Octapole moment (field-independent basis, Debye-Ang**2):
  XXX=           -674.6799  YYY=             18.0287  ZZZ=             14.9494  XYY=            -41.4268
  XXY=            -97.8915  XXZ=            -57.6142  XZZ=            -51.3651  YZZ=            -12.2477
  YYZ=            -12.2898  XYZ=             -5.6671
 Hexadecapole moment (field-independent basis, Debye-Ang**3):
 XXXX=           -290.5365 YYYY=          -1075.6749 ZZZZ=           -605.3384 XXXY=            641.5621
 XXXZ=            480.9670 YYYX=            106.1445 YYYZ=            -37.4990 ZZZX=             12.3522
 ZZZY=             -5.3588 XXYY=          -1010.6037 XXZZ=           -814.5463 YYZZ=           -331.4319
 XXYZ=             17.1389 YYXZ=             -1.8083 ZZXY=             19.2828
 N-N= 1.007207994332D+03 E-N=-3.699166562970D+03  KE= 7.240215390201D+02
 Calling FoFJK, ICntrl=      2127 FMM=F ISym2X=0 I1Cent= 0 IOpClX= 0 NMat=1 NMatS=1 NMatT=0.
 ***** Axes restored to original set *****
 -------------------------------------------------------------------
 Center     Atomic                   Forces (Hartrees/Bohr)
 Number     Number              X              Y              Z
 -------------------------------------------------------------------
      1        6           0.000002293   -0.000001782   -0.000002125
      2        6          -0.000001498   -0.000000609   -0.000000547
      3        6          -0.000006123    0.000002716    0.000002957
      4        7           0.000005769   -0.000005255   -0.000000916
      5        6          -0.000000429    0.000003561   -0.000001089
      6        6          -0.000001461    0.000000225    0.000000419
      7        6          -0.000001683   -0.000000779    0.000000923
      8        7           0.000000696   -0.000000691   -0.000002982
      9        6           0.000001713   -0.000001559    0.000003274
     10        6          -0.000000653   -0.000003400   -0.000000128
     11        6           0.000001774    0.000003473   -0.000000054
     12        8          -0.000000351   -0.000000471   -0.000001063
     13        8          -0.000002468    0.000000206   -0.000002627
     14        1          -0.000000361   -0.000000022    0.000000412
     15        1           0.000000205   -0.000000187    0.000001119
     16        1           0.000000100    0.000000148    0.000000328
     17        1          -0.000000279   -0.000000702   -0.000000081
     18        1          -0.000000435   -0.000001259    0.000000886
     19        1          -0.000000505   -0.000001126    0.000000236
     20        1           0.000001121   -0.000000669    0.000000765
     21        1           0.000001247    0.000000624   -0.000002220
     22        1           0.000000385   -0.000000305   -0.000000800
     23        1           0.000000653   -0.000000251   -0.000000934
     24        1           0.000000090    0.000000162   -0.000000621
     25        6           0.000002514   -0.000001777   -0.000001403
     26        1          -0.000003102    0.000002013    0.000001469
     27        1          -0.000000630    0.000002312    0.000000417
     28        1           0.000002484   -0.000000308    0.000000243
     29        1           0.000000023    0.000000418    0.000001086
     30        1           0.000001544    0.000001116    0.000000959
     31        8          -0.000002847    0.000002607   -0.000000154
     32        1           0.000001258    0.000000211    0.000000408
     33        1           0.000001030   -0.000000142   -0.000001623
     34        1           0.000000775    0.000000868    0.000001258
     35        1          -0.000002290   -0.000000441    0.000000613
     36        1          -0.000000556    0.000001075    0.000001594
 -------------------------------------------------------------------
 Cartesian Forces:  Max     0.000006123 RMS     0.000001712

 GradGradGradGradGradGradGradGradGradGradGradGradGradGradGradGradGradGrad
 Berny optimization.
 FormGI is forming the generalized inverse of G from B-inverse, IUseBI=4.
 Internal  Forces:  Max     0.000004393 RMS     0.000000976
 Search for a local minimum.
 Step number   1 out of a maximum of  200
 All quantities printed in internal units (Hartrees-Bohrs-Radians)
 Mixed Optimization -- En-DIIS/RFO-DIIS
 Second derivative matrix not updated -- first step.
 ITU=  0
     Eigenvalues ---    0.00230   0.00230   0.00230   0.00230   0.00230
     Eigenvalues ---    0.00230   0.00230   0.00230   0.00230   0.00231
     Eigenvalues ---    0.00385   0.00576   0.00891   0.00934   0.00994
     Eigenvalues ---    0.01018   0.01520   0.01935   0.02113   0.02139
     Eigenvalues ---    0.02173   0.02240   0.02288   0.02347   0.02381
     Eigenvalues ---    0.02444   0.02612   0.03428   0.04636   0.04884
     Eigenvalues ---    0.05055   0.05299   0.05699   0.06138   0.06288
     Eigenvalues ---    0.06404   0.06690   0.06807   0.06982   0.07273
     Eigenvalues ---    0.07576   0.08004   0.08260   0.09136   0.09330
     Eigenvalues ---    0.10406   0.13373   0.15087   0.15996   0.16000
     Eigenvalues ---    0.16000   0.16000   0.16000   0.16000   0.16000
     Eigenvalues ---    0.16000   0.16000   0.16000   0.16000   0.16000
     Eigenvalues ---    0.16000   0.16296   0.18329   0.20675   0.22000
     Eigenvalues ---    0.22000   0.23453   0.24987   0.25870   0.27209
     Eigenvalues ---    0.28943   0.30913   0.32749   0.32857   0.32868
     Eigenvalues ---    0.33825   0.33983   0.34045   0.34079   0.34133
     Eigenvalues ---    0.34135   0.34255   0.34729   0.34748   0.35109
     Eigenvalues ---    0.35113   0.35144   0.35595   0.38122   0.39348
     Eigenvalues ---    0.43292   0.43588   0.46771   0.48157   0.49916
     Eigenvalues ---    0.52171   0.54312   0.55297   0.55299   0.55576
     Eigenvalues ---    0.55699   0.56214
 RFO step:  Lambda= 0.00000000D+00 EMin= 2.30000000D-03
 Linear search not attempted -- first point.
 Iteration  1 RMS(Cart)=  0.00027779 RMS(Int)=  0.00000002
 Iteration  2 RMS(Cart)=  0.00000007 RMS(Int)=  0.00000000
 Variable       Old X    -DE/DX   Delta X   Delta X   Delta X     New X
                                 (Linear)    (Quad)   (Total)
    R1        2.64282   0.00000   0.00000   0.00000   0.00000   2.64282
    R2        2.63372   0.00000   0.00000   0.00000   0.00000   2.63372
    R3        2.06117   0.00000   0.00000   0.00000   0.00000   2.06117
    R4        2.62229   0.00000   0.00000   0.00000   0.00000   2.62230
    R5        2.86179   0.00000   0.00000   0.00001   0.00001   2.86181
    R6        2.53584  -0.00000   0.00000  -0.00000  -0.00000   2.53584
    R7        2.05498  -0.00000   0.00000  -0.00000  -0.00000   2.05498
    R8        2.53444   0.00000   0.00000   0.00000   0.00000   2.53445
    R9        1.99149   0.00000   0.00000   0.00000   0.00000   1.99149
   R10        2.61425  -0.00000   0.00000  -0.00000  -0.00000   2.61425
   R11        2.05442  -0.00000   0.00000  -0.00000  -0.00000   2.05442
   R12        2.05492  -0.00000   0.00000  -0.00000  -0.00000   2.05492
   R13        2.75404   0.00000   0.00000   0.00000   0.00000   2.75404
   R14        2.94472  -0.00000   0.00000  -0.00000  -0.00000   2.94472
   R15        2.09304   0.00000   0.00000   0.00000   0.00000   2.09304
   R16        2.76000   0.00000   0.00000   0.00000   0.00000   2.76000
   R17        2.74188   0.00000   0.00000   0.00000   0.00000   2.74188
   R18        2.87675   0.00000   0.00000   0.00000   0.00000   2.87676
   R19        2.07255  -0.00000   0.00000  -0.00000  -0.00000   2.07255
   R20        2.09494  -0.00000   0.00000  -0.00000  -0.00000   2.09494
   R21        2.90665   0.00000   0.00000   0.00001   0.00001   2.90666
   R22        2.06901  -0.00000   0.00000  -0.00000  -0.00000   2.06901
   R23        2.07360  -0.00000   0.00000  -0.00000  -0.00000   2.07359
   R24        2.07106  -0.00000   0.00000  -0.00000  -0.00000   2.07106
   R25        2.07103  -0.00000   0.00000  -0.00000  -0.00000   2.07103
   R26        3.01941  -0.00000   0.00000  -0.00001  -0.00001   3.01940
   R27        1.81216   0.00000   0.00000   0.00000   0.00000   1.81216
   R28        1.86648  -0.00000   0.00000  -0.00000  -0.00000   1.86648
   R29        3.13973   0.00000   0.00000   0.00001   0.00001   3.13974
   R30        1.84436   0.00000   0.00000   0.00000   0.00000   1.84436
   R31        1.81324  -0.00000   0.00000  -0.00000  -0.00000   1.81324
   R32        2.07626   0.00000   0.00000   0.00000   0.00000   2.07626
   R33        2.09283  -0.00000   0.00000  -0.00001  -0.00001   2.09283
   R34        2.07196  -0.00000   0.00000  -0.00000  -0.00000   2.07196
[...]
 1,0.00000162,0.00000129,0.00002355,-0.00000358,-0.00001381,0.00001126,
 0.00001011,-0.00004945,-0.00000790,-0.00000589,-0.00001052,-0.00000438
 ,-0.00000217,-0.00000469,0.00000922,-0.00000188,-0.00001512,0.00039772
 ,0.00023699,-0.00021197,0.00023109,-0.00004141,0.00005936,0.00035283,0
 .00001358,0.00000989,0.00219190,0.00177155,-0.01044733,-0.00031184,-0.
 00014722,-0.00043093,-0.05867424,-0.13702672,0.67780366,-0.00000368,-0
 .00000170,0.00000155,-0.00000753,0.00000959,0.00000188,-0.00001681,0.0
 0001521,-0.00000151,0.00006881,0.00004526,-0.00002910,-0.00000965,-0.0
 0002494,0.00001233,0.00002027,-0.00000321,-0.00000352,-0.00001397,0.00
 000610,-0.00000992,0.00002320,-0.00000575,0.00000227,-0.00001064,0.000
 00669,0.00000644,-0.00000258,0.00000012,-0.00000240,-0.00000036,-0.000
 00205,0.00000572,0.00019897,-0.00001340,-0.00004837,-0.00055400,0.0009
 7274,-0.00100127,-0.00000127,-0.00000158,0.00000064,0.00000204,-0.0000
 0186,-0.00000090,0.00000096,0.00000216,0.00000129,0.00000323,-0.000000
 30,-0.00000126,-0.00000054,-0.00000087,0.00000369,0.00000646,0.0000013
 3,0.,0.00000536,-0.00000159,0.00000111,-0.00001192,0.00000280,-0.00000
 031,-0.00001023,-0.00001084,0.00000141,-0.00000072,-0.00000154,-0.0000
 0074,0.00000127,-0.00000031,-0.00000059,-0.00000982,-0.00000254,-0.000
 00722,-0.00014842,-0.00007983,0.00005650,-0.00010237,0.00000683,-0.000
 04337,-0.00013226,0.00007332,0.00006639,0.00065494,-0.00212660,0.00263
 254,-0.00047612,0.00006347,0.00000899,-0.36579322,-0.06341142,0.256309
 43,0.35582153,-0.00001205,0.00001330,-0.00000157,-0.00002185,-0.000016
 64,0.00001387,0.00002018,0.00001286,-0.00000791,0.00000623,0.00001284,
 -0.00000608,-0.00003881,-0.00000265,0.00000990,0.00003345,-0.00000433,
 -0.00000659,-0.00001021,0.00001521,-0.00001281,0.00000948,-0.00001944,
 0.00000090,-0.00000435,0.00001277,0.00000641,0.00000667,0.00000429,-0.
 00000290,0.00000138,-0.00000090,0.00000698,0.00007238,-0.00012960,-0.0
 0000565,0.00133008,-0.00079260,0.00111070,0.00000166,-0.00000367,0.000
 00258,0.00000169,-0.00000198,-0.00000107,-0.00000340,0.00000022,0.0000
 0036,0.00000049,-0.00000241,-0.00000186,0.00000103,0.00000144,0.000003
 08,0.00000230,-0.00000189,-0.00000171,0.00000135,-0.00000518,0.0000000
 4,-0.00000127,0.00000751,0.00000022,-0.00001592,0.00000380,0.00000379,
 -0.00000586,-0.00000099,0.00000216,0.00000044,0.00000121,-0.00000003,-
 0.00000266,0.00000357,-0.00000142,-0.00002408,0.00001119,0.00000755,-0
 .00003537,0.00009506,-0.00001332,0.00002321,0.00008452,0.00003978,-0.0
 0153093,0.00088169,-0.00206563,0.00035468,0.00011077,-0.00022780,-0.05
 373882,-0.01426114,0.05444326,0.06089409,0.01495158,0.00000249,-0.0000
 0021,0.00000047,0.00000340,0.00000161,-0.00000201,0.00000069,0.0000008
 8,0.00000363,0.00001087,0.00000411,-0.00001431,0.00000273,0.00000456,0
 .00000269,-0.00000204,-0.00000001,-0.00000594,0.00000441,-0.00000359,0
 .00000548,-0.00000387,-0.00000135,-0.00001699,-0.00000057,0.00000229,0
 .00000335,0.00000531,0.00000211,-0.00000087,0.00000272,-0.00000071,0.0
 0000371,-0.00005146,-0.00017281,-0.00032804,-0.00229633,0.00108922,-0.
 00138449,0.00000088,0.00000141,0.00000023,0.00000079,-0.00000075,-0.00
 000057,-0.00000245,-0.00000238,0.00000158,-0.00000053,-0.00000059,-0.0
 0000075,-0.00000144,0.00000301,-0.00000204,-0.00000154,-0.00000133,-0.
 00000149,-0.00000142,0.00000020,-0.00000088,0.00000233,0.00000045,0.00
 000876,0.00000094,0.00000614,0.00002128,0.00000168,0.00000233,0.000005
 20,0.00000073,0.00000074,0.00000247,0.00000152,0.00000287,0.00001437,-
 0.00002597,-0.00001328,0.00004200,-0.00013771,0.00001231,0.00004011,0.
 00023345,0.00029208,0.00046810,0.00352456,-0.00220778,0.00229333,-0.00
 010873,-0.00002302,0.00009173,0.20054959,0.05150397,-0.21317657,-0.240
 29693,-0.05687048,0.23537923,-0.00001332,0.00000482,0.00000214,-0.0000
 1921,-0.00000521,0.00000874,0.00000580,0.00000875,-0.00000913,0.000000
 38,0.00001385,0.00001091,-0.00002870,-0.00000893,0.00001377,0.00002692
 ,-0.00001019,0.00000085,-0.00001557,0.00000854,-0.00001522,0.00002108,
 -0.00000759,0.00001434,-0.00000853,0.00000557,0.00000293,-0.00000492,-
 0.00000007,-0.00000058,-0.00000487,-0.00000034,0.00000058,-0.00003977,
 -0.00005742,0.00003800,-0.00241096,0.00094560,0.00097626,-0.00000107,-
 0.00000293,0.00000141,0.00000115,-0.00000129,-0.00000063,0.00000193,0.
 00000412,-0.00000119,0.00000363,-0.00000029,-0.00000021,0.00000096,-0.
 00000335,0.00000544,0.00000648,0.00000184,0.00000131,0.00000492,-0.000
 00221,0.00000223,-0.00000516,0.00000335,-0.00000768,-0.00000998,-0.000
 01445,-0.00002579,-0.00000508,-0.00000587,-0.00000467,0.00000009,-0.00
 000138,-0.00000256,-0.00000905,-0.00000371,-0.00001468,0.00000928,0.00
 002066,-0.00004558,0.00001785,-0.00000052,-0.00000700,0.00004635,0.000
 08327,0.00000400,0.00403378,-0.00149661,-0.00310953,-0.00032208,0.0000
 4755,-0.00022095,-0.11934477,0.03605867,-0.19573471,0.01049510,-0.0073
 1854,0.03858448,0.10756158,-0.00002051,0.00002114,-0.00000204,-0.00003
 234,-0.00003014,0.00002055,0.00004305,0.00000497,-0.00001573,-0.000034
 43,-0.00000407,0.00001486,-0.00005909,0.00001126,0.00001286,0.00004398
 ,-0.00000452,-0.00000477,-0.00001108,0.00001731,-0.00001500,0.00000726
 ,-0.00002231,0.00000148,-0.00000382,0.00001231,0.00000777,0.00000967,0
 .00000689,-0.00000248,0.00000076,-0.00000042,0.00000694,-0.00012651,-0
 .00018023,-0.00004281,0.00066401,-0.00023814,-0.00056784,0.00000229,-0
 .00000408,0.00000330,0.00000195,-0.00000234,-0.00000106,-0.00000466,-0
 .00000061,0.00000082,-0.00000013,-0.00000308,-0.00000221,0.00000199,0.
 00000292,0.00000344,0.00000175,-0.00000224,-0.00000246,0.00000087,-0.0
 0000612,-0.00000020,0.00000346,0.00000734,0.00000080,-0.00001977,0.000
 00456,-0.00002131,-0.00001109,-0.00000388,-0.00000150,-0.00000037,0.00
 000141,-0.00000102,-0.00000132,0.00000222,-0.00000156,0.00006783,0.000
 07301,-0.00004486,0.00000572,0.00003237,0.00001077,0.00020466,0.000182
 59,0.00011550,-0.00067058,-0.00018872,0.00116760,0.00014964,0.00000404
 ,0.00035968,0.02445672,-0.01581710,0.08008470,0.00359208,-0.00097661,0
 .00636956,-0.02826523,0.01710372,0.00000260,-0.00000349,-0.00000019,-0
 .00000123,0.00001391,-0.00000165,-0.00002305,0.00001455,0.00000338,0.0
 0008243,0.00004690,-0.00004234,-0.00000865,-0.00002563,0.00001307,0.00
 001597,-0.00000204,-0.00000813,-0.00000766,0.00000362,-0.00000220,0.00
 001517,-0.00000528,-0.00001492,-0.00000794,0.00000686,0.00000978,0.000
 00249,0.00000140,-0.00000438,0.00000514,-0.00000336,0.00001063,0.00026
 723,0.00010681,0.00006620,0.00218007,-0.00045252,-0.00002089,-0.000000
 18,0.00000021,-0.00000016,0.00000350,-0.00000240,-0.00000063,-0.000002
 03,-0.00000071,0.00000416,0.00000250,-0.00000078,-0.00000182,-0.000003
 30,0.00000296,0.00000171,0.00000332,-0.00000066,-0.00000193,0.00000356
 ,-0.00000144,-0.00000063,-0.00001159,0.00000195,0.00000557,-0.00001200
 ,-0.00000758,0.00001616,0.00000209,0.00000273,0.00000606,0.00000295,0.
 00000093,0.00000250,-0.00000495,0.00000066,0.00000595,-0.00018502,-0.0
 0009990,0.00008729,-0.00004339,0.00001437,-0.00002652,-0.00022183,-0.0
 0012761,-0.00017322,-0.00323202,0.00071599,-0.00009194,-0.00011873,0.0
 0004028,0.00014643,-0.14057803,0.08363786,-0.45841249,-0.01766139,0.00
 357649,-0.02345083,0.15953360,-0.08745256,0.48188060,0.00007382,-0.000
 08708,0.00008084,-0.00004179,-0.00003098,-0.00025707,0.00000940,0.0002
 5460,-0.00015083,-0.00004888,-0.00008433,0.00001987,0.00001275,-0.0000
 0361,0.00001948,0.00000951,-0.00006618,-0.00005294,0.00073709,0.000867
 33,0.00000876,0.00864005,-0.01021769,-0.00482071,-0.00001618,-0.000297
 12,-0.00171403,0.00063396,-0.00020562,-0.00050216,-0.00011731,-0.00015
 155,0.00014679,0.00001532,-0.00002211,0.00000126,0.00000830,-0.0000065
 1,-0.00000195,-0.00007640,0.00007223,0.00002409,-0.00008203,-0.0000019
 1,-0.00017835,0.00003180,-0.00005004,0.00012969,-0.00000583,0.00000798
 ,-0.00000209,0.00002874,-0.00003294,-0.00000285,0.00045017,-0.00023932
 ,-0.00044953,-0.00059383,-0.00004478,-0.00012768,-0.00003074,-0.000185
 14,-0.00006585,0.00000432,-0.00001312,0.00000062,0.00000343,-0.0000056
 1,-0.00000385,-0.00001214,-0.00000731,0.00005110,-0.15602669,0.1138321
 0,0.06855749,0.00000716,0.00003572,0.00000746,-0.00000820,0.00001037,0
 .00000566,-0.00000460,0.00000453,0.00000088,-0.00000670,0.00000401,-0.
 00000010,-0.00000511,0.00000215,0.00000124,0.00000307,-0.00000504,-0.0
 0000128,-0.00000024,0.00000206,0.00000137,-0.00000026,0.00000205,0.000
 00070,0.16302455,-0.00036099,0.00044972,-0.00007414,0.00032972,-0.0001
 6823,-0.00005002,0.00028680,0.00017623,-0.00005595,-0.00036896,0.00028
 159,0.00006702,-0.00012943,-0.00028215,0.00006917,0.00033568,0.0000176
 4,-0.00001911,-0.00068417,-0.00022543,0.00087915,0.00260819,-0.0053298
 0,-0.00317101,-0.00105108,0.00139525,-0.00122627,0.00059012,-0.0000430
 5,-0.00003332,-0.00008294,-0.00011736,-0.00025813,0.00007894,-0.000001
 23,0.00009384,0.00002869,0.00001739,0.00004319,-0.00002915,0.00041345,
 0.00014970,-0.00004776,0.00007900,-0.00019947,-0.00004405,0.00001032,0
 .00002853,0.00000554,0.00002922,-0.00001043,-0.00002625,0.00005190,-0.
 00004898,0.00016041,-0.00007446,0.00001740,-0.00005081,0.00019185,0.00
 008734,-0.00008108,-0.00011111,-0.00028653,-0.00000679,-0.00000536,0.0
 0000112,-0.00000579,0.00001433,-0.00000033,0.00000379,-0.00003782,0.00
 000950,0.11070643,-0.16294479,-0.07081838,-0.00001398,0.00004612,-0.00
 008161,-0.00006038,0.00000608,-0.00002298,-0.00005281,-0.00004123,-0.0
 0006117,-0.00001475,0.00000663,-0.00000814,0.00000344,-0.00000395,-0.0
 0001129,0.00000992,-0.00000048,0.00000997,-0.00000252,-0.00000136,-0.0
 0000377,0.00000028,-0.00000071,-0.00000461,-0.12078253,0.17345573,-0.0
 0023280,0.00042492,-0.00013045,-0.00035973,0.00011037,-0.00030444,-0.0
 0036611,0.00010016,-0.00024694,-0.00008658,0.00031974,-0.00003043,-0.0
 0011698,-0.00031926,0.00006967,0.00030196,0.00005781,-0.00004366,0.001
 16087,-0.00127973,0.00109181,0.01958077,-0.02641464,-0.01823048,-0.002
 77562,0.00243985,-0.00494228,0.00111488,-0.00144971,-0.00079770,0.0000
 4503,-0.00034213,0.00015861,0.00011577,0.00008341,-0.00002995,0.000028
 52,0.00002667,0.00002089,-0.00014119,-0.00023007,0.00016341,-0.0002758
 5,0.00007854,-0.00058503,-0.00006395,-0.00001793,-0.00009126,-0.000012
 19,0.00005969,0.00005750,-0.00005816,0.00010885,0.00000048,0.00013331,
 0.00011747,-0.00001056,0.00015337,0.00038856,-0.00021831,0.00005583,-0
 .00022035,-0.00015580,-0.00001467,-0.00000319,-0.00000753,0.00000306,-
 0.00000026,-0.00000596,0.00000651,-0.00003276,-0.00001045,0.06321930,-
 0.06558036,-0.08840032,-0.00020332,-0.00011164,0.00007813,0.00000557,-
 0.00000244,0.00001829,-0.00003857,-0.00003730,-0.00004637,-0.00001510,
 0.00000161,-0.00000185,0.00000396,-0.00000773,-0.00000054,0.00001212,0
 .00000527,0.00000225,-0.00000244,-0.00000321,0.00000083,-0.00000274,-0
 .00000378,-0.00000177,-0.07048023,0.08105384,0.10410001,-0.00006586,-0
 .00034461,0.00009903,-0.00014652,0.00071132,0.00009544,-0.00005752,-0.
 00015955,0.00020150,0.00014683,-0.00008942,-0.00002235,0.00004127,0.00
 018547,-0.00011461,-0.00021422,0.00006862,0.00006282,0.00130019,-0.001
 74510,0.00180780,-0.01000927,-0.00482473,-0.01336427,0.00199459,0.0015
 1982,0.00081090,0.00033288,0.00001401,0.00027171,0.00015389,0.00008720
 ,0.00023961,-0.00013087,-0.00003170,0.00000211,-0.00006764,-0.00001072
 ,-0.00002476,-0.00013152,-0.00021629,0.00004502,0.00000833,0.00002994,
 -0.00013660,0.00003363,0.00002318,0.00024509,0.00005943,0.00000955,-0.
 00008810,0.00002352,0.00010767,0.00004189,0.00046707,-0.00144439,-0.00
 124543,-0.00029236,0.00161916,-0.00126534,0.00046045,-0.00013784,0.000
 03271,0.00000623,0.00001176,-0.00001256,-0.00002768,-0.00000054,-0.000
 01525,0.00002003,0.00001165,-0.00003853,-0.25555957,-0.08108986,0.0025
 4471,0.00015938,0.00006448,-0.00002183,0.00002343,-0.00001257,-0.00001
 430,0.00006263,0.00003086,0.00005293,0.00004376,-0.00001528,0.00000630
 ,0.00001578,0.00000501,-0.00000030,-0.00002932,0.00000615,-0.00000383,
 0.00000576,0.00000019,-0.00000199,0.00000563,-0.00000034,0.00000211,-0
 .01741539,-0.00814100,0.00066140,0.27915412,-0.00012961,0.00019032,-0.
 00001904,-0.00010565,-0.00024987,-0.00017128,0.00003694,-0.00005007,0.
 00002062,-0.00022008,0.00019037,0.00000005,-0.00007274,-0.00013024,0.0
 0002456,0.00013023,0.00002687,-0.00000345,0.00279763,0.00141519,0.0007
 3902,-0.00749617,-0.00294967,-0.00682020,-0.00281383,0.00108999,0.0010
 6348,0.00027627,0.00004751,-0.00014666,0.00001589,-0.00002915,0.000135
 50,-0.00003464,0.00000044,0.00002258,-0.00002178,0.00000238,-0.0000039
 6,0.00001454,-0.00013188,0.00011790,0.00002006,0.00002498,-0.00012120,
 0.00016439,-0.00008051,0.00014439,-0.00001667,-0.00000017,-0.00003170,
 0.00001994,-0.00001611,-0.00003577,0.00084146,-0.00018191,-0.00008614,
 -0.00062837,0.00042635,-0.00082711,0.00010453,-0.00009530,-0.00009370,
 -0.00000270,0.00000666,0.00000842,-0.00000632,0.00000691,0.00000282,0.
 00001158,-0.00002467,0.00000004,-0.08046494,-0.08199184,0.00166760,0.0
 0003654,0.00002971,-0.00004228,-0.00000313,-0.00000965,-0.00000913,0.0
 0001543,-0.00000029,0.00000841,0.00001559,-0.00000558,0.00000199,0.000
 00888,0.00000060,-0.00000002,-0.00001036,0.00000259,-0.00000061,0.0000
 0196,-0.00000026,-0.00000102,0.00000218,-0.00000027,0.00000042,0.01985
 749,0.00803409,0.00032384,0.09290871,0.08281664,-0.00014055,0.00008572
 ,0.00003105,0.00037989,0.00056591,0.00003493,-0.00003767,0.00003147,0.
 00001910,-0.00008545,0.00017895,0.00002026,-0.00004723,0.00000223,-0.0
 0002681,0.00000740,0.00004194,-0.00002600,-0.00246731,-0.00614978,0.00
 288308,-0.03567697,-0.01486707,-0.01655972,-0.00449741,0.00248801,0.00
 234741,0.00033436,0.00005014,0.00005355,0.00025236,-0.00011557,0.00048
 824,0.00002505,-0.00001191,0.00006089,0.00001272,0.00000435,0.00002367
 ,0.00044592,-0.00014815,-0.00022976,0.00016205,0.00009026,-0.00011717,
 0.00019367,0.00004200,0.00013625,0.00004215,0.00003433,-0.00006695,0.0
 0000318,0.00002702,0.00006851,0.00188905,0.00047494,0.00046414,0.00161
 969,0.00139865,0.00073155,0.00021012,-0.00009506,-0.00025153,-0.000007
 41,0.00000681,-0.00001515,-0.00001488,0.00000287,-0.00000628,0.0000132
 0,0.00000330,0.00000213,0.00244026,0.00150255,-0.04848638,0.00003986,0
 .00002762,-0.00004594,-0.00003622,0.00000821,-0.00001521,-0.00002270,-
 0.00001698,-0.00002932,-0.00000783,0.00000403,-0.00000447,0.00000082,0
 .00000054,-0.00000854,0.00000485,-0.00000224,0.00000563,-0.00000150,0.
 00000032,-0.00000230,0.00000037,0.00000053,-0.00000249,0.01092234,0.00
 547014,0.00054547,0.00867477,0.00424229,0.05716657,-0.00004516,-0.0001
 0799,0.00006555,0.00033570,-0.00005799,0.00003396,0.00011699,0.0000772
 5,0.00002699,-0.00004990,-0.00010163,0.00001666,0.00001443,0.00005834,
 -0.00002106,-0.00004503,0.00000659,0.00001348,0.00035789,-0.00118506,-
 0.00179032,-0.00110591,0.01051770,-0.00695396,0.00036068,-0.00023446,0
 .00049593,-0.00015965,0.00012417,0.00017531,0.00008963,0.00057435,-0.0
 0024896,0.00000915,-0.00005304,0.00005611,0.00001827,-0.00000661,0.000
 02026,0.00023649,-0.00008487,0.00002598,0.00000152,-0.00002430,0.00003
 653,-0.00003458,-0.00000092,-0.00004205,0.00001988,-0.00003108,-0.0001
 7019,0.00005675,-0.00001530,-0.00008206,-0.00016255,-0.00032646,-0.000
 06130,0.00010962,0.00042345,-0.00013939,-0.00000846,0.00010608,-0.0000
 8676,0.00000531,0.00000070,0.00000648,-0.00001179,0.00000106,-0.000004
 43,-0.00000442,-0.00000670,0.00000027,-0.04784793,-0.01131406,0.006575
 42,0.00007209,0.00007528,-0.00006197,-0.00003460,0.00001732,-0.0000132
 5,-0.00002162,-0.00000352,-0.00001873,-0.00001198,0.00000725,-0.000005
 95,-0.00000669,0.00000258,-0.00000951,0.00000676,-0.00000500,0.0000056
 2,-0.00000154,0.00000106,-0.00000194,0.00000040,0.00000154,-0.00000243
 ,0.00079888,0.01688928,-0.01135599,-0.00037110,-0.02525327,0.01536904,
 0.04731247,-0.00003974,0.00009541,-0.00004098,-0.00018636,0.00011708,-
 0.00004011,-0.00005501,-0.00009775,-0.00002168,0.00009013,0.00007627,-
 0.00003234,-0.00001469,-0.00007653,0.00000868,0.00005087,0.00003553,-0
 .00000327,-0.00037230,0.00063041,-0.00149929,0.00055501,0.00835685,-0.
 00557684,0.00034069,0.00122419,-0.00081243,-0.00007678,0.00030130,0.00
 020981,0.00006830,0.00020297,-0.00051913,0.00004715,0.00006635,-0.0000
 6159,0.00001019,0.00001123,-0.00000897,-0.00022597,0.00008667,0.000464
 37,-0.00001155,0.00000354,0.00001362,0.00000579,-0.00001102,0.00000291
 ,0.00000356,0.00002175,-0.00005301,0.00000887,0.00009828,-0.00008397,-
 0.00017864,-0.00029477,0.00003809,0.00027323,0.00027227,-0.00039106,0.
 00001458,-0.00007752,0.00011255,-0.00000572,0.00000014,-0.00000183,0.0
 0000357,0.00000018,-0.00000363,-0.00000304,0.00001496,-0.00002831,-0.0
 0855007,-0.24842184,0.12510407,-0.00013450,-0.00010207,0.00008308,0.00
 002719,-0.00001207,0.00002270,-0.00000534,-0.00000976,-0.00000311,-0.0
 0000620,-0.00000147,0.00000328,-0.00000058,-0.00000438,0.00000848,0.00
 000577,0.00000436,-0.00000452,-0.00000088,-0.00000221,0.00000324,-0.00
 000293,-0.00000248,0.00000165,-0.00241211,-0.01528803,0.01035588,0.000
 84923,-0.00836417,0.00462163,0.00992826,0.26114632,-0.00021859,0.00017
 415,0.00002163,0.00050062,-0.00025046,-0.00013690,-0.00006769,0.000051
 93,0.00001819,-0.00013923,0.00002472,0.00004116,-0.00006249,-0.0000277
 7,0.00000873,0.00005961,0.00003586,-0.00000191,-0.00028279,-0.00326569
 ,-0.00502753,-0.00274481,0.02895724,-0.02249092,0.00007993,0.00198686,
 0.00097078,-0.00026045,0.00017395,0.00017417,-0.00039269,0.00128876,-0
 .00081532,-0.00002927,-0.00004138,0.00002130,-0.00000337,-0.00001186,-
 0.00000027,0.00002980,-0.00074733,-0.00019088,0.00001279,-0.00007577,0
 .00007052,0.00000383,-0.00003352,0.00002880,0.00001604,-0.00005554,-0.
 00026594,0.00014280,-0.00016396,-0.00044637,0.00023380,-0.00018551,-0.
 00012839,0.00009528,-0.00013125,0.00006898,0.00006182,0.00002631,-0.00
 006268,-0.00000134,-0.00000284,-0.00000602,-0.00001772,0.00000502,-0.0
 0000603,0.00001070,-0.00002919,-0.00000584,0.00546424,0.11572160,-0.11
 969549,0.00006622,0.00006401,-0.00004454,-0.00001038,0.00000428,-0.000
 00353,0.00000622,0.00001385,0.00000900,0.00000111,0.00000167,-0.000001
 22,-0.00000442,0.00000477,-0.00000309,-0.00000229,-0.00000372,0.000000
 95,0.00000053,0.00000167,-0.00000049,0.00000146,0.00000201,-0.00000036
 ,-0.00116813,-0.01153426,0.00798474,0.00047220,-0.00011064,0.00081163,
 -0.00185336,-0.13186798,0.13910311\\-0.00000231,0.00000177,0.00000213,
 0.00000145,0.00000056,0.00000055,0.00000620,-0.00000267,-0.00000299,-0
 .00000580,0.00000534,0.00000090,0.00000041,-0.00000362,0.00000111,0.00
 000147,-0.00000023,-0.00000042,0.00000169,0.00000082,-0.00000089,-0.00
 000068,0.00000068,0.00000303,-0.00000169,0.00000156,-0.00000327,0.0000
 0067,0.00000340,0.00000011,-0.00000176,-0.00000346,0.00000004,0.000000
 34,0.00000046,0.00000106,0.00000250,-0.00000018,0.00000264,0.00000036,
 0.00000002,-0.00000041,-0.00000021,0.00000019,-0.00000112,-0.00000011,
 -0.00000015,-0.00000033,0.00000027,0.00000070,0.00000008,0.00000043,0.
 00000125,-0.00000089,0.00000050,0.00000112,-0.00000024,-0.00000113,0.0
 0000067,-0.00000078,-0.00000123,-0.00000064,0.00000223,-0.00000037,0.0
 0000029,0.00000080,-0.00000065,0.00000025,0.00000094,-0.00000008,-0.00
 000016,0.00000062,-0.00000251,0.00000178,0.00000137,0.00000310,-0.0000
 0202,-0.00000146,0.00000063,-0.00000231,-0.00000042,-0.00000248,0.0000
 0031,-0.00000024,-0.00000006,-0.00000041,-0.00000109,-0.00000155,-0.00
 000115,-0.00000097,0.00000286,-0.00000261,0.00000016,-0.00000126,-0.00
 000021,-0.00000040,-0.00000103,0.00000014,0.00000162,-0.00000078,-0.00
 000086,-0.00000126,0.00000228,0.00000044,-0.00000062,0.00000056,-0.000
 00109,-0.00000159\\\@


 THE MORE POWERFUL THE METHOD, THE MORE CATASTROPHIC THE ERRORS.
     -- M.D. KAMEN
 Job cpu time:       0 days 18 hours 32 minutes 10.8 seconds.
 Elapsed time:       0 days  0 hours 39 minutes 45.4 seconds.
 File lengths (MBytes):  RWF=   1060 Int=      0 D2E=      0 Chk=     28 Scr=      8
 Normal termination of Gaussian 16 at Mon Nov 15 12:06:25 2021.
