 Entering Gaussian System, Link 0=g16
 Input=NicPyrNa3h7wB97XDaVDZ130K.gjf
 Output=NicPyrNa3h7wB97XDaVDZ130K.log
 Initial command:
 /sw/contrib/gaussian/g16/A03/g16/l1.exe "/gscratch/scrubbed/gds001/Gau-13251.inp" -scrdir="/gscratch/scrubbed/gds001/"
 Entering Link 1 = /sw/contrib/gaussian/g16/A03/g16/l1.exe PID=     13253.
  
 Copyright (c) 1988,1990,1992,1993,1995,1998,2003,2009,2016,
            Gaussian, Inc.  All Rights Reserved.
  
 This is part of the Gaussian(R) 16 program.  It is based on
 the Gaussian(R) 09 system (copyright 2009, Gaussian, Inc.),
 the Gaussian(R) 03 system (copyright 2003, Gaussian, Inc.),
 the Gaussian(R) 98 system (copyright 1998, Gaussian, Inc.),
 the Gaussian(R) 94 system (copyright 1995, Gaussian, Inc.),
 the Gaussian 92(TM) system (copyright 1992, Gaussian, Inc.),
 the Gaussian 90(TM) system (copyright 1990, Gaussian, Inc.),
 the Gaussian 88(TM) system (copyright 1988, Gaussian, Inc.),
 the Gaussian 86(TM) system (copyright 1986, Carnegie Mellon
 University), and the Gaussian 82(TM) system (copyright 1983,
 Carnegie Mellon University). Gaussian is a federally registered
 trademark of Gaussian, Inc.
  
 This software contains proprietary and confidential information,
 including trade secrets, belonging to Gaussian, Inc.
  
 This software is provided under written license and may be
 used, copied, transmitted, or stored only in accord with that
 written license.
  
 The following legend is applicable only to US Government
 contracts under FAR:
  
                    RESTRICTED RIGHTS LEGEND
  
 Use, reproduction and disclosure by the US Government is
 subject to restrictions as set forth in subparagraphs (a)
 and (c) of the Commercial Computer Software - Restricted
 Rights clause in FAR 52.227-19.
  
 Gaussian, Inc.
 340 Quinnipiac St., Bldg. 40, Wallingford CT 06492
  
  
 ---------------------------------------------------------------
 Warning -- This program may not be used in any manner that
 competes with the business of Gaussian, Inc. or will provide
 assistance to any competitor of Gaussian, Inc.  The licensee
 of this program is prohibited from giving any competitor of
 Gaussian, Inc. access to this program.  By using this program,
 the user acknowledges that Gaussian, Inc. is engaged in the
 business of creating and licensing software in the field of
 computational chemistry and represents and warrants to the
 licensee that it is not a competitor of Gaussian, Inc. and that
 it will not use this program in any manner prohibited above.
 ---------------------------------------------------------------
  

 Cite this work as:
 Gaussian 16, Revision A.03,
 M. J. Frisch, G. W. Trucks, H. B. Schlegel, G. E. Scuseria, 
 M. A. Robb, J. R. Cheeseman, G. Scalmani, V. Barone, 
 G. A. Petersson, H. Nakatsuji, X. Li, M. Caricato, A. V. Marenich, 
 J. Bloino, B. G. Janesko, R. Gomperts, B. Mennucci, H. P. Hratchian, 
 J. V. Ortiz, A. F. Izmaylov, J. L. Sonnenberg, D. Williams-Young, 
 F. Ding, F. Lipparini, F. Egidi, J. Goings, B. Peng, A. Petrone, 
 T. Henderson, D. Ranasinghe, V. G. Zakrzewski, J. Gao, N. Rega, 
 G. Zheng, W. Liang, M. Hada, M. Ehara, K. Toyota, R. Fukuda, 
 J. Hasegawa, M. Ishida, T. Nakajima, Y. Honda, O. Kitao, H. Nakai, 
 T. Vreven, K. Throssell, J. A. Montgomery, Jr., J. E. Peralta, 
 F. Ogliaro, M. J. Bearpark, J. J. Heyd, E. N. Brothers, K. N. Kudin, 
 V. N. Staroverov, T. A. Keith, R. Kobayashi, J. Normand, 
 K. Raghavachari, A. P. Rendell, J. C. Burant, S. S. Iyengar, 
 J. Tomasi, M. Cossi, J. M. Millam, M. Klene, C. Adamo, R. Cammi, 
 J. W. Ochterski, R. L. Martin, K. Morokuma, O. Farkas, 
 J. B. Foresman, and D. J. Fox, Gaussian, Inc., Wallingford CT, 2016.
 
 ******************************************
 Gaussian 16:  ES64L-G16RevA.03 25-Dec-2016
                27-Aug-2020 
 ******************************************
 %nprocshared=28
 Will use up to   28 processors via shared memory.
 %mem=41GB
 %chk=NicPyrNa3h7.chk
 -----------------------------------------
 # wB97XD/aug-cc-pVDZ Temperature=130 Freq
 -----------------------------------------
 1/10=4,30=1,38=1,112=130000/1,3;
 2/12=2,17=6,18=5,40=1/2;
 3/5=16,7=10,11=2,25=1,30=1,71=2,74=-58,140=1/1,2,3;
 4//1;
 5/5=2,38=5,98=1/2;
 8/6=4,10=90,11=11/1;
 11/6=1,8=1,9=11,15=111,16=1/1,2,10;
 10/6=1/2;
 6/7=2,8=2,9=2,10=2,28=1/1;
 7/8=1,10=1,25=1/1,2,3,16;
 1/10=4,30=1/3;
 99//99;
 ----------------------------
 p-Pyr Nicotine, N anti, 3H2O
 ----------------------------
 Symbolic Z-matrix:
 Charge =  1 Multiplicity = 1
 C                     1.21925  -0.18266  -0.26 
 C                     0.30959  -1.23409  -0.37769 
 C                     0.80724  -2.53374  -0.26996 
 C                     2.16736  -2.72395  -0.04955 
 C                     2.9864   -1.60294   0.06507 
 N                     2.52309  -0.35351  -0.03698 
 C                    -1.15655  -0.96915  -0.60043 
 C                    -1.53841   0.05282  -1.67754 
 C                    -2.92496   0.59539  -1.25446 
 C                    -3.18038   0.02244   0.14686 
 N                    -1.83183  -0.40703   0.62934 
 O                    -0.90659   2.02028   1.36631 
 H                    -3.81609  -0.87074   0.12255 
 H                    -3.71722   0.28213  -1.94091 
 H                    -2.92063   1.68918  -1.22939 
 H                    -0.8019    0.86298  -1.71267 
 H                    -1.54753  -0.42429  -2.66178 
 H                    -3.59442   0.74019   0.86063 
 H                    -1.66981  -1.92231  -0.79118 
 H                     0.88895   0.8516   -0.35347 
 H                     4.05653  -1.71089   0.2433 
 H                     2.59112  -3.7229    0.03226 
 H                     0.14071  -3.39239  -0.36454 
 C                    -1.86047  -1.31278   1.79542 
 H                    -1.33526   0.47457   0.91856 
 H                    -0.68808   2.31671   2.25279 
 H                    -0.33729   2.54339   0.75047 
 H                     3.19477   1.39084   0.13265 
 O                     3.13304   2.36451   0.22447 
 H                     4.0072    2.72262   0.05855 
 O                     0.6666    3.1581   -0.43861 
 H                     1.62423   3.01801  -0.25344 
 H                     0.57308   4.05349  -0.77116 
 H                    -2.39386  -0.81862   2.61299 
 H                    -0.83405  -1.53278   2.1029 
 H                    -2.37806  -2.23828   1.52063 
 

 GradGradGradGradGradGradGradGradGradGradGradGradGradGradGradGradGradGrad
 Berny optimization.
 Initialization pass.
 Trust Radius=3.00D-01 FncErr=1.00D-07 GrdErr=1.00D-07 EigMax=2.50D+02 EigMin=1.00D-04
 Number of steps in this run=      2 maximum allowed number of steps=      2.
 GradGradGradGradGradGradGradGradGradGradGradGradGradGradGradGradGradGrad

                          Input orientation:                          
 ---------------------------------------------------------------------
 Center     Atomic      Atomic             Coordinates (Angstroms)
 Number     Number       Type             X           Y           Z
 ---------------------------------------------------------------------
      1          6           0        1.219251   -0.182655   -0.260004
      2          6           0        0.309587   -1.234086   -0.377687
      3          6           0        0.807235   -2.533738   -0.269963
      4          6           0        2.167361   -2.723953   -0.049549
      5          6           0        2.986402   -1.602939    0.065073
      6          7           0        2.523088   -0.353508   -0.036976
      7          6           0       -1.156549   -0.969146   -0.600427
      8          6           0       -1.538407    0.052820   -1.677538
      9          6           0       -2.924956    0.595388   -1.254460
     10          6           0       -3.180383    0.022439    0.146861
     11          7           0       -1.831829   -0.407033    0.629344
     12          8           0       -0.906594    2.020284    1.366305
     13          1           0       -3.816088   -0.870736    0.122553
     14          1           0       -3.717221    0.282128   -1.940913
     15          1           0       -2.920634    1.689179   -1.229389
     16          1           0       -0.801904    0.862980   -1.712674
     17          1           0       -1.547528   -0.424287   -2.661780
     18          1           0       -3.594422    0.740186    0.860625
     19          1           0       -1.669810   -1.922308   -0.791183
     20          1           0        0.888951    0.851597   -0.353471
     21          1           0        4.056529   -1.710888    0.243295
     22          1           0        2.591124   -3.722902    0.032264
     23          1           0        0.140706   -3.392392   -0.364536
     24          6           0       -1.860466   -1.312777    1.795423
     25          1           0       -1.335257    0.474568    0.918563
     26          1           0       -0.688080    2.316705    2.252785
     27          1           0       -0.337289    2.543386    0.750469
     28          1           0        3.194771    1.390844    0.132651
     29          8           0        3.133041    2.364508    0.224466
     30          1           0        4.007198    2.722618    0.058547
     31          8           0        0.666596    3.158105   -0.438606
     32          1           0        1.624233    3.018007   -0.253440
     33          1           0        0.573082    4.053485   -0.771159
     34          1           0       -2.393857   -0.818623    2.612989
     35          1           0       -0.834049   -1.532778    2.102901
     36          1           0       -2.378063   -2.238276    1.520628
 ---------------------------------------------------------------------
                    Distance matrix (angstroms):
                    1          2          3          4          5
     1  C    0.000000
     2  C    1.395294   0.000000
     3  C    2.386933   1.395834   0.000000
     4  C    2.720551   2.403893   1.390937   0.000000
     5  C    2.290350   2.738143   2.393200   1.393068   0.000000
     6  N    1.333763   2.406468   2.784212   2.397021   1.336470
     7  C    2.525645   1.506440   2.532509   3.798841   4.243657
     8  C    3.109587   2.600158   3.764782   4.908516   5.123683
     9  C    4.332291   3.818111   4.968895   6.196897   6.443443
    10  C    4.423164   3.746184   4.754880   6.014949   6.377913
    11  N    3.185965   2.506749   3.506606   4.671460   4.996393
    12  O    3.466560   3.887355   5.133585   5.827660   5.475068
    13  H    5.096513   4.171745   4.928971   6.266234   6.842024
    14  H    5.235478   4.577965   5.584969   6.873288   7.246794
    15  H    4.645656   4.439054   5.714065   6.837796   6.885256
    16  H    2.699754   2.723103   4.025970   4.944553   4.857201
    17  H    3.671782   3.053151   3.964276   5.090443   5.420468
    18  H    5.027812   4.546697   5.601017   6.784307   7.030674
    19  H    3.413974   2.136034   2.604087   3.989553   4.745048
    20  H    1.089730   2.164792   3.387351   3.809365   3.255645
    21  H    3.261741   3.827863   3.390933   2.163565   1.090224
    22  H    3.807992   3.401129   2.165113   1.088195   2.156749
    23  H    3.387713   2.164943   1.091097   2.157164   3.388907
    24  C    3.871255   3.072089   3.587923   4.649595   5.154652
    25  H    2.889026   2.702827   3.879790   4.841086   4.870443
    26  H    4.024776   4.530214   5.668070   6.233981   5.800992
    27  H    3.297753   3.995057   5.303622   5.887118   5.358050
    28  H    2.555926   3.933826   4.611374   4.245035   3.001786
    29  O    3.222630   4.613498   5.444874   5.186527   3.973354
    30  H    4.039150   5.433059   6.162545   5.749941   4.444380
    31  O    3.390871   4.407097   5.696077   6.082949   5.320031
    32  H    3.226188   4.452418   5.611562   5.771193   4.828053
    33  H    4.315518   5.308734   6.610411   6.999722   6.206330
    34  H    4.659731   4.052821   4.636812   5.614633   6.004516
    35  H    3.409134   2.747806   3.053886   3.880773   4.330532
    36  H    4.509645   3.440270   3.666011   4.833448   5.594620
                    6          7          8          9         10
     6  N    0.000000
     7  C    3.773091   0.000000
     8  C    4.399124   1.533101   0.000000
     9  C    5.662495   2.450059   1.547867   0.000000
    10  C    5.718804   2.374360   2.454677   1.535322   0.000000
    11  N    4.405922   1.511394   2.370499   2.397601   1.495271
    12  O    4.400773   3.587089   3.679006   3.601739   3.263211
    13  H    6.362242   2.757813   3.046492   2.199955   1.096573
    14  H    6.555186   3.149544   2.206622   1.094090   2.171275
    15  H    5.935363   3.251812   2.188392   1.094087   2.177052
    16  H    3.917063   2.172453   1.095459   2.188359   3.133934
    17  H    4.844019   2.167697   1.093822   2.217565   3.279366
    18  H    6.278995   3.316582   3.337955   2.223226   1.093640
    19  H    4.539863   1.099246   2.168876   2.851107   2.635109
    20  H    2.054958   2.749575   2.878066   3.927252   4.182979
    21  H    2.066996   5.332751   6.172809   7.503553   7.442219
    22  H    3.370792   4.693455   5.850857   7.122529   6.881207
    23  H    3.875288   2.758738   4.051281   5.108095   4.790849
    24  C    4.847002   2.520650   3.745669   3.751802   2.498547
    25  H    4.060245   2.103230   2.637969   2.695138   2.050472
    26  H    4.762840   4.376882   4.614723   4.501923   3.988753
    27  H    4.146543   3.851492   3.679786   3.809259   3.847428
    28  H    1.876884   5.004093   5.241189   6.325179   6.520377
    29  O    2.797857   5.494932   5.548328   6.482001   6.734288
    30  H    3.416761   6.381822   6.394963   7.369115   7.678547
    31  O    3.992405   4.514891   4.004970   4.486912   4.997441
    32  H    3.495985   4.873452   4.563188   5.250357   5.676091
    33  H    4.874745   5.314847   4.613592   4.942498   5.583958
    34  H    5.604908   3.446684   4.460922   4.151946   2.721727
    35  H    4.152122   2.780228   4.159563   4.491420   3.427838
    36  H    5.477204   2.757111   4.022736   4.003730   2.764378
                   11         12         13         14         15
    11  N    0.000000
    12  O    2.700192   0.000000
    13  H    2.099796   4.286032   0.000000
    14  H    3.261268   4.675308   2.365748   0.000000
    15  H    3.005743   3.302062   3.030305   1.766525   0.000000
    16  H    2.856349   3.290961   3.931811   2.981368   2.324906
    17  H    3.303426   4.755228   3.619142   2.392956   2.898949
    18  H    2.115735   3.019732   1.785765   2.841393   2.392224
    19  H    2.083316   4.558649   2.558755   3.220762   3.847002
    20  H    3.154793   2.747261   5.032934   4.905210   3.997714
    21  H    6.043330   6.309943   7.918240   8.317095   7.900004
    22  H    5.560036   6.855500   7.013941   7.728448   7.826996
    23  H    3.713632   5.778383   4.717226   5.556137   5.995176
    24  C    1.476798   3.493324   2.611197   4.466707   4.391490
    25  H    1.052355   1.665372   2.932234   3.726579   2.932984
    26  H    3.370826   0.959927   4.947939   5.558984   4.183733
    27  H    3.309576   0.988432   4.914524   4.876553   3.364993
    28  H    5.361508   4.328890   7.366613   7.300997   6.272347
    29  O    5.700465   4.211999   7.666002   7.480058   6.262327
    30  H    6.649418   5.133114   8.609303   8.343889   7.121912
    31  O    4.482505   2.650899   6.053174   5.453991   3.956172
    32  H    4.945156   3.166088   6.697819   6.234078   4.834674
    33  H    5.257492   3.300318   6.656687   5.830794   4.243344
    34  H    2.102410   3.438832   2.868402   4.868364   4.618488
    35  H    2.105763   3.629337   3.640417   5.287627   5.083208
    36  H    2.108604   4.508256   2.427487   4.486429   4.825130
                   16         17         18         19         20
    16  H    0.000000
    17  H    1.764600   0.000000
    18  H    3.799356   4.237111   0.000000
    19  H    3.059450   2.399615   3.677156   0.000000
    20  H    2.169459   3.590627   4.646189   3.799131   0.000000
    21  H    5.835665   6.442069   8.057662   5.822869   4.117768
    22  H    5.965548   5.938617   7.672439   4.698485   4.896144
    23  H    4.562256   4.115472   5.703543   2.370895   4.309459
    24  C    4.261598   4.555656   2.845190   2.664284   4.106282
    25  H    2.712699   3.697547   2.275464   2.963135   2.589850
    26  H    4.225061   5.692507   3.587526   5.310251   3.380257
    27  H    3.017732   4.681368   3.724591   4.908638   2.363154
    28  H    4.433653   5.795942   6.859041   5.957734   2.417418
    29  O    4.635827   6.165673   6.949955   6.517339   2.767463
    30  H    5.451875   6.939609   7.896708   7.384159   3.659774
    31  O    3.007880   4.762182   5.068590   5.603008   2.318765
    32  H    3.558040   5.263987   5.802066   5.962097   2.289973
    33  H    3.599494   5.303006   5.568551   6.382873   3.244430
    34  H    4.906472   5.356768   2.634772   3.651130   4.729307
    35  H    4.505475   4.943682   3.785403   3.037425   3.832458
    36  H    4.749348   4.633884   3.284261   2.438427   4.871647
                   21         22         23         24         25
    21  H    0.000000
    22  H    2.498028   0.000000
    23  H    4.304716   2.504243   0.000000
    24  C    6.130124   5.360418   3.604845   0.000000
    25  H    5.856924   5.815561   4.333381   2.058963   0.000000
    26  H    6.539944   7.222240   6.334907   3.841459   2.364837
    27  H    6.136914   6.953976   6.058480   4.275744   2.303086
    28  H    3.221119   5.150230   5.696828   5.969070   4.688110
    29  O    4.178760   6.114505   6.514821   6.397300   4.900952
    30  H    4.437628   6.599294   7.247214   7.330118   5.859623
    31  O    5.971912   7.160571   6.571990   5.600510   3.612574
    32  H    5.340904   6.815890   6.580761   5.924243   4.074464
    33  H    6.811132   8.074043   7.469496   6.426995   4.393810
    34  H    6.929579   6.320207   4.681234   1.094124   2.379928
    35  H    5.235228   4.562454   3.239839   1.093835   2.383968
    36  H    6.581314   5.395569   3.351123   1.095430   2.968072
                   26         27         28         29         30
    26  H    0.000000
    27  H    1.559292   0.000000
    28  H    4.519814   3.766364   0.000000
    29  O    4.326353   3.514522   0.979930   0.000000
    30  H    5.198565   4.402891   1.561778   0.959126   0.000000
    31  O    3.128368   1.673190   3.137071   2.674474   3.405353
    32  H    3.481347   2.254033   2.294192   1.712296   2.421387
    33  H    3.708257   2.329061   3.844448   3.224485   3.775284
    34  H    3.587437   4.359078   6.501276   6.810578   7.748488
    35  H    3.855164   4.323304   5.353582   5.869852   6.762060
    36  H    4.913242   5.255682   6.793635   7.296432   8.217038
                   31         32         33         34         35
    31  O    0.000000
    32  H    0.985384   0.000000
    33  H    0.959709   1.563703   0.000000
    34  H    5.873072   6.251495   6.632693   0.000000
    35  H    5.542164   5.683761   6.437901   1.789751   0.000000
    36  H    6.498421   6.840629   7.317636   1.791345   1.794644
                   36
    36  H    0.000000
 Stoichiometry    C10H21N2O3(1+)
 Framework group  C1[X(C10H21N2O3)]
 Deg. of freedom   102
 Full point group                 C1      NOp   1
 Largest Abelian subgroup         C1      NOp   1
 Largest concise Abelian subgroup C1      NOp   1
                         Standard orientation:                         
 ---------------------------------------------------------------------
 Center     Atomic      Atomic             Coordinates (Angstroms)
 Number     Number       Type             X           Y           Z
 ---------------------------------------------------------------------
      1          6           0        1.219251   -0.182655   -0.260004
      2          6           0        0.309587   -1.234086   -0.377687
      3          6           0        0.807235   -2.533738   -0.269963
      4          6           0        2.167361   -2.723953   -0.049549
      5          6           0        2.986402   -1.602939    0.065073
      6          7           0        2.523088   -0.353508   -0.036976
      7          6           0       -1.156549   -0.969146   -0.600427
      8          6           0       -1.538407    0.052820   -1.677538
      9          6           0       -2.924956    0.595388   -1.254460
     10          6           0       -3.180383    0.022439    0.146861
     11          7           0       -1.831829   -0.407033    0.629344
     12          8           0       -0.906594    2.020284    1.366305
     13          1           0       -3.816088   -0.870737    0.122553
     14          1           0       -3.717221    0.282127   -1.940913
     15          1           0       -2.920634    1.689179   -1.229389
     16          1           0       -0.801904    0.862980   -1.712674
     17          1           0       -1.547528   -0.424287   -2.661780
     18          1           0       -3.594422    0.740185    0.860625
     19          1           0       -1.669810   -1.922308   -0.791183
     20          1           0        0.888951    0.851597   -0.353471
     21          1           0        4.056529   -1.710887    0.243295
     22          1           0        2.591125   -3.722902    0.032264
     23          1           0        0.140707   -3.392392   -0.364536
     24          6           0       -1.860466   -1.312777    1.795423
     25          1           0       -1.335257    0.474568    0.918563
     26          1           0       -0.688080    2.316705    2.252785
     27          1           0       -0.337289    2.543386    0.750469
     28          1           0        3.194771    1.390844    0.132651
     29          8           0        3.133041    2.364508    0.224466
     30          1           0        4.007198    2.722619    0.058547
     31          8           0        0.666596    3.158105   -0.438606
     32          1           0        1.624233    3.018007   -0.253440
     33          1           0        0.573081    4.053485   -0.771159
     34          1           0       -2.393857   -0.818623    2.612989
     35          1           0       -0.834049   -1.532778    2.102901
     36          1           0       -2.378063   -2.238276    1.520628
 ---------------------------------------------------------------------
 Rotational constants (GHZ):           0.6016235           0.4534499           0.3156187
 Standard basis: Aug-CC-pVDZ (5D, 7F)
 There are   564 symmetry adapted cartesian basis functions of A   symmetry.
 There are   534 symmetry adapted basis functions of A   symmetry.
   534 basis functions,   876 primitive gaussians,   564 cartesian basis functions
    59 alpha electrons       59 beta electrons
       nuclear repulsion energy      1109.9373715368 Hartrees.
 NAtoms=   36 NActive=   36 NUniq=   36 SFac= 1.00D+00 NAtFMM=   60 NAOKFM=F Big=F
 Integral buffers will be    131072 words long.
 Raffenetti 2 integral format.
 Two-electron integral symmetry is turned on.
 Nuclear repulsion after empirical dispersion term =     1109.9080917131 Hartrees.
 One-electron integrals computed using PRISM.
 NBasis=   534 RedAO= T EigKep=  1.88D-06  NBF=   534
 NBsUse=   534 1.00D-06 EigRej= -1.00D+00 NBFU=   534
 ExpMin= 2.97D-02 ExpMax= 1.17D+04 ExpMxC= 4.01D+02 IAcc=3 IRadAn=         5 AccDes= 0.00D+00
 Harris functional with IExCor= 4639 and IRadAn=       5 diagonalized for initial guess.
 HarFok:  IExCor= 4639 AccDes= 0.00D+00 IRadAn=         5 IDoV= 1 UseB2=F ITyADJ=14
 ICtDFT=  3500011 ScaDFX=  1.000000  1.000000  1.000000  1.000000
 FoFCou: FMM=F IPFlag=           0 FMFlag=      100000 FMFlg1=           0
         NFxFlg=           0 DoJE=T BraDBF=F KetDBF=T FulRan=T
         wScrn=  0.000000 ICntrl=       500 IOpCl=  0 I1Cent=   200000004 NGrid=           0
         NMat0=    1 NMatS0=      1 NMatT0=    0 NMatD0=    1 NMtDS0=    0 NMtDT0=    0
 Petite list used in FoFCou.
 Requested convergence on RMS density matrix=1.00D-08 within 128 cycles.
 Requested convergence on MAX density matrix=1.00D-06.
 Requested convergence on             energy=1.00D-06.
 No special actions if energy rises.
 SCF Done:  E(RwB97XD) =  -728.602310232     A.U. after   14 cycles
            NFock= 14  Conv=0.92D-08     -V/T= 2.0063
 DoSCS=F DFT=T ScalE2(SS,OS)=  1.000000  1.000000
 Range of M.O.s used for correlation:     1   534
 NBasis=   534 NAE=    59 NBE=    59 NFC=     0 NFV=     0
 NROrb=    534 NOA=    59 NOB=    59 NVA=   475 NVB=   475

 **** Warning!!: The largest alpha MO coefficient is  0.10667059D+03

 Symmetrizing basis deriv contribution to polar:
 IMax=3 JMax=2 DiffMx= 0.00D+00
 G2DrvN: will do    37 centers at a time, making    1 passes.
 Calling FoFCou, ICntrl=  3107 FMM=F I1Cent=   0 AccDes= 0.00D+00.
 End of G2Drv F.D. properties file   721 does not exist.
 End of G2Drv F.D. properties file   722 does not exist.
 End of G2Drv F.D. properties file   788 does not exist.
          IDoAtm=111111111111111111111111111111111111
          Differentiating once with respect to electric field.
                with respect to dipole field.
          Differentiating once with respect to nuclear coordinates.
 CalDSu exits because no D1Ps are significant.
          There are   111 degrees of freedom in the 1st order CPHF.  IDoFFX=6 NUNeed=     3.
    108 vectors produced by pass  0 Test12= 2.80D-14 1.00D-09 XBig12= 7.28D+01 3.70D+00.
 AX will form   108 AO Fock derivatives at one time.
    108 vectors produced by pass  1 Test12= 2.80D-14 1.00D-09 XBig12= 9.50D+00 5.24D-01.
    108 vectors produced by pass  2 Test12= 2.80D-14 1.00D-09 XBig12= 1.84D-01 6.97D-02.
    108 vectors produced by pass  3 Test12= 2.80D-14 1.00D-09 XBig12= 1.77D-03 4.43D-03.
    108 vectors produced by pass  4 Test12= 2.80D-14 1.00D-09 XBig12= 1.75D-05 4.07D-04.
    108 vectors produced by pass  5 Test12= 2.80D-14 1.00D-09 XBig12= 1.23D-07 2.52D-05.
    105 vectors produced by pass  6 Test12= 2.80D-14 1.00D-09 XBig12= 7.08D-10 1.89D-06.
     32 vectors produced by pass  7 Test12= 2.80D-14 1.00D-09 XBig12= 3.47D-12 1.17D-07.
      3 vectors produced by pass  8 Test12= 2.80D-14 1.00D-09 XBig12= 2.21D-14 9.69D-09.
      3 vectors produced by pass  9 Test12= 2.80D-14 1.00D-09 XBig12= 2.01D-15 3.46D-09.
      1 vectors produced by pass 10 Test12= 2.80D-14 1.00D-09 XBig12= 2.86D-16 1.10D-09.
 InvSVY:  IOpt=1 It=  1 EMax= 7.11D-15
 Solved reduced A of dimension   792 with   111 vectors.
 Isotropic polarizability for W=    0.000000      150.79 Bohr**3.
 End of Minotr F.D. properties file   721 does not exist.
 End of Minotr F.D. properties file   722 does not exist.
 End of Minotr F.D. properties file   788 does not exist.

 **********************************************************************

            Population analysis using the SCF density.

 **********************************************************************

 Orbital symmetries:
       Occupied  (A) (A) (A) (A) (A) (A) (A) (A) (A) (A) (A) (A)
                 (A) (A) (A) (A) (A) (A) (A) (A) (A) (A) (A) (A)
                 (A) (A) (A) (A) (A) (A) (A) (A) (A) (A) (A) (A)
                 (A) (A) (A) (A) (A) (A) (A) (A) (A) (A) (A) (A)
                 (A) (A) (A) (A) (A) (A) (A) (A) (A) (A) (A)
       Virtual   (A) (A) (A) (A) (A) (A) (A) (A) (A) (A) (A) (A)
                 (A) (A) (A) (A) (A) (A) (A) (A) (A) (A) (A) (A)
                 (A) (A) (A) (A) (A) (A) (A) (A) (A) (A) (A) (A)
                 (A) (A) (A) (A) (A) (A) (A) (A) (A) (A) (A) (A)
                 (A) (A) (A) (A) (A) (A) (A) (A) (A) (A) (A) (A)
                 (A) (A) (A) (A) (A) (A) (A) (A) (A) (A) (A) (A)
                 (A) (A) (A) (A) (A) (A) (A) (A) (A) (A) (A) (A)
                 (A) (A) (A) (A) (A) (A) (A) (A) (A) (A) (A) (A)
                 (A) (A) (A) (A) (A) (A) (A) (A) (A) (A) (A) (A)
                 (A) (A) (A) (A) (A) (A) (A) (A) (A) (A) (A) (A)
                 (A) (A) (A) (A) (A) (A) (A) (A) (A) (A) (A) (A)
                 (A) (A) (A) (A) (A) (A) (A) (A) (A) (A) (A) (A)
                 (A) (A) (A) (A) (A) (A) (A) (A) (A) (A) (A) (A)
                 (A) (A) (A) (A) (A) (A) (A) (A) (A) (A) (A) (A)
                 (A) (A) (A) (A) (A) (A) (A) (A) (A) (A) (A) (A)
                 (A) (A) (A) (A) (A) (A) (A) (A) (A) (A) (A) (A)
                 (A) (A) (A) (A) (A) (A) (A) (A) (A) (A) (A) (A)
                 (A) (A) (A) (A) (A) (A) (A) (A) (A) (A) (A) (A)
                 (A) (A) (A) (A) (A) (A) (A) (A) (A) (A) (A) (A)
                 (A) (A) (A) (A) (A) (A) (A) (A) (A) (A) (A) (A)
                 (A) (A) (A) (A) (A) (A) (A) (A) (A) (A) (A) (A)
                 (A) (A) (A) (A) (A) (A) (A) (A) (A) (A) (A) (A)
                 (A) (A) (A) (A) (A) (A) (A) (A) (A) (A) (A) (A)
                 (A) (A) (A) (A) (A) (A) (A) (A) (A) (A) (A) (A)
                 (A) (A) (A) (A) (A) (A) (A) (A) (A) (A) (A) (A)
                 (A) (A) (A) (A) (A) (A) (A) (A) (A) (A) (A) (A)
                 (A) (A) (A) (A) (A) (A) (A) (A) (A) (A) (A) (A)
                 (A) (A) (A) (A) (A) (A) (A) (A) (A) (A) (A) (A)
                 (A) (A) (A) (A) (A) (A) (A) (A) (A) (A) (A) (A)
                 (A) (A) (A) (A) (A) (A) (A) (A) (A) (A) (A) (A)
                 (A) (A) (A) (A) (A) (A) (A) (A) (A) (A) (A) (A)
                 (A) (A) (A) (A) (A) (A) (A) (A) (A) (A) (A) (A)
                 (A) (A) (A) (A) (A) (A) (A) (A) (A) (A) (A) (A)
                 (A) (A) (A) (A) (A) (A) (A) (A) (A) (A) (A) (A)
                 (A) (A) (A) (A) (A) (A) (A) (A) (A) (A) (A) (A)
                 (A) (A) (A) (A) (A) (A) (A) (A) (A) (A) (A) (A)
                 (A) (A) (A) (A) (A) (A) (A) (A) (A) (A) (A) (A)
                 (A) (A) (A) (A) (A) (A) (A) (A) (A) (A) (A) (A)
                 (A) (A) (A) (A) (A) (A) (A) (A) (A) (A) (A) (A)
                 (A) (A) (A) (A) (A) (A) (A)
 The electronic state is 1-A.
 Alpha  occ. eigenvalues --  -19.39938 -19.38680 -19.37349 -14.68871 -14.58580
 Alpha  occ. eigenvalues --  -10.49862 -10.48376 -10.48330 -10.46577 -10.46374
 Alpha  occ. eigenvalues --  -10.45324 -10.45255 -10.43811 -10.43630 -10.43618
 Alpha  occ. eigenvalues --   -1.25799  -1.24326  -1.22816  -1.21274  -1.18304
 Alpha  occ. eigenvalues --   -1.06559  -1.04484  -1.01403  -0.96893  -0.94567
 Alpha  occ. eigenvalues --   -0.89129  -0.85973  -0.85263  -0.83179  -0.77982
 Alpha  occ. eigenvalues --   -0.75730  -0.75358  -0.74465  -0.73470  -0.72432
 Alpha  occ. eigenvalues --   -0.71836  -0.69641  -0.69540  -0.66530  -0.65729
 Alpha  occ. eigenvalues --   -0.65294  -0.63214  -0.62903  -0.62408  -0.62270
 Alpha  occ. eigenvalues --   -0.61248  -0.60969  -0.58985  -0.58726  -0.57822
 Alpha  occ. eigenvalues --   -0.57011  -0.56574  -0.55011  -0.53531  -0.52414
 Alpha  occ. eigenvalues --   -0.50816  -0.49913  -0.47946  -0.46922
 Alpha virt. eigenvalues --   -0.09794  -0.08802  -0.06883  -0.05820  -0.05103
 Alpha virt. eigenvalues --   -0.04877  -0.03459  -0.03282  -0.03249  -0.02845
 Alpha virt. eigenvalues --   -0.02526  -0.01557  -0.01311  -0.01104  -0.00620
 Alpha virt. eigenvalues --   -0.00232   0.00393   0.00797   0.01075   0.01389
 Alpha virt. eigenvalues --    0.01644   0.02274   0.02479   0.02888   0.03092
 Alpha virt. eigenvalues --    0.03465   0.03969   0.04302   0.04528   0.04869
 Alpha virt. eigenvalues --    0.05032   0.05225   0.05634   0.05803   0.06064
 Alpha virt. eigenvalues --    0.06142   0.06339   0.06540   0.06909   0.07209
 Alpha virt. eigenvalues --    0.07303   0.07728   0.08227   0.08239   0.08659
 Alpha virt. eigenvalues --    0.08944   0.09330   0.09501   0.10087   0.10158
 Alpha virt. eigenvalues --    0.10398   0.10808   0.11214   0.11254   0.11902
 Alpha virt. eigenvalues --    0.12078   0.12435   0.12798   0.12844   0.13843
 Alpha virt. eigenvalues --    0.13921   0.14544   0.15166   0.15378   0.15461
 Alpha virt. eigenvalues --    0.15968   0.16011   0.16171   0.16519   0.16844
 Alpha virt. eigenvalues --    0.17214   0.17693   0.18051   0.18261   0.18700
 Alpha virt. eigenvalues --    0.18795   0.19118   0.19409   0.19648   0.19950
 Alpha virt. eigenvalues --    0.20412   0.20939   0.21148   0.21387   0.21798
 Alpha virt. eigenvalues --    0.21828   0.22258   0.22663   0.23030   0.23299
 Alpha virt. eigenvalues --    0.23836   0.24074   0.24528   0.24923   0.25225
 Alpha virt. eigenvalues --    0.25861   0.26136   0.26458   0.26684   0.27196
 Alpha virt. eigenvalues --    0.27475   0.28162   0.28533   0.28923   0.29336
 Alpha virt. eigenvalues --    0.29495   0.29734   0.30633   0.31093   0.31606
 Alpha virt. eigenvalues --    0.31762   0.32156   0.32387   0.32698   0.32976
 Alpha virt. eigenvalues --    0.33589   0.34149   0.34409   0.35070   0.35361
 Alpha virt. eigenvalues --    0.35463   0.36042   0.36692   0.36899   0.37300
 Alpha virt. eigenvalues --    0.37830   0.38729   0.39058   0.39442   0.39555
 Alpha virt. eigenvalues --    0.40320   0.40881   0.41477   0.41945   0.42099
 Alpha virt. eigenvalues --    0.42427   0.42954   0.43447   0.43964   0.44432
 Alpha virt. eigenvalues --    0.44849   0.45317   0.45589   0.45828   0.46733
 Alpha virt. eigenvalues --    0.47105   0.47307   0.47632   0.48319   0.48635
 Alpha virt. eigenvalues --    0.48749   0.49221   0.49655   0.49989   0.50498
 Alpha virt. eigenvalues --    0.51259   0.51544   0.51778   0.52088   0.52540
 Alpha virt. eigenvalues --    0.52934   0.53115   0.53677   0.54191   0.54736
 Alpha virt. eigenvalues --    0.55071   0.55703   0.55748   0.56078   0.56642
 Alpha virt. eigenvalues --    0.56745   0.57656   0.57963   0.58271   0.59117
 Alpha virt. eigenvalues --    0.59200   0.59499   0.59982   0.60309   0.60476
 Alpha virt. eigenvalues --    0.60774   0.61081   0.61684   0.62237   0.62623
 Alpha virt. eigenvalues --    0.62882   0.63959   0.64473   0.64884   0.65302
 Alpha virt. eigenvalues --    0.65454   0.66703   0.67114   0.67568   0.67788
 Alpha virt. eigenvalues --    0.68365   0.68667   0.68873   0.69108   0.69369
 Alpha virt. eigenvalues --    0.70198   0.70374   0.71145   0.71568   0.71776
 Alpha virt. eigenvalues --    0.72493   0.73356   0.73775   0.73901   0.74495
 Alpha virt. eigenvalues --    0.75295   0.76172   0.76888   0.77166   0.78132
 Alpha virt. eigenvalues --    0.78280   0.78927   0.79422   0.79769   0.80315
 Alpha virt. eigenvalues --    0.80635   0.81376   0.82051   0.82745   0.83296
 Alpha virt. eigenvalues --    0.85057   0.85782   0.86008   0.86522   0.86877
 Alpha virt. eigenvalues --    0.87647   0.88021   0.88930   0.90056   0.90635
 Alpha virt. eigenvalues --    0.91719   0.92148   0.92866   0.93171   0.93693
 Alpha virt. eigenvalues --    0.94431   0.95368   0.96844   0.97244   0.97780
 Alpha virt. eigenvalues --    0.98044   0.98491   0.99326   1.00156   1.00699
 Alpha virt. eigenvalues --    1.01934   1.03218   1.03562   1.04395   1.05228
 Alpha virt. eigenvalues --    1.06209   1.07329   1.09098   1.09720   1.10136
 Alpha virt. eigenvalues --    1.10691   1.11528   1.12300   1.12826   1.14135
 Alpha virt. eigenvalues --    1.15024   1.15273   1.17044   1.17883   1.18201
 Alpha virt. eigenvalues --    1.18999   1.19621   1.20224   1.21089   1.22608
 Alpha virt. eigenvalues --    1.23328   1.23934   1.25010   1.27412   1.28538
 Alpha virt. eigenvalues --    1.29210   1.31432   1.32751   1.33519   1.34089
 Alpha virt. eigenvalues --    1.34549   1.35654   1.36329   1.37153   1.38503
 Alpha virt. eigenvalues --    1.39303   1.39965   1.40206   1.41452   1.42044
 Alpha virt. eigenvalues --    1.42456   1.43190   1.44907   1.45920   1.46898
 Alpha virt. eigenvalues --    1.47603   1.48545   1.49493   1.50653   1.51147
 Alpha virt. eigenvalues --    1.52068   1.52784   1.53656   1.54738   1.55866
 Alpha virt. eigenvalues --    1.56434   1.57259   1.57552   1.58677   1.59947
 Alpha virt. eigenvalues --    1.60744   1.62658   1.63192   1.63543   1.64110
 Alpha virt. eigenvalues --    1.64349   1.65931   1.66058   1.66860   1.67454
 Alpha virt. eigenvalues --    1.69716   1.70777   1.71175   1.71262   1.72377
 Alpha virt. eigenvalues --    1.74433   1.74547   1.75140   1.75719   1.76853
 Alpha virt. eigenvalues --    1.77636   1.78666   1.79996   1.80305   1.81323
 Alpha virt. eigenvalues --    1.81948   1.83143   1.83895   1.84023   1.85296
 Alpha virt. eigenvalues --    1.85645   1.86618   1.86979   1.87666   1.89158
 Alpha virt. eigenvalues --    1.89603   1.91198   1.91579   1.92147   1.93358
 Alpha virt. eigenvalues --    1.94375   1.95434   1.95960   1.96683   1.97190
 Alpha virt. eigenvalues --    1.97391   1.97801   1.99221   1.99292   2.01103
 Alpha virt. eigenvalues --    2.03039   2.03766   2.04281   2.05373   2.06225
 Alpha virt. eigenvalues --    2.07473   2.08584   2.09538   2.10151   2.10675
 Alpha virt. eigenvalues --    2.11883   2.13295   2.13679   2.14827   2.15720
 Alpha virt. eigenvalues --    2.16691   2.18775   2.19487   2.20404   2.21690
 Alpha virt. eigenvalues --    2.22195   2.22544   2.24257   2.25414   2.25716
 Alpha virt. eigenvalues --    2.26917   2.27810   2.28406   2.30348   2.31110
 Alpha virt. eigenvalues --    2.33151   2.33409   2.33570   2.35800   2.36227
 Alpha virt. eigenvalues --    2.38573   2.39855   2.41999   2.42510   2.43730
 Alpha virt. eigenvalues --    2.44931   2.45291   2.48393   2.49493   2.49841
 Alpha virt. eigenvalues --    2.50567   2.52063   2.52919   2.54509   2.55678
 Alpha virt. eigenvalues --    2.57660   2.57987   2.58771   2.60058   2.62085
 Alpha virt. eigenvalues --    2.62804   2.63632   2.63894   2.66128   2.67672
 Alpha virt. eigenvalues --    2.68401   2.70803   2.72240   2.73177   2.73994
 Alpha virt. eigenvalues --    2.74238   2.75399   2.76109   2.78433   2.79639
 Alpha virt. eigenvalues --    2.80741   2.81729   2.82957   2.84221   2.85419
 Alpha virt. eigenvalues --    2.87707   2.88320   2.89797   2.93247   2.94436
 Alpha virt. eigenvalues --    2.99335   3.03312   3.04999   3.11442   3.13037
 Alpha virt. eigenvalues --    3.13829   3.17463   3.27524   3.30232   3.35423
 Alpha virt. eigenvalues --    3.38071   3.38822   3.39304   3.42587   3.46772
 Alpha virt. eigenvalues --    3.47322   3.49231   3.53913   3.55972   3.57335
 Alpha virt. eigenvalues --    3.67737   3.77449   3.84691   3.85688   3.87619
 Alpha virt. eigenvalues --    4.00412   4.06509   4.07796   4.29142   4.85085
          Condensed to atoms (all electrons):
               1          2          3          4          5          6
     1  C   17.526600  -4.412802  -1.160223  -0.162074  -1.557079  -0.349072
     2  C   -4.412802  23.120757  -9.352612   0.718833  -1.144426  -0.237833
     3  C   -1.160223  -9.352612  22.455331  -3.897547   1.358474  -0.414467
     4  C   -0.162074   0.718833  -3.897547  11.494225  -2.518796   0.248915
     5  C   -1.557079  -1.144426   1.358474  -2.518796  10.382420   0.222996
     6  N   -0.349072  -0.237833  -0.414467   0.248915   0.222996   7.684728
     7  C   -1.871971  -7.663992  -1.600476  -0.138240  -0.503420   0.603592
     8  C   -0.846218   0.535753   0.054189  -0.102832  -0.112981  -0.087250
     9  C    0.137496   0.217504  -0.100030  -0.033197   0.007101  -0.002122
    10  C   -0.263123  -0.200450   0.001031   0.036910  -0.054108   0.028523
    11  N   -0.765527   0.936078  -0.534136   0.066305   0.024048  -0.002890
    12  O   -0.069802  -0.023343  -0.018515  -0.002796  -0.006795   0.002766
    13  H   -0.000986   0.117444   0.004985   0.000473  -0.002430  -0.000960
    14  H    0.001015   0.010129  -0.001747  -0.002761   0.001878  -0.000719
    15  H    0.006347  -0.125543   0.002468   0.001014  -0.002258   0.000678
    16  H   -0.271535   0.082164   0.060230  -0.056748  -0.014911  -0.005629
    17  H    0.313794   0.163822  -0.038781  -0.003797   0.012494  -0.008848
    18  H    0.002220  -0.075753   0.021765   0.000780  -0.001137   0.002069
    19  H    0.026093   1.366276   0.073173  -0.018078   0.038043  -0.026777
    20  H   -1.423789  -0.262269  -0.312089   0.291886  -0.132586  -0.002060
    21  H    0.335499  -0.219857   0.237893   0.082720  -0.468676  -0.201535
    22  H   -0.069155   0.050995   0.537387  -1.182444   0.381053  -0.062826
    23  H   -0.004612   1.358257  -2.485064   0.596917  -0.197979  -0.011385
    24  C   -0.083143   0.308085  -0.222294   0.130915  -0.053421   0.013659
    25  H   -0.049440  -0.122712  -0.034207  -0.053928   0.046603  -0.014127
    26  H    0.002180   0.015060  -0.001067   0.000783  -0.000191   0.001817
    27  H   -0.036622   0.015903   0.001866   0.003752  -0.004571   0.001791
    28  H   -0.132051   0.013841   0.029570  -0.078136   0.107057   0.122317
    29  O   -0.056196  -0.041698   0.021707  -0.002846   0.027989  -0.026011
    30  H    0.020715   0.006992  -0.008352   0.009914  -0.011006  -0.010707
    31  O   -0.020495  -0.004016   0.005449   0.006060  -0.004249   0.013602
    32  H    0.001634  -0.013472   0.008343  -0.007014  -0.006834  -0.028532
    33  H    0.030481   0.002236  -0.001634   0.000456   0.000877  -0.000032
    34  H    0.029150   0.010220  -0.016657   0.015317  -0.000599  -0.000530
    35  H    0.055936   0.156311  -0.039289  -0.009487  -0.012065  -0.003873
    36  H   -0.011783  -0.013004   0.083041  -0.009526   0.000129  -0.000355
               7          8          9         10         11         12
     1  C   -1.871971  -0.846218   0.137496  -0.263123  -0.765527  -0.069802
     2  C   -7.663992   0.535753   0.217504  -0.200450   0.936078  -0.023343
     3  C   -1.600476   0.054189  -0.100030   0.001031  -0.534136  -0.018515
     4  C   -0.138240  -0.102832  -0.033197   0.036910   0.066305  -0.002796
     5  C   -0.503420  -0.112981   0.007101  -0.054108   0.024048  -0.006795
     6  N    0.603592  -0.087250  -0.002122   0.028523  -0.002890   0.002766
     7  C   24.871076  -2.505977   0.267981  -0.423198  -2.225817   0.140166
     8  C   -2.505977   9.188022  -0.975574   0.555601  -0.787289   0.023999
     9  C    0.267981  -0.975574   6.275919  -0.014904  -0.384798   0.041909
    10  C   -0.423198   0.555601  -0.014904   5.435981   0.060704  -0.009353
    11  N   -2.225817  -0.787289  -0.384798   0.060704  12.150802  -0.243222
    12  O    0.140166   0.023999   0.041909  -0.009353  -0.243222   8.000352
    13  H   -0.036213   0.037621   0.051593  -0.303825   0.097852  -0.007410
    14  H   -0.184017   0.291464  -0.265761   0.187459  -0.011516  -0.001073
    15  H    0.274368   0.152902  -0.336834   0.036749   0.064484   0.007064
    16  H   -0.493843   0.132501   0.282377   0.049727   0.018195   0.051097
    17  H    0.544150  -1.203554   0.147077  -0.167982   0.155987  -0.007121
    18  H    0.458262   0.052959   0.068717  -0.183901  -1.003937   0.042377
    19  H   -3.787126   0.777534  -0.110645   0.052295  -0.269297   0.014607
    20  H   -0.120116  -0.018690  -0.015681   0.039986  -0.160097  -0.065752
    21  H   -0.043769   0.002101   0.000609  -0.001565   0.000727  -0.000180
    22  H    0.050936   0.008535   0.000494  -0.000459  -0.000426  -0.000062
    23  H   -0.037948  -0.123611   0.002207  -0.001890   0.018836  -0.001618
    24  C   -0.396257  -0.224943  -0.001229  -0.002080   0.848924  -0.044625
    25  H   -0.032903   0.059858  -0.044285  -0.204101   0.542397  -0.036003
    26  H   -0.026977  -0.001837   0.006816   0.002534   0.017702   0.380374
    27  H   -0.002005   0.036264  -0.036758   0.019318   0.021226   0.274245
    28  H    0.035174  -0.005628  -0.000020  -0.002560   0.007267   0.000267
    29  O    0.008717  -0.001028  -0.001706   0.001255  -0.001924   0.002338
    30  H   -0.004962   0.001249  -0.000132   0.000397  -0.000419  -0.000241
    31  O   -0.009257  -0.029103   0.014167  -0.001716   0.009755  -0.064865
    32  H    0.012459   0.012348   0.001317  -0.002185   0.004566   0.005524
    33  H    0.000289  -0.004123   0.000361   0.001106   0.003514  -0.001859
    34  H    0.033422  -0.101656   0.055768   0.017687  -0.285038   0.016944
    35  H   -0.050614   0.124187  -0.049138  -0.082300   0.084925   0.009041
    36  H   -0.098637   0.043084   0.018350   0.136948  -0.362735  -0.009907
              13         14         15         16         17         18
     1  C   -0.000986   0.001015   0.006347  -0.271535   0.313794   0.002220
     2  C    0.117444   0.010129  -0.125543   0.082164   0.163822  -0.075753
     3  C    0.004985  -0.001747   0.002468   0.060230  -0.038781   0.021765
     4  C    0.000473  -0.002761   0.001014  -0.056748  -0.003797   0.000780
     5  C   -0.002430   0.001878  -0.002258  -0.014911   0.012494  -0.001137
     6  N   -0.000960  -0.000719   0.000678  -0.005629  -0.008848   0.002069
     7  C   -0.036213  -0.184017   0.274368  -0.493843   0.544150   0.458262
     8  C    0.037621   0.291464   0.152902   0.132501  -1.203554   0.052959
     9  C    0.051593  -0.265761  -0.336834   0.282377   0.147077   0.068717
    10  C   -0.303825   0.187459   0.036749   0.049727  -0.167982  -0.183901
    11  N    0.097852  -0.011516   0.064484   0.018195   0.155987  -1.003937
    12  O   -0.007410  -0.001073   0.007064   0.051097  -0.007121   0.042377
    13  H    2.402469  -0.303091   0.195391  -0.058995   0.065004  -0.644799
    14  H   -0.303091   1.996835  -0.584735   0.201644  -0.291899   0.142797
    15  H    0.195391  -0.584735   2.144743  -0.416071   0.167305  -0.312622
    16  H   -0.058995   0.201644  -0.416071   2.724227  -0.812064   0.059589
    17  H    0.065004  -0.291899   0.167305  -0.812064   2.589619  -0.037098
    18  H   -0.644799   0.142797  -0.312622   0.059589  -0.037098   2.840367
    19  H   -0.151677   0.060538  -0.055291   0.273755  -0.317567   0.104757
    20  H   -0.003927  -0.015571   0.028424  -0.417779   0.163978   0.002234
    21  H   -0.000001   0.000057   0.000004  -0.001845   0.001036  -0.000053
    22  H   -0.000408   0.000020  -0.000007   0.003177  -0.002138   0.000022
    23  H    0.001903   0.001310   0.000108  -0.023466   0.010803  -0.002388
    24  C    0.035454  -0.014474   0.022804  -0.095192   0.065771  -0.182344
    25  H   -0.049968   0.010319  -0.015712   0.091714  -0.029366   0.118560
    26  H    0.000794  -0.000742  -0.000152  -0.005797   0.000714  -0.003240
    27  H   -0.001606   0.002332   0.000582   0.007367  -0.002721   0.003458
    28  H   -0.000051   0.000165  -0.000514   0.005277  -0.002927   0.000078
    29  O    0.000056  -0.000078  -0.000213   0.001388   0.000162   0.000132
    30  H    0.000005   0.000016  -0.000039   0.000099   0.000179   0.000020
    31  O    0.000009  -0.001103   0.002938   0.023663  -0.002332   0.001052
    32  H    0.000326  -0.000751  -0.000046   0.008859  -0.002290  -0.000522
    33  H   -0.000124   0.000359  -0.000125  -0.001430   0.000973   0.000414
    34  H    0.006041  -0.003226   0.009614  -0.020845   0.003484  -0.014910
    35  H    0.007587  -0.000632  -0.003928   0.011049   0.000724   0.002479
    36  H    0.022505   0.003013  -0.001635  -0.001855   0.006370   0.027867
              19         20         21         22         23         24
     1  C    0.026093  -1.423789   0.335499  -0.069155  -0.004612  -0.083143
     2  C    1.366276  -0.262269  -0.219857   0.050995   1.358257   0.308085
     3  C    0.073173  -0.312089   0.237893   0.537387  -2.485064  -0.222294
     4  C   -0.018078   0.291886   0.082720  -1.182444   0.596917   0.130915
     5  C    0.038043  -0.132586  -0.468676   0.381053  -0.197979  -0.053421
     6  N   -0.026777  -0.002060  -0.201535  -0.062826  -0.011385   0.013659
     7  C   -3.787126  -0.120116  -0.043769   0.050936  -0.037948  -0.396257
     8  C    0.777534  -0.018690   0.002101   0.008535  -0.123611  -0.224943
     9  C   -0.110645  -0.015681   0.000609   0.000494   0.002207  -0.001229
    10  C    0.052295   0.039986  -0.001565  -0.000459  -0.001890  -0.002080
    11  N   -0.269297  -0.160097   0.000727  -0.000426   0.018836   0.848924
    12  O    0.014607  -0.065752  -0.000180  -0.000062  -0.001618  -0.044625
    13  H   -0.151677  -0.003927  -0.000001  -0.000408   0.001903   0.035454
    14  H    0.060538  -0.015571   0.000057   0.000020   0.001310  -0.014474
    15  H   -0.055291   0.028424   0.000004  -0.000007   0.000108   0.022804
    16  H    0.273755  -0.417779  -0.001845   0.003177  -0.023466  -0.095192
    17  H   -0.317567   0.163978   0.001036  -0.002138   0.010803   0.065771
    18  H    0.104757   0.002234  -0.000053   0.000022  -0.002388  -0.182344
    19  H    4.093921  -0.037298   0.000207   0.003580  -0.145204  -0.138791
    20  H   -0.037298   4.721243   0.027338  -0.024157   0.015787   0.082463
    21  H    0.000207   0.027338   1.978095  -0.114385  -0.002725   0.001351
    22  H    0.003580  -0.024157  -0.114385   2.180962  -0.149713  -0.010767
    23  H   -0.145204   0.015787  -0.002725  -0.149713   3.029041   0.062553
    24  C   -0.138791   0.082463   0.001351  -0.010767   0.062553   4.542220
    25  H    0.014474  -0.148006  -0.001278   0.004246  -0.000502  -0.226395
    26  H   -0.000847  -0.002442   0.000017   0.000043   0.000083   0.008652
    27  H    0.002667  -0.011944   0.000291  -0.000048  -0.000589   0.000630
    28  H    0.000467  -0.104124  -0.046298   0.007855  -0.002688  -0.004472
    29  O    0.000086   0.035830   0.004883  -0.000076   0.000278  -0.000397
    30  H   -0.000119   0.008504   0.002769  -0.000469   0.000106   0.000386
    31  O    0.001894  -0.038971   0.000338   0.000109   0.000168  -0.003298
    32  H    0.000662  -0.012147   0.001354   0.000368  -0.000987  -0.001944
    33  H   -0.000276  -0.020187  -0.000117  -0.000023   0.000103   0.001080
    34  H   -0.007357   0.034425   0.000509  -0.001544   0.007898   0.223218
    35  H    0.025251  -0.013941  -0.002432  -0.001429  -0.016076   0.013390
    36  H    0.057073   0.006427   0.000079   0.001315  -0.000423   0.224450
              25         26         27         28         29         30
     1  C   -0.049440   0.002180  -0.036622  -0.132051  -0.056196   0.020715
     2  C   -0.122712   0.015060   0.015903   0.013841  -0.041698   0.006992
     3  C   -0.034207  -0.001067   0.001866   0.029570   0.021707  -0.008352
     4  C   -0.053928   0.000783   0.003752  -0.078136  -0.002846   0.009914
     5  C    0.046603  -0.000191  -0.004571   0.107057   0.027989  -0.011006
     6  N   -0.014127   0.001817   0.001791   0.122317  -0.026011  -0.010707
     7  C   -0.032903  -0.026977  -0.002005   0.035174   0.008717  -0.004962
     8  C    0.059858  -0.001837   0.036264  -0.005628  -0.001028   0.001249
     9  C   -0.044285   0.006816  -0.036758  -0.000020  -0.001706  -0.000132
    10  C   -0.204101   0.002534   0.019318  -0.002560   0.001255   0.000397
    11  N    0.542397   0.017702   0.021226   0.007267  -0.001924  -0.000419
    12  O   -0.036003   0.380374   0.274245   0.000267   0.002338  -0.000241
    13  H   -0.049968   0.000794  -0.001606  -0.000051   0.000056   0.000005
    14  H    0.010319  -0.000742   0.002332   0.000165  -0.000078   0.000016
    15  H   -0.015712  -0.000152   0.000582  -0.000514  -0.000213  -0.000039
    16  H    0.091714  -0.005797   0.007367   0.005277   0.001388   0.000099
    17  H   -0.029366   0.000714  -0.002721  -0.002927   0.000162   0.000179
    18  H    0.118560  -0.003240   0.003458   0.000078   0.000132   0.000020
    19  H    0.014474  -0.000847   0.002667   0.000467   0.000086  -0.000119
    20  H   -0.148006  -0.002442  -0.011944  -0.104124   0.035830   0.008504
    21  H   -0.001278   0.000017   0.000291  -0.046298   0.004883   0.002769
    22  H    0.004246   0.000043  -0.000048   0.007855  -0.000076  -0.000469
    23  H   -0.000502   0.000083  -0.000589  -0.002688   0.000278   0.000106
    24  C   -0.226395   0.008652   0.000630  -0.004472  -0.000397   0.000386
    25  H    1.068202  -0.020379   0.008291   0.006050  -0.003426  -0.000792
    26  H   -0.020379   0.546991  -0.090779   0.000101   0.000217  -0.000020
    27  H    0.008291  -0.090779   0.519348   0.000743   0.000055  -0.000011
    28  H    0.006050   0.000101   0.000743   0.635549   0.287821  -0.127969
    29  O   -0.003426   0.000217   0.000055   0.287821   7.828861   0.353159
    30  H   -0.000792  -0.000020  -0.000011  -0.127969   0.353159   0.581494
    31  O   -0.002196  -0.000548   0.005696   0.000749  -0.045028   0.000916
    32  H    0.009254   0.000794   0.004521  -0.003293   0.008288  -0.004884
    33  H   -0.005927   0.000974  -0.004382   0.000892  -0.004054   0.000950
    34  H    0.007481  -0.002264   0.001081  -0.000949  -0.000090   0.000081
    35  H   -0.013114   0.002721  -0.002103   0.000306   0.000245  -0.000069
    36  H   -0.107591   0.002196  -0.000541   0.000034   0.000014   0.000016
              31         32         33         34         35         36
     1  C   -0.020495   0.001634   0.030481   0.029150   0.055936  -0.011783
     2  C   -0.004016  -0.013472   0.002236   0.010220   0.156311  -0.013004
     3  C    0.005449   0.008343  -0.001634  -0.016657  -0.039289   0.083041
     4  C    0.006060  -0.007014   0.000456   0.015317  -0.009487  -0.009526
     5  C   -0.004249  -0.006834   0.000877  -0.000599  -0.012065   0.000129
     6  N    0.013602  -0.028532  -0.000032  -0.000530  -0.003873  -0.000355
     7  C   -0.009257   0.012459   0.000289   0.033422  -0.050614  -0.098637
     8  C   -0.029103   0.012348  -0.004123  -0.101656   0.124187   0.043084
     9  C    0.014167   0.001317   0.000361   0.055768  -0.049138   0.018350
    10  C   -0.001716  -0.002185   0.001106   0.017687  -0.082300   0.136948
    11  N    0.009755   0.004566   0.003514  -0.285038   0.084925  -0.362735
    12  O   -0.064865   0.005524  -0.001859   0.016944   0.009041  -0.009907
    13  H    0.000009   0.000326  -0.000124   0.006041   0.007587   0.022505
    14  H   -0.001103  -0.000751   0.000359  -0.003226  -0.000632   0.003013
    15  H    0.002938  -0.000046  -0.000125   0.009614  -0.003928  -0.001635
    16  H    0.023663   0.008859  -0.001430  -0.020845   0.011049  -0.001855
    17  H   -0.002332  -0.002290   0.000973   0.003484   0.000724   0.006370
    18  H    0.001052  -0.000522   0.000414  -0.014910   0.002479   0.027867
    19  H    0.001894   0.000662  -0.000276  -0.007357   0.025251   0.057073
    20  H   -0.038971  -0.012147  -0.020187   0.034425  -0.013941   0.006427
    21  H    0.000338   0.001354  -0.000117   0.000509  -0.002432   0.000079
    22  H    0.000109   0.000368  -0.000023  -0.001544  -0.001429   0.001315
    23  H    0.000168  -0.000987   0.000103   0.007898  -0.016076  -0.000423
    24  C   -0.003298  -0.001944   0.001080   0.223218   0.013390   0.224450
    25  H   -0.002196   0.009254  -0.005927   0.007481  -0.013114  -0.107591
    26  H   -0.000548   0.000794   0.000974  -0.002264   0.002721   0.002196
    27  H    0.005696   0.004521  -0.004382   0.001081  -0.002103  -0.000541
    28  H    0.000749  -0.003293   0.000892  -0.000949   0.000306   0.000034
    29  O   -0.045028   0.008288  -0.004054  -0.000090   0.000245   0.000014
    30  H    0.000916  -0.004884   0.000950   0.000081  -0.000069   0.000016
    31  O    7.983949   0.324706   0.326112  -0.000302  -0.000874  -0.000243
    32  H    0.324706   0.517017  -0.127843  -0.000565   0.000388  -0.000373
    33  H    0.326112  -0.127843   0.609809  -0.000011   0.000039   0.000089
    34  H   -0.000302  -0.000565  -0.000011   2.051524  -0.601347  -0.349295
    35  H   -0.000874   0.000388   0.000039  -0.601347   1.922142  -0.403793
    36  H   -0.000243  -0.000373   0.000089  -0.349295  -0.403793   1.859925
 Mulliken charges:
               1
     1  C    1.128536
     2  C    0.707124
     3  C    1.282284
     4  C    0.574074
     5  C    0.199354
     6  N   -0.448911
     7  C    0.957141
     8  C    1.042124
     9  C    0.775051
    10  C    1.255491
    11  N   -1.095223
    12  O   -0.398526
    13  H   -0.481040
    14  H   -0.227453
    15  H   -0.262260
    16  H   -0.390096
    17  H   -0.482958
    18  H   -0.490272
    19  H   -0.921001
    20  H   -1.094902
    21  H   -0.573163
    22  H   -0.610560
    23  H   -0.897488
    24  C    1.120062
    25  H    0.228907
    26  H    0.165719
    27  H    0.263253
    28  H    0.250099
    29  O   -0.398709
    30  H    0.182220
    31  O   -0.492738
    32  H    0.290953
    33  H    0.191031
    34  H   -0.116679
    35  H   -0.110216
    36  H   -0.121229
 Sum of Mulliken charges =   1.00000
 Mulliken charges with hydrogens summed into heavy atoms:
               1
     1  C    0.033634
     2  C    0.707124
     3  C    0.384796
     4  C   -0.036486
     5  C   -0.373809
     6  N   -0.448911
     7  C    0.036140
     8  C    0.169069
     9  C    0.285338
    10  C    0.284179
    11  N   -0.866316
    12  O    0.030446
    24  C    0.771939
    29  O    0.033611
    31  O   -0.010754
 APT charges:
               1
     1  C    0.122142
     2  C   -0.129967
     3  C    0.105222
     4  C   -0.140233
     5  C    0.204353
     6  N   -0.436741
     7  C    0.378887
     8  C    0.015272
     9  C    0.059705
    10  C    0.251966
    11  N   -0.500436
    12  O   -0.742046
    13  H    0.007640
    14  H    0.007718
    15  H    0.006364
    16  H    0.023839
    17  H    0.020072
    18  H    0.023024
    19  H   -0.017287
    20  H    0.090723
    21  H    0.055228
    22  H    0.067685
    23  H    0.057574
    24  C    0.198891
    25  H    0.404783
    26  H    0.269397
    27  H    0.475192
    28  H    0.468609
    29  O   -0.728522
    30  H    0.279034
    31  O   -0.732137
    32  H    0.450128
    33  H    0.273153
    34  H    0.038294
    35  H    0.038410
    36  H    0.034067
 Sum of APT charges =   1.00000
 APT charges with hydrogens summed into heavy atoms:
               1
     1  C    0.212865
     2  C   -0.129967
     3  C    0.162796
     4  C   -0.072548
     5  C    0.259581
     6  N   -0.436741
     7  C    0.361599
     8  C    0.059182
     9  C    0.073787
    10  C    0.282630
    11  N   -0.095653
    12  O    0.002542
    24  C    0.309662
    29  O    0.019121
    31  O   -0.008855
 Electronic spatial extent (au):  <R**2>=           3768.7429
 Charge=              1.0000 electrons
 Dipole moment (field-independent basis, Debye):
    X=             -3.0542    Y=             -1.3935    Z=              1.1566  Tot=              3.5507
 Quadrupole moment (field-independent basis, Debye-Ang):
   XX=            -52.7259   YY=            -59.1237   ZZ=            -81.0448
   XY=              3.8466   XZ=             -2.4648   YZ=             -2.2420
 Traceless Quadrupole moment (field-independent basis, Debye-Ang):
   XX=             11.5722   YY=              5.1744   ZZ=            -16.7466
   XY=              3.8466   XZ=             -2.4648   YZ=             -2.2420
 Octapole moment (field-independent basis, Debye-Ang**2):
  XXX=             36.4872  YYY=             67.4391  ZZZ=             25.8147  XYY=             38.5676
  XXY=             10.1975  XXZ=              2.2757  XZZ=            -25.3980  YZZ=             19.8207
  YYZ=             -2.6360  XYZ=             -3.2900
 Hexadecapole moment (field-independent basis, Debye-Ang**3):
 XXXX=          -1880.7144 YYYY=          -1218.2539 ZZZZ=           -489.7085 XXXY=            127.0327
 XXXZ=             -4.8838 YYYX=             82.7842 YYYZ=            -44.3850 ZZZX=            -22.3340
 ZZZY=             29.3735 XXYY=           -520.5629 XXZZ=           -488.9866 YYZZ=           -351.0303
 XXYZ=            -30.0757 YYXZ=            -22.4140 ZZXY=             17.5711
 N-N= 1.109908091713D+03 E-N=-3.902935951291D+03  KE= 7.240548177682D+02
  Exact polarizability: 175.376  -7.488 158.150   4.173  -3.795 118.857
 Approx polarizability: 180.146  -1.986 176.507   5.708  -2.282 136.007
 Calling FoFJK, ICntrl=    100127 FMM=F ISym2X=0 I1Cent= 0 IOpClX= 0 NMat=1 NMatS=1 NMatT=0.
 Full mass-weighted force constant matrix:
 Low frequencies ---   -6.7268    0.0010    0.0011    0.0015    5.1230    9.3856
 Low frequencies ---   29.0816   35.4053   47.8551
 Diagonal vibrational polarizability:
      103.2172751      91.8948946     145.2599075
 Harmonic frequencies (cm**-1), IR intensities (KM/Mole), Raman scattering
 activities (A**4/AMU), depolarization ratios for plane and unpolarized
 incident light, reduced masses (AMU), force constants (mDyne/A),
 and normal coordinates:
                      1                      2                      3
                      A                      A                      A
 Frequencies --     28.9626                35.4028                47.8212
 Red. masses --      3.2580                 3.6971                 2.7920
 Frc consts  --      0.0016                 0.0027                 0.0038
 IR Inten    --      0.0409                 1.6710                 0.4346
  Atom  AN      X      Y      Z        X      Y      Z        X      Y      Z
     1   6    -0.00   0.01   0.01    -0.00   0.03  -0.08     0.05  -0.00   0.10
     2   6    -0.01   0.01  -0.01    -0.01   0.03  -0.01     0.02   0.03   0.02
     3   6    -0.00   0.01  -0.06    -0.02   0.04   0.09    -0.01   0.01  -0.05
     4   6    -0.00  -0.00  -0.09    -0.03   0.04   0.12    -0.02  -0.04  -0.04
     5   6     0.00  -0.01  -0.06    -0.02   0.04   0.05     0.01  -0.06   0.05
     6   7    -0.00  -0.00  -0.01    -0.00   0.03  -0.06     0.04  -0.05   0.11
     7   6    -0.01   0.01   0.02    -0.01   0.02  -0.03     0.04   0.08  -0.01
     8   6    -0.04   0.00   0.03    -0.02   0.03  -0.01     0.09   0.19   0.09
     9   6    -0.13  -0.19  -0.04    -0.11  -0.14  -0.08    -0.04  -0.06  -0.03
    10   6    -0.03  -0.04   0.05    -0.05  -0.04  -0.03     0.00   0.01   0.02
    11   7     0.01   0.02   0.02    -0.04  -0.01  -0.03     0.00  -0.00   0.01
    12   8    -0.07   0.10  -0.12     0.03  -0.07   0.06    -0.01   0.01   0.02
    13   1    -0.02  -0.04   0.19    -0.05  -0.05   0.05    -0.03   0.03   0.08
    14   1    -0.07  -0.45   0.01    -0.04  -0.33  -0.07     0.07  -0.31  -0.04
    15   1    -0.35  -0.19  -0.22    -0.28  -0.13  -0.20    -0.29  -0.06  -0.15
    16   1    -0.13   0.09   0.14    -0.10   0.10   0.09    -0.00   0.29   0.36
    17   1     0.10   0.06   0.01     0.10   0.08  -0.04     0.31   0.36   0.01
    18   1     0.02   0.04  -0.01    -0.03   0.00  -0.06     0.05   0.06  -0.00
    19   1    -0.01   0.01   0.03     0.01   0.01  -0.05     0.02   0.11  -0.12
    20   1    -0.00   0.01   0.05     0.02   0.03  -0.17     0.07   0.01   0.16
    21   1     0.00  -0.01  -0.08    -0.02   0.04   0.07     0.00  -0.10   0.06
    22   1     0.00  -0.01  -0.13    -0.04   0.04   0.21    -0.05  -0.05  -0.09
    23   1    -0.01   0.01  -0.08    -0.03   0.04   0.15    -0.03   0.03  -0.12
    24   6     0.07   0.07   0.05    -0.02  -0.02  -0.04    -0.01  -0.07  -0.04
    25   1    -0.02   0.05  -0.03    -0.05  -0.01  -0.02    -0.01  -0.02   0.06
    26   1    -0.18   0.17  -0.12    -0.03  -0.11   0.09     0.00   0.04   0.01
    27   1    -0.00   0.07  -0.09     0.08  -0.05   0.12    -0.04  -0.00  -0.01
    28   1     0.03  -0.03   0.11     0.08  -0.00  -0.14     0.02  -0.01  -0.01
    29   8     0.05  -0.04   0.18     0.16   0.00  -0.16    -0.04   0.00  -0.13
    30   1     0.07  -0.05   0.24     0.14  -0.05  -0.40    -0.04   0.02  -0.05
    31   8     0.12   0.02  -0.00     0.08   0.05   0.20    -0.07  -0.03  -0.08
    32   1     0.10   0.00   0.07     0.10   0.02   0.10    -0.07  -0.02  -0.11
    33   1     0.17   0.00  -0.05     0.07   0.09   0.29    -0.09  -0.05  -0.11
    34   1     0.07   0.07   0.05    -0.06  -0.04  -0.04    -0.05  -0.13  -0.03
    35   1     0.09   0.13   0.04    -0.02   0.02  -0.02    -0.01  -0.06  -0.02
    36   1     0.11   0.03   0.10     0.02  -0.04  -0.05     0.02  -0.07  -0.10
                      4                      5                      6
                      A                      A                      A
 Frequencies --     55.6826                59.0009                85.2964
 Red. masses --      3.3637                 3.9411                 5.1415
 Frc consts  --      0.0061                 0.0081                 0.0220
 IR Inten    --      2.2651                 0.4839                 4.6172
  Atom  AN      X      Y      Z        X      Y      Z        X      Y      Z
     1   6     0.01  -0.00  -0.07    -0.02  -0.04   0.15    -0.11   0.04   0.16
     2   6    -0.00  -0.00  -0.02     0.00  -0.05   0.06    -0.05   0.00  -0.00
     3   6    -0.02  -0.00   0.03     0.04  -0.05  -0.08     0.02   0.02  -0.15
     4   6    -0.02  -0.00   0.04     0.05  -0.04  -0.16     0.02   0.07  -0.10
     5   6    -0.01  -0.00  -0.01     0.03  -0.03  -0.08    -0.05   0.10   0.10
     6   7     0.00  -0.00  -0.06    -0.01  -0.03   0.08    -0.12   0.09   0.22
     7   6    -0.00   0.01  -0.02     0.00  -0.05   0.06    -0.06  -0.04  -0.01
     8   6    -0.00  -0.01  -0.03     0.05  -0.14  -0.04    -0.08  -0.06  -0.02
     9   6    -0.05  -0.10  -0.09     0.05  -0.07  -0.12    -0.05  -0.02   0.02
    10   6     0.02   0.08  -0.00     0.02   0.07  -0.07    -0.05  -0.03   0.01
    11   7     0.02   0.05  -0.03    -0.00   0.07  -0.01    -0.05  -0.04  -0.00
    12   8     0.22  -0.08   0.14    -0.04   0.04   0.10     0.24  -0.10  -0.05
    13   1    -0.04   0.12   0.15    -0.01   0.10   0.02    -0.05  -0.03   0.01
    14   1    -0.02  -0.31  -0.04     0.06  -0.13  -0.10    -0.08   0.02   0.03
    15   1    -0.18  -0.10  -0.28     0.07  -0.07  -0.24    -0.01  -0.02   0.04
    16   1    -0.05   0.03   0.02     0.07  -0.16  -0.10    -0.06  -0.08  -0.07
    17   1     0.08   0.00  -0.04     0.06  -0.23  -0.00    -0.13  -0.09  -0.00
    18   1     0.11   0.18  -0.06     0.04   0.16  -0.14    -0.04  -0.04   0.02
    19   1    -0.02   0.01   0.01    -0.01  -0.06   0.13    -0.04  -0.06   0.01
    20   1     0.01  -0.01  -0.12    -0.05  -0.04   0.27    -0.16   0.03   0.24
    21   1    -0.01  -0.00   0.00     0.04  -0.02  -0.14    -0.06   0.14   0.17
    22   1    -0.02  -0.00   0.09     0.08  -0.03  -0.28     0.08   0.08  -0.21
    23   1    -0.02   0.00   0.08     0.05  -0.05  -0.15     0.08  -0.01  -0.29
    24   6     0.02   0.08  -0.00    -0.05   0.16   0.06    -0.04  -0.05  -0.01
    25   1     0.06   0.03  -0.03     0.01   0.08  -0.04    -0.02  -0.06  -0.01
    26   1     0.49  -0.25   0.13    -0.01  -0.02   0.12     0.32  -0.14  -0.05
    27   1     0.09  -0.03   0.07    -0.04   0.07   0.13     0.17  -0.07  -0.08
    28   1    -0.07   0.02   0.05    -0.02  -0.01  -0.04    -0.02   0.06   0.12
    29   8    -0.13   0.01   0.12    -0.02  -0.01  -0.12     0.11   0.08  -0.01
    30   1    -0.12   0.06   0.28    -0.02  -0.02  -0.16     0.11  -0.05  -0.28
    31   8    -0.08  -0.01  -0.07    -0.06   0.08   0.14     0.12   0.00  -0.12
    32   1    -0.08   0.02  -0.04    -0.05   0.03   0.05     0.12   0.02  -0.11
    33   1    -0.10   0.00  -0.05    -0.05   0.10   0.18     0.09   0.03  -0.04
    34   1     0.04   0.12  -0.01    -0.03   0.25   0.02    -0.02  -0.05   0.00
    35   1     0.01   0.07  -0.01    -0.06   0.14   0.09    -0.04  -0.07  -0.03
    36   1    -0.01   0.09   0.03    -0.09   0.17   0.14    -0.06  -0.04  -0.01
                      7                      8                      9
                      A                      A                      A
 Frequencies --     92.6641               104.0456               139.6274
 Red. masses --      4.8593                 4.1932                 2.2055
 Frc consts  --      0.0246                 0.0267                 0.0253
 IR Inten    --      4.9569                 3.7245                 1.0692
  Atom  AN      X      Y      Z        X      Y      Z        X      Y      Z
     1   6     0.01  -0.05  -0.02     0.02  -0.00   0.04    -0.04  -0.02  -0.03
     2   6     0.00  -0.04  -0.08     0.00  -0.00   0.13    -0.01  -0.05  -0.03
     3   6    -0.03  -0.04  -0.05     0.00  -0.00   0.11     0.02  -0.04  -0.00
     4   6    -0.05  -0.07   0.06     0.03  -0.01  -0.03     0.03   0.01   0.02
     5   6    -0.04  -0.08   0.14     0.05  -0.01  -0.16    -0.00   0.03   0.02
     6   7    -0.01  -0.08   0.09     0.04  -0.01  -0.11    -0.04   0.02  -0.01
     7   6     0.01  -0.01  -0.06     0.00  -0.01   0.09    -0.01  -0.05  -0.01
     8   6    -0.04  -0.00  -0.03     0.08   0.02   0.09     0.01  -0.03   0.01
     9   6    -0.02   0.00   0.05     0.04  -0.00  -0.01     0.02  -0.02  -0.01
    10   6     0.04  -0.04   0.05    -0.06  -0.02  -0.04     0.09   0.20   0.10
    11   7     0.07  -0.02  -0.03    -0.10  -0.04   0.06     0.05  -0.03   0.02
    12   8     0.06   0.01  -0.12     0.11  -0.06  -0.13    -0.05   0.02  -0.04
    13   1     0.06  -0.05   0.05    -0.06  -0.02  -0.10    -0.11   0.34   0.29
    14   1    -0.06   0.04   0.08     0.10  -0.01  -0.08     0.00  -0.17   0.08
    15   1     0.00   0.00   0.09     0.03  -0.00  -0.00    -0.03  -0.01  -0.20
    16   1    -0.04  -0.01  -0.07     0.07   0.03   0.17     0.02  -0.04   0.04
    17   1    -0.11   0.01  -0.04     0.17   0.05   0.08     0.02  -0.01  -0.01
    18   1     0.06  -0.06   0.08    -0.11  -0.03  -0.06     0.34   0.38   0.07
    19   1    -0.01  -0.01  -0.05     0.02  -0.01   0.03    -0.04  -0.04  -0.00
    20   1     0.04  -0.04  -0.04     0.02  -0.00   0.08    -0.06  -0.03  -0.05
    21   1    -0.06  -0.10   0.25     0.07  -0.02  -0.31    -0.01   0.07   0.04
    22   1    -0.08  -0.08   0.10     0.03  -0.01  -0.07     0.06   0.02   0.04
    23   1    -0.04  -0.03  -0.10    -0.01   0.00   0.18     0.05  -0.06   0.00
    24   6     0.17  -0.00  -0.01    -0.22  -0.09   0.02    -0.07  -0.12  -0.05
    25   1     0.08  -0.00  -0.07    -0.09  -0.06   0.09     0.15  -0.10   0.06
    26   1     0.05  -0.03  -0.11     0.10  -0.02  -0.14    -0.12   0.09  -0.04
    27   1    -0.00   0.10  -0.10     0.05  -0.01  -0.14    -0.03   0.01  -0.03
    28   1    -0.09  -0.04   0.03    -0.00   0.01  -0.06    -0.03   0.03   0.00
    29   8    -0.12  -0.04  -0.05    -0.04   0.00   0.02     0.01   0.03   0.02
    30   1    -0.09  -0.04   0.12    -0.01   0.03   0.23    -0.01   0.00  -0.17
    31   8    -0.04   0.35   0.06     0.03   0.21  -0.03     0.01   0.02   0.01
    32   1    -0.06   0.19   0.02     0.02   0.13  -0.02     0.00   0.01   0.02
    33   1     0.05   0.45   0.30     0.08   0.27   0.12     0.02   0.02   0.03
    34   1     0.20  -0.01   0.01    -0.28  -0.12  -0.01     0.05  -0.09   0.01
    35   1     0.19   0.03  -0.07    -0.25  -0.13   0.10    -0.10  -0.33  -0.10
    36   1     0.18  -0.02   0.03    -0.21  -0.07  -0.07    -0.25   0.00  -0.11
                     10                     11                     12
                      A                      A                      A
 Frequencies --    171.6766               185.0358               199.6909
 Red. masses --      1.9057                 2.1247                 3.9210
 Frc consts  --      0.0331                 0.0429                 0.0921
 IR Inten    --     36.2675                16.6806                38.6316
  Atom  AN      X      Y      Z        X      Y      Z        X      Y      Z
     1   6    -0.01   0.04   0.01     0.02  -0.02  -0.00     0.01   0.01  -0.00
     2   6     0.01   0.03  -0.00    -0.00  -0.01  -0.01     0.01   0.02   0.00
     3   6     0.03   0.04  -0.01    -0.04  -0.02  -0.01     0.01   0.01   0.01
     4   6     0.03   0.06   0.01    -0.05  -0.05  -0.00     0.01   0.00   0.01
     5   6     0.01   0.07   0.02    -0.02  -0.07  -0.00     0.01  -0.00  -0.00
     6   7    -0.01   0.05   0.02     0.02  -0.05   0.00     0.01  -0.00  -0.01
     7   6    -0.00  -0.00  -0.00    -0.00  -0.01  -0.00     0.01   0.00   0.00
     8   6    -0.02  -0.02  -0.01    -0.03  -0.05  -0.02    -0.04  -0.06  -0.04
     9   6    -0.01  -0.01   0.00    -0.01  -0.02  -0.00    -0.02  -0.04  -0.01
    10   6     0.00   0.02   0.01    -0.00  -0.01   0.00    -0.02  -0.06  -0.02
    11   7     0.00  -0.00   0.00    -0.00  -0.01   0.00    -0.01  -0.02   0.01
    12   8     0.00   0.01   0.01    -0.00   0.04   0.06    -0.02   0.25   0.22
    13   1    -0.02   0.03   0.04    -0.00  -0.01   0.01     0.03  -0.10  -0.04
    14   1    -0.03  -0.01   0.02    -0.03   0.00   0.01    -0.04  -0.01   0.00
    15   1    -0.01  -0.01  -0.02     0.01  -0.02  -0.00     0.00  -0.04   0.02
    16   1    -0.02  -0.03  -0.05    -0.02  -0.05  -0.08    -0.04  -0.06  -0.14
    17   1    -0.05  -0.05  -0.00    -0.07  -0.09  -0.00    -0.09  -0.13  -0.00
    18   1     0.03   0.04   0.01    -0.00  -0.00   0.00    -0.07  -0.09  -0.02
    19   1     0.02  -0.01   0.01     0.00  -0.02   0.02     0.03  -0.01   0.04
    20   1    -0.02   0.04   0.02     0.04  -0.02   0.00     0.02   0.02   0.00
    21   1     0.01   0.09   0.03    -0.02  -0.11  -0.00     0.01  -0.00  -0.01
    22   1     0.04   0.06   0.01    -0.07  -0.06   0.00    -0.00  -0.00   0.01
    23   1     0.05   0.03  -0.02    -0.06  -0.00  -0.01     0.00   0.02   0.01
    24   6    -0.02  -0.03  -0.02    -0.02  -0.04  -0.02    -0.04  -0.14  -0.08
    25   1     0.01  -0.01   0.02    -0.00  -0.02   0.02    -0.03  -0.03   0.07
    26   1    -0.03   0.03   0.01    -0.06   0.09   0.06     0.28   0.13   0.19
    27   1     0.01   0.01   0.02    -0.01   0.04   0.07    -0.07   0.19   0.14
    28   1     0.01  -0.17  -0.07     0.17   0.21  -0.01    -0.03  -0.12   0.02
    29   8    -0.05  -0.17  -0.11     0.09   0.20  -0.03     0.03  -0.11   0.05
    30   1     0.12  -0.13   0.88     0.22   0.23   0.72    -0.04  -0.16  -0.44
    31   8     0.04  -0.01   0.03     0.01   0.03  -0.01     0.02   0.12  -0.15
    32   1     0.04  -0.00  -0.02     0.03   0.17  -0.03    -0.00  -0.00  -0.10
    33   1     0.04  -0.08  -0.17    -0.09  -0.08  -0.30     0.16   0.18  -0.02
    34   1    -0.00  -0.04  -0.01    -0.02  -0.07  -0.01    -0.17  -0.28  -0.08
    35   1    -0.02  -0.06  -0.03    -0.02  -0.06  -0.02    -0.05  -0.09  -0.00
    36   1    -0.04  -0.01  -0.04    -0.02  -0.03  -0.06     0.06  -0.15  -0.24
                     13                     14                     15
                      A                      A                      A
 Frequencies --    228.0219               229.1006               239.8948
 Red. masses --      2.6544                 1.3345                 1.1508
 Frc consts  --      0.0813                 0.0413                 0.0390
 IR Inten    --     19.9269                51.3873                11.9425
  Atom  AN      X      Y      Z        X      Y      Z        X      Y      Z
     1   6     0.13   0.06   0.02     0.04   0.02   0.00    -0.03  -0.01   0.02
     2   6     0.05   0.12   0.02     0.02   0.03   0.00    -0.02  -0.02   0.02
     3   6    -0.01   0.09  -0.02     0.01   0.03  -0.01    -0.01  -0.01   0.02
     4   6    -0.03  -0.01  -0.03     0.00  -0.00  -0.00    -0.01   0.00   0.00
     5   6     0.05  -0.07   0.02     0.02  -0.02   0.01    -0.01   0.01  -0.02
     6   7     0.12  -0.04   0.04     0.04  -0.01   0.01    -0.03   0.01  -0.00
     7   6     0.03   0.07   0.03     0.01   0.01   0.01    -0.01  -0.00  -0.00
     8   6    -0.11  -0.09  -0.07    -0.03  -0.01  -0.01     0.01  -0.00  -0.00
     9   6    -0.07  -0.02   0.01    -0.02   0.00   0.01     0.02   0.01  -0.00
    10   6    -0.01   0.06   0.04    -0.01   0.01   0.02     0.02   0.04   0.02
    11   7    -0.00   0.05   0.02    -0.01   0.00   0.00     0.01   0.01  -0.00
    12   8     0.04  -0.06  -0.06    -0.10  -0.01  -0.03    -0.03   0.00  -0.02
    13   1    -0.03   0.07   0.11    -0.02   0.02   0.03    -0.02   0.06   0.05
    14   1    -0.13  -0.00   0.07    -0.03   0.00   0.02     0.01  -0.01   0.01
    15   1    -0.01  -0.02  -0.03    -0.02   0.00   0.00     0.02   0.01  -0.03
    16   1    -0.12  -0.10  -0.32    -0.03  -0.01  -0.05     0.02  -0.01  -0.01
    17   1    -0.25  -0.27   0.02    -0.06  -0.03   0.01     0.01  -0.01  -0.00
    18   1     0.04   0.10   0.02     0.01   0.02   0.02     0.07   0.07   0.01
    19   1     0.10   0.01   0.11     0.03  -0.00   0.01    -0.02   0.01  -0.00
    20   1     0.19   0.08   0.01     0.06   0.02  -0.01    -0.05  -0.01   0.04
    21   1     0.04  -0.14   0.04     0.02  -0.04   0.03    -0.01   0.02  -0.06
    22   1    -0.10  -0.05  -0.06    -0.02  -0.01  -0.01     0.01   0.01  -0.00
    23   1    -0.06   0.14  -0.04    -0.00   0.04  -0.02    -0.01  -0.02   0.04
    24   6    -0.06  -0.04  -0.04    -0.03   0.01   0.01     0.04  -0.02  -0.02
    25   1    -0.01   0.04   0.07    -0.00   0.01  -0.01     0.02   0.01  -0.01
    26   1    -0.31   0.21  -0.06     0.68  -0.57  -0.03     0.25  -0.21  -0.02
    27   1     0.06  -0.05  -0.04    -0.12  -0.07  -0.11    -0.03  -0.02  -0.04
    28   1     0.04  -0.01   0.04     0.08  -0.01  -0.01     0.00   0.01  -0.01
    29   8    -0.04  -0.01   0.01     0.05  -0.01   0.00     0.01   0.01  -0.01
    30   1    -0.11   0.05  -0.21     0.05   0.02   0.07     0.02   0.01   0.06
    31   8    -0.03  -0.05   0.03    -0.02  -0.00  -0.02     0.00  -0.01   0.01
    32   1    -0.03  -0.06   0.03    -0.02  -0.01  -0.00     0.00  -0.00   0.01
    33   1    -0.04  -0.01   0.13    -0.01   0.06   0.16    -0.01  -0.00   0.04
    34   1    -0.24  -0.17  -0.08     0.12   0.09   0.05    -0.41  -0.25  -0.17
    35   1    -0.08   0.07   0.10    -0.03  -0.14  -0.09     0.04   0.40   0.28
    36   1     0.10  -0.08  -0.19    -0.18   0.08   0.06     0.50  -0.23  -0.18
                     16                     17                     18
                      A                      A                      A
 Frequencies --    258.8133               272.8713               288.9177
 Red. masses --      2.7932                 3.9006                 1.1640
 Frc consts  --      0.1102                 0.1711                 0.0572
 IR Inten    --      3.0428                51.5059               131.5658
  Atom  AN      X      Y      Z        X      Y      Z        X      Y      Z
     1   6    -0.04   0.03   0.17    -0.00   0.02   0.02    -0.01  -0.01  -0.00
     2   6    -0.03   0.04   0.10    -0.00   0.02   0.01    -0.00  -0.01  -0.00
     3   6    -0.08   0.03   0.15     0.00   0.02   0.02    -0.00  -0.01  -0.00
     4   6    -0.06   0.01   0.02     0.00   0.02   0.00    -0.00   0.00  -0.00
     5   6    -0.02  -0.00  -0.15     0.00   0.02  -0.02    -0.01   0.00  -0.00
     6   7    -0.02   0.01   0.03    -0.00   0.01   0.00    -0.01   0.00  -0.00
     7   6    -0.00   0.03  -0.02    -0.01  -0.01  -0.01    -0.00  -0.00   0.00
     8   6    -0.00  -0.02  -0.06     0.00   0.01  -0.01     0.00   0.00   0.00
     9   6     0.01  -0.01  -0.03     0.01   0.02  -0.00     0.00  -0.00  -0.00
    10   6     0.02   0.01  -0.01     0.01   0.05   0.01    -0.00  -0.00  -0.00
    11   7     0.02   0.01  -0.04    -0.00  -0.01  -0.02     0.00   0.00   0.00
    12   8     0.01  -0.01  -0.02    -0.08  -0.20   0.06     0.00   0.04   0.01
    13   1     0.01   0.02   0.01    -0.05   0.09   0.05     0.01  -0.01  -0.01
    14   1    -0.01  -0.01  -0.01     0.00   0.00   0.01     0.00  -0.00  -0.00
    15   1     0.01  -0.01  -0.05     0.01   0.02  -0.03     0.00  -0.00  -0.00
    16   1     0.00  -0.03  -0.12     0.01   0.00   0.00     0.00   0.00   0.00
    17   1    -0.04  -0.06  -0.04    -0.00   0.02  -0.01     0.01   0.00   0.00
    18   1     0.03   0.03  -0.02     0.08   0.09   0.01    -0.01  -0.01  -0.01
    19   1     0.02   0.02  -0.02     0.01  -0.01  -0.03    -0.01   0.00   0.00
    20   1    -0.06   0.04   0.29     0.00   0.02   0.03    -0.02  -0.01  -0.01
    21   1     0.01  -0.03  -0.38     0.01   0.02  -0.04    -0.01   0.01   0.00
    22   1    -0.07   0.00  -0.00    -0.00   0.02   0.00     0.01   0.00   0.00
    23   1    -0.11   0.05   0.23    -0.00   0.02   0.02     0.00  -0.01   0.00
    24   6     0.18  -0.07  -0.11     0.04   0.05   0.03     0.00  -0.00  -0.00
    25   1     0.02   0.01  -0.03     0.01  -0.03  -0.02    -0.00   0.00   0.01
    26   1     0.02  -0.04  -0.01    -0.55   0.12   0.07    -0.09   0.11   0.01
    27   1     0.00   0.01  -0.01    -0.13  -0.10   0.12     0.14  -0.09   0.02
    28   1    -0.00  -0.00  -0.01     0.14  -0.11   0.04     0.04   0.03  -0.01
[...]
 .00662287,-0.00444760,-0.00445784,-0.00086110,-0.00036981,-0.00039959,
 -0.00532696,0.00093690,0.00384879,-0.00088083,0.00126893,-0.00066986,0
 .08556451,-0.20840872,0.11556334,0.00181708,-0.00129651,0.00040875,-0.
 00048974,0.00058569,-0.00013750,0.00024975,-0.00032085,0.00008256,-0.0
 0051558,-0.00046113,-0.00005118,-0.00085479,0.00102370,-0.00015873,-0.
 00166161,-0.00269931,-0.00040526,0.00067486,-0.00034923,-0.00017393,-0
 .00033430,-0.00017955,0.00017370,0.00000573,-0.00011279,-0.00004874,-0
 .00000131,-0.00003943,0.00011576,0.00000211,0.00081070,0.00021962,0.00
 275132,0.00366644,-0.00279025,0.00001614,0.00008334,-0.00000239,0.0000
 1933,0.00010033,0.00000038,-0.00025425,0.00005837,-0.00003915,0.000036
 24,-0.00037273,-0.00018260,0.00010058,0.00011034,0.00002631,-0.0001442
 7,-0.00005387,0.00000855,-0.00009960,0.00009724,-0.00002795,0.00054123
 ,-0.00172015,-0.00000852,0.00005740,0.00017531,0.00000533,-0.00008611,
 -0.00009775,-0.00001844,-0.00003630,-0.00000676,-0.00002104,0.00007272
 ,-0.00014799,0.00025369,-0.00050508,-0.00182154,-0.00049884,0.00011813
 ,-0.00016974,0.00062738,-0.00643735,-0.00418236,0.00507316,0.00583656,
 0.00864383,0.00157836,-0.00032685,-0.00705135,-0.00002246,-0.00073743,
 -0.00400186,0.00134922,-0.40794025,0.06157979,-0.07697704,0.40546669,0
 .00068603,-0.00100887,0.00019556,-0.00045740,0.00061464,-0.00005401,0.
 00018278,0.00020016,-0.00000521,0.00008153,0.00026297,0.00000075,0.000
 48253,-0.00031254,0.00007441,-0.00008674,0.00086654,-0.00007072,-0.000
 64685,0.00015038,0.00013967,0.00019558,0.00001699,-0.00016563,0.000023
 41,0.00009581,0.00003398,-0.00005178,0.00003994,-0.00011919,0.00010630
 ,-0.00043016,-0.00012838,-0.00094234,-0.00247971,0.00268607,-0.0000020
 7,-0.00004119,0.00001255,0.00001694,-0.00006335,-0.00000353,0.00017271
 ,-0.00004020,0.00001816,-0.00016385,0.00034276,0.00009283,-0.00005388,
 -0.00006249,-0.00001752,0.00008840,0.00001957,-0.00000195,0.00009909,-
 0.00003867,0.00000972,-0.00217870,-0.00210900,-0.00027901,-0.00005210,
 -0.00000012,-0.00000770,0.00003850,0.00004928,0.00001124,-0.00000884,0
 .00011025,0.00000384,-0.00004741,0.00002746,-0.00009373,0.00012159,0.0
 0094457,0.00027053,-0.00025739,-0.00000556,0.00004572,0.00084498,0.003
 29039,-0.00517620,0.00334718,-0.00297342,0.00168244,-0.00587126,-0.011
 27802,0.00043979,-0.00235333,0.00387532,-0.00236209,0.01271720,-0.0555
 7838,0.01990628,-0.04737809,0.07224827,0.00056589,-0.00037142,-0.00012
 774,-0.00016768,0.00019448,-0.00008068,0.00007627,-0.00006133,0.000072
 70,-0.00012696,-0.00010813,0.00001076,-0.00020971,0.00024869,0.0000100
 1,-0.00042664,-0.00066726,-0.00038038,0.00010724,-0.00007124,0.0000412
 3,-0.00010898,-0.00013671,0.00003049,0.00001441,0.00000563,-0.00000516
 ,0.00002942,-0.00002968,0.00005257,-0.00002532,0.00011206,-0.00000791,
 0.00036978,0.00248234,-0.00337068,-0.00000026,0.00001623,-0.00001358,0
 .00001668,0.00001974,-0.00000656,-0.00004743,0.00001558,-0.00000849,-0
 .00005685,0.00002742,-0.00000789,0.00000472,0.00000487,-0.00000435,-0.
 00001804,-0.00000723,-0.00000908,-0.00002053,0.00002462,-0.00002445,-0
 .00010025,-0.00050308,0.00101516,0.00001428,0.00004517,0.00000966,-0.0
 0002048,-0.00002366,-0.00000124,-0.00001254,0.00000534,0.00000284,0.00
 002246,-0.00005781,0.00005679,0.00001316,-0.00011421,-0.00001991,0.000
 79311,0.00021476,-0.00029306,0.00175052,-0.00393688,0.00557521,0.00229
 067,0.00157644,0.00066891,-0.00090365,0.00144616,-0.00721200,0.0018978
 1,-0.00269151,0.00027507,-0.06156879,0.02662996,-0.03465216,0.07023483
 ,-0.02544277,0.04143990,0.00003380,0.00022528,-0.00007292,0.00005767,-
 0.00012230,-0.00002460,-0.00006082,-0.00001192,0.00000813,0.00001084,-
 0.00002168,0.00000416,-0.00003128,0.00001063,0.00000394,0.00009570,-0.
 00023924,0.00001705,0.00011216,0.00000828,0.00004824,-0.00000711,0.000
 00086,-0.00006357,0.00002798,-0.00019258,-0.00000604,0.00011180,-0.000
 01692,0.00011433,-0.00011201,-0.00004045,-0.00008459,-0.00292111,-0.00
 069898,0.00281164,-0.00001678,0.00002690,-0.00003744,-0.00001813,0.000
 04478,-0.00000273,-0.00010708,0.00000619,0.00002810,0.00013707,-0.0000
 8182,0.00011333,-0.00002181,-0.00001048,0.00000119,-0.00000525,-0.0000
 2705,0.00001100,-0.00001217,-0.00000444,-0.00001783,-0.00030923,0.0003
 2942,0.00007274,0.00000674,-0.00000797,0.00000043,-0.00000563,-0.00000
 340,-0.00000297,0.00000207,-0.00002416,-0.00000320,-0.00002091,-0.0000
 0244,-0.00000559,0.00016697,0.00027492,0.00008261,-0.00021088,-0.00026
 909,0.00020224,0.00478764,-0.00169863,-0.00366273,0.00019266,0.0001698
 8,0.00016568,-0.00315346,-0.00125656,-0.00004649,-0.00071204,0.0007204
 5,-0.00048871,-0.05139887,0.01806010,-0.00920273,0.00266927,0.04133481
 ,-0.01438796,0.05070103,-0.00033054,0.00033120,-0.00012047,0.00009684,
 -0.00012415,0.00003438,-0.00004303,-0.00002571,-0.00000577,-0.00000044
 ,0.00001000,-0.00000271,0.00009019,-0.00003994,0.00003542,0.00014819,0
 .00007891,0.00002920,0.00011250,0.00000998,0.00003792,-0.00009800,-0.0
 0005364,-0.00002440,-0.00000186,-0.00002277,0.00000274,-0.00002216,0.0
 0000454,0.00002334,0.00004067,0.00011889,0.00001073,0.00146624,0.00130
 839,-0.00098818,-0.00000054,0.00002027,-0.00000755,0.00001368,0.000033
 35,-0.00000195,-0.00009085,0.00002043,0.00000446,0.00004564,-0.0001416
 0,0.00005816,0.00001257,0.00002046,-0.00000175,-0.00001920,-0.00000300
 ,-0.00001205,-0.00000826,0.00003142,-0.00002533,-0.00000048,-0.0002926
 5,0.00001346,-0.00000727,-0.00000995,-0.00000323,0.00000217,0.00000916
 ,0.00000090,0.00001376,-0.00001448,0.00000128,0.00000122,-0.00004069,0
 .00004801,-0.00005723,-0.00023238,-0.00008304,-0.00022160,0.00006630,0
 .00015501,-0.00178901,-0.00230685,0.00134504,-0.00016104,-0.00036592,-
 0.00003736,-0.00107445,0.00080869,-0.00050606,-0.00001157,0.00015502,0
 .00014327,0.06286953,-0.47516377,0.17955845,-0.00447404,-0.00672832,0.
 00112764,-0.05649604,0.48253914,-0.00025607,-0.00009658,0.00009032,0.0
 0013721,-0.00023786,0.00000348,-0.00008481,-0.00002510,-0.00002546,0.0
 0002457,-0.00002742,0.00000980,-0.00002257,-0.00001631,-0.00001233,0.0
 0014074,-0.00019333,-0.00002462,0.00012131,0.00002185,0.00010060,-0.00
 007830,-0.00002816,-0.00006971,-0.00001431,-0.00002998,-0.00003033,0.0
 0005045,0.00000713,0.00008056,-0.00010080,-0.00005340,-0.00011391,0.00
 202002,-0.00016229,-0.00151148,-0.00000778,0.00000547,-0.00002131,-0.0
 0001542,-0.00001253,-0.00000411,-0.00003929,0.00001371,0.00008134,0.00
 011708,-0.00005371,0.00019834,-0.00002781,-0.00005485,-0.00000369,0.00
 000447,0.00001157,-0.00001721,-0.00001718,0.00000702,-0.00002761,-0.00
 001528,0.00060112,-0.00018597,0.00000922,-0.00001346,0.00000786,-0.000
 00468,-0.00000517,0.00000614,0.00000459,-0.00003137,0.00000413,-0.0000
 0485,-0.00000912,-0.00000612,0.00015137,0.00024157,0.00008414,0.000117
 59,0.00043920,-0.00017629,-0.00308442,0.00260463,0.00081354,0.00004768
 ,0.00018148,-0.00004550,-0.00001106,-0.00054805,0.00002158,-0.00006831
 ,0.00014475,0.00027294,-0.02502945,0.16989958,-0.06835439,0.00148884,0
 .00821641,-0.00302062,0.02444133,-0.18081061,0.07188753,0.00025411,0.0
 0020866,0.00004785,0.00016581,-0.00004715,0.00016744,-0.00005694,-0.00
 021339,0.00001652,0.00010848,-0.00000947,0.00004204,0.00001770,-0.0000
 4942,0.00003716,-0.00014105,-0.00002736,-0.00007912,-0.00012971,0.0000
 1620,-0.00057462,0.00024276,0.00027793,-0.00011756,-0.00007659,-0.0001
 2299,0.00002806,0.00077180,-0.00021335,-0.00087474,-0.00083510,-0.0007
 2327,-0.00185049,0.00017304,0.00021325,-0.00058065,0.00002736,-0.00020
 760,0.00002112,0.00001067,-0.00001138,-0.00001304,0.00000139,-0.000012
 23,0.00003996,-0.00002357,0.00005103,-0.00005702,0.00004611,-0.0000335
 9,-0.00002956,0.00025970,0.00019842,0.00000463,-0.00001289,0.00018268,
 0.00017008,-0.00001553,0.00000907,0.00002195,-0.00000380,-0.00000071,-
 0.00000462,-0.00000830,-0.00000172,-0.00000247,-0.00001813,-0.00001519
 ,-0.00004616,-0.11675783,0.06358053,0.10404004,-0.00018471,0.00021247,
 0.00091353,-0.00009081,-0.00035964,0.00012295,-0.00022812,-0.00008911,
 0.00025355,0.00002637,0.00010921,0.00002641,0.00001981,-0.00007970,-0.
 00003282,0.00000277,0.00000085,0.00000858,0.00011526,0.00001159,-0.000
 13400,-0.00005330,0.00004052,0.00000696,0.00001120,-0.00000470,0.00000
 909,0.11889881,-0.00013732,-0.00004524,-0.00008591,0.00034366,0.000054
 22,0.00001766,-0.00004644,-0.00016573,-0.00010005,-0.00010598,0.000070
 40,-0.00003958,-0.00003559,0.00005799,-0.00000647,0.00007791,-0.000003
 28,0.00001395,0.00112364,-0.00366857,0.00140077,-0.00026642,0.00077549
 ,0.00141189,-0.00029482,0.00007381,-0.00015140,-0.00091774,0.00114801,
 0.00013397,-0.01372635,0.00983901,0.02405168,0.00024643,0.00011978,-0.
 00047498,0.00019706,-0.00025723,-0.00019281,0.00002559,-0.00000151,-0.
 00003875,0.00003634,-0.00002098,0.00000780,-0.00004635,0.00001787,-0.0
 0001787,0.00004825,-0.00036683,0.00031423,0.00011992,-0.00006188,-0.00
 009144,0.00016276,0.00031205,0.00033189,0.00000636,0.00002437,0.000027
 19,0.00000732,0.00000979,0.00000523,-0.00001418,-0.00000002,-0.0000060
 6,-0.00002396,0.00010771,0.00010076,0.06770596,-0.11322573,-0.10311235
 ,-0.00031185,0.00116143,0.00008575,-0.00013011,-0.00014811,0.00004806,
 -0.00011401,-0.00005835,0.00021784,-0.00000942,-0.00002118,0.00000667,
 0.00002141,0.00001550,-0.00000311,-0.00000426,-0.00000454,0.00000048,0
 .00006754,0.00003504,-0.00010868,-0.00002441,0.00000688,0.00000344,0.0
 0000917,-0.00000419,0.00000773,-0.06897001,0.11579292,0.00018606,0.000
 02972,0.00009547,-0.00049854,0.00000924,0.00014054,0.00000525,0.000018
 75,0.00012009,0.00011083,-0.00001522,0.00007830,0.00003375,-0.00007999
 ,-0.00003114,-0.00003034,0.00005049,0.00000581,-0.00182875,0.00470863,
 -0.00082373,0.00073334,-0.00078090,-0.00109245,0.00021980,0.00007574,-
 0.00005689,0.00116082,-0.00118606,0.00082263,0.01429266,-0.01084892,-0
 .02601312,-0.00014190,0.00010688,0.00031826,-0.00019564,-0.00011971,-0
 .00013597,-0.00004906,-0.00000632,0.00008115,-0.00006493,0.00000316,0.
 00002677,-0.00005490,0.00008303,-0.00007780,-0.00012969,0.00037569,-0.
 00027695,-0.00041219,0.00057037,-0.00014418,-0.00007909,0.00011379,0.0
 0025328,-0.00000917,-0.00002610,-0.00002010,-0.00000248,-0.00000446,-0
 .00000365,0.00001345,-0.00000159,-0.00000423,-0.00003698,-0.00000758,-
 0.00006109,0.09871927,-0.09261556,-0.19891767,0.00004456,-0.00089001,-
 0.00013253,0.00010402,0.00013995,0.00003590,0.00008579,0.00006749,-0.0
 0012054,-0.00000326,-0.00001286,-0.00000613,-0.00000939,0.00001249,0.0
 0000512,-0.00000049,0.00000037,-0.00000025,-0.00005252,-0.00000322,0.0
 0007441,0.00001727,-0.00001089,-0.00000008,0.00000200,-0.00000112,-0.0
 0000263,-0.11089696,0.09811461,0.22063481,0.00033577,0.00004413,0.0001
 5645,-0.00011919,-0.00049278,0.00110454,-0.00044711,0.00022426,0.00054
 640,0.00018489,0.00007955,0.00009259,-0.00009900,-0.00020622,-0.000054
 52,-0.00021280,0.00013681,-0.00010897,-0.00018515,0.00022650,0.0001857
 6,-0.00009400,0.00000478,-0.00008756,0.00021827,-0.00000917,0.00032759
 ,0.00045032,-0.00045102,0.00055707,0.00475230,-0.00104532,0.00151830,0
 .00000560,0.00001016,0.00015548,0.00028047,0.00015629,0.00018632,-0.00
 000610,-0.00002414,0.00003959,0.00002360,0.00001417,-0.00005566,0.0000
 0704,-0.00001191,0.00000744,0.00002313,-0.00001100,-0.00001693,0.00000
 621,-0.00009503,0.00007459,-0.00005980,0.00001382,-0.00000611,0.000006
 55,0.00001116,0.00000679,0.00000032,-0.00000552,-0.00000184,0.00000864
 ,0.00000507,-0.00000722,-0.00000207,-0.00008983,-0.00014559,-0.3022200
 9,0.05230823,-0.07527971,0.00019866,0.00016994,-0.00053712,-0.00000853
 ,0.00014826,-0.00003246,0.00005231,0.00002428,-0.00005027,-0.00001616,
 -0.00004371,0.00000393,-0.00000300,0.00003322,-0.00000244,-0.00000083,
 -0.00000136,0.00000269,-0.00002686,0.00000286,0.00002754,0.00001691,-0
 .00001155,-0.00000089,-0.00000225,-0.00000145,-0.00000141,-0.01085821,
 0.00057745,-0.00475539,0.31789093,0.00016506,0.00002290,-0.00001162,-0
 .00009172,0.00012058,-0.00011850,-0.00008806,0.00023170,-0.00013037,0.
 00017704,-0.00005553,0.00011202,0.00000202,-0.00006192,0.00003884,-0.0
 0024905,-0.00004078,-0.00012103,0.00027287,0.00034796,-0.00087061,0.00
 016342,-0.00012613,-0.00018472,0.00127922,0.00018686,0.00037835,-0.002
 80387,-0.00157863,0.00285449,0.02348614,-0.00830562,0.00881228,-0.0001
 7867,0.00023211,-0.00043581,0.00029942,0.00021852,0.00011411,-0.000096
 89,-0.00022095,0.00035247,0.00003833,-0.00002918,0.00003749,-0.0000258
 6,0.00001630,0.00002759,-0.00003994,0.00003239,-0.00000409,-0.00011604
 ,0.00017238,-0.00012252,-0.00017104,-0.00001707,0.00016270,-0.00001087
 ,-0.00004160,0.00004601,-0.00000525,-0.00001274,-0.00000268,0.00001781
 ,-0.00000847,-0.00001646,-0.00006162,-0.00011858,-0.00014641,0.0447043
 4,-0.05937443,0.01388216,0.00114885,0.00053489,0.00014269,0.00006431,-
 0.00029974,0.00004157,-0.00015033,-0.00008116,0.00017369,0.00000157,0.
 00006349,0.00003960,0.00002056,-0.00003203,-0.00004721,0.00000095,-0.0
 0000104,0.00000592,0.00004531,0.00002829,-0.00012035,-0.00001896,0.000
 00593,0.00001872,0.00001655,-0.00000163,0.00001338,0.01299887,-0.00235
 471,0.00455715,-0.05592703,0.06265863,0.00042006,0.00036941,0.00009038
 ,0.00005482,0.00015518,-0.00064930,0.00050202,-0.00038088,-0.00019478,
 0.00004760,-0.00015285,0.00003766,0.00003662,0.00000161,-0.00000592,-0
 .00024886,-0.00009634,-0.00006548,-0.00144623,0.00007806,0.00098872,-0
 .00021400,0.00017606,0.00016273,-0.00131199,0.00050874,-0.00026761,0.0
 0311355,0.00204770,-0.00304522,-0.02927366,0.00810206,-0.01223253,0.00
 020103,0.00023146,-0.00004203,0.00026411,-0.00006467,-0.00006630,0.000
 08129,0.00020047,-0.00029939,0.00002879,0.00004588,-0.00022480,0.00004
 721,-0.00000253,-0.00002108,0.00003179,-0.00004093,0.00001020,-0.00026
 584,0.00034858,-0.00006654,0.00002855,-0.00010888,-0.00018157,-0.00003
 795,-0.00000128,0.00000227,-0.00002194,-0.00000863,0.00000076,-0.00001
 162,0.00000795,0.00001491,-0.00002535,-0.00008667,-0.00008461,-0.06482
 307,0.01382433,-0.06815404,-0.00035261,-0.00083725,0.00053060,0.000027
 53,-0.00002378,0.00004270,-0.00014405,-0.00000220,0.00012130,0.0000754
 2,0.00024302,0.00004008,-0.00000447,-0.00019119,-0.00003601,0.00001671
 ,0.00001164,0.00000894,0.00012778,-0.00006859,-0.00003714,-0.00007676,
 0.00008070,-0.00000504,-0.00001655,0.00000011,-0.00000650,0.02223990,-
 0.00385874,0.00904009,0.07789441,-0.02214441,0.07652999,-0.00009122,-0
 .00008243,0.00001567,-0.00007523,0.00015595,0.00011123,-0.00003843,-0.
 00039996,-0.00010394,-0.00003289,0.00010021,-0.00006835,0.00000592,0.0
 0003035,-0.00000310,0.00019574,0.00007818,0.00003974,-0.00018006,-0.00
 082711,-0.00066445,0.00013781,0.00017845,0.00018283,-0.00002114,0.0000
 1605,-0.00008486,0.00123911,0.00171793,0.00018685,-0.00115374,0.000054
 37,0.00052359,0.00000081,-0.00019436,0.00002487,0.00005538,-0.00007148
 ,-0.00025493,-0.00000831,-0.00002988,0.00000426,-0.00004807,-0.0000126
 8,0.00001514,-0.00007969,0.00009877,-0.00005176,-0.00000780,-0.0000200
 8,0.00003549,-0.00004251,0.00001616,-0.00004331,0.00003611,0.00007800,
 0.00056020,0.00001005,0.00002707,-0.00000371,0.00001318,0.00001626,0.0
 0000559,-0.00001329,-0.00000298,0.00000278,-0.00001298,0.00019138,0.00
 019207,-0.11195106,-0.11174145,-0.03495374,0.00055216,0.00087651,0.000
 13012,-0.00007681,0.00002639,0.00001872,0.00004858,0.00001571,-0.00008
 277,-0.00001161,-0.00007212,-0.00002239,-0.00000981,0.00005023,0.00001
 843,-0.00000307,-0.00000089,-0.00000220,-0.00004134,0.00000801,0.00003
 915,0.00002610,-0.00001648,-0.00000526,0.00000222,0.00000055,-0.000001
 74,0.00834141,0.01440246,0.00352282,-0.01010076,-0.02486746,-0.0069642
 5,0.11333522,0.00008474,-0.00006230,0.00003312,-0.00004540,-0.00002184
 ,0.00004500,-0.00006778,-0.00005323,0.00000921,-0.00000502,0.00002030,
 0.00002071,-0.00000973,-0.00001317,-0.00000064,-0.00003500,0.00005182,
 -0.00000809,0.00066537,0.00048435,-0.00162765,0.00021016,0.00039539,-0
 .00000272,0.00023178,0.00042495,0.00003214,-0.00177176,0.00013007,-0.0
 0125244,-0.01087806,-0.02325275,-0.00197485,-0.00028053,-0.00070009,-0
 .00047989,0.00104339,0.00002776,0.00054113,-0.00001191,-0.00002079,0.0
 0008432,0.00005444,0.00008789,-0.00015926,-0.00001492,0.00010645,-0.00
 014363,0.00003775,-0.00004092,0.00004756,0.00008236,0.00004983,0.00002
 867,-0.00023025,0.00058660,0.00072486,0.00001968,0.00001811,-0.0000206
 3,0.00000008,0.00000245,-0.00000296,0.00000707,0.00000289,-0.00000400,
 0.00001223,0.00003539,-0.00003104,-0.10803052,-0.24039467,-0.05962467,
 0.00138057,0.00085593,0.00404615,-0.00000552,-0.00013825,0.00007040,0.
 00010975,0.00008361,-0.00019251,0.00000074,-0.00001864,-0.00000017,-0.
 00002386,0.00001996,-0.00000123,-0.00000006,0.00000276,-0.00000179,-0.
 00008022,-0.00003551,0.00010072,0.00004532,-0.00001810,0.00000365,-0.0
 0001205,0.00000550,-0.00000732,-0.00691929,-0.00921419,-0.00242705,0.0
 0423609,0.00788900,0.00163685,0.12020038,0.26270345,-0.00000679,0.0001
 4196,0.00002329,-0.00011071,-0.00028348,-0.00016433,0.00000344,0.00000
 165,0.00005275,0.00000921,-0.00002510,0.00000102,0.00002369,-0.0000249
 1,-0.00000864,-0.00005205,-0.00004183,0.00001255,0.00032668,0.00220490
 ,0.00233249,-0.00015159,-0.00015226,-0.00004346,0.00000602,-0.00019018
 ,0.00012519,0.00223398,0.00006950,0.00107753,0.01575442,0.03210210,0.0
 0239079,0.00022457,0.00062687,0.00090529,-0.00049958,-0.00036614,0.000
 09034,0.00001164,-0.00001364,-0.00000598,0.00002992,-0.00005849,0.0000
 3826,-0.00003698,-0.00010777,0.00006420,-0.00004196,-0.00003801,-0.000
 02343,-0.00024749,-0.00005895,-0.00010731,-0.00022302,-0.00056438,-0.0
 0046008,-0.00002798,-0.00001139,0.00000301,-0.00000280,-0.00000536,-0.
 00000400,-0.00000410,-0.00000124,0.00000721,0.00005601,-0.00002963,-0.
 00000825,-0.03946178,-0.06997033,-0.07038667,-0.00099537,0.00117142,-0
 .00526581,0.00012960,0.00041152,-0.00011092,0.00001602,0.00000940,0.00
 000242,0.00001194,0.00003871,-0.00000805,0.00000116,-0.00003777,0.0000
 1234,0.00000525,0.00000432,-0.00000141,0.00002918,-0.00001162,0.000003
 21,-0.00002291,0.00001788,-0.00001024,-0.00000149,0.00000206,-0.000002
 51,-0.01292399,-0.01801341,-0.00381149,-0.00174338,-0.00733443,-0.0019
 3543,0.03768123,0.06053802,0.07521611\\-0.00000078,0.00000135,0.000000
 40,0.00000057,0.00000042,-0.00000090,0.00000034,-0.00000055,0.00000062
 ,0.00000024,0.00000018,0.00000096,0.00000080,-0.00000054,0.00000135,-0
 .00000271,-0.00000890,0.00000248,0.00000254,0.00000086,-0.00000012,-0.
 00000030,-0.00000080,-0.00000185,-0.00000004,-0.00000002,-0.00000215,0
 .00000079,0.00000195,-0.00000168,-0.00000260,-0.00000275,0.00000261,-0
 .00000131,0.00000060,-0.00000084,0.00000091,-0.00000109,-0.00000135,0.
 00000005,-0.00000172,-0.00000133,0.00000069,-0.00000068,-0.00000042,-0
 .00000025,0.00000013,0.00000004,-0.00000006,-0.00000118,-0.00000008,0.
 00000006,0.00000085,-0.00000239,0.00000069,-0.00000053,0.00000016,0.00
 000018,-0.00000153,0.00000036,0.00000020,0.00000079,0.00000170,0.00000
 055,0.00000077,0.00000137,0.00000094,0.00000050,0.00000079,0.00000027,
 -0.00000085,-0.00000065,0.00000116,-0.00000010,0.,-0.00000133,-0.00000
 010,-0.00000029,-0.00000026,0.00000028,0.00000054,-0.00000229,-0.00000
 308,-0.00000284,0.00000330,0.00001048,0.00000327,-0.00000063,0.0000038
 3,0.00000130,-0.00000212,0.00000065,-0.00000032,0.00000173,0.00000069,
 0.00000029,0.00000013,0.00000019,-0.00000026,-0.00000095,0.00000037,-0
 .00000024,-0.00000002,-0.00000020,-0.00000030,-0.00000047,-0.00000027,
 -0.00000023\\\@


 KNIGHT- SIRE, I'VE JUST RETURNED FROM THE FRONT
 KING-   HOW GOES THE BATTLE                    
 KNIGHT- THE SITUATION IS QUITE FLUID           
 KING-   WHAT DOES *THAT* MEAN                  
 KNIGHT- WE'RE UP THE CREEK                     
                THE WIZARD OF ID                
 Job cpu time:       1 days  2 hours 55 minutes 20.9 seconds.
 Elapsed time:       0 days  0 hours 57 minutes 46.7 seconds.
 File lengths (MBytes):  RWF=   1056 Int=      0 D2E=      0 Chk=     24 Scr=      8
 Normal termination of Gaussian 16 at Thu Aug 27 11:17:53 2020.
